Membrane in water
40167
    1TCq1    O1    1   3.109   3.489  11.717 -0.0159  0.4624  0.1091
    1TCq1    C1    2   3.150   3.572  11.617  0.2980 -0.3297  0.0283
    1TCq1    O2    3   3.117   3.687  11.599  0.2723  0.0939  0.2255
    1TCq1    C2    4   3.281   3.512  11.569 -0.0093  0.4747 -0.2381
    1TCq1    C3    5   3.383   3.597  11.546  0.0861  0.0901  0.5763
    1TCq1    C4    6   3.498   3.550  11.496 -0.4090  0.0577 -0.0455
    1TCq1    C5    7   3.518   3.417  11.471 -0.5720  0.1498  0.5314
    1TCq1    C6    8   3.410   3.331  11.487  0.1456 -0.4850  0.0678
    1TCq1    C7    9   3.291   3.385  11.539  0.6310 -0.3367  0.1868
    1TCq1    C8   10   3.411   3.191  11.454  0.1388 -0.3549 -0.2237
    1TCq1    O4   11   3.308   3.129  11.470 -0.3605  0.3902 -0.5326
    1TCq1    C9   12   3.605   3.640  11.474  0.0835 -0.2846  0.5783
    1TCq1    O5   13   3.600   3.757  11.521  0.1256 -0.5143 -0.3137
    1TCq1    O6   14   3.692   3.598  11.390 -0.4089 -0.0962 -0.7076
    1TCq1    H1   15   3.156   3.406  11.738  0.2679  0.2074 -1.5561
    1TCq1    H2   16   3.372   3.702  11.569  0.7916  0.1140  0.8080
    1TCq1    H3   17   3.616   3.386  11.435  0.7983  2.9100  1.9026
    1TCq1    H4   18   3.206   3.324  11.564 -0.3039  0.1135 -1.8921
    2MPD2     C   19   3.585   2.750  11.282 -0.1401  0.3109  0.2902
    2MPD2    C1   20   3.484   2.776  11.368 -0.2691 -0.2396 -0.3741
    2MPD2    C2   21   3.475   2.907  11.412 -0.7559 -0.3246 -0.1921
    2MPD2    C3   22   3.552   3.014  11.365 -0.4974 -0.5776 -0.0789
    2MPD2    C4   23   3.653   2.987  11.277  0.8553 -0.2211 -0.7213
    2MPD2    C5   24   3.666   2.853  11.235 -0.0113 -0.5975 -0.5975
    2MPD2     H   25   3.400   2.924  11.488 -0.9331  0.4207 -0.5392
    2MPD2    H1   26   3.727   3.055  11.235  0.6605  0.6286  0.3087
    2MPD2    H2   27   3.602   2.646  11.254  1.0093  0.6422 -0.2651
    2MPD2    H3   28   3.740   2.819  11.163  2.0751 -0.2807  1.3890
    2MPD2     N   29   3.527   3.147  11.403  0.1384 -0.1483  0.2285
    2MPD2    H5   30   3.603   3.212  11.383 -2.1945  2.8533  1.0974
    2MPD2    N1   31   3.400   2.681  11.429  0.1802  0.4911 -0.3491
    2MPD2    H7   32   3.329   2.720  11.490  0.8127 -0.2194  0.8272
    3TCq1    O1   33   2.434   4.156  11.018  0.4565  0.0121 -0.4898
    3TCq1    C1   34   2.333   4.233  11.007  0.3075 -0.3768  0.3497
    3TCq1    O2   35   2.339   4.345  11.065  0.0064  0.3710  0.0866
    3TCq1    C2   36   2.222   4.141  11.016  0.0578 -0.6141  0.2162
    3TCq1    C3   37   2.211   4.029  10.938  0.6331  0.3471  0.6931
    3TCq1    C4   38   2.101   3.951  10.958 -0.0790 -0.1810  0.0959
    3TCq1    C5   39   2.002   3.981  11.048  0.6812 -0.5097 -0.6390
    3TCq1    C6   40   2.003   4.101  11.112  0.0672  0.3262  0.4852
    3TCq1    C7   41   2.114   4.179  11.099 -0.0040  0.1714 -0.5755
    3TCq1    C8   42   1.876   4.164  11.131 -0.0624 -0.4226  0.0029
    3TCq1    O4   43   1.781   4.091  11.164  0.3327 -0.8050 -0.8704
    3TCq1    C9   44   2.084   3.837  10.867 -0.0260  0.1467 -0.4647
    3TCq1    O5   45   1.973   3.769  10.864  0.6839  0.2459  0.1711
    3TCq1    O6   46   2.182   3.802  10.800 -0.3618  0.1410 -0.4605
    3TCq1    H1   47   2.418   4.063  10.994 -0.4976 -0.0822  0.5281
    3TCq1    H2   48   2.287   4.009  10.864  1.9244  1.0403  1.8237
    3TCq1    H3   49   1.908   3.927  11.059  0.1867  0.3447 -0.6482
    3TCq1    H4   50   2.127   4.264  11.164  0.6467  0.1761 -0.7132
    4MPD2     C   51   1.539   4.547  11.037 -0.4959  0.5464  0.3723
    4MPD2    C1   52   1.658   4.601  11.065 -0.0335  0.2352  0.2939
    4MPD2    C2   53   1.771   4.516  11.072 -0.6706  0.5793  0.4792
    4MPD2    C3   54   1.759   4.375  11.072  0.7074 -0.8324  0.4814
    4MPD2    C4   55   1.631   4.323  11.058  0.4466 -0.2376 -0.4606
    4MPD2    C5   56   1.528   4.409  11.034 -0.2665 -0.4383  0.2134
    4MPD2     H   57   1.868   4.563  11.086  0.4996 -1.3793 -1.1505
    4MPD2    H1   58   1.612   4.217  11.042 -1.0170 -0.0335 -0.0816
    4MPD2    H2   59   1.444   4.599  11.044  0.1697  1.9601 -1.3744
    4MPD2    H3   60   1.432   4.359  11.035 -1.7790  2.5258  0.7318
    4MPD2     N   61   1.870   4.300  11.096  0.4705  0.2102 -0.9012
    4MPD2    H5   62   1.962   4.344  11.094  0.8190 -0.5486 -1.6895
    4MPD2    N1   63   1.674   0.013  11.080  0.2964  0.5934 -0.1924
    4MPD2    H7   64   1.770   0.041  11.096 -0.2711  3.3224 -1.5624
    5TCq1    O1   65   2.764   1.422  12.426 -0.1201 -0.7798  0.1815
    5TCq1    C1   66   2.837   1.360  12.331 -0.4208 -0.3285  0.7721
    5TCq1    O2   67   2.870   1.409  12.223 -0.0850 -0.0334 -0.0861
    5TCq1    C2   68   2.814   1.218  12.341 -0.6143 -0.7571  0.7333
    5TCq1    C3   69   2.719   1.175  12.429  0.0251  0.4460 -0.0239
    5TCq1    C4   70   2.664   1.046  12.418 -0.0895  1.0777  0.4827
    5TCq1    C5   71   2.714   0.965  12.319  0.0969  0.7430  1.5901
    5TCq1    C6   72   2.800   1.014  12.229  0.2587  0.2053  0.3762
    5TCq1    C7   73   2.857   1.139  12.236  1.0704  0.0895 -0.6247
    5TCq1    C8   74   2.846   0.920  12.120 -0.8520 -0.2079  0.5477
    5TCq1    O4   75   2.798   0.805  12.113 -0.0004  0.0181 -0.8323
    5TCq1    C9   76   2.554   1.003  12.509 -0.0652 -0.3047  0.4870
    5TCq1    O5   77   2.519   0.883  12.506 -0.2908 -0.5754  0.1209
    5TCq1    O6   78   2.535   1.083  12.610  0.0239  0.1884  0.1719
    5TCq1    H1   79   2.769   1.397  12.521 -0.0296  1.3065  0.7402
    5TCq1    H2   80   2.692   1.232  12.518 -1.4497 -0.0106 -0.1685
    5TCq1    H3   81   2.665   0.870  12.299  2.0041  0.2714 -0.8894
    5TCq1    H4   82   2.929   1.178  12.165 -1.6657  2.1779 -2.2316
    6MPD2     C   83   3.051   1.032  11.834 -0.4398 -0.0719  1.5624
    6MPD2    C1   84   2.972   0.943  11.906  0.5014  0.0821 -0.0921
    6MPD2    C2   85   2.967   0.817  11.848  0.4314 -0.2222  0.6920
    6MPD2    C3   86   3.024   0.787  11.724  0.5307  0.3946  0.3030
    6MPD2    C4   87   3.083   0.881  11.652 -0.1008 -0.3558 -0.0883
    6MPD2    C5   88   3.100   1.007  11.707 -0.0236 -0.1742 -0.5591
    6MPD2     H   89   2.919   0.741  11.909  0.0737 -0.6720 -0.1483
    6MPD2    H1   90   3.130   0.863  11.556  1.3326 -1.7082  0.8722
    6MPD2    H2   91   3.060   1.130  11.879 -0.5345  1.0350 -0.8014
    6MPD2    H3   92   3.143   1.089  11.652  1.3998 -0.5426  0.0061
    6MPD2     N   93   3.002   0.657  11.673  0.6091  0.1301  0.4623
    6MPD2    H5   94   2.946   0.597  11.733 -0.7721  3.4272  2.4739
    6MPD2    N1   95   2.922   0.987  12.029  0.0244 -0.1337 -0.7555
    6MPD2    H7   96   2.943   1.084  12.048 -1.4378  0.0760 -0.1960
    7TCq1    O1   97   0.290   0.678  12.742  0.5659 -0.9989 -0.1965
    7TCq1    C1   98   0.278   0.661  12.877  0.4986 -0.6619  0.7186
    7TCq1    O2   99   0.200   0.717  12.951 -0.5261 -0.1364  0.9665
    7TCq1    C2  100   0.369   0.549  12.915  0.4283  0.2885  0.1573
    7TCq1    C3  101   0.428   0.469  12.818  0.1184 -0.5701 -0.0927
    7TCq1    C4  102   0.475   0.346  12.854 -0.2685  0.8404 -0.1622
    7TCq1    C5  103   0.449   0.295  12.975  0.1310 -0.1033 -0.1659
    7TCq1    C6  104   0.391   0.375  13.073  0.6432  0.3187  0.3486
    7TCq1    C7  105   0.349   0.503  13.040  0.3340 -0.6893 -0.0038
    7TCq1    C8  106   0.361   0.316  13.202 -0.2209 -0.0191  0.1018
    7TCq1    O4  107   0.371   0.198  13.210 -0.4770  0.4926  0.2492
    7TCq1    C9  108   0.548   0.265  12.759  0.4638  0.9691 -0.7790
    7TCq1    O5  109   0.610   0.164  12.806 -0.4165  0.3139  0.3683
    7TCq1    O6  110   0.543   0.300  12.636  0.1472 -0.1316  0.1632
    7TCq1    H1  111   0.383   0.656  12.721  1.4135  3.3936 -1.0258
    7TCq1    H2  112   0.435   0.493  12.712 -0.0490 -1.4557 -0.3033
    7TCq1    H3  113   0.488   0.200  13.008  0.0826 -0.5569 -1.4181
    7TCq1    H4  114   0.273   0.551  13.101  2.1325 -1.6586  2.9918
    8MPD2     C  115   0.183   0.372  13.686  0.3950 -0.4127 -0.4124
    8MPD2    C1  116   0.223   0.262  13.616  0.2369  0.0676  0.1917
    8MPD2    C2  117   0.270   0.272  13.487  0.2865  0.0365 -1.2119
    8MPD2    C3  118   0.269   0.393  13.426  0.5932 -0.2338 -0.2655
    8MPD2    C4  119   0.245   0.504  13.503  0.0185 -0.3192 -0.0899
    8MPD2    C5  120   0.200   0.494  13.629  0.1314 -0.0155  0.2515
    8MPD2     H  121   0.291   0.179  13.434 -0.3855 -1.1776  0.6473
    8MPD2    H1  122   0.261   0.601  13.458  0.0421 -0.4374 -0.3383
    8MPD2    H2  123   0.152   0.347  13.787 -1.5156  0.0823 -0.8934
    8MPD2    H3  124   0.194   0.585  13.686  0.1566  1.9111 -2.8061
    8MPD2     N  125   0.316   0.414  13.290 -0.2230  0.5124 -0.3063
    8MPD2    H5  126   0.323   0.510  13.258 -0.4433  1.3066  2.0522
    8MPD2    N1  127   0.204   0.133  13.682 -0.4459 -0.9000 -0.0565
    8MPD2    H7  128   0.166   0.136  13.776 -2.8175 -1.2118 -1.0102
    9TCq1    O1  129   2.305   3.701  11.447  0.3821 -0.1643 -0.0784
    9TCq1    C1  130   2.305   3.712  11.309  0.1611 -0.2441  0.2241
    9TCq1    O2  131   2.212   3.711  11.234  0.1931  0.3394  0.3807
    9TCq1    C2  132   2.440   3.728  11.258  0.2496  0.6817  0.2262
    9TCq1    C3  133   2.443   3.792  11.136 -0.1138  1.2471  0.5441
    9TCq1    C4  134   2.573   3.794  11.088  0.1999  0.5535 -0.2651
    9TCq1    C5  135   2.687   3.746  11.151 -0.0438  0.2824  0.6436
    9TCq1    C6  136   2.673   3.679  11.267  0.3642  0.1235  0.1005
    9TCq1    C7  137   2.548   3.670  11.323  0.0137 -0.3047  0.5034
    9TCq1    C8  138   2.784   3.589  11.306 -0.1872  0.8256  0.0116
    9TCq1    O4  139   2.875   3.554  11.229  0.2902  0.7937  0.2860
    9TCq1    C9  140   2.590   3.861  10.956 -0.5021 -0.6509  0.3000
    9TCq1    O5  141   2.704   3.876  10.905 -0.0955  0.2925  0.5497
    9TCq1    O6  142   2.483   3.915  10.919  0.1717  0.2306  0.0945
    9TCq1    H1  143   2.385   3.740  11.489  1.0206 -0.8594 -0.6238
    9TCq1    H2  144   2.355   3.827  11.082 -0.2841 -0.8572 -0.5549
    9TCq1    H3  145   2.785   3.754  11.104  0.0774 -0.7879  0.6999
    9TCq1    H4  146   2.532   3.602  11.406 -0.5678  0.5060  1.0464
   10MPD2     C  147   2.916   3.344  11.420 -0.2304  0.1694 -0.1349
   10MPD2    C1  148   2.827   3.422  11.486 -0.0486  0.5171 -0.2662
   10MPD2    C2  149   2.809   3.392  11.622  0.0127 -0.1340  0.4620
   10MPD2    C3  150   2.874   3.293  11.684  0.3655  0.5766 -0.1421
   10MPD2    C4  151   2.961   3.207  11.616  0.0177 -0.2429  0.0304
   10MPD2    C5  152   2.979   3.233  11.482 -0.0801 -0.1508  0.2325
   10MPD2     H  153   2.734   3.445  11.679  0.5367  1.6808 -0.5228
   10MPD2    H1  154   3.010   3.126  11.669  0.3449  0.1897  0.3895
   10MPD2    H2  155   2.934   3.353  11.314 -0.4637  0.3534 -0.1583
   10MPD2    H3  156   3.042   3.168  11.423  1.3288  2.3987 -1.0814
   10MPD2     N  157   2.858   3.261  11.822 -0.2164 -0.2739  0.2288
   10MPD2    H5  158   2.896   3.173  11.853  2.2328  0.8776  0.4856
   10MPD2    N1  159   2.767   3.538  11.431  0.4520 -0.2822  0.1346
   10MPD2    H7  160   2.718   3.595  11.500  0.4632  0.1307 -0.1983
   11TCq1    O1  161   3.352   3.897  14.440 -0.2079 -0.4666  0.4337
   11TCq1    C1  162   3.356   3.824  14.556  0.0781  0.2479  0.7356
   11TCq1    O2  163   3.273   3.829  14.648 -0.0596  0.0059  0.2262
   11TCq1    C2  164   3.439   3.700  14.533 -0.5517  0.1963  0.4287
   11TCq1    C3  165   3.553   3.712  14.454 -0.7077 -0.0421  0.2632
   11TCq1    C4  166   3.624   3.590  14.446  0.3827  0.5022 -0.6109
   11TCq1    C5  167   3.578   3.468  14.496  0.5702 -0.2756 -1.0102
   11TCq1    C6  168   3.459   3.465  14.565  0.0848 -0.2985  0.9435
   11TCq1    C7  169   3.398   3.586  14.598  0.1929 -0.7642  0.3229
   11TCq1    C8  170   3.448   3.360  14.662 -0.0876 -0.2671 -0.1435
   11TCq1    O4  171   3.428   3.387  14.776  0.4400  0.8173  0.1729
   11TCq1    C9  172   3.747   3.591  14.376  0.2457  0.1452 -0.2818
   11TCq1    O5  173   3.792   3.701  14.337  0.1064 -0.2462 -0.2334
   11TCq1    O6  174   3.823   3.494  14.401 -0.0237  0.1113 -0.0376
   11TCq1    H1  175   3.417   3.884  14.367  0.7564  0.1571  1.1903
   11TCq1    H2  176   3.591   3.809  14.425 -2.4875  0.1744 -1.3432
   11TCq1    H3  177   3.638   3.378  14.483  1.2205  0.2553 -1.6857
   11TCq1    H4  178   3.313   3.587  14.666  0.4347  0.0605  0.6217
   12MPD2     C  179   3.367   3.110  14.796 -0.2477 -0.7151  0.1382
   12MPD2    C1  180   3.378   3.122  14.661 -0.4191 -0.1563  0.1776
   12MPD2    C2  181   3.351   3.016  14.569  0.7159  0.2509 -0.0064
   12MPD2    C3  182   3.307   2.899  14.623  0.1714  0.8928  0.3825
   12MPD2    C4  183   3.277   2.900  14.755  0.1691 -0.3447 -0.3589
   12MPD2    C5  184   3.308   3.001  14.842  0.1466  0.4233 -0.3901
   12MPD2     H  185   3.375   3.019  14.463 -0.3332  2.6026 -0.1866
   12MPD2    H1  186   3.219   2.821  14.799  0.7924 -0.5908  0.0274
   12MPD2    H2  187   3.396   3.189  14.865 -1.0522 -2.1851  2.1819
   12MPD2    H3  188   3.290   2.981  14.947 -0.4452  1.0811 -0.3710
   12MPD2     N  189   3.274   2.787  14.537 -0.8941  0.5963 -0.3403
   12MPD2    H5  190   3.296   2.803  14.439  1.7696  1.9266  0.5045
   12MPD2    N1  191   3.433   3.239  14.601 -0.1295 -0.4322 -0.3874
   12MPD2    H7  192   3.445   3.242  14.500  0.0400  1.0813 -0.3230
   13TCq1    O1  193   2.977   3.426  10.909 -0.3912  0.2550 -0.2220
   13TCq1    C1  194   2.910   3.356  11.009  0.3972  0.2501  0.3707
   13TCq1    O2  195   2.960   3.271  11.081  0.1214  0.1316 -0.1885
   13TCq1    C2  196   2.764   3.382  10.997  0.7770 -0.3562  0.2997
   13TCq1    C3  197   2.714   3.417  10.878 -0.4012  0.0777 -0.4115
   13TCq1    C4  198   2.584   3.452  10.880  0.3310  0.8136 -0.4037
   13TCq1    C5  199   2.504   3.428  10.984 -0.2700  0.8700 -0.0994
   13TCq1    C6  200   2.560   3.367  11.097  0.5737  0.7494  0.0755
   13TCq1    C7  201   2.690   3.343  11.109  0.0016  0.0127  0.4026
   13TCq1    C8  202   2.475   3.359  11.218  0.2847  0.3249  0.6735
   13TCq1    O4  203   2.368   3.413  11.218  0.1245 -0.1330 -0.1668
   13TCq1    C9  204   2.519   3.515  10.766  0.0584 -0.0753 -0.0557
   13TCq1    O5  205   2.416   3.573  10.795 -0.8705 -0.3896  0.4366
   13TCq1    O6  206   2.586   3.535  10.661  0.2447  0.3729 -0.5929
   13TCq1    H1  207   2.937   3.507  10.870 -0.1722  0.8751  0.8467
   13TCq1    H2  208   2.769   3.426  10.785  0.4843 -1.8797 -0.0760
   13TCq1    H3  209   2.397   3.444  10.975 -0.5729 -0.8145  0.3501
   13TCq1    H4  210   2.745   3.314  11.198  0.4634 -0.0835  0.0849
   14MPD2     C  211   2.563   3.191  11.532 -0.4331  0.5542  0.1404
   14MPD2    C1  212   2.493   3.271  11.450  0.2605  0.4515 -0.0493
   14MPD2    C2  213   2.383   3.338  11.503  0.4085 -0.4625  0.3441
   14MPD2    C3  214   2.344   3.320  11.638 -0.1141 -0.0514 -0.6353
   14MPD2    C4  215   2.421   3.236  11.719 -0.4194  0.2393 -0.6886
   14MPD2    C5  216   2.532   3.178  11.667 -0.3073  0.3060 -0.3181
   14MPD2     H  217   2.327   3.407  11.441  2.3364  0.6155 -0.2040
   14MPD2    H1  218   2.391   3.203  11.818  1.2135  0.6607 -0.0491
   14MPD2    H2  219   2.659   3.153  11.499 -0.8359 -2.2990  2.2976
   14MPD2    H3  220   2.591   3.106  11.722 -5.3744 -2.8642  0.9030
   14MPD2     N  221   2.232   3.398  11.690  0.2339  0.0385  0.3192
   14MPD2    H5  222   2.192   3.466  11.627  2.4964  0.2103 -0.9455
   14MPD2    N1  223   2.536   3.278  11.310  1.0444  0.1871 -0.1662
   14MPD2    H7  224   2.616   3.230  11.269 -0.4720 -1.6870 -0.9781
   15TCq1    O1  225   0.357   3.130   2.721  0.0011 -0.0758 -0.1353
   15TCq1    C1  226   0.254   3.218   2.714  0.0823  0.0678  0.1312
   15TCq1    O2  227   0.248   3.328   2.766 -1.0091  0.3970 -0.2121
   15TCq1    C2  228   0.142   3.132   2.700 -0.1553  0.5223  0.2147
   15TCq1    C3  229   0.035   3.139   2.783 -0.6668 -0.1498 -0.2449
   15TCq1    C4  230   4.647   3.083   2.747 -0.1777  0.2897 -0.3155
   15TCq1    C5  231   4.643   3.009   2.632 -0.3786  0.5234  0.2538
   15TCq1    C6  232   0.027   2.987   2.559  0.1349 -1.1188  0.9784
   15TCq1    C7  233   0.149   3.056   2.585 -0.2825  0.3541 -0.1396
   15TCq1    C8  234   0.019   2.932   2.426 -0.2499 -0.2418 -1.4772
   15TCq1    O4  235   0.119   2.895   2.361  0.7673 -0.1020 -0.2484
   15TCq1    C9  236   4.536   3.084   2.835  1.1642 -0.3719 -0.9549
   15TCq1    O5  237   4.422   3.048   2.787 -0.0073  0.4540 -0.3993
   15TCq1    O6  238   4.548   3.145   2.946  0.0686 -0.2513  0.3010
   15TCq1    H1  239   0.314   3.044   2.702 -1.5661  0.9309 -1.1000
   15TCq1    H2  240   0.023   3.200   2.873  0.2765  2.1162 -1.6595
   15TCq1    H3  241   4.561   2.939   2.622  0.7885 -0.5914 -1.4345
   15TCq1    H4  242   0.231   3.052   2.514 -1.2725  1.2538 -1.3235
   16MPD2     C  243   4.444   2.899   2.233 -0.4338 -0.3067 -0.3920
   16MPD2    C1  244   4.572   2.872   2.268 -0.4332  0.1790  0.5871
   16MPD2    C2  245   4.652   2.803   2.175 -0.5820 -0.7518 -0.5075
   16MPD2    C3  246   4.595   2.774   2.052 -0.4351 -1.5328 -1.3243
   16MPD2    C4  247   4.464   2.804   2.022 -0.3186  0.1807  0.3480
   16MPD2    C5  248   4.389   2.871   2.113  0.4931 -0.3270 -0.5937
   16MPD2     H  249   0.029   2.773   2.193 -0.7617 -2.1447 -1.7853
   16MPD2    H1  250   4.422   2.765   1.931 -1.3462  1.5106  0.2493
   16MPD2    H2  251   4.385   2.960   2.301 -0.2274 -3.5588  2.7334
   16MPD2    H3  252   4.286   2.899   2.097  0.6637  0.1773 -0.7895
   16MPD2     N  253   4.673   2.690   1.966 -0.0851  0.4359  0.0905
   16MPD2    H5  254   0.026   2.648   2.014 -2.2757 -3.1225  0.5954
   16MPD2    N1  255   4.613   2.923   2.390 -0.2113 -0.2332 -0.2038
   16MPD2    H7  256   4.547   2.973   2.449 -3.0301 -2.2827 -1.6462
   17TCq1    O1  257   1.865   3.268  11.646 -0.5831  0.4624 -0.7398
   17TCq1    C1  258   1.907   3.149  11.691 -0.0363 -0.3913  0.3860
   17TCq1    O2  259   1.848   3.083  11.774 -0.4368  0.2896  0.1853
   17TCq1    C2  260   2.020   3.097  11.615 -0.1207  0.7039 -0.2576
   17TCq1    C3  261   2.123   3.031  11.685  0.6083  0.0156 -0.2534
   17TCq1    C4  262   2.220   2.972  11.613 -0.3301 -0.4776  0.1982
   17TCq1    C5  263   2.233   2.996  11.477 -0.4351 -1.1256 -0.0540
   17TCq1    C6  264   2.144   3.084  11.421 -0.0127  0.1027  0.0684
   17TCq1    C7  265   2.038   3.131  11.485 -0.0121 -0.1827 -0.6816
   17TCq1    C8  266   2.159   3.125  11.282  0.0826  0.2665  0.1277
   17TCq1    O4  267   2.105   3.227  11.241  0.1464  0.0439  0.2035
   17TCq1    C9  268   2.329   2.903  11.686 -0.0221  0.4655 -0.1618
   17TCq1    O5  269   2.318   2.914  11.809 -0.2410 -0.6758 -0.8211
   17TCq1    O6  270   2.425   2.850  11.620  0.1183 -0.3126 -0.2924
   17TCq1    H1  271   1.927   3.310  11.583 -0.2850  0.7439 -0.2587
   17TCq1    H2  272   2.121   3.034  11.793 -0.0266  0.4033 -0.2747
   17TCq1    H3  273   2.315   2.946  11.427 -0.0660 -0.1044 -0.4710
   17TCq1    H4  274   1.963   3.179  11.422  0.0056  1.3464  0.4546
   18MPD2     C  275   2.215   3.146  10.974 -0.5241  0.4281  0.2807
   18MPD2    C1  276   2.287   3.080  11.074 -0.1971  0.0822  0.9694
   18MPD2    C2  277   2.411   3.029  11.044  0.0803  0.7360 -1.1021
   18MPD2    C3  278   2.471   3.057  10.923  0.0155 -0.5487 -0.1391
   18MPD2    C4  279   2.397   3.111  10.825  0.1141  0.4777 -0.6449
   18MPD2    C5  280   2.270   3.153  10.853 -0.0211  0.2873 -0.7284
   18MPD2     H  281   2.456   2.975  11.127 -2.1805  1.1121  0.3550
   18MPD2    H1  282   2.429   3.125  10.722  0.3747  1.6475 -0.4028
   18MPD2    H2  283   2.122   3.195  11.001 -0.7437 -1.0231  2.1653
   18MPD2    H3  284   2.210   3.209  10.782  0.1258 -0.3702 -1.3772
   18MPD2     N  285   2.600   3.013  10.885 -1.2322  0.0038 -0.2543
   18MPD2    H5  286   2.631   3.049  10.795  0.6224  1.1928  0.8476
   18MPD2    N1  287   2.251   3.059  11.208 -0.1041  0.2067  0.2467
   18MPD2    H7  288   2.304   2.991  11.260  1.8431  1.8699  0.4284
   19TMC2    C1  289   4.245   3.310  13.807  0.1147  0.2775  0.3773
   19TMC2    C2  290   4.135   3.380  13.757  0.3304  0.2662 -0.9169
   19TMC2    C3  291   4.018   3.343  13.815 -0.0345  0.5871 -0.4332
   19TMC2    C4  292   4.235   3.212  13.905  0.2109  0.3850  1.2630
   19TMC2    C5  293   4.115   3.187  13.949  0.7497  0.4947 -0.2191
   19TMC2    C6  294   4.008   3.247  13.896 -0.8277 -0.5316  0.2519
   19TMC2     C  295   4.374   3.361  13.765  0.1326  0.0011 -0.1334
   19TMC2     O  296   4.369   3.447  13.679 -0.1123 -0.1053  0.9814
   19TMC2     H  297   4.134   3.461  13.686  3.0777  2.4155  1.5195
   19TMC2    H1  298   4.318   3.159  13.949  0.6577  0.2620  0.2629
   19TMC2    H2  299   3.908   3.237  13.937 -1.0155  2.1777  0.4225
   19TMC2    C7  300   4.080   3.056  14.006  0.4554 -0.2270 -0.2669
   19TMC2    C8  301   3.892   3.399  13.780 -0.1933 -0.0653 -0.3008
   19TMC2    O1  302   4.166   2.971  13.995 -0.7301 -0.1153 -0.2378
   19TMC2    O2  303   3.794   3.335  13.756 -0.3192  0.4418  0.6603
   19TMC2    O5  304   3.893   3.523  13.827 -0.1967 -0.3524  0.2739
   19TMC2    H5  305   3.974   3.556  13.871  0.1289  1.0718 -1.4071
   20MPD2     C  306   4.668   3.398  13.722  0.0705  0.3952  0.4033
   20MPD2    C1  307   4.619   3.322  13.826 -0.1311 -0.9235 -0.5815
   20MPD2    C2  308   4.709   3.268  13.920 -0.3622  0.1940 -0.2266
   20MPD2    C3  309   0.123   3.294  13.914  0.1047  0.3403  1.0192
   20MPD2    C4  310   0.164   3.361  13.803  0.0145 -0.2379  0.8279
   20MPD2    C5  311   0.078   3.409  13.713 -0.3516  0.4058 -1.0043
   20MPD2     H  312   4.665   3.214  14.004  0.2527 -1.1247 -0.7566
   20MPD2    H1  313   0.266   3.399  13.800 -0.7480  1.8165  0.7810
   20MPD2    H2  314   4.610   3.444  13.643 -0.6537 -0.4528  0.4401
   20MPD2    H3  315   0.113   3.475  13.634  1.8390  0.1338 -0.2703
   20MPD2     N  316   0.212   3.246  14.015 -0.1520  0.4977  0.2797
   20MPD2    H5  317   0.311   3.266  14.006  0.2226 -0.1517  2.7186
   20MPD2    N1  318   4.478   3.306  13.839 -0.3033  0.6982 -0.8492
   20MPD2    H7  319   4.447   3.250  13.918  1.1327  1.2201  0.0812
   21MPD2     C  320   2.853   3.902  14.631  0.0333  0.2661 -0.1224
   21MPD2    C1  321   2.810   3.776  14.672 -0.0991  0.1612  0.0967
   21MPD2    C2  322   2.696   3.763  14.745 -0.5990  0.3206 -0.1631
   21MPD2    C3  323   2.601   3.870  14.757  0.1900  0.0042 -1.1257
   21MPD2    C4  324   2.633   3.991  14.699  0.2269  0.1806  0.0322
   21MPD2    C5  325   2.759   4.002  14.637  0.3899 -0.0449  0.2464
   21MPD2     H  326   2.673   3.665  14.784  0.3790  0.7280  1.4267
   21MPD2    H1  327   2.566   4.074  14.716 -0.5614 -0.6728  1.1183
   21MPD2    H2  328   2.942   3.922  14.573  0.9491  0.3958  1.3173
   21MPD2    H3  329   2.796   4.099  14.606  3.2512 -1.2322 -0.0788
   21MPD2     N  330   2.475   3.850  14.810 -0.0646  0.3586  0.2723
   21MPD2    H5  331   2.417   3.934  14.806  0.4974  0.8560  2.2769
   21MPD2    N1  332   2.889   3.659  14.670  1.0555  0.1656  0.1359
   21MPD2    H7  333   2.860   3.580  14.727  1.9899 -0.6744 -0.5652
   22TCq2    C1  334   2.441   3.738  14.885  0.1002 -0.0213  0.4172
   22TCq2    O2  335   2.504   3.646  14.926  0.0340  0.2458 -0.1843
   22TCq2    C2  336   2.300   3.731  14.916 -0.1312  0.6367  0.3401
   22TCq2    C3  337   2.264   3.637  15.006 -0.1438  0.5075 -0.7103
   22TCq2    C4  338   2.140   3.650  15.064  0.0180  0.6947  0.2338
   22TCq2    C5  339   2.052   3.750  15.025  0.0176 -0.4884  0.1099
   22TCq2    C6  340   2.089   3.831  14.922  0.3041 -0.5392 -0.2003
   22TCq2    C7  341   2.213   3.819  14.858  0.1886 -0.0329 -0.6462
   22TCq2    C8  342   1.990   3.922  14.866 -0.1738  0.0105  0.0465
   22TCq2    O4  343   1.895   3.960  14.938 -0.0918  0.0604 -0.4831
   22TCq2    C9  344   2.098   3.557  15.163  0.9956 -0.1044 -0.6557
   22TCq2    O5  345   1.972   3.542  15.178  0.3733  0.1422  0.1059
   22TCq2    O6  346   2.185   3.496  15.230  0.0751 -0.2596 -0.0263
   22TCq2    H2  347   2.329   3.560  15.047  0.5729  0.3075 -2.2223
   22TCq2    H3  348   1.949   3.739  15.057 -0.3686 -0.4879 -1.1414
   22TCq2    H4  349   2.251   3.899  14.796 -0.6447  2.2297  1.7474
   23MPD2     C  350   3.790   4.667  14.706 -0.8025 -0.0705 -0.1744
   23MPD2    C1  351   3.688   4.648  14.793  0.0330 -0.1580  0.0126
   23MPD2    C2  352   3.578   0.011  14.799  0.1665 -0.5361 -0.1144
   23MPD2    C3  353   3.571   0.118  14.710 -0.1555  0.3519  0.0433
   23MPD2    C4  354   3.681   0.142  14.629  0.2097  1.0267  1.1178
   23MPD2    C5  355   3.785   0.055  14.632  0.0062  0.2019  0.3401
   23MPD2     H  356   3.494   4.718  14.864 -0.6406 -0.2843 -1.0843
   23MPD2    H1  357   3.676   0.228  14.564  0.9622  0.7910  0.7567
   23MPD2    H2  358   3.873   4.597  14.696  0.8748  1.8403  0.4224
   23MPD2    H3  359   3.871   0.074  14.568 -0.2758  1.2875  0.2868
   23MPD2     N  360   3.461   0.209  14.691 -0.3551  0.1229 -0.5021
   23MPD2    H5  361   3.479   0.293  14.637 -0.4144 -0.6964 -1.8106
   23MPD2    N1  362   3.678   4.552  14.898  0.4629  0.6172 -0.0252
   23MPD2    H7  363   3.609   4.563  14.971  1.0084 -2.7135  0.9983
   24TCq2    C1  364   3.335   0.183  14.747  0.7783  0.1104  0.7606
   24TCq2    O2  365   3.287   0.093  14.815  0.3179 -0.4674 -0.3844
   24TCq2    C2  366   3.246   0.285  14.700  0.2654  0.2075 -0.0969
   24TCq2    C3  367   3.283   0.422  14.715  0.3397 -0.8432 -0.0427
   24TCq2    C4  368   3.188   0.518  14.687 -0.7023  0.0925  0.8085
   24TCq2    C5  369   3.062   0.483  14.642 -0.3721  0.1800  0.2888
   24TCq2    C6  370   3.031   0.350  14.638  0.1922 -0.3314 -0.3650
   24TCq2    C7  371   3.121   0.250  14.664 -0.2866 -0.0023  0.1956
   24TCq2    C8  372   2.904   0.316  14.580 -0.1677  1.4112  0.4091
   24TCq2    O4  373   2.899   0.219  14.501 -0.4285  0.1023 -0.1154
   24TCq2    C9  374   3.226   0.653  14.683 -0.1778 -0.6119 -0.3653
   24TCq2    O5  375   3.141   0.737  14.639 -0.6154  0.4415 -0.3139
   24TCq2    O6  376   3.333   0.683  14.740 -0.4211  0.1595 -0.2715
   24TCq2    H2  377   3.386   0.451  14.735  0.5016 -1.6675  0.3234
   24TCq2    H3  378   2.990   0.560  14.618  0.1161  0.1731 -1.1991
   24TCq2    H4  379   3.097   0.144  14.656  1.2023 -0.5635  3.0002
   25TMC2    C1  380   2.694   2.330  11.635  0.4038 -0.3894 -0.3837
   25TMC2    C2  381   2.672   2.415  11.533 -0.0173 -0.4682  0.0413
   25TMC2    C3  382   2.574   2.516  11.546  0.3090 -0.3193 -0.7575
   25TMC2    C4  383   2.627   2.333  11.751  0.8894 -0.1625  0.2882
   25TMC2    C5  384   2.547   2.438  11.770 -0.1756  0.1809 -0.0571
   25TMC2    C6  385   2.512   2.531  11.670 -0.4090 -0.3473  0.3965
   25TMC2     C  386   2.797   2.230  11.617  0.0142  0.2395  0.2096
   25TMC2     O  387   2.871   2.262  11.524 -0.2223  0.0134 -0.0925
   25TMC2     H  388   2.726   2.403  11.440 -0.0804  2.2293 -0.3414
   25TMC2    H1  389   2.636   2.257  11.828  0.6186  0.5372  1.0128
   25TMC2    H2  390   2.439   2.610  11.683  0.8786  1.2078 -1.7875
   25TMC2    C7  391   2.483   2.449  11.900 -0.6279 -0.4907  0.4406
   25TMC2    C8  392   2.504   2.548  11.427  0.3104  0.4958  0.1053
   25TMC2    O1  393   2.455   2.346  11.953  0.3950 -0.3269 -0.6565
   25TMC2    O2  394   2.504   2.478  11.329  0.3730  0.2628 -0.3305
   25TMC2    O5  395   2.406   2.637  11.448  0.1307  0.6099  0.0376
   25TMC2    H5  396   2.418   2.703  11.520 -0.2349 -0.4842  1.0999
   26MPD2     C  397   2.971   1.754  11.568 -0.2593  0.2324 -0.8056
   26MPD2    C1  398   2.845   1.753  11.631  0.0030 -0.3607  0.2049
   26MPD2    C2  399   2.796   1.872  11.676  0.7139  0.6832 -0.4726
   26MPD2    C3  400   2.859   1.990  11.645  0.2756  0.3965  0.3745
   26MPD2    C4  401   2.977   1.995  11.577 -0.7013 -0.4060  0.6397
   26MPD2    C5  402   3.028   1.876  11.534  0.2412 -0.0912  0.1518
   26MPD2     H  403   2.700   1.867  11.726 -0.2821  0.4437 -2.4004
   26MPD2    H1  404   3.028   2.085  11.544 -2.8887  0.9611  0.9608
   26MPD2    H2  405   3.016   1.659  11.543 -1.9154 -0.1728 -2.2215
   26MPD2    H3  406   3.128   1.860  11.495 -0.8889 -1.4042 -2.2299
   26MPD2     N  407   2.777   2.102  11.673  0.1771  0.8535 -0.2573
   26MPD2    H5  408   2.696   2.084  11.731  2.0013  1.9349  2.6035
   26MPD2    N1  409   2.769   1.627  11.634  0.4801 -0.2048  0.4488
   26MPD2    H7  410   2.802   1.542  11.590  0.8224  0.2783 -0.2091
   27TMC2    C1  411   1.205   4.271  12.241 -0.1274 -0.0416  0.3097
   27TMC2    C2  412   1.324   4.200  12.222 -0.4477  0.0417 -0.4275
   27TMC2    C3  413   1.434   4.255  12.284  0.4967 -0.6362 -0.7197
   27TMC2    C4  414   1.205   4.385  12.317  0.1086 -0.2752 -0.1337
   27TMC2    C5  415   1.315   4.438  12.366 -0.3714  0.7170 -0.4581
   27TMC2    C6  416   1.434   4.371  12.358  0.0447  0.2710 -0.3106
   27TMC2     C  417   1.089   4.192  12.251  0.0628 -0.0641  0.0344
   27TMC2     O  418   1.061   4.132  12.152 -0.1960 -0.0729  0.5903
   27TMC2     H  419   1.312   4.109  12.166  1.8266 -0.9219  0.6789
   27TMC2    H1  420   1.110   4.434  12.334  0.7126  0.2126  1.9034
   27TMC2    H2  421   1.532   4.406  12.387  0.2737 -1.4288  1.0332
   27TMC2    C7  422   1.294   4.494  12.494  0.0987 -0.1328 -0.2019
   27TMC2    C8  423   1.561   4.188  12.243 -0.0714 -0.6138 -0.3650
   27TMC2    O1  424   1.198   4.446  12.559 -0.0437 -0.3297 -0.4134
   27TMC2    O2  425   1.572   4.127  12.138 -0.4629 -0.1903  0.1611
   27TMC2    O5  426   1.653   4.187  12.342  0.0273  0.0603  0.4209
   27TMC2    H5  427   1.613   4.219  12.426 -0.4627  0.1843  0.1372
   28MPD2     C  428   0.644   4.073  12.473  0.0893  0.3737 -0.0012
   28MPD2    C1  429   0.704   4.158  12.562  0.0006  0.1719  0.5951
   28MPD2    C2  430   0.826   4.208  12.523  1.0843  0.7493  0.1825
   28MPD2    C3  431   0.892   4.171  12.401 -0.2073 -0.2450 -0.1942
   28MPD2    C4  432   0.818   4.093  12.324  0.0159  0.6986 -0.1111
   28MPD2    C5  433   0.700   4.041  12.356  0.0172  0.3246  0.3525
   28MPD2     H  434   0.890   4.269  12.586  2.4708 -0.2090 -0.2848
   28MPD2    H1  435   0.844   4.071  12.221 -0.1982  1.8657 -0.4158
   28MPD2    H2  436   0.555   4.021  12.505 -0.6423  1.1483 -0.7511
   28MPD2    H3  437   0.651   3.984  12.277  0.0610  1.5541 -0.5600
   28MPD2     N  438   1.020   4.220  12.369 -0.4391 -0.2964  0.1153
   28MPD2    H5  439   1.063   4.279  12.440 -2.0836  1.1655 -0.0977
   28MPD2    N1  440   0.642   4.190  12.687  0.4609 -0.2189  0.3478
   28MPD2    H7  441   0.558   4.135  12.699  0.6740 -0.3526  1.2143
   29MPD2     C  442   0.742   1.677  14.029 -0.8248  0.2186 -0.0876
   29MPD2    C1  443   0.859   1.670  14.103 -0.4031 -0.6805  0.6443
   29MPD2    C2  444   0.897   1.789  14.167  0.2426 -0.0032  1.0190
   29MPD2    C3  445   0.819   1.905  14.161  0.0721  0.0324 -0.1891
   29MPD2    C4  446   0.702   1.909  14.085 -0.8384  0.2634 -0.6053
   29MPD2    C5  447   0.672   1.793  14.021 -0.3318  0.6751  0.7040
   29MPD2     H  448   0.984   1.790  14.232  0.6537  0.3933  0.4628
   29MPD2    H1  449   0.639   1.996  14.078 -0.7708  0.2319 -1.6268
   29MPD2    H2  450   0.690   1.601  13.972  1.8511 -1.4880 -0.2778
   29MPD2    H3  451   0.576   1.790  13.972  0.6714 -2.2308 -1.0617
   29MPD2     N  452   0.854   2.027  14.216 -0.1459  0.8491  0.3581
   29MPD2    H5  453   0.794   2.109  14.208  0.2887  1.1899  0.6227
   29MPD2    N1  454   0.935   1.555  14.132  0.3634 -0.2231  0.1508
   29MPD2    H7  455   1.014   1.554  14.196  0.6306  2.7240 -0.0972
   30TCq2    C1  456   0.972   2.050  14.280  0.2938 -0.4456 -0.5261
   30TCq2    O2  457   1.074   1.983  14.284 -0.3804  0.6223 -0.7397
   30TCq2    C2  458   0.978   2.182  14.325  0.0984  0.5997 -0.0841
   30TCq2    C3  459   0.865   2.240  14.376 -0.1604  0.2807 -0.5715
   30TCq2    C4  460   0.875   2.360  14.443 -0.5498  0.3141  0.4231
   30TCq2    C5  461   0.991   2.425  14.463  0.1659  0.2581 -0.2698
   30TCq2    C6  462   1.105   2.360  14.409 -0.2934  0.7554 -0.2164
   30TCq2    C7  463   1.098   2.244  14.345  0.3214  0.7044  0.4705
   30TCq2    C8  464   1.225   2.445  14.391  0.2105 -0.3039  0.0309
   30TCq2    O4  465   1.308   2.405  14.315  0.3851 -0.1467  0.8360
   30TCq2    C9  466   0.745   2.412  14.490 -0.0455  0.0950 -0.0123
   30TCq2    O5  467   0.651   2.331  14.500 -0.0454  0.7776 -0.2861
   30TCq2    O6  468   0.740   2.533  14.520 -0.7345 -0.0239  0.6103
   30TCq2    H2  469   0.772   2.185  14.381 -0.3481  0.5016 -1.6401
   30TCq2    H3  470   0.989   2.525  14.505  1.5581  0.3295 -0.3959
   30TCq2    H4  471   1.182   2.204  14.290  0.4887  2.8163 -0.8269
   31MPD2     C  472   3.573   1.006  15.143  0.3918 -0.2184  0.1838
   31MPD2    C1  473   3.458   1.071  15.124 -0.4432  0.9253 -0.6990
   31MPD2    C2  474   3.344   1.026  15.191  0.4145 -0.0661 -0.3328
   31MPD2    C3  475   3.348   0.912  15.274 -0.1053  0.1592 -0.3585
   31MPD2    C4  476   3.470   0.844  15.291  0.3306  1.1448  0.4557
   31MPD2    C5  477   3.575   0.891  15.224 -0.3333  0.3446  0.7004
   31MPD2     H  478   3.257   1.087  15.171 -0.3262 -0.9783  0.0770
   31MPD2    H1  479   3.489   0.762  15.358 -1.1167  0.1993 -0.2988
   31MPD2    H2  480   3.658   1.026  15.079  0.2700  4.8584  1.5446
   31MPD2    H3  481   3.667   0.834  15.225 -0.6167 -0.1339 -1.0922
   31MPD2     N  482   3.238   0.860  15.343 -0.5147  0.6770  0.2691
   31MPD2    H5  483   3.256   0.779  15.402 -1.1650 -0.3840 -0.9640
   31MPD2    N1  484   3.446   1.170  15.018  0.8200 -0.4692 -0.9268
   31MPD2    H7  485   3.529   1.188  14.962  0.9696  1.2723 -0.1561
   32TCq2    C1  486   3.109   0.908  15.323  0.8248 -0.2313 -0.0818
   32TCq2    O2  487   3.073   0.958  15.216  0.3085  0.6533  0.4873
   32TCq2    C2  488   3.027   0.821  15.395  0.2042 -0.3604 -0.3693
   32TCq2    C3  489   2.903   0.795  15.350 -0.0121 -0.5057  0.4940
   32TCq2    C4  490   2.824   0.713  15.427  0.3390  0.5993 -0.1875
   32TCq2    C5  491   2.874   0.624  15.520  0.2298  0.7617 -0.4403
   32TCq2    C6  492   2.995   0.653  15.560 -0.5659 -0.5031 -0.4166
   32TCq2    C7  493   3.078   0.745  15.496  0.7095  0.6184  0.9113
   32TCq2    C8  494   3.036   0.603  15.691  0.3492  0.0026  0.6878
   32TCq2    O4  495   3.159   0.595  15.715  0.0163  0.2560 -0.0563
   32TCq2    C9  496   2.686   0.697  15.391  0.2661  0.0481 -0.3389
   32TCq2    O5  497   2.611   0.652  15.481  0.4834  0.3897 -0.3919
   32TCq2    O6  498   2.652   0.750  15.283  0.1497  0.0582  0.0768
   32TCq2    H2  499   2.865   0.847  15.263 -2.1925  0.7698  2.2254
   32TCq2    H3  500   2.806   0.553  15.567 -1.1893  1.7916 -0.9443
   32TCq2    H4  501   3.171   0.766  15.547  1.4586  0.1544 -0.2558
   33MPD2     C  502   3.406   3.283  10.750  0.1839  0.4722  0.2658
   33MPD2    C1  503   3.270   3.267  10.730 -0.4236  0.4916  0.5322
   33MPD2    C2  504   3.208   3.371  10.663 -0.4709 -0.4251  0.2385
   33MPD2    C3  505   3.279   3.479  10.610 -0.3211 -0.2386 -0.6678
   33MPD2    C4  506   3.414   3.490  10.624  0.1398  0.2403 -0.1383
   33MPD2    C5  507   3.474   3.395  10.704  0.5805 -0.3946  0.1227
   33MPD2     H  508   3.100   3.365  10.658 -0.4822  0.3085 -0.3828
   33MPD2    H1  509   3.467   3.567  10.570 -0.0709  1.6113  1.6047
   33MPD2    H2  510   3.460   3.192  10.775  0.9534  0.9059  0.1894
   33MPD2    H3  511   3.578   3.415  10.728  0.5958 -0.5268  0.1682
   33MPD2     N  512   3.219   3.596  10.549  0.1594 -0.0253  0.2126
   33MPD2    H5  513   3.286   3.665  10.514  0.2040  0.0531  0.4555
   33MPD2    N1  514   3.204   3.143  10.773 -0.4370 -0.5419 -0.0161
   33MPD2    H7  515   3.257   3.062  10.805  0.7168  0.1873 -0.0824
   34TCq2    C1  516   3.091   3.612  10.519  0.0553 -0.7246 -0.4545
   34TCq2    O2  517   2.996   3.557  10.570 -0.5582 -0.1641 -0.1788
   34TCq2    C2  518   3.072   3.737  10.450  0.4253 -0.5114  0.1140
   34TCq2    C3  519   2.993   3.822  10.522  0.1411 -0.5879  0.2726
   34TCq2    C4  520   3.005   3.958  10.494  0.8248 -0.2962 -0.4757
   34TCq2    C5  521   3.079   4.008  10.386 -0.2029 -0.0541  0.0243
   34TCq2    C6  522   3.165   3.922  10.324  0.4201  0.6744  0.3658
   34TCq2    C7  523   3.170   3.789  10.358 -0.8367 -0.9401  0.3331
   34TCq2    C8  524   3.261   3.965  10.230 -0.8018  0.5800  0.0423
   34TCq2    O4  525   3.358   3.895  10.217 -0.1183 -0.3426 -0.0604
   34TCq2    C9  526   2.937   4.060  10.576  0.0270  0.8167 -0.4055
   34TCq2    O5  527   2.927   4.180  10.538  0.0843 -0.0246  0.1363
   34TCq2    O6  528   2.883   4.015  10.680 -0.2094 -0.2342 -0.5049
   34TCq2    H2  529   2.944   3.782  10.609  0.7055  0.6505  1.1508
   34TCq2    H3  530   3.093   4.115  10.381 -0.3218 -0.0428 -0.0596
   34TCq2    H4  531   3.225   3.716  10.298 -0.9862 -0.4691 -0.3808
   35MPD2     C  532   0.414   0.181  12.124 -1.0956  0.2567  0.3681
   35MPD2    C1  533   0.317   0.089  12.153  0.0652 -0.1120 -0.1755
   35MPD2    C2  534   0.216   0.057  12.061 -0.0737 -0.1338  0.3363
   35MPD2    C3  535   0.209   0.129  11.947  0.0710 -0.4450 -0.2380
   35MPD2    C4  536   0.312   0.216  11.911  0.5231 -0.5602 -0.3644
   35MPD2    C5  537   0.414   0.246  12.002 -0.3734  0.1858 -0.7926
   35MPD2     H  538   0.139   4.712  12.089  0.1123  0.3553  2.0807
   35MPD2    H1  539   0.311   0.264  11.814  1.1733  1.3275  0.5802
   35MPD2    H2  540   0.503   0.182  12.186  1.0124  3.5893 -2.7220
   35MPD2    H3  541   0.496   0.305  11.964 -0.3307 -0.9491 -2.4826
   35MPD2     N  542   0.103   0.101  11.855 -0.1784 -0.4035 -0.5204
   35MPD2    H5  543   0.041   0.023  11.876 -0.7471  0.7454  2.0683
   35MPD2    N1  544   0.344   0.007  12.266  0.1941  0.4514 -0.5219
   35MPD2    H7  545   0.411   0.041  12.334 -0.0402  0.5003 -0.3174
   36TCq2    C1  546   0.073   0.180  11.745 -0.3919  0.8572 -0.6556
   36TCq2    O2  547   0.102   0.298  11.719  0.0508 -0.7761  0.0535
   36TCq2    C2  548   4.719   0.112  11.644 -0.5618 -0.1227 -0.2624
   36TCq2    C3  549   4.677   0.189  11.531  0.1015  0.0497 -0.6727
   36TCq2    C4  550   4.606   0.116  11.447  0.0893  0.4803  0.0426
   36TCq2    C5  551   4.561   4.714  11.472 -0.1472  0.7261 -0.0284
   36TCq2    C6  552   4.598   4.647  11.583  0.6228  0.2317  0.4270
   36TCq2    C7  553   4.674   4.714  11.675  0.0670 -0.1501  0.5275
   36TCq2    C8  554   4.523   4.528  11.617  0.3558 -0.0687  0.4918
   36TCq2    O4  555   4.475   4.466  11.519 -0.2091  0.2833  0.0765
   36TCq2    C9  556   4.546   0.188  11.339 -0.1951  0.3001 -0.2955
   36TCq2    O5  557   4.576   0.307  11.314  0.1754 -0.2629 -0.2308
   36TCq2    O6  558   4.445   0.127  11.299  0.3053 -0.1406  0.1039
   36TCq2    H2  559   0.003   0.280  11.501  1.7053 -0.4426  0.6079
   36TCq2    H3  560   4.491   4.676  11.399 -1.7041  2.2220  0.6734
   36TCq2    H4  561   4.711   4.658  11.760  0.0560 -1.5407 -0.3819
   37TMC2    C1  562   2.107   0.150  11.705 -0.5306 -0.7474  0.9168
   37TMC2    C2  563   2.070   0.123  11.577 -0.5723  0.0736 -0.2850
   37TMC2    C3  564   2.159   0.081  11.482 -0.9820  0.8387 -0.0512
   37TMC2    C4  565   2.234   0.121  11.739  0.1112  0.6752 -0.4529
   37TMC2    C5  566   2.329   0.087  11.640  0.6362 -0.0888  0.2774
   37TMC2    C6  567   2.291   0.059  11.512 -0.6013  0.0127 -0.0174
   37TMC2     C  568   2.012   0.143  11.811 -0.2025 -0.0143 -0.3206
   37TMC2     O  569   1.895   0.167  11.782 -0.1009 -0.1539  0.2467
   37TMC2     H  570   1.968   0.137  11.542 -0.5465  0.1021 -0.3494
   37TMC2    H1  571   2.275   0.157  11.832 -1.8759  2.2726 -0.2180
   37TMC2    H2  572   2.361   0.033  11.434  0.1369 -1.4670  1.1276
   37TMC2    C7  573   2.463   0.051  11.690 -0.0103 -1.0900 -0.4321
   37TMC2    C8  574   2.120   0.025  11.349  0.0841  0.1468 -0.3931
   37TMC2    O1  575   2.480   0.081  11.806  0.2297  0.3830 -0.1152
   37TMC2    O2  576   2.182   4.660  11.297 -0.4000 -0.3623 -0.5178
   37TMC2    O5  577   2.011   0.082  11.302  0.0443 -0.0423 -0.6572
   37TMC2    H5  578   1.987   0.167  11.345 -1.1543  0.6620 -2.7197
   38MPD2     C  579   1.878   0.071  12.314 -0.2129 -0.2352 -0.2854
   38MPD2    C1  580   2.008   0.019  12.290  0.3599  0.1353  0.0348
   38MPD2    C2  581   2.068   0.038  12.166 -0.3556 -1.0227 -0.6040
   38MPD2    C3  582   1.995   0.091  12.058 -0.5091 -0.3945  0.5023
   38MPD2    C4  583   1.867   0.139  12.083  0.3600 -0.3880  0.2191
   38MPD2    C5  584   1.805   0.121  12.205  0.2922  0.9094  0.0559
   38MPD2     H  585   2.164   4.724  12.136 -0.2956 -0.6835 -0.8682
   38MPD2    H1  586   1.812   0.190  12.005  0.1108  0.9213  1.2465
   38MPD2    H2  587   1.830   0.068  12.411 -0.3360 -1.7243 -0.3829
   38MPD2    H3  588   1.706   0.164  12.218 -1.5228 -2.8783 -1.5373
   38MPD2     N  589   2.064   0.106  11.932 -0.3328 -0.5884 -0.7915
   38MPD2    H5  590   2.155   0.062  11.930 -0.5092 -0.9405 -0.9950
   38MPD2    N1  591   2.079   4.678  12.395 -0.3838 -0.0409 -0.2817
   38MPD2    H7  592   2.174   4.650  12.375  0.1416  3.0691 -2.1005
   39MPD2     C  593   0.112   2.134   2.101  0.3215  0.4697  0.0016
   39MPD2    C1  594   0.075   2.256   2.126  0.1187  0.3116  0.8848
   39MPD2    C2  595   4.692   2.314   2.063 -0.1409 -0.6835 -0.7786
   39MPD2    C3  596   4.623   2.235   1.967 -0.2047  0.6003 -0.3287
   39MPD2    C4  597   4.653   2.102   1.951  0.8979  0.0183 -0.6517
   39MPD2    C5  598   0.034   2.055   2.018  0.3434 -0.0435  0.3232
   39MPD2     H  599   4.654   2.415   2.075  0.3403 -0.7522  1.2631
   39MPD2    H1  600   4.611   2.036   1.877  0.4448  1.3579 -1.5818
   39MPD2    H2  601   0.199   2.092   2.150 -0.6400 -0.1734  1.1639
   39MPD2    H3  602   0.066   1.954   1.994  0.8291 -0.2081  1.6228
   39MPD2     N  603   4.506   2.276   1.894  0.1817  0.5841 -0.3662
   39MPD2    H5  604   4.468   2.206   1.831 -0.1892  0.2995  0.1774
   39MPD2    N1  605   0.159   2.328   2.212 -0.9325  0.0321 -0.2753
   39MPD2    H7  606   0.242   2.285   2.251 -1.1843 -0.2798 -0.0798
   40TCq2    C1  607   0.145   2.465   2.245  0.4195  0.7055  0.4032
   40TCq2    O2  608   0.061   2.551   2.214 -0.4260  0.0731 -0.1717
   40TCq2    C2  609   0.254   2.504   2.326  0.4192  0.0796  0.0996
   40TCq2    C3  610   0.314   2.413   2.408  0.4845  0.2965  0.0822
   40TCq2    C4  611   0.442   2.428   2.438  0.9492  0.8162  0.0107
   40TCq2    C5  612   0.519   2.529   2.389  0.0239 -0.2682 -0.0035
   40TCq2    C6  613   0.457   2.629   2.320  0.2336 -0.1398  0.1081
   40TCq2    C7  614   0.325   2.617   2.286  0.0026  0.1956  0.3005
   40TCq2    C8  615   0.540   2.706   2.229  0.1816  0.1223  0.4960
   40TCq2    O4  616   0.496   2.808   2.183  0.5148  0.6208  0.4088
   40TCq2    C9  617   0.503   2.326   2.532  0.2880 -0.1345  0.3688
   40TCq2    O5  618   0.625   2.327   2.538  1.1792  0.4435 -0.1095
   40TCq2    O6  619   0.421   2.254   2.595  0.4526  0.1572  0.1108
   40TCq2    H2  620   0.259   2.328   2.447 -2.6982  2.0254 -0.6276
   40TCq2    H3  621   0.621   2.544   2.422 -0.5876 -0.2850  1.8725
   40TCq2    H4  622   0.276   2.673   2.207  1.0166  0.5395 -0.0761
   41TMC2    C1  623   3.921   4.561  13.747  0.6053 -0.0405 -0.4453
   41TMC2    C2  624   3.806   4.633  13.758 -0.9618  0.1051  0.3990
   41TMC2    C3  625   3.810   0.042  13.730  0.2339 -0.0996  0.1041
   41TMC2    C4  626   4.031   4.626  13.690  0.4744  0.1323 -0.6766
   41TMC2    C5  627   4.029   0.037  13.663 -0.1972  0.2284 -0.1800
   41TMC2    C6  628   3.919   0.112  13.684  0.3645 -0.1191 -0.4374
   41TMC2     C  629   3.958   4.449  13.834 -0.3656 -0.4841 -0.2665
   41TMC2     O  630   3.979   4.343  13.776  0.2294 -0.0244 -0.1770
   41TMC2     H  631   3.716   4.591  13.802 -1.3025 -1.7232 -2.0786
   41TMC2    H1  632   4.120   4.564  13.687  0.1704 -0.3718  0.5049
   41TMC2    H2  633   3.918   0.220  13.668 -0.9269  0.3767  2.9589
   41TMC2    C7  634   4.150   0.111  13.636  0.6403  0.0113  0.5463
   41TMC2    C8  635   3.681   0.093  13.697 -0.2288 -0.3102 -0.8136
   41TMC2    O1  636   4.166   0.222  13.686 -0.0165  0.1103 -0.0281
   41TMC2    O2  637   3.576   0.034  13.682  0.1615 -0.1506 -0.1426
   41TMC2    O5  638   3.682   0.223  13.676 -0.0081  0.2310  0.1596
   41TMC2    H5  639   3.761   0.263  13.717 -0.4265  1.3873 -0.1717
   42MPD2     C  640   4.089   4.307  14.069 -0.1814 -0.0928  0.4808
   42MPD2    C1  641   4.049   4.443  14.064  0.4898 -0.9466  0.9198
   42MPD2    C2  642   4.069   4.520  14.176  0.1970  0.1510  0.1803
   42MPD2    C3  643   4.126   4.459  14.294  0.2929 -0.0339  0.4456
   42MPD2    C4  644   4.150   4.325  14.302  0.1479  0.7537 -0.0829
   42MPD2    C5  645   4.138   4.257  14.185  0.2349 -0.4872  0.4568
   42MPD2     H  646   4.058   4.627  14.166 -1.7371  0.0471  1.2786
   42MPD2    H1  647   4.185   4.278  14.393  0.0671  0.2843 -0.2944
   42MPD2    H2  648   4.087   4.239  13.985 -0.3999 -0.2736  0.6341
   42MPD2    H3  649   4.167   4.152  14.182  0.9969 -0.2785  0.3860
   42MPD2     N  650   4.142   4.536  14.415  0.0433 -0.5805  0.2338
   42MPD2    H5  651   4.187   4.480  14.486 -0.7349 -0.2667  0.9738
   42MPD2    N1  652   3.983   4.504  13.955  0.0433  0.0857  0.5186
   42MPD2    H7  653   3.958   4.602  13.957  2.9512  0.8396 -0.8949
   43MPD2     C  654   0.540   3.067   0.932 -0.5855  0.1872  0.7291
   43MPD2    C1  655   0.628   2.990   1.006  0.6716 -0.1788  0.2886
   43MPD2    C2  656   0.646   3.010   1.139  0.3437 -0.8012 -0.0262
   43MPD2    C3  657   0.572   3.102   1.209  0.7834 -0.0550 -0.1558
   43MPD2    C4  658   0.498   3.186   1.136  0.0467 -0.5818 -0.3672
   43MPD2    C5  659   0.470   3.165   0.998 -0.0886 -0.7863  0.1949
   43MPD2     H  660   0.713   2.938   1.184  1.8494  0.6404  0.0385
   43MPD2    H1  661   0.428   3.249   1.189 -1.3558 -2.2967 -0.1565
   43MPD2    H2  662   0.512   3.041   0.830 -0.6311  1.4001  0.4348
   43MPD2    H3  663   0.389   3.227   0.961  0.9809  0.3147 -0.3158
   43MPD2     N  664   0.580   3.121   1.348  1.2007 -0.0414 -0.2665
   43MPD2    H5  665   0.527   3.199   1.386 -0.6276 -1.0379 -0.8154
   43MPD2    N1  666   0.705   2.899   0.936  0.6416  0.4958 -0.3830
   43MPD2    H7  667   0.766   2.838   0.990 -0.1619 -0.7862 -0.9123
   44TCq2    C1  668   0.767   3.172   1.862  0.3340 -0.1700  0.0222
   44TCq2    O2  669   0.871   3.105   1.857  0.3843  0.7094  0.0897
   44TCq2    C2  670   0.654   3.113   1.793 -0.1299 -0.4978 -0.4511
   44TCq2    C3  671   0.536   3.184   1.799 -0.5341 -0.6511 -0.3034
   44TCq2    C4  672   0.454   3.177   1.691 -0.5805  0.1654  0.0287
   44TCq2    C5  673   0.477   3.098   1.584 -0.4829 -0.7183 -0.1695
   44TCq2    C6  674   0.601   3.050   1.570 -0.6322 -0.5144 -0.4075
   44TCq2    C7  675   0.687   3.048   1.676  0.0274 -0.0390  0.8063
   44TCq2    C8  676   0.648   3.035   1.433  0.6751  0.1138 -0.5029
   44TCq2    O4  677   0.735   2.952   1.409  0.2338 -0.2513 -0.0190
   44TCq2    C9  678   0.330   3.252   1.703  0.8505  0.4919  0.0477
   44TCq2    O5  679   0.243   3.245   1.609  0.1469  0.6255  0.7626
   44TCq2    O6  680   0.328   3.328   1.802  0.7790  0.0166  0.1087
   44TCq2    H2  681   0.505   3.229   1.892  0.1943 -0.7893  0.0125
   44TCq2    H3  682   0.401   3.083   1.508  0.1744 -0.9561 -0.7891
   44TCq2    H4  683   0.781   2.996   1.671 -1.7201 -3.2393  0.9438
   45TMC2    C1  684   1.711   0.070   9.767  0.4684 -0.1969 -0.7027
   45TMC2    C2  685   1.678   0.133   9.648 -0.7823  0.1538  0.3234
   45TMC2    C3  686   1.725   0.259   9.636 -0.1741  0.2751  0.3210
   45TMC2    C4  687   1.781   0.137   9.872  0.3733 -0.8163 -0.1847
   45TMC2    C5  688   1.826   0.262   9.850 -0.2470  0.2347  0.4164
   45TMC2    C6  689   1.788   0.325   9.736 -1.0357 -0.4900 -0.1586
   45TMC2     C  690   1.642   4.676   9.807  0.5995 -0.4144 -0.1383
   45TMC2     O  691   1.668   4.608   9.902  0.3769  0.0060  0.2443
   45TMC2     H  692   1.639   0.086   9.558 -0.5901  0.1383  0.2491
   45TMC2    H1  693   1.798   0.089   9.968 -0.3273  0.7551  0.7221
   45TMC2    H2  694   1.790   0.434   9.741 -0.3594 -0.3942 -2.6382
   45TMC2    C7  695   1.892   0.338   9.955  0.2962  0.3871 -0.0114
   45TMC2    C8  696   1.683   0.327   9.519  0.4748  0.5298  0.0046
   45TMC2    O1  697   1.844   0.336  10.069 -0.6771 -0.6020  0.3533
   45TMC2    O2  698   1.585   0.313   9.450  0.0144 -0.2571  0.0949
   45TMC2    O5  699   1.796   0.398   9.488  0.6018 -0.0955 -0.2526
   45TMC2    H5  700   1.874   0.393   9.547 -0.7894 -0.3879  1.5836
   46MPD2     C  701   1.439   4.455   9.841  0.4479  0.5746 -0.4473
   46MPD2    C1  702   1.434   4.552   9.748  0.2972 -0.1490 -0.4667
   46MPD2    C2  703   1.327   4.551   9.661 -0.2112  0.6137  0.3481
   46MPD2    C3  704   1.220   4.461   9.663  0.2149 -0.2544 -0.2032
   46MPD2    C4  705   1.231   4.355   9.750 -0.5168  0.2161  0.0752
   46MPD2    C5  706   1.334   4.365   9.844 -0.3768 -0.3581 -0.3759
   46MPD2     H  707   1.320   4.625   9.581  1.8925  0.1808 -0.2466
   46MPD2    H1  708   1.159   4.273   9.754 -0.8570  0.4101 -1.8735
   46MPD2    H2  709   1.523   4.435   9.908  0.5809  1.4613 -0.3574
   46MPD2    H3  710   1.344   4.282   9.914  1.2744 -1.8177 -2.3520
   46MPD2     N  711   1.111   4.472   9.575 -0.7651  0.0981 -0.3642
   46MPD2    H5  712   1.128   4.540   9.502 -0.2127  0.5882  0.2149
   46MPD2    N1  713   1.532   4.651   9.723 -0.0211  0.3381 -0.2571
   46MPD2    H7  714   1.529   4.712   9.642 -1.0249  1.2213  0.4486
   47TMC2    C1  715   4.084   0.440   9.445  0.3277  0.4098 -0.0346
   47TMC2    C2  716   4.031   0.321   9.386  0.5210  0.2035  0.4266
   47TMC2    C3  717   3.927   0.327   9.293  0.3242  0.1013 -0.7879
   47TMC2    C4  718   4.017   0.562   9.428 -0.0274 -0.4351  0.1972
   47TMC2    C5  719   3.922   0.564   9.330 -0.0486 -0.5040 -0.2224
   47TMC2    C6  720   3.869   0.447   9.274  0.2972  0.2134  0.0913
   47TMC2     C  721   4.207   0.437   9.523 -0.4623 -0.3650 -0.2424
   47TMC2     O  722   4.242   0.543   9.571  0.2090  0.2999 -0.5449
   47TMC2     H  723   4.077   0.224   9.401  1.9585  0.6240 -1.1656
   47TMC2    H1  724   4.079   0.647   9.456 -0.5782  0.7024 -2.0622
   47TMC2    H2  725   3.779   0.461   9.216 -0.8688  0.4467  1.9355
   47TMC2    C7  726   3.837   0.683   9.315  0.2002 -0.5084  0.2895
   47TMC2    C8  727   3.840   0.216   9.283 -0.3745  0.4382 -0.0689
   47TMC2    O1  728   3.724   0.671   9.274  0.2598  0.1535 -0.0452
   47TMC2    O2  729   3.719   0.217   9.278  0.4750 -0.5107  0.2242
   47TMC2    O5  730   3.919   0.110   9.289 -0.1273 -0.7554 -0.5376
   47TMC2    H5  731   4.013   0.118   9.261 -0.7143  1.7145 -1.7604
   48MPD2     C  732   4.474   0.390   9.624 -0.0058  0.4890  0.9569
   48MPD2    C1  733   4.414   0.309   9.529 -0.4576 -0.9044  0.3129
   48MPD2    C2  734   4.481   0.204   9.473  0.1831 -0.5046  0.3469
   48MPD2    C3  735   4.606   0.172   9.504  0.1342 -1.0652 -0.0183
   48MPD2    C4  736   4.671   0.249   9.595  0.0534  0.1599 -0.4217
   48MPD2    C5  737   4.608   0.357   9.649 -0.7129  0.4995 -0.0006
   48MPD2     H  738   4.426   0.146   9.400 -0.4594 -0.6534  0.9502
   48MPD2    H1  739   0.043   0.224   9.633  0.2833  0.6579 -0.6934
   48MPD2    H2  740   4.429   0.469   9.683 -0.8910  0.4608  0.3165
   48MPD2    H3  741   4.660   0.419   9.721  0.1442  1.3259 -1.3263
   48MPD2     N  742   4.663   0.055   9.435 -0.1430  0.1418  0.0061
   48MPD2    H5  743   4.609   4.713   9.382  0.2787  0.1798 -0.4809
   48MPD2    N1  744   4.280   0.329   9.487 -0.2091 -0.1699 -0.4923
   48MPD2    H7  745   4.245   0.262   9.419 -1.2539 -0.0161 -0.1000
   49MPD2     C  746   2.296   3.113  10.102 -0.1138  0.4061  0.4909
   49MPD2    C1  747   2.293   3.009  10.192 -0.1010 -0.3766 -0.1058
   49MPD2    C2  748   2.229   3.028  10.312  0.4328  0.4156  0.4183
   49MPD2    C3  749   2.152   3.139  10.331  0.4799  0.5404 -0.0034
   49MPD2    C4  750   2.163   3.242  10.245  0.1023  0.1685  0.4636
   49MPD2    C5  751   2.247   3.234  10.133 -0.6102 -0.1409 -0.7178
   49MPD2     H  752   2.218   2.946  10.382 -0.1998 -0.9716 -1.3024
   49MPD2    H1  753   2.108   3.333  10.270 -1.2872 -1.0994  2.0058
   49MPD2    H2  754   2.348   3.109  10.007 -0.1986 -1.3515  0.5280
   49MPD2    H3  755   2.260   3.321  10.069  0.4256  0.6421  0.5425
   49MPD2     N  756   2.065   3.153  10.441 -0.3224 -0.2515  0.3019
   49MPD2    H5  757   2.007   3.236  10.444  1.6626  1.0919  0.9472
   49MPD2    N1  758   2.369   2.894  10.157 -0.4115 -0.0184 -0.3960
   49MPD2    H7  759   2.428   2.894  10.075 -0.8261 -1.7927 -0.7109
   50TCq2    C1  760   2.365   2.775  10.224  0.2181  0.4762 -0.1348
   50TCq2    O2  761   2.305   2.750  10.324  0.4682  0.4150 -0.2807
   50TCq2    C2  762   2.459   2.680  10.169 -0.6026  0.1684  0.0643
   50TCq2    C3  763   2.522   2.706  10.057  0.4113 -0.3886  0.9028
   50TCq2    C4  764   2.637   2.637  10.010  0.2493 -0.1688 -0.3439
   50TCq2    C5  765   2.669   2.532  10.093 -0.3725 -0.1521  0.2161
   50TCq2    C6  766   2.598   2.497  10.208  0.0945 -0.1500  0.1694
   50TCq2    C7  767   2.487   2.568  10.238 -0.3584 -0.3573 -0.0756
   50TCq2    C8  768   2.612   2.357  10.256 -0.0968 -0.2459  0.1614
   50TCq2    O4  769   2.630   2.277  10.167  0.3518  0.3627 -0.0647
   50TCq2    C9  770   2.720   2.679   9.904  0.0401 -0.7944 -0.0993
   50TCq2    O5  771   2.768   2.587   9.835 -0.2859 -0.4392  0.0877
   50TCq2    O6  772   2.718   2.801   9.866 -0.1598  0.2279 -0.1892
   50TCq2    H2  773   2.499   2.791   9.993 -0.6515 -1.7250 -0.4727
   50TCq2    H3  774   2.757   2.473  10.068  1.4704  0.8261  4.3122
   50TCq2    H4  775   2.428   2.544  10.326  0.9160  0.5768  1.0390
   51MPD2     C  776   3.063   1.659   1.454  0.3438 -0.4441  0.7896
   51MPD2    C1  777   3.054   1.551   1.543  0.0249  0.2027  0.5133
   51MPD2    C2  778   3.061   1.578   1.676 -0.4564 -0.3239  0.1134
   51MPD2    C3  779   3.096   1.702   1.718  0.0968 -0.6726 -0.0627
   51MPD2    C4  780   3.106   1.808   1.633 -0.5269  0.5417 -0.0713
   51MPD2    C5  781   3.099   1.783   1.496 -0.3670  0.2761 -0.6236
   51MPD2     H  782   3.051   1.498   1.748 -1.1994 -0.5996 -0.2901
   51MPD2    H1  783   3.135   1.905   1.672 -1.0022 -0.3885  2.5628
   51MPD2    H2  784   3.064   1.643   1.346  3.8699  1.2398  0.5732
   51MPD2    H3  785   3.106   1.870   1.432 -2.7275  0.1739 -1.0096
   51MPD2     N  786   3.122   1.727   1.852 -0.3659 -0.2339  0.0001
   51MPD2    H5  787   3.151   1.819   1.884 -1.2628  0.0275  0.0781
   51MPD2    N1  788   3.048   1.415   1.495 -0.2068 -0.3024  0.0362
   51MPD2    H7  789   3.066   1.339   1.560 -0.8228 -0.2719  0.2373
   52TCq2    C1  790   3.125   1.638   1.959  0.3042  0.6363 -0.1867
   52TCq2    O2  791   3.138   1.514   1.953  0.3647 -0.2333 -0.3673
   52TCq2    C2  792   3.134   1.710   2.089 -0.1634  0.0437  0.5072
   52TCq2    C3  793   3.225   1.656   2.178 -0.6565 -0.5753 -0.8054
   52TCq2    C4  794   3.247   1.727   2.295 -0.3311  0.0338  0.4147
   52TCq2    C5  795   3.183   1.839   2.328 -0.3165  0.1990  0.2454
   52TCq2    C6  796   3.086   1.892   2.239 -0.7722 -0.3588 -0.1271
   52TCq2    C7  797   3.066   1.822   2.118  0.2596 -0.2634  0.1160
   52TCq2    C8  798   3.013   2.019   2.255  0.1499  0.4883 -0.0650
   52TCq2    O4  799   2.966   2.070   2.151  0.0817  0.5812  0.0274
   52TCq2    C9  800   3.343   1.673   2.383  0.6641 -0.1685 -0.8735
   52TCq2    O5  801   3.375   1.741   2.485  0.2944  0.2213 -0.0477
   52TCq2    O6  802   3.368   1.546   2.369 -0.4613 -0.6064  0.0590
   52TCq2    H2  803   3.288   1.577   2.139  1.7145  1.3582 -0.9286
   52TCq2    H3  804   3.207   1.890   2.421 -0.0893 -0.0010  0.2963
   52TCq2    H4  805   2.996   1.858   2.044  0.2649  0.4146  0.4438
   53TMC2    C1  806   3.026   4.665  12.111 -0.6576  0.9572 -0.0818
   53TMC2    C2  807   3.144   4.642  12.170  0.3434 -0.6302 -0.3392
   53TMC2    C3  808   3.154   4.654  12.309 -0.1024  0.0074  0.6385
   53TMC2    C4  809   2.919   4.711  12.175  0.3221 -0.6750  0.3406
   53TMC2    C5  810   2.931   0.004  12.313 -0.2918  0.0491  0.0563
   53TMC2    C6  811   3.049   4.701  12.383  0.9265  0.8796  0.7892
   53TMC2     C  812   3.015   4.615  11.981  0.4000  1.1500  0.5500
   53TMC2     O  813   3.101   4.532  11.945  0.7134  1.1265  0.0890
   53TMC2     H  814   3.232   4.622  12.110 -0.1066 -1.0647 -0.8569
   53TMC2    H1  815   2.825   0.006  12.126  2.6018 -0.4371 -3.8760
   53TMC2    H2  816   3.062   0.004  12.487 -3.8613  0.1199  1.5906
   53TMC2    C7  817   2.807   0.027  12.388 -0.7377 -0.0205  0.5082
   53TMC2    C8  818   3.282   4.653  12.356 -0.0892 -0.1253  0.2528
   53TMC2    O1  819   2.710   0.041  12.316 -0.0028  0.1201  0.5963
   53TMC2    O2  820   3.368   4.580  12.310  0.2191 -0.3321  0.3716
   53TMC2    O5  821   3.318   0.044  12.402  0.0142 -0.6735  0.2540
   53TMC2    H5  822   3.251   0.113  12.417  0.1142 -0.7414  1.0059
   54MPD2     C  823   2.916   4.547  11.713 -0.0921  1.1425 -0.2360
   54MPD2    C1  824   2.851   4.636  11.796  0.7524  0.2788 -0.3001
   54MPD2    C2  825   2.727   4.681  11.764  0.0756 -0.1154  0.4532
   54MPD2    C3  826   2.667   4.651  11.643  0.0397 -0.0254  0.9435
   54MPD2    C4  827   2.730   4.568  11.554  0.1510  0.2625 -0.5535
   54MPD2    C5  828   2.856   4.516  11.589  0.1376  0.2378 -0.0387
   54MPD2     H  829   2.683   0.022  11.837 -1.8893 -1.5519  0.5760
   54MPD2    H1  830   2.686   4.536  11.460  0.3534 -1.0196 -0.2101
   54MPD2    H2  831   3.000   4.485  11.745  1.1313  1.0135 -3.6210
   54MPD2    H3  832   2.904   4.446  11.521  2.1086 -0.1907  1.8250
   54MPD2     N  833   2.538   4.700  11.610  0.4482  0.1289  0.1313
   54MPD2    H5  834   2.511   4.682  11.513  2.6756 -3.3708  0.1387
   54MPD2    N1  835   2.901   4.668  11.923  0.3405 -0.4234 -0.4802
   54MPD2    H7  836   2.836   4.722  11.980 -0.0991 -1.5244  0.0530
   55MPD2     C  837   3.585   2.580  17.640 -0.1655  0.5533 -0.2553
   55MPD2    C1  838   3.536   2.545   0.059  0.6847  0.6368 -0.0661
   55MPD2    C2  839   3.404   2.568   0.086 -0.0063  0.0155  0.1269
   55MPD2    C3  840   3.317   2.644   0.001  0.0233 -0.1929 -0.3764
   55MPD2    C4  841   3.375   2.692  17.593 -0.4072 -0.1012 -0.2504
   55MPD2    C5  842   3.502   2.664  17.558  0.3338  0.5008 -0.2786
   55MPD2     H  843   3.355   2.538   0.178 -0.6779  0.3178 -0.1306
   55MPD2    H1  844   3.326   2.755  17.520 -1.3058  0.3315  0.7301
   55MPD2    H2  845   3.683   2.552  17.602  0.3946 -0.1985  1.7607
   55MPD2    H3  846   3.537   2.706  17.465  2.0082 -0.5134 -0.0961
   55MPD2     N  847   3.186   2.666   0.050  0.6857  0.0754 -0.3263
   55MPD2    H5  848   3.168   2.628   0.143 -0.6285 -0.2324 -0.7067
   55MPD2    N1  849   3.627   2.466   0.132 -0.1669 -0.0643  0.4280
   55MPD2    H7  850   3.717   2.466   0.086 -0.0102  0.9119  0.7209
   56TCq2    C1  851   3.603   2.424   0.260  0.7562 -0.3117  0.0419
   56TCq2    O2  852   3.505   2.438   0.328  0.0109 -0.8930 -0.2792
   56TCq2    C2  853   3.728   2.395   0.326  0.1680  0.2111  0.2206
   56TCq2    C3  854   3.831   2.341   0.256  0.0833 -0.0722 -0.5421
   56TCq2    C4  855   3.962   2.379   0.283 -0.5319  0.4584 -0.0531
   56TCq2    C5  856   3.985   2.469   0.380  0.4149  0.2023 -1.0833
   56TCq2    C6  857   3.882   2.521   0.445  0.0892 -0.3936  0.1997
   56TCq2    C7  858   3.754   2.488   0.421  0.5251 -0.6583  0.1195
   56TCq2    C8  859   3.917   2.592   0.566  0.4841 -0.1925  0.5051
   56TCq2    O4  860   4.030   2.598   0.604  0.0071 -0.7787  0.1974
   56TCq2    C9  861   4.067   2.317   0.221 -0.0065  0.0025  0.0584
   56TCq2    O5  862   4.042   2.257   0.113 -0.1184  0.0003  0.3373
   56TCq2    O6  863   4.172   2.300   0.284 -0.1306  0.3032 -0.2004
   56TCq2    H2  864   3.815   2.271   0.175 -1.7386 -2.0083  1.4716
   56TCq2    H3  865   4.087   2.491   0.408  1.0928 -1.6765 -2.0431
   56TCq2    H4  866   3.674   2.543   0.469  1.2677 -0.2115  0.8448
   57TMC2    C1  867   2.709   3.054  13.857 -0.1901 -0.2418 -0.1479
   57TMC2    C2  868   2.839   3.004  13.869  0.4470  0.1064 -0.5880
   57TMC2    C3  869   2.913   2.969  13.761  0.4589  0.2319 -0.1189
   57TMC2    C4  870   2.671   3.093  13.736  0.5163  0.4682 -0.3468
   57TMC2    C5  871   2.744   3.062  13.621 -0.1227 -0.3753 -1.1121
   57TMC2    C6  872   2.859   2.992  13.635  0.3358 -0.8229 -0.3792
   57TMC2     C  873   2.638   3.104  13.975  0.7595  0.0390 -0.5027
   57TMC2     O  874   2.575   3.210  13.972 -0.1151 -0.0189 -0.2726
   57TMC2     H  875   2.893   2.977  13.959  1.4274  0.2096 -1.1472
   57TMC2    H1  876   2.573   3.135  13.715  0.2209  0.3344  0.7532
   57TMC2    H2  877   2.931   2.978  13.555 -0.0895 -2.3532 -0.4793
   57TMC2    C7  878   2.683   3.082  13.486 -0.8292 -0.0688  0.1570
   57TMC2    C8  879   3.006   2.857  13.789  0.5572 -0.3575  0.3565
   57TMC2    O1  880   2.582   3.150  13.479  0.2143 -0.3763 -0.1450
   57TMC2    O2  881   3.096   2.858  13.870  0.0664 -0.3464 -0.0563
   57TMC2    O5  882   3.015   2.783  13.677 -0.1287 -0.3069 -0.4796
   57TMC2    H5  883   2.924   2.776  13.643  0.1690  0.3584 -1.4251
   58MPD2     C  884   2.584   3.120  14.489 -0.8846 -0.0434 -0.3902
   58MPD2    C1  885   2.559   3.216  14.399 -0.2335  0.5151 -0.4996
   58MPD2    C2  886   2.595   3.195  14.263  0.0683 -0.5548  1.0756
   58MPD2    C3  887   2.606   3.061  14.221 -0.1766  0.6996  0.2150
   58MPD2    C4  888   2.611   2.959  14.316 -0.2005  0.3348  0.5931
   58MPD2    C5  889   2.603   2.993  14.450 -0.6006 -0.4238 -0.4357
   58MPD2     H  890   2.611   3.267  14.184 -1.0187 -0.4910  0.9110
   58MPD2    H1  891   2.625   2.852  14.300 -2.2275  0.7238 -3.7953
   58MPD2    H2  892   2.572   3.127  14.596  0.5147 -0.2715 -0.2218
   58MPD2    H3  893   2.625   2.910  14.516  0.4270  0.7886  0.7665
   58MPD2     N  894   2.637   3.021  14.083 -0.6010 -0.6228 -0.2150
   58MPD2    H5  895   2.668   2.926  14.065 -0.0279 -0.3328 -0.7621
   58MPD2    N1  896   2.529   3.351  14.432 -0.0738 -0.0709  0.2631
   58MPD2    H7  897   2.496   3.407  14.355  0.5150  0.6971  0.5658
   59MPD2     C  898   0.351   3.763  13.458 -0.7886  0.4449 -0.1256
   59MPD2    C1  899   0.462   3.756  13.383  0.0739 -0.7038 -0.5109
   59MPD2    C2  900   0.575   3.826  13.419  0.5931  0.5675  0.4695
   59MPD2    C3  901   0.587   3.881  13.543 -0.1140  0.5507 -0.1373
   59MPD2    C4  902   0.473   3.886  13.620 -0.0050 -0.6693  0.3069
   59MPD2    C5  903   0.353   3.835  13.574 -0.2561 -0.3426  0.7114
   59MPD2     H  904   0.652   3.824  13.343  0.5495  2.2691  0.3759
   59MPD2    H1  905   0.468   3.930  13.718 -1.8289  2.0556 -1.0224
   59MPD2    H2  906   0.262   3.710  13.426  0.2354 -1.3137 -0.0902
   59MPD2    H3  907   0.270   3.846  13.642 -0.3764  1.0406  0.3440
   59MPD2     N  908   0.692   3.954  13.591 -0.2669  0.3293 -0.3391
   59MPD2    H5  909   0.687   4.012  13.674 -3.8510  0.9722 -1.0094
   59MPD2    N1  910   0.446   3.667  13.274 -0.4088 -0.1418  0.1787
   59MPD2    H7  911   0.359   3.616  13.266  0.4696 -2.0604  2.6461
   60TCq2    C1  912   0.523   3.662  13.160 -0.0041 -0.2278  0.0480
   60TCq2    O2  913   0.617   3.729  13.113 -0.0950 -0.1170 -0.0529
   60TCq2    C2  914   0.452   3.573  13.064  0.0674 -0.3222  0.8454
   60TCq2    C3  915   0.384   3.464  13.117  0.5911  0.0959  0.6638
   60TCq2    C4  916   0.314   3.386  13.028 -0.5181  0.3142  0.7860
   60TCq2    C5  917   0.292   3.436  12.905 -0.2327 -0.5915 -0.2347
   60TCq2    C6  918   0.374   3.531  12.854  0.6240  0.5532 -0.4402
   60TCq2    C7  919   0.452   3.607  12.936  0.3186  0.1313 -0.1353
   60TCq2    C8  920   0.350   3.573  12.715  0.3338 -0.2079 -0.1642
   60TCq2    O4  921   0.312   3.483  12.643 -0.2857 -0.0425  0.1379
   60TCq2    C9  922   0.271   3.255  13.070  0.0020  0.3118  0.0527
   60TCq2    O5  923   0.255   3.169  12.981  0.0819  0.5387  0.4400
   60TCq2    O6  924   0.254   3.240  13.196  0.0894  0.5068 -0.1368
   60TCq2    H2  925   0.397   3.432  13.220 -1.2199  1.2443  1.2501
   60TCq2    H3  926   0.238   3.375  12.833  1.7526 -1.6841 -0.7877
   60TCq2    H4  927   0.535   3.668  12.903 -1.7774  2.0664 -1.8896
   61MPD2     C  928   0.391   0.052  15.120  0.3541  0.0592  0.2885
   61MPD2    C1  929   0.309   0.121  15.202  0.0222  0.0287 -0.3782
   61MPD2    C2  930   0.307   0.258  15.197 -0.3312  0.6777 -0.0931
   61MPD2    C3  931   0.384   0.325  15.102 -0.2701  0.5085 -0.2653
   61MPD2    C4  932   0.466   0.257  15.025 -0.6315 -0.0687 -0.3223
   61MPD2    C5  933   0.476   0.122  15.038 -0.0087 -0.8533 -0.5513
   61MPD2     H  934   0.240   0.307  15.267 -1.8289 -3.6908  1.5238
   61MPD2    H1  935   0.539   0.289  14.951 -0.2164 -1.6058 -0.5874
   61MPD2    H2  936   0.391   4.670  15.116  0.6043  0.0195  1.1913
   61MPD2    H3  937   0.539   0.084  14.959  1.0136  1.8080 -1.0273
   61MPD2     N  938   0.362   0.466  15.076 -0.1918  0.1311  0.0820
   61MPD2    H5  939   0.412   0.506  14.997  0.5343 -0.3715  0.2929
   61MPD2    N1  940   0.215   0.062  15.299  0.1243  0.0766  0.0247
   61MPD2    H7  941   0.154   0.124  15.350  2.1137  2.2855 -0.3089
   62TCq2    C1  942   0.213   4.657  15.329  0.2244  0.5688  0.1594
   62TCq2    O2  943   0.284   4.565  15.293  0.3723  0.3826  0.1669
   62TCq2    C2  944   0.099   4.636  15.411 -0.8044  0.9160 -0.1557
   62TCq2    C3  945   0.111   4.525  15.493 -0.3283 -1.1684  0.6112
   62TCq2    C4  946   4.725   4.462  15.525  0.1184  0.7903 -1.1136
   62TCq2    C5  947   4.607   4.488  15.464 -0.1699 -0.0971  0.5200
   62TCq2    C6  948   4.602   4.596  15.378 -0.7287 -0.3151 -0.6428
   62TCq2    C7  949   4.708   4.672  15.346  0.2713  1.0079  0.0653
   62TCq2    C8  950   4.480   4.607  15.298  0.4906 -0.3160  0.2193
   62TCq2    O4  951   4.385   4.530  15.326 -0.1205  0.6293 -0.2826
   62TCq2    C9  952   0.014   4.348  15.611  0.3910 -0.1787  0.2192
   62TCq2    O5  953   4.632   4.291  15.645  0.1396  0.0092  0.0292
   62TCq2    O6  954   0.126   4.293  15.594  0.1563 -0.2155 -0.0548
   62TCq2    H2  955   0.203   4.510  15.548  0.6361 -1.0350 -0.9758
   62TCq2    H3  956   4.517   4.427  15.470  0.1820 -0.8033 -1.2321
   62TCq2    H4  957   4.718   0.014  15.262 -2.9130  0.7818 -0.4712
   63TMC2    C1  958   3.907   0.223  10.277 -0.2572 -0.5376 -0.0996
   63TMC2    C2  959   3.998   0.259  10.371  0.3703 -0.6406  0.4460
   63TMC2    C3  960   4.108   0.333  10.331 -0.3307  0.1561 -0.5787
   63TMC2    C4  961   3.923   0.266  10.152  0.0495 -0.0578 -0.0425
   63TMC2    C5  962   4.038   0.329  10.112  0.3958 -0.3518  0.2861
   63TMC2    C6  963   4.133   0.370  10.202  0.1642  0.1449  0.3483
   63TMC2     C  964   3.782   0.168  10.314 -0.1305  0.1908  0.1751
   63TMC2     O  965   3.686   0.180  10.239 -0.0157 -0.2657 -0.4478
   63TMC2     H  966   3.964   0.259  10.473 -0.6534  0.8462  0.0938
   63TMC2    H1  967   3.844   0.260  10.079  0.0399 -0.3727 -0.0082
   63TMC2    H2  968   4.201   0.449  10.171 -0.6216  0.1221 -1.4146
   63TMC2    C7  969   4.023   0.407   9.987 -0.5180 -0.0898  0.1481
   63TMC2    C8  970   4.229   0.324  10.412  0.1847  0.1956  0.3675
   63TMC2    O1  971   4.060   0.524  10.002 -0.6114 -1.1815 -0.1282
   63TMC2    O2  972   4.218   0.292  10.529 -0.2104 -0.1705  0.1080
   63TMC2    O5  973   4.331   0.289  10.332 -0.6970 -0.0518 -0.1288
   63TMC2    H5  974   4.317   0.272  10.237  0.9342 -1.0128 -0.2080
   64MPD2     C  975   3.519   4.548  10.585  0.0368  0.2431  0.2131
   64MPD2    C1  976   3.641   4.570  10.646  0.0730  0.6472 -0.7019
   64MPD2    C2  977   3.717   4.671  10.594 -0.3265 -0.0769 -0.5531
   64MPD2    C3  978   3.691   0.012  10.482  0.6120 -0.1206 -0.2134
   64MPD2    C4  979   3.570   4.716  10.428  0.1310 -0.6089 -0.3577
   64MPD2    C5  980   3.486   4.623  10.480  0.1538  0.6349  0.4776
   64MPD2     H  981   3.808   4.702  10.644 -1.3744  0.8933  0.7410
   64MPD2    H1  982   3.541   0.035  10.334  0.1967  0.9873  0.3676
   64MPD2    H2  983   3.448   4.472  10.615  1.0031 -1.5791 -2.1468
   64MPD2    H3  984   3.391   4.603  10.432  1.1318 -1.9323 -0.3733
   64MPD2     N  985   3.792   0.101  10.431  0.6749 -0.3059  0.6536
   64MPD2    H5  986   3.879   0.104  10.482  0.9302  0.5405  0.1636
   64MPD2    N1  987   3.697   4.480  10.739 -0.0422  0.0539 -0.0953
   64MPD2    H7  988   3.792   4.503  10.766 -0.1011  1.0428 -0.7410
   65MPD2     C  989   0.653   4.356  16.080 -0.5696  0.1402 -0.5250
   65MPD2    C1  990   0.589   4.325  15.958  0.3028 -0.0557  0.0165
   65MPD2    C2  991   0.573   4.184  15.929  0.0278  1.0531 -0.1636
   65MPD2    C3  992   0.602   4.089  16.025  0.6661 -0.8508 -0.3631
   65MPD2    C4  993   0.672   4.122  16.137 -1.0743  0.3142  0.3917
   65MPD2    C5  994   0.699   4.255  16.161 -0.3194  0.1912 -0.1139
   65MPD2     H  995   0.503   4.165  15.849 -0.9822  0.1677  0.9361
   65MPD2    H1  996   0.701   4.059  16.220  1.6102  0.0444 -0.7380
   65MPD2    H2  997   0.671   4.458  16.111 -2.4721 -0.0348  1.1939
   65MPD2    H3  998   0.754   4.287  16.250 -1.4235  0.8296  0.3408
   65MPD2     N  999   0.551   3.958  16.019 -0.3117  0.1748 -0.0280
   65MPD2    H5 1000   0.574   3.902  16.101  0.2235 -1.2612 -1.1686
   65MPD2    N1 1001   0.546   4.420  15.859 -0.1701  0.2527 -0.6527
   65MPD2    H7 1002   0.500   4.386  15.775 -0.8723  0.2527 -0.2634
   66TCq2    C1 1003   0.565   4.551  15.868 -0.5525  0.0343 -0.1427
   66TCq2    O2 1004   0.586   4.625  15.963  0.0843 -0.5691  0.4630
   66TCq2    C2 1005   0.532   4.610  15.742 -0.1247 -0.1279  0.4985
   66TCq2    C3 1006   0.566   4.538  15.627 -0.3168 -0.2126  0.3530
   66TCq2    C4 1007   0.564   4.608  15.506 -0.1351 -0.5938 -0.0386
   66TCq2    C5 1008   0.505   0.006  15.495  0.6633  0.5529  0.0365
   66TCq2    C6 1009   0.454   0.059  15.606  0.3702  1.0068 -0.1371
   66TCq2    C7 1010   0.474   0.006  15.732 -0.5281 -0.6743  0.3107
   66TCq2    C8 1011   0.357   0.167  15.593 -0.2361 -0.3185 -0.0016
   66TCq2    O4 1012   0.370   0.251  15.505 -0.2246 -0.5842 -0.0627
   66TCq2    C9 1013   0.638   4.554  15.398  1.1013  0.2341 -0.3940
   66TCq2    O5 1014   0.635   4.428  15.391 -0.0143 -0.3636 -0.2189
   66TCq2    O6 1015   0.719   4.623  15.338  0.2652  0.8914 -0.1995
   66TCq2    H2 1016   0.618   4.443  15.628  0.0743  0.0210  2.5071
   66TCq2    H3 1017   0.503   0.058  15.400  0.2394 -1.0016 -0.8062
   66TCq2    H4 1018   0.455   0.066  15.821 -0.1856  0.4077 -0.3462
   67MPD2     C 1019   0.569   3.781  14.234 -0.4305 -0.5936  0.5156
   67MPD2    C1 1020   0.505   3.895  14.290 -0.2222 -0.8748  0.0355
   67MPD2    C2 1021   0.374   3.918  14.263 -0.3038 -1.0508  0.3921
   67MPD2    C3 1022   0.298   3.827  14.200 -0.0384  0.0458  0.5639
   67MPD2    C4 1023   0.358   3.720  14.141  0.0045  0.6061 -0.9307
   67MPD2    C5 1024   0.490   3.698  14.160  0.0496  0.2881 -0.5339
   67MPD2     H 1025   0.328   4.010  14.295 -0.3796 -0.2705 -1.9568
   67MPD2    H1 1026   0.300   3.648  14.085  1.6548 -0.8361 -0.8199
   67MPD2    H2 1027   0.675   3.758  14.240 -0.1590  0.6588  0.5344
   67MPD2    H3 1028   0.540   3.609  14.123  0.3360  1.0643 -2.0174
   67MPD2     N 1029   0.158   3.831  14.170 -0.1775 -0.4120  0.7768
   67MPD2    H5 1030   0.113   3.747  14.136 -0.3823  0.1174 -0.2417
   67MPD2    N1 1031   0.574   3.985  14.372  0.4111 -0.1822  0.0504
   67MPD2    H7 1032   0.513   4.042  14.429 -0.6886 -0.3352 -0.9843
   68TCq2    C1 1033   0.709   3.981  14.412 -0.9931 -0.2894 -0.0338
   68TCq2    O2 1034   0.804   3.931  14.357  0.0023  0.0129  0.2598
   68TCq2    C2 1035   0.732   4.060  14.531 -0.9568  0.1638  0.8691
   68TCq2    C3 1036   0.632   4.133  14.587 -0.5113 -0.6045  0.1545
   68TCq2    C4 1037   0.640   4.149  14.722 -0.2968 -0.4175 -0.3177
   68TCq2    C5 1038   0.750   4.111  14.785 -0.1262 -0.1419 -0.4629
   68TCq2    C6 1039   0.852   4.041  14.728 -0.1145  0.5675 -0.4442
   68TCq2    C7 1040   0.843   4.011  14.599 -0.5895  0.7815 -0.4112
   68TCq2    C8 1041   0.957   3.972  14.806  0.2938 -0.0941  0.3797
   68TCq2    O4 1042   1.055   3.932  14.746 -0.3789  0.1015 -0.2873
   68TCq2    C9 1043   0.534   4.209  14.802 -0.1774  0.2595 -0.2128
   68TCq2    O5 1044   0.422   4.232  14.744 -0.3810  0.3775  0.6376
   68TCq2    O6 1045   0.547   4.183  14.925 -0.2842  0.5109 -0.1194
   68TCq2    H2 1046   0.540   4.160  14.537 -0.7110 -0.2810  0.6953
   68TCq2    H3 1047   0.764   4.139  14.889  0.6733  0.2945 -0.6949
   68TCq2    H4 1048   0.911   3.943  14.547 -1.4771 -0.1660 -0.3369
   69TMC2    C1 1049   2.643   0.532  12.778  0.0946  0.1135  0.3577
   69TMC2    C2 1050   2.564   0.523  12.668  0.3550 -0.5796 -0.2301
   69TMC2    C3 1051   2.600   0.586  12.555  1.1519  0.7592 -0.2152
   69TMC2    C4 1052   2.754   0.616  12.779 -0.7589 -0.0272  0.0720
   69TMC2    C5 1053   2.788   0.678  12.660 -0.3651 -0.2872  0.6566
   69TMC2    C6 1054   2.714   0.666  12.546 -0.0245  0.8356 -0.2062
   69TMC2     C 1055   2.603   0.456  12.899 -0.3911  0.7007  0.1580
   69TMC2     O 1056   2.486   0.419  12.901 -0.3947 -0.7741 -0.5280
   69TMC2     H 1057   2.473   0.464  12.673 -0.5612  0.7122 -1.5361
   69TMC2    H1 1058   2.827   0.622  12.859 -1.4986  2.3118  0.5824
   69TMC2    H2 1059   2.740   0.696  12.445 -0.0736 -1.2523 -0.8251
   69TMC2    C7 1060   2.924   0.703  12.643  0.4380  0.1893 -0.1160
   69TMC2    C8 1061   2.526   0.548  12.445  0.0398  0.2816 -0.3509
   69TMC2    O1 1062   3.011   0.621  12.673  0.8937  0.0474 -0.4965
   69TMC2    O2 1063   2.477   0.434  12.429  0.5827  0.0158 -0.3093
   69TMC2    O5 1064   2.488   0.657  12.378  0.3862 -0.9069  0.3716
   69TMC2    H5 1065   2.500   0.744  12.422 -1.7208 -1.1174  1.3153
   70MPD2     C 1066   2.804   0.344  13.180 -0.3606  0.1182 -0.0577
   70MPD2    C1 1067   2.690   0.349  13.101 -0.4050 -0.5400 -0.2068
   70MPD2    C2 1068   2.575   0.281  13.139 -0.2029  0.0837 -0.2297
   70MPD2    C3 1069   2.586   0.200  13.251  0.6247 -0.3144 -0.1306
   70MPD2    C4 1070   2.699   0.201  13.331 -0.0370 -0.7113  0.7812
   70MPD2    C5 1071   2.815   0.268  13.292  0.1813 -0.3793 -1.1618
   70MPD2     H 1072   2.483   0.279  13.082  0.2545  1.7952 -1.0103
   70MPD2    H1 1073   2.693   0.140  13.421 -2.7255 -0.2821  0.8738
   70MPD2    H2 1074   2.892   0.405  13.161 -1.8182  2.1299 -0.4369
   70MPD2    H3 1075   2.906   0.266  13.350 -0.0613  1.5485 -0.7390
   70MPD2     N 1076   2.484   0.106  13.286 -0.0273  0.1653 -0.8777
   70MPD2    H5 1077   2.504   0.035  13.356  0.1153  0.3459 -0.7350
   70MPD2    N1 1078   2.700   0.430  12.989 -0.0607 -0.1294 -0.2045
   70MPD2    H7 1079   2.788   0.480  12.985 -0.7666  0.9572 -1.6879
   71TMC2    C1 1080   3.637   1.863   2.134 -0.0786 -0.1588  0.4841
   71TMC2    C2 1081   3.708   1.836   2.248  0.1244 -0.8136 -0.0636
   71TMC2    C3 1082   3.662   1.882   2.359  0.1533  0.0519  0.2566
   71TMC2    C4 1083   3.522   1.947   2.139 -0.1498 -0.2727 -0.1684
   71TMC2    C5 1084   3.480   1.993   2.264 -0.0356 -0.0592  0.2642
   71TMC2    C6 1085   3.555   1.969   2.373  0.4423 -0.2660 -0.3630
   71TMC2     C 1086   3.681   1.806   2.012 -0.3926  0.7499  0.0966
   71TMC2     O 1087   3.797   1.774   2.005 -0.3257  0.2596  0.0834
   71TMC2     H 1088   3.790   1.765   2.249 -0.5152 -1.5545  0.1530
   71TMC2    H1 1089   3.473   1.991   2.052  0.0139 -0.5719 -0.4093
   71TMC2    H2 1090   3.548   2.020   2.468  0.1651  2.2448 -1.7411
   71TMC2    C7 1091   3.385   2.108   2.272  0.1418 -0.0808 -0.4586
   71TMC2    C8 1092   3.718   1.842   2.486  0.3052 -0.6084 -0.0146
   71TMC2    O1 1093   3.350   2.136   2.386  0.2636  0.8984  0.3215
   71TMC2    O2 1094   3.827   1.789   2.488 -1.2412  0.0587  0.7378
   71TMC2    O5 1095   3.612   1.816   2.568 -0.5158  0.0949 -0.4825
   71TMC2    H5 1096   3.538   1.776   2.517 -2.0979  0.5762  1.4216
   72MPD2     C 1097   3.598   1.673   1.517 -0.0236 -0.1830  0.0194
   72MPD2    C1 1098   3.714   1.692   1.592 -0.3226  0.5809  0.6745
   72MPD2    C2 1099   3.709   1.735   1.724  0.4440  0.2102 -0.3065
   72MPD2    C3 1100   3.588   1.753   1.789 -0.6363 -0.6625  0.6897
   72MPD2    C4 1101   3.473   1.722   1.717  0.5335  0.4042 -0.0032
   72MPD2    C5 1102   3.478   1.679   1.587  0.8939  0.1568 -0.3111
   72MPD2     H 1103   3.798   1.756   1.782 -0.4155  0.5420  0.8731
   72MPD2    H1 1104   3.375   1.719   1.765  1.0874  2.3479  1.2589
   72MPD2    H2 1105   3.600   1.666   1.409  0.7183  1.1355 -0.0485
   72MPD2    H3 1106   3.384   1.658   1.537 -0.5152  2.5962  1.3467
   72MPD2     N 1107   3.577   1.787   1.926  0.2329  0.5787 -0.5229
   72MPD2    H5 1108   3.487   1.823   1.957  0.3573 -1.5091  2.2347
   72MPD2    N1 1109   3.836   1.672   1.525  0.0042  0.3421  0.5267
   72MPD2    H7 1110   3.829   1.654   1.425 -1.2482 -0.4319  0.7460
   73TMC2    C1 1111   4.420   2.752  14.073 -0.8525 -0.3803  0.0998
   73TMC2    C2 1112   4.368   2.836  14.175 -0.2080  0.2221  0.4968
   73TMC2    C3 1113   4.388   2.790  14.298  0.4407  0.1231 -0.0449
   73TMC2    C4 1114   4.500   2.645  14.097  0.9335 -0.5674 -0.7922
   73TMC2    C5 1115   4.527   2.617  14.221 -0.2860 -0.1342  0.3393
   73TMC2    C6 1116   4.465   2.681  14.320  0.1453  0.4309 -0.2229
   73TMC2     C 1117   4.477   2.825  13.960 -0.2128 -0.6687 -0.4566
   73TMC2     O 1118   4.600   2.807  13.949  0.1663  0.2197  0.2456
   73TMC2     H 1119   4.319   2.928  14.148  1.1853  1.4559  2.2048
   73TMC2    H1 1120   4.546   2.597  14.011  2.0065 -2.0685  0.6253
   73TMC2    H2 1121   4.490   2.661  14.424  1.0878 -3.0128 -1.1000
   73TMC2    C7 1122   4.668   2.597  14.245  0.0619 -0.3404 -0.1417
   73TMC2    C8 1123   4.286   2.819  14.397 -0.0644 -0.5897  0.1290
   73TMC2    O1 1124   4.708   2.554  14.349  0.0505 -0.1689 -0.1669
   73TMC2    O2 1125   4.271   2.743  14.494  0.5264  0.3676  0.0511
   73TMC2    O5 1126   4.317   2.947  14.422  0.0554 -0.0592 -0.0316
   73TMC2    H5 1127   4.363   3.001  14.354  1.8895 -1.4405  0.1220
   74MPD2     C 1128   4.514   3.069  13.520 -0.9178 -0.5394  0.1077
   74MPD2    C1 1129   4.614   3.031  13.604 -0.0118  0.0451  0.0730
   74MPD2    C2 1130   4.568   2.976  13.721 -0.4107  0.2764  0.2221
   74MPD2    C3 1131   4.435   2.953  13.750 -0.1610 -0.0690 -0.0155
   74MPD2    C4 1132   4.341   2.997  13.663  0.8660  0.0383  0.8445
   74MPD2    C5 1133   4.384   3.055  13.548 -0.3590 -0.0807  0.3631
   74MPD2     H 1134   4.639   2.950  13.799  1.0023  3.2732 -0.1136
   74MPD2    H1 1135   4.235   2.983  13.680  0.8092 -0.5659 -0.0134
   74MPD2    H2 1136   4.528   3.114  13.422 -1.2549 -0.7036 -0.0166
   74MPD2    H3 1137   4.311   3.088  13.474 -0.2045 -1.2893 -0.3316
   74MPD2     N 1138   4.394   2.889  13.872 -0.1135  0.3823 -0.0182
   74MPD2    H5 1139   4.294   2.892  13.887 -0.3544 -2.5481 -1.1030
   74MPD2    N1 1140   0.026   3.053  13.573 -0.0906 -0.0981 -0.1647
   74MPD2    H7 1141   0.043   3.099  13.484  0.7400  0.1638  0.1307
   75TCq2    C1 1142   0.082   3.942  14.197 -0.9476  0.0775 -0.6462
   75TCq2    O2 1143   0.113   4.060  14.218 -0.3369  0.2975  0.0463
   75TCq2    C2 1144   4.669   3.924  14.174  0.6199  0.3819  0.6837
   75TCq2    C3 1145   4.613   3.797  14.186  0.1679  0.5341  0.2961
   75TCq2    C4 1146   4.483   3.779  14.136 -0.2562 -0.7587  0.0541
   75TCq2    C5 1147   4.417   3.883  14.081  0.5301 -0.1052  0.3636
   75TCq2    C6 1148   4.469   4.007  14.085  0.2243 -0.5741 -0.8807
   75TCq2    C7 1149   4.599   4.031  14.124 -0.3797  0.2130 -0.0016
   75TCq2    C8 1150   4.415   4.082  13.972 -0.1594 -0.0401 -0.3303
   75TCq2    O4 1151   4.345   4.019  13.895  0.9133  0.5919  0.2830
   75TCq2    C9 1152   4.429   3.644  14.135  0.6183 -0.2170 -0.1171
   75TCq2    O5 1153   4.515   3.553  14.155 -0.5667  0.4890  0.1725
   75TCq2    O6 1154   4.307   3.630  14.112 -0.1061  0.2727 -0.0440
   75TCq2    H2 1155   4.663   3.710  14.228  0.3213  0.4817  0.0121
   75TCq2    H3 1156   4.315   3.865  14.052  0.0794  1.3294  1.0628
   75TCq2    H4 1157   4.645   4.129  14.122  1.2380 -0.5152  1.2757
   76MPD2     C 1158   3.979   0.155  12.636  0.0462 -0.2714 -0.1413
   76MPD2    C1 1159   3.904   0.121  12.520 -0.2534 -0.8841 -1.0406
   76MPD2    C2 1160   3.924   4.722  12.461  0.2570  0.1311  0.0168
   76MPD2    C3 1161   4.006   4.631  12.508  0.0159  0.0169  0.3964
   76MPD2    C4 1162   4.075   4.659  12.624  0.1442 -0.5306  0.4019
   76MPD2    C5 1163   4.059   0.055  12.686 -0.0787 -0.0866 -0.2944
   76MPD2     H 1164   3.866   4.714  12.370 -0.8461  1.3669  0.5884
   76MPD2    H1 1165   4.132   4.587  12.681 -0.5946 -0.6238  1.0265
   76MPD2    H2 1166   3.983   0.247  12.694 -1.5056  0.7450 -1.6287
   76MPD2    H3 1167   4.110   0.071  12.780  3.8003 -2.2513 -2.0359
   76MPD2     N 1168   4.041   4.506  12.442 -0.5404  0.3638  0.0416
   76MPD2    H5 1169   4.116   4.447  12.477  0.6218  1.3847 -0.7697
   76MPD2    N1 1170   3.798   0.196  12.471  0.0031  1.0745 -0.6818
   76MPD2    H7 1171   3.744   0.154  12.397  0.3899 -0.3818 -0.1300
   77TCq2    C1 1172   3.963   4.442  12.351  0.9421 -0.2880  0.3048
   77TCq2    O2 1173   3.866   4.483  12.287 -0.3413 -0.4212  0.3057
   77TCq2    C2 1174   4.016   4.311  12.314  0.3972 -0.3789 -0.2747
   77TCq2    C3 1175   3.937   4.239  12.232  0.8763 -0.0602  0.0443
   77TCq2    C4 1176   3.967   4.111  12.200 -0.1979 -0.2226  0.4484
   77TCq2    C5 1177   4.082   4.049  12.230  0.8967  0.0583  0.3297
   77TCq2    C6 1178   4.168   4.128  12.309  0.5842  0.1511 -0.0315
   77TCq2    C7 1179   4.135   4.258  12.353 -0.6005  0.3395 -0.4165
   77TCq2    C8 1180   4.291   4.066  12.343 -0.4153 -0.0519 -0.0373
   77TCq2    O4 1181   4.305   3.952  12.297 -0.3993  0.1525 -0.1462
   77TCq2    C9 1182   3.872   4.045  12.115 -0.4110  0.3006  0.1198
   77TCq2    O5 1183   3.876   3.919  12.121 -0.1773  0.0240  1.0652
   77TCq2    O6 1184   3.814   4.119  12.030  0.8093  0.0646  0.7248
   77TCq2    H2 1185   3.848   4.281  12.187  0.4641 -0.4404  0.5001
   77TCq2    H3 1186   4.098   3.944  12.208  1.9692  0.1438  0.7144
   77TCq2    H4 1187   4.208   4.323  12.400  0.0148 -1.4547  1.1088
   78MPD1     C 1188   3.836   0.388   1.867 -0.1386 -0.1926 -0.4835
   78MPD1    C1 1189   3.940   0.310   1.886  0.1078  0.1576 -0.4524
   78MPD1    C2 1190   4.062   0.350   1.838 -0.1492 -0.0708 -0.3796
   78MPD1    C3 1191   4.076   0.474   1.789  0.4027 -0.5092  0.1211
   78MPD1    C4 1192   3.968   0.555   1.773  0.5350  0.3961 -0.9722
   78MPD1    C5 1193   3.851   0.514   1.822 -0.5330  0.3007 -0.3560
   78MPD1     H 1194   4.148   0.284   1.850  1.1674  1.8394  0.7437
   78MPD1    H1 1195   3.969   0.654   1.729  0.7735 -0.1319 -2.1545
   78MPD1    H2 1196   3.739   0.355   1.902  0.3549  0.0004  1.0826
   78MPD1    H3 1197   3.763   0.576   1.808  0.1317  1.0827 -1.0739
   78MPD1     N 1198   4.205   0.525   1.746 -0.1858 -0.2271  0.9333
   78MPD1    H5 1199   4.207   0.608   1.687  0.9894 -0.4588  0.6440
   78MPD1    N1 1200   3.929   0.176   1.934  0.6052  1.2048 -0.2741
   78MPD1    H6 1201   3.839   0.156   1.976  0.3793  1.4918 -0.6179
   78MPD1    H7 1202   4.014   0.132   1.968 -1.3734 -0.3847  2.5115
   79TCq2    C1 1203   4.327   0.456   1.763  0.1075  0.5648  0.1975
   79TCq2    O2 1204   4.364   0.368   1.842 -0.5582 -0.0228 -0.0257
   79TCq2    C2 1205   4.432   0.525   1.689 -0.2875 -0.7862 -0.2911
   79TCq2    C3 1206   4.412   0.613   1.581  0.2897  0.1034 -0.3792
   79TCq2    C4 1207   4.522   0.644   1.507 -0.9543 -0.1801 -0.7329
   79TCq2    C5 1208   4.650   0.598   1.538  0.4041  0.0277  0.4086
   79TCq2    C6 1209   4.668   0.527   1.654  0.4771 -0.3097 -0.1646
   79TCq2    C7 1210   4.558   0.486   1.722  0.1716  0.4711  0.1306
   79TCq2    C8 1211   0.080   0.474   1.678  0.4219  0.1622 -0.0096
   79TCq2    O4 1212   0.167   0.521   1.602 -0.4601 -0.5559 -0.1290
   79TCq2    C9 1213   4.502   0.712   1.383 -0.4991 -0.5503  0.6038
   79TCq2    O5 1214   4.594   0.700   1.301  0.2742 -0.2306  0.1957
   79TCq2    O6 1215   4.395   0.775   1.360  0.2257 -0.1534  0.2322
   79TCq2    H2 1216   4.316   0.640   1.537 -0.9239 -0.9096  1.6508
   79TCq2    H3 1217   0.007   0.623   1.472  0.7042 -2.2828 -0.0735
   79TCq2    H4 1218   4.570   0.432   1.815  2.7514  1.3771  0.3277
   80MPD2     C 1219   2.944   4.324  12.441 -0.2696 -0.1541 -0.2079
   80MPD2    C1 1220   2.840   4.354  12.358 -0.4019 -0.1336 -0.0314
   80MPD2    C2 1221   2.725   4.409  12.410 -0.2281 -0.3089  0.2420
   80MPD2    C3 1222   2.713   4.422  12.547 -0.2053  0.3653  0.0338
   80MPD2    C4 1223   2.814   4.389  12.627  0.6482  0.1899 -0.2744
   80MPD2    C5 1224   2.934   4.349  12.576 -0.4078  0.1619  0.2217
   80MPD2     H 1225   2.634   4.420  12.354  0.1936  1.0169 -0.1763
   80MPD2    H1 1226   2.813   4.413  12.733  1.9060  0.3861 -0.3062
   80MPD2    H2 1227   3.025   4.266  12.398 -0.4249  0.1825 -0.9718
   80MPD2    H3 1228   3.013   4.321  12.645  2.1327  2.4352 -1.7545
   80MPD2     N 1229   2.594   4.469  12.606  0.4678 -0.6417 -0.3849
   80MPD2    H5 1230   2.584   4.458  12.707  1.1958  2.7348  0.0657
   80MPD2    N1 1231   2.844   4.325  12.219  0.0030  0.1777 -0.0830
   80MPD2    H7 1232   2.754   4.344  12.178 -0.5386  0.2358  1.1110
   81TCq2    C1 1233   2.950   4.282  12.147 -0.0928 -0.7690  0.3496
   81TCq2    O2 1234   3.065   4.269  12.177  0.2472 -0.4222  0.2502
   81TCq2    C2 1235   2.912   4.208  12.029 -0.4141  0.0758  0.5381
   81TCq2    C3 1236   3.009   4.189  11.937  0.5625 -0.6396 -0.0102
   81TCq2    C4 1237   2.974   4.172  11.807 -0.4375  0.3490  0.5640
   81TCq2    C5 1238   2.841   4.157  11.771  0.5014 -0.6589  0.1086
   81TCq2    C6 1239   2.747   4.158  11.876 -0.4417 -0.5869  0.1203
   81TCq2    C7 1240   2.782   4.193  11.993  0.3242 -0.8059  0.4273
   81TCq2    C8 1241   2.612   4.118  11.843 -0.0027 -0.4842 -0.4231
   81TCq2    O4 1242   2.548   4.195  11.773 -0.1813 -0.2602 -0.5010
   81TCq2    C9 1243   3.075   4.162  11.705  0.4022 -0.9041 -0.0778
   81TCq2    O5 1244   3.042   4.116  11.588 -0.3836 -0.1882 -0.3097
   81TCq2    O6 1245   3.196   4.190  11.739 -0.1138 -0.5024  0.4027
   81TCq2    H2 1246   3.114   4.199  11.964 -0.5906  0.0343  4.1996
   81TCq2    H3 1247   2.820   4.130  11.668  0.3836 -0.1614  0.0008
   81TCq2    H4 1248   2.711   4.180  12.075  0.4677 -0.7842  0.5542
   82MPD2     C 1249   0.318   3.908  10.770 -0.1399  0.1922 -0.2217
   82MPD2    C1 1250   0.390   4.019  10.735 -0.2159  0.5934 -0.2565
   82MPD2    C2 1251   0.491   4.070  10.820  0.5593  0.6972  0.1847
   82MPD2    C3 1252   0.530   4.001  10.929 -0.3173 -0.1702  0.4406
   82MPD2    C4 1253   0.454   3.891  10.961 -0.3706  0.8589  0.0529
   82MPD2    C5 1254   0.348   3.845  10.890  0.2314  0.0393 -0.2623
   82MPD2     H 1255   0.548   4.159  10.796 -0.0540  0.6963 -1.2897
   82MPD2    H1 1256   0.469   3.826  11.047 -0.0864  1.6826  0.6265
   82MPD2    H2 1257   0.233   3.873  10.713 -1.1191  1.9557  0.1418
   82MPD2    H3 1258   0.311   3.747  10.918  0.6339 -0.4185 -1.3208
   82MPD2     N 1259   0.639   4.037  11.010 -0.0203  0.4305 -0.6493
   82MPD2    H5 1260   0.656   3.982  11.093 -0.0263 -0.2081 -1.0745
   82MPD2    N1 1261   0.359   4.093  10.618 -1.2224 -0.0667 -0.0143
   82MPD2    H7 1262   0.393   4.188  10.627  0.2701 -0.6248  0.2278
   83TCq2    C1 1263   0.731   4.136  10.994 -0.5045  0.1227  0.0623
   83TCq2    O2 1264   0.750   4.213  10.903  0.3368  0.3095  0.1118
   83TCq2    C2 1265   0.838   4.117  11.095  0.5201 -0.5360 -0.7639
   83TCq2    C3 1266   0.904   4.230  11.142 -0.5610 -0.4911 -0.1929
   83TCq2    C4 1267   0.999   4.213  11.232  0.3150  0.0528  0.2995
   83TCq2    C5 1268   1.029   4.087  11.282 -0.8549 -0.6453  0.0104
   83TCq2    C6 1269   0.985   3.974  11.212 -0.5072  0.8125  0.0586
   83TCq2    C7 1270   0.875   3.990  11.125 -0.6001  1.2765 -0.5959
   83TCq2    C8 1271   0.985   3.847  11.286  0.1847 -0.6166  0.4291
   83TCq2    O4 1272   0.968   3.854  11.406 -0.1707  0.0878 -0.8615
   83TCq2    C9 1273   1.060   4.331  11.294 -0.7491  0.0681 -0.7217
   83TCq2    O5 1274   1.053   4.440  11.234 -0.1450  0.3314  0.4296
   83TCq2    O6 1275   1.123   4.312  11.404 -0.1299 -0.1403 -0.1286
   83TCq2    H2 1276   0.877   4.325  11.097  0.5643  0.1875  0.5755
   83TCq2    H3 1277   1.109   4.075  11.354  0.4648 -0.5816 -1.4730
   83TCq2    H4 1278   0.829   3.905  11.075  0.2690 -0.1828  1.0892
   84TCq2    C1 1279   2.053   3.072  10.550  0.2964 -0.3779  0.2227
   84TCq2    O2 1280   2.105   2.966  10.564  0.5122  0.9311  0.1245
   84TCq2    C2 1281   1.967   3.128  10.656 -0.3161  0.6215  1.0924
   84TCq2    C3 1282   1.926   3.259  10.651  0.1318  0.0213 -0.6969
   84TCq2    C4 1283   1.854   3.303  10.764 -0.4241  0.4097  0.3792
   84TCq2    C5 1284   1.828   3.228  10.881 -0.0783 -0.1909 -1.1941
   84TCq2    C6 1285   1.888   3.107  10.882 -0.3777 -0.0449 -0.0554
   84TCq2    C7 1286   1.949   3.053  10.770  0.2202  0.2454  0.1418
   84TCq2    C8 1287   1.881   3.037  11.009  0.2090  0.1672  0.1960
   84TCq2    O4 1288   1.808   3.088  11.096  0.1428 -0.1483 -0.2069
   84TCq2    C9 1289   1.791   3.443  10.759  0.2718 -0.0200 -0.1575
   84TCq2    O5 1290   1.834   3.526  10.683  0.1040  0.2133  0.5877
   84TCq2    O6 1291   1.732   3.469  10.868 -0.2126  0.0870  0.0791
   84TCq2    H2 1292   1.922   3.322  10.563 -0.7915  1.2361  0.2366
   84TCq2    H3 1293   1.780   3.274  10.967 -1.2068 -1.0577 -1.3706
   84TCq2    H4 1294   1.969   2.946  10.763  1.0753  0.4434 -0.4350
   85MPD2     C 1295   2.648   0.638  16.623 -0.4534 -0.1078  0.1125
   85MPD2    C1 1296   2.611   0.623  16.493 -0.4902 -0.5846  0.7482
   85MPD2    C2 1297   2.668   0.695  16.385  0.4873 -0.4070 -0.8667
   85MPD2    C3 1298   2.770   0.786  16.411  0.3471  0.1462 -0.1914
   85MPD2    C4 1299   2.806   0.807  16.542 -0.8392  0.5623 -0.2269
   85MPD2    C5 1300   2.741   0.735  16.639 -0.4186  0.8728  0.0015
   85MPD2     H 1301   2.645   0.676  16.281  1.8390  0.7228 -1.3773
   85MPD2    H1 1302   2.872   0.889  16.570  0.0882 -1.1137  2.4705
   85MPD2    H2 1303   2.604   0.576  16.700 -0.2161 -0.2018  0.1731
   85MPD2    H3 1304   2.766   0.751  16.743  0.3085 -1.1931  0.1558
   85MPD2     N 1305   2.804   0.870  16.308  0.5034 -0.0385  0.5413
   85MPD2    H5 1306   2.738   0.861  16.231  0.2932 -1.5880  0.8976
   85MPD2    N1 1307   2.511   0.531  16.449  0.6998 -0.4715  0.5551
   85MPD2    H7 1308   2.503   0.521  16.348 -0.1155  0.7226  0.4979
   86TCq2    C1 1309   2.910   0.961  16.307  0.4417 -0.8154 -0.1795
   86TCq2    O2 1310   3.000   0.981  16.391  0.2399 -0.1555 -0.3140
   86TCq2    C2 1311   2.914   1.047  16.195 -0.1854  0.4403  0.5348
   86TCq2    C3 1312   2.807   1.064  16.110 -0.0254 -0.3861  0.3136
   86TCq2    C4 1313   2.832   1.152  16.007 -0.6346  0.2525  0.2173
   86TCq2    C5 1314   2.940   1.233  15.995 -0.1171  0.6705  0.4140
   86TCq2    C6 1315   3.043   1.213  16.084  0.2558 -0.4213 -0.5319
   86TCq2    C7 1316   3.030   1.124  16.183  0.9231  0.1043 -0.2638
   86TCq2    C8 1317   3.178   1.261  16.063 -0.0229 -0.6042 -1.1826
   86TCq2    O4 1318   3.265   1.221  16.137  0.0402  0.1186 -0.3576
   86TCq2    C9 1319   2.729   1.155  15.909  0.1762 -0.0123  0.3317
   86TCq2    O5 1320   2.742   1.224  15.806  0.0722 -0.3583 -0.3764
   86TCq2    O6 1321   2.614   1.105  15.941 -0.7555 -0.0618  0.1844
   86TCq2    H2 1322   2.713   1.011  16.112 -0.0860 -0.3223 -0.7364
   86TCq2    H3 1323   2.931   1.317  15.926  1.4972  1.3181  1.0138
   86TCq2    H4 1324   3.117   1.110  16.247 -0.3379 -0.5674  1.3261
   87MPD2     C 1325   0.029   4.366   1.894 -0.1374 -0.5818  0.2053
   87MPD2    C1 1326   0.106   4.371   1.787 -0.1445  0.4600 -0.1222
   87MPD2    C2 1327   0.127   4.490   1.719  0.5435  1.0508  0.1011
   87MPD2    C3 1328   0.067   4.610   1.760 -0.3777 -0.2650  0.2440
   87MPD2    C4 1329   4.715   4.599   1.878  0.6641  0.6992 -0.4375
   87MPD2    C5 1330   4.700   4.483   1.942  0.8145 -0.3382  0.6356
   87MPD2     H 1331   0.177   4.489   1.624  0.2266 -0.5299 -0.0576
   87MPD2    H1 1332   4.657   4.684   1.912  0.5613 -0.6015  2.5352
   87MPD2    H2 1333   4.723   4.274   1.943  0.1075 -1.0089 -0.4332
   87MPD2    H3 1334   4.640   4.490   2.032 -1.1734 -2.6820 -0.5037
   87MPD2     N 1335   0.054   4.726   1.687 -0.0575  0.1750 -0.4498
   87MPD2    H5 1336   4.702   0.060   1.714  1.1774  1.6599 -0.1703
   87MPD2    N1 1337   0.153   4.242   1.742  0.7054 -0.1490 -1.1970
   87MPD2    H7 1338   0.138   4.155   1.793  0.8419  0.3919 -0.2370
   88TCq2    C1 1339   0.241   4.221   1.639  0.3237  0.6690  0.0189
   88TCq2    O2 1340   0.319   4.299   1.582 -0.0907 -0.2528  0.7404
   88TCq2    C2 1341   0.258   4.079   1.624  0.0937 -0.0977  0.4798
   88TCq2    C3 1342   0.181   3.986   1.701 -0.0247  0.3418  0.2243
   88TCq2    C4 1343   0.237   3.866   1.733 -0.2048  1.2885  0.1739
   88TCq2    C5 1344   0.365   3.832   1.693 -0.4623  0.1773 -0.2913
   88TCq2    C6 1345   0.431   3.917   1.603 -0.3664  0.8309 -0.6640
   88TCq2    C7 1346   0.384   4.044   1.567 -0.0277  0.4411  0.2549
   88TCq2    C8 1347   0.544   3.872   1.520 -0.7016  0.0699  0.3002
   88TCq2    O4 1348   0.600   3.943   1.437  0.6325 -0.3696 -0.2031
   88TCq2    C9 1349   0.169   3.769   1.822  0.0684  0.3504 -0.1926
   88TCq2    O5 1350   0.221   3.656   1.836 -0.1027  0.1157 -0.3611
   88TCq2    O6 1351   0.047   3.797   1.842 -0.3047  0.3731  0.4463
   88TCq2    H2 1352   0.081   4.000   1.739 -0.0768 -1.0894  0.6045
   88TCq2    H3 1353   0.398   3.731   1.716  0.9557  0.5059 -0.8995
   88TCq2    H4 1354   0.436   4.107   1.496  0.3781  1.8846  1.8367
   89MPD2     C 1355   0.719   2.754   1.995  0.5862  0.4698  0.5264
   89MPD2    C1 1356   0.709   2.640   2.070  0.2037  0.7201  0.1983
   89MPD2    C2 1357   0.789   2.536   2.018  0.4601  0.1983  0.6818
   89MPD2    C3 1358   0.854   2.541   1.896 -0.5504  0.1135  0.4402
   89MPD2    C4 1359   0.858   2.658   1.822  0.5579  0.2093 -0.1713
   89MPD2    C5 1360   0.787   2.758   1.873 -0.3832  0.7498 -0.3777
   89MPD2     H 1361   0.785   2.438   2.065  0.7038 -0.0144  0.2519
   89MPD2    H1 1362   0.909   2.667   1.727 -1.3122 -1.1523 -1.3156
   89MPD2    H2 1363   0.661   2.842   2.020  0.3363  0.3802  0.2642
   89MPD2    H3 1364   0.791   2.856   1.829 -0.1405 -0.7238 -3.6509
   89MPD2     N 1365   0.922   2.424   1.856  0.2128 -0.4124  0.3195
   89MPD2    H5 1366   0.916   2.346   1.920  0.3059 -1.0908 -0.5142
   89MPD2    N1 1367   0.623   2.619   2.177 -0.2890 -0.5040  0.7144
   89MPD2    H7 1368   0.616   2.524   2.213 -0.1646 -1.2965 -1.3195
   90TCq2    C1 1369   0.993   2.411   1.739  0.2902 -0.5849 -0.3644
   90TCq2    O2 1370   0.997   2.477   1.635  0.6058 -0.5373  0.4190
   90TCq2    C2 1371   1.066   2.285   1.742 -0.5836  0.1304 -0.0881
   90TCq2    C3 1372   1.093   2.206   1.851  0.0109 -0.5223  0.0347
   90TCq2    C4 1373   1.151   2.088   1.834 -0.5968  0.1716 -0.0503
   90TCq2    C5 1374   1.201   2.048   1.718 -0.3406  0.0664  0.1032
   90TCq2    C6 1375   1.193   2.136   1.618 -0.5707 -0.4649  0.0956
   90TCq2    C7 1376   1.123   2.250   1.617  0.7590  0.3367 -0.2021
   90TCq2    C8 1377   1.266   2.098   1.492 -0.1901 -0.4058  0.0586
   90TCq2    O4 1378   1.308   1.983   1.486  0.0078  0.1561 -0.5938
   90TCq2    C9 1379   1.185   2.002   1.954 -0.0988  0.0122 -0.7159
   90TCq2    O5 1380   1.291   1.937   1.942  0.0177 -0.1077  0.3212
   90TCq2    O6 1381   1.128   2.039   2.062  0.1552 -0.4064  0.5537
   90TCq2    H2 1382   1.071   2.237   1.952 -3.1285 -0.6126 -0.6407
   90TCq2    H3 1383   1.235   1.947   1.703 -1.1324 -0.0270 -1.0162
   90TCq2    H4 1384   1.093   2.302   1.527  0.9995  2.3954  0.8815
   91TMC2    C1 1385   3.047   2.051  16.921 -0.6760  0.2256 -0.4036
   91TMC2    C2 1386   3.110   2.085  16.804 -0.5328  0.2341  0.5564
   91TMC2    C3 1387   3.034   2.136  16.698  0.0454  0.3546  0.1284
   91TMC2    C4 1388   2.914   2.063  16.937  0.5995  0.1714 -0.1526
   91TMC2    C5 1389   2.840   2.090  16.823 -0.1816 -0.2874 -0.0415
   91TMC2    C6 1390   2.895   2.144  16.705 -0.6973 -0.5940  0.7671
   91TMC2     C 1391   3.126   2.002  17.037  0.3283  0.2705  0.0317
   91TMC2     O 1392   3.069   1.929  17.118  0.0862 -0.3498  0.0704
   91TMC2     H 1393   3.213   2.062  16.780 -1.2263  0.4077 -2.6460
   91TMC2    H1 1394   2.861   2.016  17.019 -1.6790  0.4183 -1.4588
   91TMC2    H2 1395   2.837   2.201  16.634  0.9410  0.2269  0.0974
   91TMC2    C7 1396   2.702   2.083  16.843  0.4777  0.3992  0.1155
   91TMC2    C8 1397   3.092   2.218  16.597 -0.1567 -0.4676 -0.4209
   91TMC2    O1 1398   2.654   2.111  16.953 -0.1961 -0.1897  0.3516
   91TMC2    O2 1399   3.055   2.333  16.585 -0.1856  0.0560  0.3035
   91TMC2    O5 1400   3.198   2.165  16.533 -0.1947 -0.2649 -0.9782
   91TMC2    H5 1401   3.205   2.068  16.545 -0.8687 -0.1377  0.4186
   92MPD2     C 1402   3.344   1.966  17.246 -0.0592 -0.2893  0.4885
   92MPD2    C1 1403   3.359   2.024  17.122 -0.0131  0.0271  0.2890
   92MPD2    C2 1404   3.481   2.071  17.097  0.4875  0.0043 -0.0907
   92MPD2    C3 1405   3.586   2.054  17.187  0.0470 -1.1122 -1.2139
   92MPD2    C4 1406   3.569   1.983  17.305  0.0318 -0.1599 -0.0590
   92MPD2    C5 1407   3.443   1.943  17.335  0.4682 -0.4743  0.9293
   92MPD2     H 1408   3.496   2.127  17.006  1.3772 -0.2534 -0.0964
   92MPD2    H1 1409   3.650   1.958  17.373 -0.4170 -2.3256 -0.3080
   92MPD2    H2 1410   3.246   1.939  17.283  0.4394 -2.2151  0.3719
   92MPD2    H3 1411   3.427   1.907  17.436 -2.2438 -1.8174  0.0380
   92MPD2     N 1412   3.710   2.109  17.147 -0.2495  0.6812  0.1732
   92MPD2    H5 1413   3.714   2.137  17.050  0.5555  3.3123  0.9879
   92MPD2    N1 1414   3.253   2.052  17.034  0.1658  0.7268  0.6512
   92MPD2    H7 1415   3.263   2.129  16.969  0.2112  1.8396  1.9650
   93MPD2     C 1416   4.586   1.866  13.649 -0.1777  0.0625 -0.4652
   93MPD2    C1 1417   4.607   2.006  13.671 -0.1291 -0.2770 -0.0315
   93MPD2    C2 1418   4.484   2.079  13.690  0.9127  0.4342 -0.2279
   93MPD2    C3 1419   4.363   2.012  13.692 -0.7825  0.5520  0.3300
   93MPD2    C4 1420   4.352   1.875  13.666  0.0915 -0.3374 -0.0023
   93MPD2    C5 1421   4.468   1.804  13.653 -0.1952 -0.0410 -0.4283
   93MPD2     H 1422   4.490   2.188  13.690  1.4221  0.4135 -1.6732
   93MPD2    H1 1423   4.257   1.823  13.662 -0.3440  0.5343 -1.1294
   93MPD2    H2 1424   4.672   1.805  13.622 -1.2255 -1.3839 -0.5088
   93MPD2    H3 1425   4.465   1.697  13.637 -1.7403 -0.3662  1.9807
   93MPD2     N 1426   4.236   2.069  13.710 -0.1747 -0.0808  0.0830
   93MPD2    H5 1427   4.154   2.014  13.688  0.7945 -2.3932  2.3022
   93MPD2    N1 1428   0.008   2.065  13.665  0.0765  0.0386  0.0923
   93MPD2    H7 1429   0.016   2.162  13.694 -0.1668  0.1160 -0.1001
   94TCq2    C1 1430   0.133   2.011  13.645 -0.1836 -0.5280 -0.2512
   94TCq2    O2 1431   0.160   1.893  13.657  0.1918 -0.9944 -0.2697
   94TCq2    C2 1432   0.233   2.112  13.615 -0.2679  0.4279 -0.0135
   94TCq2    C3 1433   0.194   2.242  13.589 -0.3353 -0.6090  0.0486
   94TCq2    C4 1434   0.275   2.346  13.627  0.4673  0.3106  0.7557
   94TCq2    C5 1435   0.403   2.317  13.676  0.7094 -0.2783 -0.1089
   94TCq2    C6 1436   0.433   2.186  13.706 -0.0443  0.4059  0.2001
   94TCq2    C7 1437   0.351   2.077  13.671 -1.0629  0.4981 -0.0845
   94TCq2    C8 1438   0.555   2.158  13.780  0.3146 -0.5395 -0.2119
   94TCq2    O4 1439   0.603   2.046  13.774  0.7957 -0.1184 -0.4405
   94TCq2    C9 1440   0.249   2.487  13.593  0.1825  0.1198  0.4118
   94TCq2    O5 1441   0.131   2.504  13.562 -0.4306 -0.1730 -0.4916
   94TCq2    O6 1442   0.339   2.553  13.540  0.4481 -0.3828 -0.1022
   94TCq2    H2 1443   0.100   2.256  13.535 -0.4870  2.6467  1.1727
   94TCq2    H3 1444   0.466   2.400  13.706  1.3188 -0.9940  0.5829
   94TCq2    H4 1445   0.371   1.979  13.713  0.7866  1.3649  1.0743
   95TMC2    C1 1446   4.471   3.700  16.698 -0.3844  0.5298  0.0152
   95TMC2    C2 1447   4.475   3.670  16.825 -0.2871  0.2963  0.6290
   95TMC2    C3 1448   4.359   3.675  16.893 -0.2288  0.4069  0.0798
   95TMC2    C4 1449   4.356   3.725  16.627  0.8489 -0.4217  0.3182
   95TMC2    C5 1450   4.241   3.733  16.702  0.4969  0.1823 -0.4070
   95TMC2    C6 1451   4.238   3.711  16.837 -0.7478  0.5858 -0.2613
   95TMC2     C 1452   4.596   3.718  16.626  0.3967 -0.4326  0.2579
   95TMC2     O 1453   4.587   3.714  16.502  0.2768  0.2706  0.3697
   95TMC2     H 1454   4.561   3.626  16.875 -0.5662 -0.5077  0.4032
   95TMC2    H1 1455   4.352   3.754  16.523 -0.7463  1.5922  0.9320
   95TMC2    H2 1456   4.144   3.709  16.891 -0.6073 -0.0230 -0.0360
   95TMC2    C7 1457   4.120   3.787  16.634 -0.1664 -0.1401 -0.5788
   95TMC2    C8 1458   4.369   3.646  17.032  0.3976  0.2509  0.0368
   95TMC2    O1 1459   4.109   3.755  16.513 -0.0520  0.0846 -0.3711
   95TMC2    O2 1460   4.458   3.574  17.085  0.0381  0.5209  0.1122
   95TMC2    O5 1461   4.299   3.745  17.090 -0.1036  0.0710  0.1983
   95TMC2    H5 1462   4.242   3.799  17.032  0.4412 -0.3706 -0.7465
   96MPD2     C 1463   0.365   3.800  16.541 -0.3677 -0.3537  0.5060
   96MPD2    C1 1464   0.273   3.738  16.462 -0.3080  0.5195 -0.3369
   96MPD2    C2 1465   0.146   3.699  16.515 -0.1133  0.1809 -0.0663
   96MPD2    C3 1466   0.119   3.732  16.643  0.4719 -0.2330 -0.0193
   96MPD2    C4 1467   0.209   3.801  16.722 -0.0087 -0.0132  1.2407
   96MPD2    C5 1468   0.332   3.839  16.669 -0.7504 -0.0189 -0.0262
   96MPD2     H 1469   0.070   3.661  16.448  0.1674 -0.2292 -0.1495
   96MPD2    H1 1470   0.186   3.838  16.821  1.2391 -2.3191  2.3989
   96MPD2    H2 1471   0.460   3.830  16.499  0.1814 -2.7077  0.0300
   96MPD2    H3 1472   0.400   3.906  16.721  0.7435  0.9122 -3.1391
   96MPD2     N 1473   4.711   3.720  16.703  0.0399 -0.1511  0.6908
   96MPD2    H5 1474   4.701   3.746  16.801 -1.6396 -1.8128  0.9602
   96MPD2    N1 1475   0.320   3.700  16.334 -0.0013  0.2696 -0.0762
   96MPD2    H7 1476   0.411   3.728  16.302 -0.3983  1.5512 -0.0802
   97MPD2     C 1477   2.117   0.674   1.705  0.4938  0.5443 -0.1794
   97MPD2    C1 1478   2.093   0.783   1.625  0.0820  0.4362 -0.3716
   97MPD2    C2 1479   2.198   0.828   1.542  0.4497  0.7971  0.0573
   97MPD2    C3 1480   2.320   0.764   1.542 -0.1719 -0.2075 -0.2354
   97MPD2    C4 1481   2.332   0.651   1.621  0.2293 -0.0049  0.2568
   97MPD2    C5 1482   2.240   0.610   1.712 -0.4348  0.4321 -0.0661
   97MPD2     H 1483   2.186   0.919   1.485  1.1782  2.2388  2.1593
   97MPD2    H1 1484   2.426   0.602   1.601 -1.6876 -2.5404 -2.5908
   97MPD2    H2 1485   2.033   0.627   1.755  0.7348  0.0163 -0.2673
   97MPD2    H3 1486   2.255   0.527   1.780  3.8743  0.1082 -1.4161
   97MPD2     N 1487   2.431   0.812   1.470  1.3092 -0.3064  0.3585
   97MPD2    H5 1488   2.508   0.747   1.462  2.1808  0.7631  0.1622
   97MPD2    N1 1489   1.967   0.846   1.643 -0.4769  0.0409  0.3544
   97MPD2    H7 1490   1.898   0.798   1.701 -0.2486  0.2816  0.8217
   98TCq2    C1 1491   2.440   0.934   1.417 -0.2354 -0.0924  0.4362
   98TCq2    O2 1492   2.379   1.037   1.443  0.2786 -0.2320  0.4715
   98TCq2    C2 1493   2.557   0.944   1.328  0.2465  0.5158  0.6046
   98TCq2    C3 1494   2.629   0.829   1.288 -0.2722  0.1842  0.0308
   98TCq2    C4 1495   2.712   0.832   1.186 -0.1437 -0.3122  0.1823
   98TCq2    C5 1496   2.748   0.952   1.131  0.2154  0.2384  0.5436
   98TCq2    C6 1497   2.686   1.063   1.174  0.5530  0.4078 -0.0987
   98TCq2    C7 1498   2.580   1.068   1.263  0.0202 -0.3815 -0.1979
   98TCq2    C8 1499   2.724   1.193   1.114 -0.1059  0.2832 -1.2021
   98TCq2    O4 1500   2.794   1.190   1.017 -0.3249  0.3022 -0.4045
   98TCq2    C9 1501   2.763   0.706   1.138  0.0753  0.2201 -0.2265
   98TCq2    O5 1502   2.734   0.593   1.193  0.1079 -0.0284  0.4731
   98TCq2    O6 1503   2.845   0.718   1.046  0.0903 -0.3792  0.1725
   98TCq2    H2 1504   2.620   0.727   1.323  0.1586 -0.3861 -1.5336
   98TCq2    H3 1505   2.816   0.962   1.046  0.0461  0.8911  0.4831
   98TCq2    H4 1506   2.526   1.159   1.285  0.5860  0.2149 -1.2623
   99MPD2     C 1507   0.926   3.474   2.243 -0.5156  0.1144 -0.8758
   99MPD2    C1 1508   0.792   3.490   2.227  0.3056 -0.2487 -0.7970
   99MPD2    C2 1509   0.731   3.418   2.128  0.1228 -0.4433  0.1552
   99MPD2    C3 1510   0.799   3.328   2.051  0.5991 -0.2879 -0.1481
   99MPD2    C4 1511   0.936   3.319   2.064 -0.3021 -0.6511 -0.1373
   99MPD2    C5 1512   0.995   3.391   2.159  0.1248  0.4808 -0.1081
   99MPD2     H 1513   0.624   3.428   2.114  0.3541  2.2333  0.3502
   99MPD2    H1 1514   0.999   3.269   1.993  1.3945  0.9235  0.2591
   99MPD2    H2 1515   0.981   3.531   2.318 -0.8036  1.4694 -1.6939
   99MPD2    H3 1516   1.103   3.394   2.151  0.2011  1.1168  1.1424
   99MPD2     N 1517   0.725   3.262   1.953  0.0796 -0.0171 -0.0067
   99MPD2    H5 1518   0.632   3.301   1.943  0.6549  1.4145  0.1986
   99MPD2    N1 1519   0.709   3.565   2.314 -0.2386 -0.4965  0.4992
   99MPD2    H7 1520   0.608   3.558   2.308 -0.1453  0.2833 -1.6039
  100TCq2    C1 1521   0.749   3.668   2.395 -0.8707 -0.2075 -0.3253
  100TCq2    O2 1522   0.864   3.707   2.403 -0.7177 -0.6889 -0.3231
  100TCq2    C2 1523   0.650   3.712   2.490  0.2193  0.7887  0.1840
  100TCq2    C3 1524   0.675   3.841   2.537 -0.0517 -0.1305 -0.1719
  100TCq2    C4 1525   0.581   3.892   2.624  0.6984 -0.6426  0.0488
  100TCq2    C5 1526   0.465   3.823   2.657  0.0834  0.0025 -0.1029
  100TCq2    C6 1527   0.444   3.704   2.598 -0.0132 -0.4834 -0.5363
  100TCq2    C7 1528   0.535   3.641   2.517 -0.1054 -0.3552  0.3590
  100TCq2    C8 1529   0.317   3.645   2.639  0.8184 -0.3884  0.5483
  100TCq2    O4 1530   0.283   3.670   2.753 -0.2357 -0.0553 -0.4285
  100TCq2    C9 1531   0.591   4.030   2.649  0.3728 -1.3489 -0.3087
  100TCq2    O5 1532   0.493   4.082   2.705 -0.0296  0.6562  0.2017
  100TCq2    O6 1533   0.682   4.093   2.584 -0.5250  0.1627  0.1702
  100TCq2    H2 1534   0.754   3.907   2.503  1.6413 -2.4339 -0.6669
  100TCq2    H3 1535   0.381   3.869   2.707  0.0620  0.2400 -0.3627
  100TCq2    H4 1536   0.520   3.544   2.473  0.7766 -0.0470 -0.6251
  101MPD2     C 1537   1.552   4.561  13.368 -0.0895 -0.3676  0.5798
  101MPD2    C1 1538   1.435   4.616  13.410  0.2039 -0.7729 -0.4940
  101MPD2    C2 1539   1.338   4.538  13.461  0.3519  0.0789 -0.5854
  101MPD2    C3 1540   1.345   4.399  13.463  0.4212 -0.8498  0.1786
  101MPD2    C4 1541   1.456   4.342  13.410  0.0951 -0.4111  0.2804
  101MPD2    C5 1542   1.567   4.426  13.375  0.1117 -0.1045 -0.4151
  101MPD2     H 1543   1.251   4.582  13.509  0.4223 -0.1674 -0.2282
  101MPD2    H1 1544   1.466   4.235  13.395  1.8907 -0.0948 -0.7243
  101MPD2    H2 1545   1.633   4.627  13.340  0.0785 -1.0323 -0.4930
  101MPD2    H3 1546   1.658   4.372  13.353 -1.2622 -1.2044 -3.4707
  101MPD2     N 1547   1.242   4.325  13.513 -0.2096 -0.1757 -0.2579
  101MPD2    H5 1548   1.169   4.376  13.562  0.2162  0.5553 -0.3965
  101MPD2    N1 1549   1.429   0.029  13.397 -0.5466 -0.7133 -0.2622
  101MPD2    H7 1550   1.509   0.074  13.355  0.7507 -0.7822  2.1470
  102TCq2    C1 1551   1.485   0.399  13.094 -0.1304 -0.2959  0.2553
  102TCq2    O2 1552   1.588   0.329  13.084 -0.2035 -0.1201 -0.0072
  102TCq2    C2 1553   1.414   0.383  13.224 -0.4225 -0.4493  0.0933
  102TCq2    C3 1554   1.325   0.478  13.268  0.6866 -0.0907  0.5822
  102TCq2    C4 1555   1.229   0.448  13.362 -0.3746 -0.6177 -0.8427
  102TCq2    C5 1556   1.231   0.331  13.428 -0.3082 -0.0501  0.4307
  102TCq2    C6 1557   1.336   0.245  13.396  0.0131 -0.3592  0.1742
  102TCq2    C7 1558   1.424   0.264  13.291 -0.6450  0.3718 -0.1448
  102TCq2    C8 1559   1.324   0.105  13.435 -0.3610 -0.2451  0.1328
  102TCq2    O4 1560   1.216   0.069  13.476 -0.1986 -0.1288 -0.1420
  102TCq2    C9 1561   1.113   0.536  13.369  0.2933 -0.0822 -0.2589
  102TCq2    O5 1562   1.018   0.487  13.440  0.4583 -0.1599  0.7018
  102TCq2    O6 1563   1.090   0.620  13.281 -0.7048  0.0423 -0.0981
  102TCq2    H2 1564   1.302   0.566  13.208  0.3110  0.8218  2.0564
  102TCq2    H3 1565   1.151   0.297  13.493 -0.9642 -0.6543 -0.6960
  102TCq2    H4 1566   1.498   0.197  13.248  0.7498  0.6439  1.7766
  103TMC2    C1 1567   4.683   4.337  12.971  0.0076 -0.8240  0.0285
  103TMC2    C2 1568   0.084   4.308  13.023 -0.0404 -0.2130  0.2942
  103TMC2    C3 1569   0.128   4.382  13.126  0.3748  0.6382  0.5393
  103TMC2    C4 1570   4.604   4.431  13.032 -0.6257 -0.4540  0.1790
  103TMC2    C5 1571   4.659   4.508  13.128 -0.2921 -0.1701  0.1325
  103TMC2    C6 1572   0.060   4.487  13.184 -0.2094 -0.8174  0.3116
  103TMC2     C 1573   4.622   4.255  12.872 -0.0314 -0.3879  0.0262
  103TMC2     O 1574   4.499   4.263  12.878  0.4182  0.0070 -0.2274
  103TMC2     H 1575   0.137   4.218  12.995 -0.8690  0.2207 -2.6544
  103TMC2    H1 1576   4.509   4.457  12.989 -0.8573 -0.3772  0.7318
  103TMC2    H2 1577   0.109   4.555  13.253  0.6479 -0.3199 -0.7827
  103TMC2    C7 1578   4.560   4.566  13.222  0.7236 -0.1204  0.8125
  103TMC2    C8 1579   0.240   4.330  13.204 -0.0091 -0.6725 -0.5028
  103TMC2    O1 1580   4.444   4.530  13.198  0.0365  0.0676  0.3380
  103TMC2    O2 1581   0.261   4.213  13.232 -0.2652  0.4876  0.4450
  103TMC2    O5 1582   0.331   4.428  13.201 -0.4838  0.1517  0.3263
  103TMC2    H5 1583   0.318   4.486  13.123  0.5155 -0.3969 -0.2622
  104MPD2     C 1584   0.012   4.040  12.606  0.4347 -0.0337  0.3464
  104MPD2    C1 1585   4.651   4.124  12.671  0.5164 -0.6597  0.0836
  104MPD2    C2 1586   4.524   4.148  12.612 -0.3103  0.0385 -0.3370
  104MPD2    C3 1587   4.480   4.078  12.503 -0.0320 -0.7626  0.4849
  104MPD2    C4 1588   4.569   3.987  12.444 -0.0605  0.7208 -0.1767
  104MPD2    C5 1589   4.694   3.970  12.493  0.0997 -0.4492  0.6922
  104MPD2     H 1590   4.461   4.225  12.655  2.0191  1.1946  1.0040
  104MPD2    H1 1591   4.549   3.933  12.352  0.8593  0.2538 -0.0974
  104MPD2    H2 1592   0.109   4.019  12.648  0.9013 -2.7399 -2.1348
  104MPD2    H3 1593   0.035   3.899  12.446  0.2237 -0.1794  0.4568
  104MPD2     N 1594   4.357   4.121  12.448  0.0810 -0.4936  0.0687
  104MPD2    H5 1595   4.317   4.202  12.496  1.6147  1.1147 -1.3765
  104MPD2    N1 1596   4.706   4.185  12.783 -0.1105  0.1578 -0.7223
  104MPD2    H7 1597   0.080   4.183  12.802 -0.2357 -0.3374 -0.0953
  105MPD2     C 1598   1.565   3.551   0.346  0.0371  0.0323  0.2704
  105MPD2    C1 1599   1.477   3.655   0.332  0.0319  0.0465 -0.0401
  105MPD2    C2 1600   1.394   3.694   0.437 -0.1566 -0.2929 -0.3456
  105MPD2    C3 1601   1.396   3.628   0.558 -0.3975  0.1859 -0.1436
  105MPD2    C4 1602   1.487   3.528   0.570  0.3298 -0.5404  0.4226
  105MPD2    C5 1603   1.560   3.485   0.468 -0.0718 -1.0443  0.1742
  105MPD2     H 1604   1.336   3.784   0.423 -1.8309 -0.8813  2.6928
  105MPD2    H1 1605   1.507   3.481   0.666 -1.8588 -2.2033  0.0763
  105MPD2    H2 1606   1.622   3.507   0.265 -1.1138 -3.6074  1.4544
  105MPD2    H3 1607   1.636   3.408   0.477  0.5198 -0.5538 -0.5897
  105MPD2     N 1608   1.332   3.697   0.661  0.3540  0.2619  0.0556
  105MPD2    H5 1609   1.280   3.780   0.632  0.2707 -1.0996 -3.6607
  105MPD2    N1 1610   1.463   3.727   0.212 -0.4223 -0.0600  1.2703
  105MPD2    H7 1611   1.392   3.799   0.216 -1.4522 -1.0162  0.0709
  106TCq2    C1 1612   1.319   3.662   0.797  0.0977 -1.1598 -0.2454
  106TCq2    O2 1613   1.385   3.577   0.855  0.6136 -0.4458  0.4579
  106TCq2    C2 1614   1.218   3.724   0.878  0.9552 -0.1386 -0.0596
  106TCq2    C3 1615   1.150   3.833   0.837 -0.0918  0.4311  0.0457
  106TCq2    C4 1616   1.059   3.885   0.921 -0.0090  0.6355  0.1346
  106TCq2    C5 1617   1.038   3.838   1.047  0.9243  0.1105 -0.1429
  106TCq2    C6 1618   1.099   3.718   1.087 -0.3390 -0.4365 -0.4244
  106TCq2    C7 1619   1.192   3.659   1.001  0.0133  0.3053 -0.6466
  106TCq2    C8 1620   1.040   3.623   1.180 -0.4085  0.4165 -0.1544
  106TCq2    O4 1621   1.061   3.505   1.173 -0.6667 -0.2350  0.0013
  106TCq2    C9 1622   0.998   4.014   0.895 -0.2227 -0.9877  0.1888
  106TCq2    O5 1623   1.039   4.083   0.795  0.0505 -0.6836  1.0810
  106TCq2    O6 1624   0.899   4.055   0.955  0.0167 -0.2465 -0.1739
  106TCq2    H2 1625   1.184   3.889   0.751  1.1763  0.7899  0.7756
  106TCq2    H3 1626   0.972   3.897   1.111 -0.0046 -0.9628 -0.1202
  106TCq2    H4 1627   1.248   3.570   1.027 -1.4490 -0.7083 -1.0059
  107TMC2    C1 1628   1.743   2.817  11.919  0.2757 -0.5256 -0.7652
  107TMC2    C2 1629   1.608   2.804  11.899 -0.2328  0.4242  0.1556
  107TMC2    C3 1630   1.565   2.784  11.773 -0.2167 -0.0490  0.7412
  107TMC2    C4 1631   1.831   2.802  11.824 -0.3218 -0.3556  0.3781
  107TMC2    C5 1632   1.791   2.783  11.696 -0.1595 -0.4443 -0.0307
  107TMC2    C6 1633   1.655   2.766  11.667 -0.2268  0.2353  0.2629
  107TMC2     C 1634   1.766   2.906  12.036 -0.6508 -0.5721 -0.9372
  107TMC2     O 1635   1.667   2.944  12.101 -0.4820  0.7375 -0.3930
  107TMC2     H 1636   1.532   2.813  11.976 -0.8158  0.4637 -0.4171
  107TMC2    H1 1637   1.938   2.807  11.841 -0.4376  3.3032 -0.1017
  107TMC2    H2 1638   1.621   2.745  11.566  2.4103 -1.0219 -0.3525
  107TMC2    C7 1639   1.894   2.756  11.596 -0.3336 -0.2888 -0.0247
  107TMC2    C8 1640   1.428   2.755  11.755  0.1484  0.0427  0.1223
  107TMC2    O1 1641   1.998   2.700  11.625 -1.0507  0.4477 -0.8837
  107TMC2    O2 1642   1.398   2.688  11.658 -0.1661 -0.1999 -0.3650
  107TMC2    O5 1643   1.372   2.871  11.786 -0.1823  0.3234 -0.3503
  107TMC2    H5 1644   1.439   2.937  11.814 -1.8599  1.8448  0.0574
  108MPD2     C 1645   2.080   3.075  12.149  0.1329 -0.0190 -0.0150
  108MPD2    C1 1646   1.941   3.055  12.130 -0.5031 -0.4828  0.3013
  108MPD2    C2 1647   1.853   3.153  12.181  0.4849  0.3309  0.9060
  108MPD2    C3 1648   1.902   3.255  12.266 -0.7625 -0.0255  0.5333
  108MPD2    C4 1649   2.040   3.266  12.286  0.3391 -0.1870  0.3323
  108MPD2    C5 1650   2.125   3.177  12.230 -0.6578 -0.4070  0.4366
  108MPD2     H 1651   1.748   3.149  12.153  0.8554 -0.6498 -0.3531
  108MPD2    H1 1652   2.083   3.358  12.324  1.5875 -1.2981  1.5758
  108MPD2    H2 1653   2.156   3.015  12.099 -1.0946  1.0505 -3.1960
  108MPD2    H3 1654   2.232   3.195  12.236 -0.8400  0.6248  0.6078
  108MPD2     N 1655   1.821   3.351  12.333  0.1405 -0.0457  0.2699
  108MPD2    H5 1656   1.878   3.416  12.384  2.1554 -0.4401 -1.4783
  108MPD2    N1 1657   1.898   2.940  12.058  1.1613  0.1821  0.2360
  108MPD2    H7 1658   1.972   2.896  12.005  2.2411  0.7123  1.3258
  109MPD2     C 1659   0.917   0.304   2.400 -0.7227  0.1794  0.1973
  109MPD2    C1 1660   0.977   0.406   2.334 -0.2992  0.2890  0.1375
  109MPD2    C2 1661   1.096   0.458   2.389 -0.1336  1.0901  0.0043
  109MPD2    C3 1662   1.153   0.416   2.506 -0.6152  0.1967  0.3235
  109MPD2    C4 1663   1.099   0.306   2.564  0.0461 -0.1058 -0.2830
  109MPD2    C5 1664   0.980   0.259   2.511 -0.2188 -0.5413  0.2122
  109MPD2     H 1665   1.154   0.530   2.334  0.1733 -0.8887 -2.2836
  109MPD2    H1 1666   1.147   0.262   2.651 -0.8199 -0.4225  0.0262
  109MPD2    H2 1667   0.828   0.254   2.365 -1.1793 -0.2621  1.9948
  109MPD2    H3 1668   0.936   0.170   2.556 -0.9970 -2.0832 -3.5887
  109MPD2     N 1669   1.278   0.469   2.536 -0.4825 -0.4658  0.3630
  109MPD2    H5 1670   1.314   0.538   2.471  2.5852 -2.3706  0.0293
  109MPD2    N1 1671   0.923   0.454   2.215 -0.2193  0.7600  0.4824
  109MPD2    H7 1672   0.848   0.398   2.177  1.6921 -1.1518 -0.4911
  110TCq2    C1 1673   1.345   0.460   2.654  0.5845  0.2260 -0.3340
  110TCq2    O2 1674   1.334   0.376   2.741 -0.2825 -0.5055  0.6744
  110TCq2    C2 1675   1.459   0.550   2.654 -0.2878 -0.1267 -0.2394
  110TCq2    C3 1676   1.556   0.524   2.747  0.4645  0.5798 -0.2566
  110TCq2    C4 1677   1.674   0.597   2.748 -0.7524 -0.4110  0.7026
  110TCq2    C5 1678   1.701   0.682   2.645  0.8591 -0.5090 -0.1202
  110TCq2    C6 1679   1.602   0.703   2.549  0.6802  0.0649 -0.4784
  110TCq2    C7 1680   1.476   0.641   2.551 -0.2782 -0.3715 -1.0155
  110TCq2    C8 1681   1.624   0.784   2.427  0.1706  0.2698  0.5899
  110TCq2    O4 1682   1.536   0.802   2.343 -0.3774  0.2724 -0.5407
  110TCq2    C9 1683   1.771   0.567   2.844 -0.9310 -0.3009 -0.4322
  110TCq2    O5 1684   1.744   0.464   2.908  0.3687  0.5976  0.8355
  110TCq2    O6 1685   1.880   0.633   2.851  0.1961  0.1128 -0.4581
  110TCq2    H2 1686   1.544   0.445   2.820  2.0690  0.5438 -0.0191
  110TCq2    H3 1687   1.798   0.729   2.650 -0.7788  2.9106 -0.5087
  110TCq2    H4 1688   1.396   0.678   2.487 -2.0465 -1.0486  0.8017
  111TMC2    C1 1689   1.928   0.951  11.632 -0.2629 -0.5331  0.2604
  111TMC2    C2 1690   1.996   0.950  11.512  0.2099 -0.5410  0.2796
  111TMC2    C3 1691   2.126   0.896  11.521  0.1375  0.6406  0.0905
  111TMC2    C4 1692   1.973   0.914  11.752 -0.7375 -0.4927  0.5897
  111TMC2    C5 1693   2.103   0.879  11.759  0.2485 -0.2295 -0.0117
  111TMC2    C6 1694   2.179   0.872  11.646  0.2885 -0.6515 -0.1784
  111TMC2     C 1695   1.801   1.013  11.632 -0.1586  0.2572  0.4220
  111TMC2     O 1696   1.776   1.071  11.736  0.1367  0.5699 -0.4749
  111TMC2     H 1697   1.945   0.971  11.419  3.0993 -2.4730 -1.7639
  111TMC2    H1 1698   1.908   0.917  11.839 -2.1923 -1.2653 -0.4592
  111TMC2    H2 1699   2.286   0.859  11.661  0.2249  0.9183  1.6674
  111TMC2    C7 1700   2.124   0.774  11.849 -0.7979 -0.0995  0.2286
  111TMC2    C8 1701   2.225   0.938  11.416  0.2812 -0.2595 -0.8027
  111TMC2    O1 1702   2.038   0.761  11.934 -0.5094  0.0586 -0.5346
  111TMC2    O2 1703   2.193   1.027  11.339 -0.4589 -0.3669 -0.1371
  111TMC2    O5 1704   2.350   0.902  11.438  0.2244  0.3875 -0.8339
  111TMC2    H5 1705   2.365   0.829  11.503 -0.2677  0.3216 -0.7897
  112MPD2     C 1706   1.355   1.173  11.466 -0.1633  0.4210  0.9443
  112MPD2    C1 1707   1.382   1.059  11.392  0.1245 -1.0997 -0.4244
  112MPD2    C2 1708   1.511   1.002  11.404  0.0723  0.3381 -0.6527
  112MPD2    C3 1709   1.597   1.053  11.496 -0.5720 -0.4938  0.3315
  112MPD2    C4 1710   1.572   1.170  11.560 -0.5613  0.4025 -0.6938
  112MPD2    C5 1711   1.447   1.228  11.549 -0.0662 -0.4602  0.5201
  112MPD2     H 1712   1.540   0.914  11.349 -0.6594 -0.3311  0.0294
  112MPD2    H1 1713   1.650   1.217  11.620 -2.0655  0.7059  1.0290
  112MPD2    H2 1714   1.269   1.233  11.439 -0.4918 -0.5849 -0.2528
  112MPD2    H3 1715   1.421   1.328  11.582 -1.0830  0.2332 -2.3831
  112MPD2     N 1716   1.718   0.985  11.520  0.7349  0.2439  0.2404
  112MPD2    H5 1717   1.737   0.910  11.454 -1.1878  0.9584 -1.1192
  112MPD2    N1 1718   1.300   1.004  11.293  1.0244  0.1532  0.1065
  112MPD2    H7 1719   1.347   0.932  11.240  0.8362 -0.9059  1.3866
  113MPD2     C 1720   4.674   3.233   1.545  0.0350  0.1054  0.0497
  113MPD2    C1 1721   4.566   3.321   1.542  0.0086 -0.6374  0.1273
  113MPD2    C2 1722   4.482   3.324   1.431  0.3110  0.3683 -0.5890
  113MPD2    C3 1723   4.510   3.260   1.312  0.0157  0.7884 -0.2340
  113MPD2    C4 1724   4.618   3.169   1.319 -0.0184  0.7335 -0.1834
  113MPD2    C5 1725   4.696   3.160   1.437  0.9778 -0.2994  0.4423
  113MPD2     H 1726   4.398   3.392   1.437 -0.2607 -0.3129 -1.0102
  113MPD2    H1 1727   4.646   3.111   1.232  2.2391  1.2388  0.2011
  113MPD2    H2 1728   0.015   3.218   1.629  0.6580  1.1767 -0.2439
  113MPD2    H3 1729   0.050   3.086   1.446 -0.7721 -2.4143 -1.3519
  113MPD2     N 1730   4.429   3.283   1.197  0.3063  0.4309 -0.1465
  113MPD2    H5 1731   4.455   3.219   1.122 -0.3489 -0.9510  0.8006
  113MPD2    N1 1732   4.535   3.408   1.655 -0.0749 -0.0582  0.0821
  113MPD2    H7 1733   4.446   3.456   1.643 -0.0469 -0.5136 -1.9764
  114TCq2    C1 1734   4.311   3.346   1.193 -0.2145 -0.0067 -0.3602
  114TCq2    O2 1735   4.241   3.390   1.281 -0.3725 -0.5527 -0.7474
  114TCq2    C2 1736   4.257   3.357   1.062  0.3025  0.2022  0.6009
  114TCq2    C3 1737   4.322   3.335   0.946 -0.3915 -0.6797 -0.3348
  114TCq2    C4 1738   4.261   3.349   0.824 -0.4103  0.3038  0.3646
  114TCq2    C5 1739   4.129   3.389   0.815 -0.0937 -0.2823 -0.3641
  114TCq2    C6 1740   4.061   3.412   0.936 -0.3252  0.3733 -0.3270
  114TCq2    C7 1741   4.125   3.396   1.055  0.5618  0.0273  0.6520
  114TCq2    C8 1742   3.922   3.454   0.936  0.1010  0.3589  0.3604
  114TCq2    O4 1743   3.874   3.499   0.836  0.3023 -0.6984 -0.0317
  114TCq2    C9 1744   4.332   3.311   0.700 -0.5562  0.3872 -0.0815
  114TCq2    O5 1745   4.286   3.351   0.590  0.1367  0.1363 -0.1287
  114TCq2    O6 1746   4.438   3.242   0.712  0.2984 -0.2224  0.0193
  114TCq2    H2 1747   4.424   3.297   0.946 -0.1162  0.0431 -0.5621
  114TCq2    H3 1748   4.079   3.385   0.719 -3.5617  0.9136  1.3935
  114TCq2    H4 1749   4.074   3.428   1.145 -0.4578 -0.6626  0.3188
  115TMC2    C1 1750   0.966   0.862   0.343  0.0640  0.4931  1.0943
  115TMC2    C2 1751   0.972   0.829   0.475  0.2732 -0.4692 -0.3874
  115TMC2    C3 1752   1.061   0.904   0.556  0.3425  0.2670  0.5178
  115TMC2    C4 1753   1.053   0.955   0.288  0.3884 -0.1025 -0.0892
  115TMC2    C5 1754   1.128   1.025   0.375 -0.0939 -0.5694  0.1440
  115TMC2    C6 1755   1.132   1.009   0.509  0.5079  0.6054  0.5660
  115TMC2     C 1756   0.872   0.783   0.266 -0.1604  0.1022 -0.6552
  115TMC2     O 1757   0.842   0.674   0.310 -0.0834 -0.4524  0.9125
  115TMC2     H 1758   0.896   0.769   0.525 -0.3220  0.7467  0.1726
  115TMC2    H1 1759   1.039   0.972   0.182 -0.7765 -1.6573 -0.1825
  115TMC2    H2 1760   1.195   1.068   0.574 -1.0584  2.9390 -0.0249
  115TMC2    C7 1761   1.193   1.149   0.329 -0.0551 -0.0171 -0.2217
  115TMC2    C8 1762   1.013   0.918   0.693 -0.0641 -0.1370  0.4668
  115TMC2    O1 1763   1.294   1.181   0.390 -0.6058  0.1910  0.5754
  115TMC2    O2 1764   0.895   0.959   0.708  0.1635  0.1514 -0.1505
  115TMC2    O5 1765   1.124   0.939   0.758 -0.5282  0.4519  0.0131
  115TMC2    H5 1766   1.200   0.903   0.705  0.6668  2.2566  0.5180
  116MPD2     C 1767   0.433   0.790  17.690  0.4158  0.3887  0.6654
  116MPD2    C1 1768   0.506   0.681   0.030 -0.4764 -0.1121 -0.5167
  116MPD2    C2 1769   0.631   0.702   0.092 -0.1577  0.0748 -0.5152
  116MPD2    C3 1770   0.674   0.831   0.119 -0.7122 -0.3486  0.2114
  116MPD2    C4 1771   0.608   0.930   0.063  0.2633 -0.3886 -0.4724
  116MPD2    C5 1772   0.491   0.916  17.697  0.1083  0.3981 -0.5680
  116MPD2     H 1773   0.702   0.634   0.138 -1.5464 -1.0339 -0.0139
  116MPD2    H1 1774   0.656   1.027   0.073  0.3898 -0.4743 -0.2430
  116MPD2    H2 1775   0.333   0.786  17.648 -0.8608  3.4330  3.4373
  116MPD2    H3 1776   0.442   1.003  17.654 -2.1784  0.7657  2.7588
  116MPD2     N 1777   0.794   0.869   0.192 -0.8150 -0.4780  0.4457
  116MPD2    H5 1778   0.812   0.969   0.190  0.8612 -0.7964 -0.6537
  116MPD2    N1 1779   0.453   0.550   0.024  0.3781 -0.2936 -0.2805
  116MPD2    H7 1780   0.353   0.558   0.008 -0.0505 -0.8376  2.1218
  117TMC2    C1 1781   4.087   2.163  14.170 -0.4565 -0.1769  0.3594
  117TMC2    C2 1782   4.205   2.123  14.121  0.2727 -0.5597 -0.3100
  117TMC2    C3 1783   4.278   2.221  14.060 -0.0689 -0.4833  0.2976
  117TMC2    C4 1784   4.040   2.289  14.139  0.7594 -0.9778 -0.3429
  117TMC2    C5 1785   4.129   2.386  14.094 -0.2767 -0.3921 -0.2665
  117TMC2    C6 1786   4.256   2.357  14.051 -0.7764  0.4774 -0.2216
  117TMC2     C 1787   3.985   2.060  14.206  0.2311 -0.0394 -0.4932
  117TMC2     O 1788   4.000   1.953  14.148 -0.1545  0.5444 -0.8534
  117TMC2     H 1789   4.229   2.019  14.137  1.4171 -0.5737 -2.1893
  117TMC2    H1 1790   3.938   2.324  14.149  0.8902 -1.3574  2.4023
  117TMC2    H2 1791   4.334   2.420  14.010 -0.7907 -0.9047 -2.3569
  117TMC2    C7 1792   4.087   2.523  14.075  0.0245 -0.1453 -0.2235
  117TMC2    C8 1793   4.422   2.194  14.058 -0.0928 -0.3825 -0.9042
  117TMC2    O1 1794   4.147   2.593  13.996  0.3106  0.1528  0.0199
  117TMC2    O2 1795   4.513   2.256  14.004 -0.1948 -0.3034  0.1974
  117TMC2    O5 1796   4.434   2.149  14.185  0.1643 -0.5057 -0.0975
  117TMC2    H5 1797   4.357   2.111  14.232  0.6689 -2.2664 -0.6936
  118MPD2     C 1798   3.830   2.707  14.272 -0.2952  0.9462 -0.0639
  118MPD2    C1 1799   3.931   2.691  14.169  0.3090 -0.9082  0.4871
  118MPD2    C2 1800   3.968   2.802  14.099  0.1090 -0.2688 -0.2395
  118MPD2    C3 1801   3.922   2.928  14.142 -0.0838 -0.4196  0.7863
  118MPD2    C4 1802   3.833   2.945  14.244  0.1728 -0.4017 -0.9832
  118MPD2    C5 1803   3.780   2.833  14.294 -1.0760  0.2068  0.3119
  118MPD2     H 1804   4.036   2.785  14.017 -0.3097  1.2258 -0.9021
  118MPD2    H1 1805   3.815   3.046  14.277  1.2004 -0.9333  1.2108
  118MPD2    H2 1806   3.792   2.618  14.322  1.6612  0.6646  0.9429
  118MPD2    H3 1807   3.693   2.845  14.357  0.4696  4.1573  1.6675
  118MPD2     N 1808   3.968   3.048  14.084  0.2115 -0.1243  0.6935
  118MPD2    H5 1809   3.923   3.135  14.114  1.3744  0.2853  1.2469
  118MPD2    N1 1810   3.975   2.558  14.149 -0.0976  0.0737  0.5743
  118MPD2    H7 1811   3.938   2.495  14.219 -1.8924  0.9622  0.4194
  119MPD2     C 1812   2.836   3.552  14.054 -0.0695 -0.1310 -0.0120
  119MPD2    C1 1813   2.729   3.625  14.099 -0.8759 -0.3941  0.0182
  119MPD2    C2 1814   2.622   3.635  14.012  0.7249  0.1413  0.1929
  119MPD2    C3 1815   2.623   3.585  13.883  0.2586  0.0063 -0.1296
  119MPD2    C4 1816   2.729   3.509  13.843  1.2809 -0.5350  0.9185
  119MPD2    C5 1817   2.839   3.506  13.926 -0.1417  0.4163 -0.3865
  119MPD2     H 1818   2.540   3.698  14.044  0.3272 -0.6404  0.6942
  119MPD2    H1 1819   2.729   3.457  13.748  0.5348 -0.4435  0.8720
  119MPD2    H2 1820   2.929   3.537  14.109 -0.6225 -1.0317  0.6833
  119MPD2    H3 1821   2.925   3.445  13.902 -1.0895 -0.3956 -1.7159
  119MPD2     N 1822   2.517   3.593  13.799  0.8724 -0.3794  0.8040
  119MPD2    H5 1823   2.534   3.583  13.699  2.6485  1.2553  0.9318
  119MPD2    N1 1824   2.725   3.669  14.236  0.5425  0.1384  0.3290
  119MPD2    H7 1825   2.796   3.647  14.305  0.5176  0.3592  0.4254
  120TCq2    C1 1826   2.389   3.568  13.840  0.1987  0.0758 -0.4407
  120TCq2    O2 1827   2.345   3.542  13.953  0.4173 -0.3659 -0.1243
  120TCq2    C2 1828   2.301   3.570  13.725  0.0356  0.7761 -0.7129
  120TCq2    C3 1829   2.337   3.646  13.619  0.4518  0.4303 -0.4590
  120TCq2    C4 1830   2.238   3.707  13.544 -0.0791  0.1708 -0.2165
  120TCq2    C5 1831   2.107   3.688  13.562  0.1879 -0.4414 -0.5195
  120TCq2    C6 1832   2.076   3.621  13.677 -0.3739 -0.0669 -0.5038
  120TCq2    C7 1833   2.168   3.560  13.756 -0.7888 -0.2032 -0.0580
  120TCq2    C8 1834   1.936   3.621  13.716 -0.1438 -0.0407  0.5827
  120TCq2    O4 1835   1.854   3.654  13.629 -0.6381 -0.1156 -0.0558
  120TCq2    C9 1836   2.278   3.773  13.421 -0.3186 -0.3427  0.1289
  120TCq2    O5 1837   2.400   3.764  13.380  0.8444 -0.2675  0.2266
  120TCq2    O6 1838   2.192   3.837  13.356  0.0216  0.0420 -0.4720
  120TCq2    H2 1839   2.440   3.672  13.597  0.3245 -0.7446 -2.3978
  120TCq2    H3 1840   2.034   3.745  13.506 -0.4654 -2.2409 -1.4946
  120TCq2    H4 1841   2.137   3.500  13.841  0.0570  2.3845  2.0551
  121TMC2    C1 1842   3.679   0.893  14.641  0.5301  0.3888  0.2667
  121TMC2    C2 1843   3.707   0.880  14.772  0.0770  0.0274 -0.5579
  121TMC2    C3 1844   3.724   0.754  14.820 -0.9319 -0.1960  0.9976
  121TMC2    C4 1845   3.627   0.793  14.571 -0.2699 -0.5861  0.9008
  121TMC2    C5 1846   3.638   0.669  14.624 -0.5467  0.4081  0.2460
  121TMC2    C6 1847   3.681   0.646  14.750  0.9892  0.4823  0.3062
  121TMC2     C 1848   3.670   1.030  14.591 -0.5869  0.3056  0.0623
  121TMC2     O 1849   3.651   1.114  14.679  0.3381 -0.7000 -0.0389
  121TMC2     H 1850   3.750   0.961  14.830 -2.6262  1.0643 -0.0179
  121TMC2    H1 1851   3.610   0.804  14.464  1.7894 -0.4707  0.5948
  121TMC2    H2 1852   3.683   0.548  14.798  1.1141  0.9103  1.1844
  121TMC2    C7 1853   3.576   0.557  14.559  0.0436  0.6827  0.4519
  121TMC2    C8 1854   3.790   0.736  14.942  0.1703  0.2323  0.2239
  121TMC2    O1 1855   3.588   0.451  14.610 -0.5988  0.4002  0.2728
  121TMC2    O2 1856   3.873   0.817  14.983 -0.1661 -1.1135 -0.4297
  121TMC2    O5 1857   3.701   0.664  15.020  0.1725  0.2293  0.0254
  121TMC2    H5 1858   3.615   0.645  14.978  0.2302  0.6375 -0.2753
  122MPD2     C 1859   3.696   1.273  14.433  0.2117 -0.1749 -0.1052
  122MPD2    C1 1860   3.728   1.147  14.383  0.0420  0.0728  0.2480
  122MPD2    C2 1861   3.753   1.129  14.249 -0.8352  0.1253 -0.5121
  122MPD2    C3 1862   3.764   1.236  14.165  0.4019 -0.3230 -0.3678
  122MPD2    C4 1863   3.735   1.365  14.218  0.6090 -0.0592  0.2115
  122MPD2    C5 1864   3.700   1.382  14.351  0.0316 -0.0536 -0.6154
  122MPD2     H 1865   3.757   1.027  14.214 -2.2651  0.2560 -1.0835
  122MPD2    H1 1866   3.716   1.456  14.162 -1.7957 -0.5073  0.2875
  122MPD2    H2 1867   3.660   1.282  14.534  0.5436  0.4658 -0.0405
  122MPD2    H3 1868   3.663   1.475  14.392  0.9141  0.1240 -0.2091
  122MPD2     N 1869   3.788   1.225  14.027 -0.0605  0.1219 -0.0669
  122MPD2    H5 1870   3.767   1.307  13.972 -1.8760  0.9947  1.9643
  122MPD2    N1 1871   3.710   1.033  14.459  0.9469  0.2456 -0.4708
  122MPD2    H7 1872   3.738   0.947  14.414 -0.6212 -0.1099 -0.7840
  123MPD2     C 1873   1.577   4.689   9.329  0.7027  0.5157 -0.0659
  123MPD2    C1 1874   1.648   4.584   9.392  0.0599  0.3209  0.3461
  123MPD2    C2 1875   1.783   4.607   9.433 -0.4392 -0.4106 -0.2305
  123MPD2    C3 1876   1.857   4.719   9.395 -0.0620 -0.9248 -0.2183
  123MPD2    C4 1877   1.792   0.084   9.317 -0.3183  0.5645  0.5555
  123MPD2    C5 1878   1.661   0.066   9.287 -0.2275  0.3513  0.0306
  123MPD2     H 1879   1.834   4.541   9.503 -3.4106 -0.7983  1.5863
  123MPD2    H1 1880   1.841   0.175   9.285  1.4762 -0.1706  1.1773
  123MPD2    H2 1881   1.471   4.700   9.314  0.3779 -0.9602  1.1470
  123MPD2    H3 1882   1.618   0.149   9.231  0.7185  0.2052 -0.9189
  123MPD2     N 1883   1.991   0.006   9.431  0.3106 -0.0752  0.1232
  123MPD2    H5 1884   2.027   4.660   9.493 -0.2829  0.4919  1.1158
  123MPD2    N1 1885   1.566   4.482   9.429 -0.0189 -0.2003 -0.4002
  123MPD2    H7 1886   1.468   4.475   9.402 -0.5535  3.5989  0.6034
  124TCq2    C1 1887   2.087   0.100   9.391  0.2591 -0.5043 -0.0634
  124TCq2    O2 1888   2.069   0.180   9.297 -0.4658  0.1185  0.5621
  124TCq2    C2 1889   2.217   0.098   9.463  0.2812  0.9870 -0.8052
  124TCq2    C3 1890   2.329   0.140   9.391 -0.7236 -0.3232  0.7038
  124TCq2    C4 1891   2.449   0.129   9.453  0.1350 -0.0776 -0.7613
  124TCq2    C5 1892   2.455   0.097   9.585  0.3521  0.1347 -0.5827
  124TCq2    C6 1893   2.343   0.068   9.657  0.0044  0.3790  0.4139
  124TCq2    C7 1894   2.223   0.054   9.597  0.0140  0.1144 -0.2745
  124TCq2    C8 1895   2.356   0.015   9.788 -0.3982  0.9504  0.2858
  124TCq2    O4 1896   2.269   4.670   9.831  0.4026 -0.4218 -0.3487
  124TCq2    C9 1897   2.578   0.163   9.383  0.9551  1.8198 -0.1943
  124TCq2    O5 1898   2.687   0.158   9.446 -0.0544 -0.7356  0.4685
  124TCq2    O6 1899   2.574   0.176   9.261  0.0013 -0.4769 -0.0382
  124TCq2    H2 1900   2.320   0.164   9.286  0.1685 -0.0344  0.6967
  124TCq2    H3 1901   2.554   0.087   9.628 -1.1608  1.4125  3.2020
  124TCq2    H4 1902   2.137   0.039   9.662  0.1763 -1.4777 -0.4266
  125TMC2    C1 1903   3.120   1.052   9.697 -0.4676 -0.0923  0.3512
  125TMC2    C2 1904   3.054   0.988   9.598 -0.2416  0.1754 -0.2633
  125TMC2    C3 1905   3.118   0.966   9.476 -0.7788 -0.1711  0.4081
  125TMC2    C4 1906   3.247   1.105   9.675  0.3746  0.2556  0.1709
  125TMC2    C5 1907   3.308   1.080   9.558 -0.0247 -0.0224 -0.0882
  125TMC2    C6 1908   3.245   1.005   9.457 -0.2157 -0.5168  0.2008
  125TMC2     C 1909   3.081   1.026   9.835 -0.1670 -0.3008 -1.0688
  125TMC2     O 1910   3.166   1.041   9.919 -0.3190 -0.2698 -0.0728
  125TMC2     H 1911   2.955   0.945   9.612  0.4115 -2.0345 -2.3229
  125TMC2    H1 1912   3.291   1.164   9.754  1.2353 -0.1699  0.0040
  125TMC2    H2 1913   3.293   1.007   9.360  0.7455 -1.5930  0.6422
  125TMC2    C7 1914   3.442   1.126   9.542  0.2111 -0.5691 -0.2077
  125TMC2    C8 1915   3.047   0.893   9.374 -0.0657 -0.6443 -0.1681
  125TMC2    O1 1916   3.476   1.227   9.602  0.0302  0.1524  1.1016
  125TMC2    O2 1917   2.928   0.925   9.354 -0.1451  0.2206  0.1146
  125TMC2    O5 1918   3.135   0.835   9.285 -0.1868 -0.6284 -0.3544
  125TMC2    H5 1919   3.218   0.804   9.326 -0.1849 -0.5483 -0.2967
  126MPD1     C 1920   2.753   0.859  10.206  0.5522  0.5289  0.0542
  126MPD1    C1 1921   2.694   0.859  10.084 -0.1640  0.0871  0.6732
  126MPD1    C2 1922   2.763   0.889   9.972 -0.6168 -0.0279  0.6918
  126MPD1    C3 1923   2.893   0.936   9.976 -0.6015 -0.2046 -0.6269
  126MPD1    C4 1924   2.957   0.928  10.102 -0.2025 -0.0818  0.1840
  126MPD1    C5 1925   2.883   0.893  10.213  0.2018 -0.0763 -0.0581
  126MPD1     H 1926   2.705   0.883   9.881 -0.8527  0.5815  0.8024
  126MPD1    H1 1927   3.056   0.967  10.123 -0.5491  0.7963  0.1833
  126MPD1    H2 1928   2.694   0.834  10.293 -0.0356  2.6131  0.2529
  126MPD1    H3 1929   2.932   0.903  10.308 -0.2028  0.4041  0.1012
  126MPD1     N 1930   2.956   0.980   9.852  0.2941  0.1659  0.0584
  126MPD1    H5 1931   2.893   0.977   9.772  0.8900 -3.9933 -0.2713
  126MPD1    N1 1932   2.567   0.801  10.071 -0.5231  0.2997  0.2088
  126MPD1    H6 1933   2.521   0.829   9.984  0.9056 -2.1385 -1.3215
  126MPD1    H7 1934   2.515   0.826  10.155  1.3419 -3.9266  2.6096
  127MPD2     C 1935   4.285   4.028   9.521 -0.1977 -0.3848  0.8108
  127MPD2    C1 1936   4.304   4.133   9.607 -0.2071 -0.5473 -0.0251
  127MPD2    C2 1937   4.402   4.226   9.574  0.2144 -0.1891  0.1001
  127MPD2    C3 1938   4.487   4.211   9.466  0.3371  0.2965  0.9442
  127MPD2    C4 1939   4.469   4.102   9.390 -0.2959 -0.3505 -0.5697
  127MPD2    C5 1940   4.368   4.014   9.414 -0.8113 -0.2017  0.4377
  127MPD2     H 1941   4.404   4.320   9.628  0.8200 -0.7296  1.0256
  127MPD2    H1 1942   4.513   4.097   9.291 -0.8222 -1.2648 -0.7619
  127MPD2    H2 1943   4.205   3.955   9.532  0.1027 -0.9858 -0.9942
  127MPD2    H3 1944   4.365   3.922   9.358 -0.9154  0.0141  0.0848
  127MPD2     N 1945   4.587   4.303   9.443 -0.0698  0.1808  0.4827
  127MPD2    H5 1946   4.584   4.391   9.493 -1.0511 -0.0983  0.9183
  127MPD2    N1 1947   4.213   4.146   9.720 -0.2394  0.2192 -0.6893
  127MPD2    H7 1948   4.125   4.097   9.717 -0.6052  0.8080  0.3209
  128TCq2    C1 1949   4.236   4.231   9.824 -0.0536  0.5520 -0.1275
  128TCq2    O2 1950   4.338   4.288   9.864 -0.4652 -0.1304 -0.5868
  128TCq2    C2 1951   4.132   4.230   9.917 -0.3697  0.1253  0.3085
  128TCq2    C3 1952   4.159   4.196  10.044 -0.5179  0.2916 -0.9583
  128TCq2    C4 1953   4.054   4.184  10.136  0.2662 -0.2338  0.2457
  128TCq2    C5 1954   3.930   4.185  10.087 -0.5452 -0.3218  0.2223
  128TCq2    C6 1955   3.909   4.215   9.958 -0.2870  0.0260  0.1463
  128TCq2    C7 1956   4.005   4.237   9.865 -0.6674  0.6113  0.3942
  128TCq2    C8 1957   3.769   4.216   9.911 -0.4014  0.2600 -0.4969
  128TCq2    O4 1958   3.757   4.271   9.796 -0.0702 -0.4657 -0.4777
  128TCq2    C9 1959   4.073   4.180  10.275 -0.3705 -0.2498  0.7864
  128TCq2    O5 1960   3.980   4.161  10.357  0.3959  0.0786  0.3011
  128TCq2    O6 1961   4.185   4.225  10.302 -0.3452 -0.1050 -0.1458
  128TCq2    H2 1962   4.258   4.173  10.082 -0.7405 -1.8178 -1.6932
  128TCq2    H3 1963   3.853   4.192  10.162 -1.2940 -3.1034 -0.2952
  128TCq2    H4 1964   3.983   4.265   9.762  1.1355 -1.2077 -0.5017
  129MPD2     C 1965   2.730   0.707   1.877  0.3211  0.1109 -0.1132
  129MPD2    C1 1966   2.665   0.818   1.827 -0.4741  0.1317  0.4209
  129MPD2    C2 1967   2.730   0.896   1.730 -0.5188 -0.1643 -0.1864
  129MPD2    C3 1968   2.845   0.858   1.662  0.8028  0.2184 -0.2805
  129MPD2    C4 1969   2.916   0.764   1.730  0.3607  0.5414 -0.3490
  129MPD2    C5 1970   2.860   0.689   1.834  1.0104 -0.0888 -0.0339
  129MPD2     H 1971   2.680   0.989   1.702  0.3658  0.1149 -0.8097
  129MPD2    H1 1972   3.022   0.763   1.710  0.5066  0.8717  0.4028
  129MPD2    H2 1973   2.693   0.642   1.956 -0.5920  1.4171  0.5275
  129MPD2    H3 1974   2.918   0.611   1.882  0.7795 -1.7228 -2.3722
  129MPD2     N 1975   2.901   0.939   1.562 -0.5233  0.1430 -0.9942
  129MPD2    H5 1976   2.866   1.034   1.551 -1.4441 -0.0702  0.0210
  129MPD2    N1 1977   2.544   0.858   1.883 -0.3984  0.6042  0.3048
  129MPD2    H7 1978   2.509   0.947   1.849  1.3958  0.8870 -0.7668
  130TCq2    C1 1979   2.462   0.775   1.962 -0.8823 -0.3301 -0.8130
  130TCq2    O2 1980   2.463   0.655   1.969 -0.1491  0.0007 -0.2552
  130TCq2    C2 1981   2.337   0.843   1.993  0.4495  0.8891 -0.2599
  130TCq2    C3 1982   2.306   0.962   1.932  0.2081 -0.4986  0.3842
  130TCq2    C4 1983   2.175   1.007   1.934  0.4225 -0.0914  0.9200
  130TCq2    C5 1984   2.078   0.928   1.987  0.2150  0.6319 -0.0042
  130TCq2    C6 1985   2.108   0.806   2.034 -0.3328 -0.4531  0.2961
  130TCq2    C7 1986   2.237   0.757   2.034  0.2769  1.0950 -0.0774
  130TCq2    C8 1987   1.996   0.727   2.079 -0.0995 -0.0100  0.6621
  130TCq2    O4 1988   1.884   0.748   2.028  0.2214  0.0562 -0.6001
  130TCq2    C9 1989   2.134   1.133   1.877  0.1419 -0.4375 -0.6883
  130TCq2    O5 1990   2.222   1.209   1.833 -0.0242  0.0655  0.3212
  130TCq2    O6 1991   2.008   1.159   1.878  0.5818 -0.0441  0.1975
  130TCq2    H2 1992   2.375   1.035   1.891  0.7971 -1.4603 -0.3143
  130TCq2    H3 1993   1.972   0.950   1.980  0.1685  1.0179  1.8205
  130TCq2    H4 1994   2.252   0.653   2.063  0.5813  1.0723 -0.3231
  131MPD2     C 1995   1.564   3.767  10.195  0.0941 -0.4225 -1.2874
  131MPD2    C1 1996   1.651   3.865  10.160  0.6003 -0.3281 -0.4986
  131MPD2    C2 1997   1.646   3.933  10.040 -0.1363 -0.0307  0.1483
  131MPD2    C3 1998   1.543   3.908   9.954  0.0587  0.2546  0.0117
  131MPD2    C4 1999   1.452   3.812   9.984 -0.0894 -0.3060 -0.2710
  131MPD2    C5 2000   1.459   3.746  10.107  0.2161 -0.5124 -0.0110
  131MPD2     H 2001   1.720   4.007  10.014 -0.5215  0.4879  0.5323
  131MPD2    H1 2002   1.361   3.800   9.927  0.2748 -0.4427 -0.8260
  131MPD2    H2 2003   1.576   3.715  10.290  0.9018 -0.5402 -1.4604
  131MPD2    H3 2004   1.382   3.678  10.141  0.4314  0.6523  2.8256
  131MPD2     N 2005   1.524   3.981   9.832 -0.1317 -0.1832 -0.0186
  131MPD2    H5 2006   1.586   4.058   9.811 -0.3326  0.4040  1.5387
  131MPD2    N1 2007   1.757   3.883  10.255 -0.5215 -0.6332 -0.1306
  131MPD2    H7 2008   1.746   3.825  10.338 -1.6587  0.5343  0.5318
  132TCq2    C1 2009   2.177   4.184  10.558 -0.5018 -0.3790  0.3450
  132TCq2    O2 2010   2.248   4.155  10.653  0.8145 -0.5193  0.8371
  132TCq2    C2 2011   2.101   4.074  10.499  0.3288 -0.7938 -0.4683
  132TCq2    C3 2012   2.147   3.947  10.534  0.4704 -0.1873 -0.6640
  132TCq2    C4 2013   2.100   3.832  10.476 -0.1440 -0.0402 -0.0832
  132TCq2    C5 2014   1.991   3.847  10.395  0.1720  0.5944 -0.4155
  132TCq2    C6 2015   1.941   3.975  10.361 -0.4782  0.3265 -0.1661
  132TCq2    C7 2016   1.991   4.088  10.421 -0.8245  0.0191 -0.5108
  132TCq2    C8 2017   1.838   3.991  10.260  0.2256  0.3685  0.3770
  132TCq2    O4 2018   1.831   4.093  10.194  0.1244  0.4646 -0.2723
  132TCq2    C9 2019   2.166   3.706  10.485 -0.4016 -0.7119 -0.6943
  132TCq2    O5 2020   2.088   3.605  10.481  0.0924  0.2377  0.4971
  132TCq2    O6 2021   2.276   3.709  10.546 -0.4412 -0.1561 -0.0282
  132TCq2    H2 2022   2.230   3.936  10.604  0.0444  2.0804  0.2215
  132TCq2    H3 2023   1.962   3.765  10.331  1.0125  0.6242 -0.8305
  132TCq2    H4 2024   1.955   4.187  10.394 -1.2687 -0.7231 -2.6462
  133MPD2     C 2025   0.695   0.521   9.124 -0.2639 -0.5485 -0.0316
  133MPD2    C1 2026   0.819   0.489   9.171  0.3866  0.2515 -0.5186
  133MPD2    C2 2027   0.831   0.360   9.240 -0.5882 -0.3670  0.1139
  133MPD2    C3 2028   0.722   0.273   9.264  0.3626  0.6679 -0.5978
  133MPD2    C4 2029   0.601   0.313   9.209  0.2558 -1.4510 -0.3910
  133MPD2    C5 2030   0.593   0.431   9.137  0.4114 -0.9423 -0.7878
  133MPD2     H 2031   0.932   0.341   9.274 -0.2406  0.3136 -0.5206
  133MPD2    H1 2032   0.508   0.257   9.212 -1.5226  1.5806  0.8466
  133MPD2    H2 2033   0.677   0.606   9.059  0.8359  0.2554  0.7351
  133MPD2    H3 2034   0.497   0.454   9.092 -1.1228 -0.6616  2.6075
  133MPD2     N 2035   0.725   0.149   9.325  0.0906 -0.1484 -0.0218
  133MPD2    H5 2036   0.634   0.105   9.329 -0.4267  0.9553  0.4499
  133MPD2    N1 2037   0.918   0.590   9.160 -0.2065 -0.4869 -0.0639
  133MPD2    H7 2038   0.897   0.661   9.091  0.6972 -0.9300 -0.7891
  134TCq2    C1 2039   1.053   0.571   9.178  0.2607  0.4668  0.4717
  134TCq2    O2 2040   1.122   0.472   9.207  0.1723  0.7348 -0.0361
  134TCq2    C2 2041   1.137   0.687   9.167 -0.3806 -0.0249  0.8950
  134TCq2    C3 2042   1.078   0.813   9.178 -0.1680 -0.5736  0.2541
  134TCq2    C4 2043   1.162   0.922   9.194  0.0477 -0.5367  0.1604
  134TCq2    C5 2044   1.299   0.907   9.205  0.9104  0.3559 -0.4163
  134TCq2    C6 2045   1.356   0.784   9.199 -0.5857  0.1826 -0.3726
  134TCq2    C7 2046   1.273   0.677   9.173 -0.0146 -0.1961 -1.0806
  134TCq2    C8 2047   1.485   0.756   9.255  0.6453 -0.6030 -0.0264
  134TCq2    O4 2048   1.523   0.639   9.265 -0.5188 -0.1880 -0.0322
  134TCq2    C9 2049   1.096   1.052   9.199 -0.3270  0.2635 -0.3704
  134TCq2    O5 2050   0.969   1.050   9.210 -0.2070  0.5732 -0.2339
  134TCq2    O6 2051   1.176   1.148   9.213 -0.1954  0.1840  0.2554
  134TCq2    H2 2052   0.970   0.829   9.172 -0.0718 -0.7455 -1.6420
  134TCq2    H3 2053   1.358   0.994   9.232  0.8001  0.6525 -1.1493
  134TCq2    H4 2054   1.314   0.577   9.173 -0.5610 -0.4141 -0.7329
  135MPD2     C 2055   3.070   1.174   9.140 -0.2135  0.2374 -0.7853
  135MPD2    C1 2056   3.112   1.273   9.222 -0.7717  0.0178 -0.1112
  135MPD2    C2 2057   3.242   1.311   9.216  0.1401  0.6590  0.3137
  135MPD2    C3 2058   3.334   1.256   9.129  0.0164  0.2345  0.8567
  135MPD2    C4 2059   3.292   1.157   9.049 -0.5015 -0.2450  0.5368
  135MPD2    C5 2060   3.167   1.113   9.056 -0.0508 -0.1828 -1.1630
  135MPD2     H 2061   3.272   1.381   9.293  2.0366 -2.7255  2.6406
  135MPD2    H1 2062   3.355   1.118   8.969  0.0305  0.2193  0.7322
  135MPD2    H2 2063   2.972   1.129   9.143 -0.5389  1.0809  0.9335
  135MPD2    H3 2064   3.141   1.034   8.987  1.2066 -0.4932 -1.2845
  135MPD2     N 2065   3.473   1.281   9.130  0.1696  0.0047  0.0882
  135MPD2    H5 2066   3.537   1.249   9.057 -2.2531 -2.4206 -1.0147
  135MPD2    N1 2067   3.028   1.331   9.320 -0.0471 -0.1923  0.0189
  135MPD2    H7 2068   3.076   1.395   9.382  1.7596 -2.4294  0.9460
  136TCq2    C1 2069   2.896   1.297   9.338 -0.0553 -0.7541 -0.0583
  136TCq2    O2 2070   2.822   1.233   9.265 -0.0713  0.1109  0.0155
  136TCq2    C2 2071   2.840   1.334   9.465 -0.5587  0.3073  0.3649
  136TCq2    C3 2072   2.706   1.306   9.480 -0.0081  0.1158  0.3922
  136TCq2    C4 2073   2.654   1.313   9.603 -0.3040  0.2262 -0.1609
  136TCq2    C5 2074   2.730   1.341   9.708  0.1248 -0.2486 -0.1904
  136TCq2    C6 2075   2.858   1.361   9.696  0.3103 -0.2384 -0.1477
  136TCq2    C7 2076   2.919   1.353   9.572 -0.0305  0.7625  0.1480
  136TCq2    C8 2077   2.946   1.397   9.806  0.4224  0.0145  0.7198
  136TCq2    O4 2078   3.038   1.465   9.778 -0.0652 -0.1108  0.1759
  136TCq2    C9 2079   2.512   1.315   9.617  0.3484  0.6858  1.0465
  136TCq2    O5 2080   2.457   1.395   9.700 -0.3775  0.2344 -0.5346
  136TCq2    O6 2081   2.449   1.258   9.525  0.0113 -0.1077 -0.0079
  136TCq2    H2 2082   2.638   1.289   9.397  0.9561  0.7772 -0.5276
  136TCq2    H3 2083   2.680   1.359   9.803 -0.6251 -0.1575 -0.6073
  136TCq2    H4 2084   3.027   1.361   9.567  0.1242 -1.2023  0.3093
  137MPD2     C 2085   3.199   0.154  10.072  0.0895  0.0561 -0.0525
  137MPD2    C1 2086   3.275   0.258  10.044  0.0889 -0.0916  0.1970
  137MPD2    C2 2087   3.353   0.317  10.141 -0.5490 -0.4144 -0.1267
  137MPD2    C3 2088   3.350   0.270  10.275 -1.0778 -0.2328  0.6367
  137MPD2    C4 2089   3.271   0.164  10.303 -0.6313 -0.6066  0.0252
  137MPD2    C5 2090   3.200   0.108  10.203 -0.8160 -0.0895  0.0624
  137MPD2     H 2091   3.426   0.396  10.127 -3.1857  2.1273  0.5043
  137MPD2    H1 2092   3.262   0.117  10.400  2.4370 -0.8427  0.2193
  137MPD2    H2 2093   3.151   0.091   9.998  0.4510 -0.5168  0.2040
  137MPD2    H3 2094   3.137   0.025  10.234 -1.3530  1.5076  3.3478
  137MPD2     N 2095   3.443   0.323  10.370 -0.1716 -0.2039 -0.1136
  137MPD2    H5 2096   3.501   0.399  10.335 -2.2949  1.1824 -0.6891
  137MPD2    N1 2097   3.279   0.304   9.909 -0.5496  0.3441 -0.0602
  137MPD2    H7 2098   3.214   0.258   9.845 -0.3750 -0.9259  0.6751
  138TCq2    C1 2099   3.338   0.417   9.864  0.7807 -0.4653  1.0581
  138TCq2    O2 2100   3.436   0.483   9.906  0.4723  0.6708 -0.5218
  138TCq2    C2 2101   3.265   0.476   9.750 -0.3647  0.1178 -0.6357
  138TCq2    C3 2102   3.344   0.564   9.674  0.3663  0.2916  0.1331
  138TCq2    C4 2103   3.293   0.622   9.559 -0.3591 -0.4583  0.3311
  138TCq2    C5 2104   3.166   0.589   9.513  0.5601 -0.6236  0.5124
  138TCq2    C6 2105   3.088   0.507   9.593 -0.4809 -0.7748  0.5215
  138TCq2    C7 2106   3.132   0.459   9.719  0.1047  0.1205 -0.0108
  138TCq2    C8 2107   2.951   0.489   9.554  0.4976  0.2807 -0.2215
  138TCq2    O4 2108   2.930   0.498   9.432  0.2086 -0.1926  0.3430
  138TCq2    C9 2109   3.376   0.712   9.493 -0.2019  0.4446  0.4964
  138TCq2    O5 2110   3.348   0.734   9.372  0.5544 -0.2185 -0.3266
  138TCq2    O6 2111   3.464   0.775   9.560 -0.4077  0.3779 -0.4380
  138TCq2    H2 2112   3.448   0.589   9.695 -0.3101  1.8457  1.6390
  138TCq2    H3 2113   3.121   0.638   9.428 -0.7998 -0.7860  1.1306
  138TCq2    H4 2114   3.069   0.391   9.776  1.6514 -0.4311  1.0123
  139TMC2    C1 2115   3.370   3.593  13.420 -0.8513 -1.1268  0.0705
  139TMC2    C2 2116   3.281   3.587  13.314  0.3790  0.6611 -0.3615
  139TMC2    C3 2117   3.153   3.620  13.348  0.7549  0.6091 -0.2757
  139TMC2    C4 2118   3.325   3.610  13.551  0.6970  0.4433  0.3486
  139TMC2    C5 2119   3.190   3.624  13.574 -0.5700 -0.1902 -0.1724
  139TMC2    C6 2120   3.103   3.636  13.470  0.1650 -0.0973 -0.3480
  139TMC2     C 2121   3.510   3.605  13.381 -0.1514 -0.0136 -0.2495
  139TMC2     O 2122   3.546   3.585  13.265  0.1052  0.5499 -0.2622
  139TMC2     H 2123   3.317   3.594  13.211  3.2178 -1.2642  0.4955
  139TMC2    H1 2124   3.391   3.617  13.637  0.4609  1.1968  0.4675
  139TMC2    H2 2125   2.998   3.655  13.490  0.1958 -2.1530  1.7944
  139TMC2    C7 2126   3.145   3.643  13.710 -0.4534 -0.5388  0.2353
  139TMC2    C8 2127   3.055   3.615  13.247 -1.2749 -0.5922  0.4951
  139TMC2    O1 2128   3.040   3.703  13.726 -0.9214 -0.2883 -0.7818
  139TMC2    O2 2129   2.943   3.666  13.254  0.4244  0.2294 -0.1532
  139TMC2    O5 2130   3.085   3.510  13.174 -0.3656  0.0353 -0.3928
  139TMC2    H5 2131   3.165   3.466  13.212 -0.7558 -1.2907 -1.1039
  140MPD2     C 2132   3.784   3.728  13.585  0.4870 -0.3148  0.6250
  140MPD2    C1 2133   3.727   3.656  13.485 -0.6658  0.3901 -0.5897
  140MPD2    C2 2134   3.801   3.582  13.403 -0.7049  0.7393 -0.3589
  140MPD2    C3 2135   3.935   3.569  13.416  0.2372 -0.0510  0.1089
  140MPD2    C4 2136   3.994   3.648  13.514 -0.6109  0.5740  0.1016
  140MPD2    C5 2137   3.921   3.736  13.592 -0.2889 -0.3330  0.2154
  140MPD2     H 2138   3.753   3.517  13.330  2.1948  0.3273 -1.9060
  140MPD2    H1 2139   4.102   3.654  13.527 -0.6986  1.4285  0.3761
  140MPD2    H2 2140   3.725   3.783  13.657  0.7411 -1.9121  2.0649
  140MPD2    H3 2141   3.972   3.794  13.668 -0.3156  0.4403 -0.3452
  140MPD2     N 2142   4.014   3.476  13.347 -0.2321  0.5650 -0.5729
  140MPD2    H5 2143   4.108   3.457  13.380 -1.2863 -1.8273  0.9522
  140MPD2    N1 2144   3.583   3.654  13.483  0.4077  0.1285  0.5338
  140MPD2    H7 2145   3.541   3.698  13.564 -0.2039  0.3516  0.0877
  141TCq2    C1 2146   4.099   4.661  14.445 -0.0068 -0.4873  0.4285
  141TCq2    O2 2147   4.018   0.010  14.392 -0.5134 -0.4406  0.7860
  141TCq2    C2 2148   4.153   4.715  14.567  0.8685 -0.1559  0.2880
  141TCq2    C3 2149   4.246   4.641  14.633 -0.4663  0.7587  0.1748
  141TCq2    C4 2150   4.340   4.705  14.702  0.0799  0.0291  0.2526
  141TCq2    C5 2151   4.338   0.113  14.724 -0.2321 -0.2222 -0.1178
  141TCq2    C6 2152   4.247   0.189  14.658 -0.6280  0.2151  0.2010
  141TCq2    C7 2153   4.148   0.130  14.578  0.3883 -0.3953 -0.1045
  141TCq2    C8 2154   4.286   0.322  14.610 -0.0804 -0.0783  0.3481
  141TCq2    O4 2155   4.198   0.370  14.538 -0.0532  0.4174  0.7441
  141TCq2    C9 2156   4.449   4.633  14.760  0.3774 -0.6150 -1.4046
  141TCq2    O5 2157   4.442   4.511  14.750 -0.7265  0.0615  0.2570
  141TCq2    O6 2158   4.541   4.699  14.812  0.1601  0.3386 -0.1176
  141TCq2    H2 2159   4.242   4.532  14.639  1.1175  0.4479 -4.3349
  141TCq2    H3 2160   4.410   0.156  14.793 -0.8827  2.8606 -1.3533
  141TCq2    H4 2161   4.077   0.188  14.519 -0.4109 -2.2235 -0.9556
  142MPD2     C 2162   1.872   3.795   9.809  0.5476  0.4596 -0.5158
  142MPD2    C1 2163   1.925   3.720   9.913  0.1372  0.1572  0.2757
  142MPD2    C2 2164   2.015   3.782   9.996 -0.3685 -0.0609 -0.1738
  142MPD2    C3 2165   2.060   3.910   9.974  0.6753  0.2133 -0.1033
  142MPD2    C4 2166   2.005   3.986   9.876 -0.7059  0.0511 -0.1882
  142MPD2    C5 2167   1.906   3.929   9.797  0.8486  0.6697 -0.0231
  142MPD2     H 2168   2.055   3.721  10.076 -0.6259  1.2180  0.9214
  142MPD2    H1 2169   2.043   4.085   9.853  2.8897 -1.8510 -2.3949
  142MPD2    H2 2170   1.792   3.753   9.750  0.2882  0.6788 -0.3194
  142MPD2    H3 2171   1.863   3.989   9.718  1.2140 -1.3781 -1.7938
  142MPD2     N 2172   2.161   3.972  10.053  0.1979 -0.4620 -0.2472
  142MPD2    H5 2173   2.168   4.073  10.047  1.6363 -0.4203  2.2864
  142MPD2    N1 2174   1.876   3.589   9.926 -0.4740  0.4202  0.2941
  142MPD2    H7 2175   1.808   3.554   9.858  0.0056 -0.3797  0.2289
  143TCq2    C1 2176   2.243   3.918  10.148  0.9314  0.1662  0.6101
  143TCq2    O2 2177   2.249   3.806  10.197 -0.6025  0.0673  0.5463
  143TCq2    C2 2178   2.337   4.013  10.205 -0.0138  1.1207  0.3252
  143TCq2    C3 2179   2.404   3.982  10.325  0.0661 -0.5058 -0.1577
  143TCq2    C4 2180   2.480   4.077  10.391  0.2268  0.7176 -0.7057
  143TCq2    C5 2181   2.486   4.206  10.353 -0.0828 -0.5058 -0.3371
  143TCq2    C6 2182   2.424   4.236  10.234  0.4289  0.4219 -0.0170
  143TCq2    C7 2183   2.349   4.148  10.161 -0.1467  0.1445 -0.4369
  143TCq2    C8 2184   2.413   4.374  10.184 -0.1631  0.3780  0.5154
  143TCq2    O4 2185   2.320   4.398  10.113 -0.2984  0.3889  0.4868
  143TCq2    C9 2186   2.548   4.038  10.512  0.4004 -0.3817  0.2421
  143TCq2    O5 2187   2.535   3.921  10.564 -0.3318  0.3865 -0.3249
  143TCq2    O6 2188   2.632   4.116  10.550 -0.4113  0.3871 -0.0885
  143TCq2    H2 2189   2.411   3.882  10.366  2.1244  0.4808  1.8957
  143TCq2    H3 2190   2.540   4.276  10.415  1.2426 -1.7952 -0.0430
  143TCq2    H4 2191   2.314   4.178  10.063 -1.9228 -0.4859  0.0098
  144MPD2     C 2192   4.233   3.021   1.173  0.2256  0.2214  0.3718
  144MPD2    C1 2193   4.276   2.972   1.051  0.2376 -0.2218  0.1632
  144MPD2    C2 2194   4.385   2.889   1.048 -0.1621 -0.2276 -0.2404
  144MPD2    C3 2195   4.452   2.855   1.164 -0.3707  0.3951 -0.0739
  144MPD2    C4 2196   4.410   2.911   1.281 -0.6075  0.5046  0.7657
  144MPD2    C5 2197   4.305   2.997   1.286  0.2189  0.0035  0.3908
  144MPD2     H 2198   4.418   2.847   0.954  2.9834  0.3244  0.6447
  144MPD2    H1 2199   4.461   2.890   1.374  2.7571 -0.8986 -1.4014
  144MPD2    H2 2200   4.151   3.093   1.167 -1.5010 -1.8670 -1.0326
  144MPD2    H3 2201   4.271   3.030   1.383 -0.9893  1.4955 -0.5255
  144MPD2     N 2202   4.570   2.778   1.171 -0.1749 -0.2555  0.1084
  144MPD2    H5 2203   4.613   2.782   1.263 -0.2213  0.2965  0.1099
  144MPD2    N1 2204   4.215   3.006   0.931 -0.0026 -0.0951  0.5502
  144MPD2    H7 2205   4.261   2.974   0.846  1.2128  0.3351  1.0431
  145TCq2    C1 2206   4.641   2.721   1.068 -0.9091 -0.1621 -0.5838
  145TCq2    O2 2207   4.611   2.705   0.951 -0.4013  0.2230  0.1204
  145TCq2    C2 2208   0.027   2.634   1.113 -0.2807  0.3318  1.0130
  145TCq2    C3 2209   0.052   2.522   1.047 -0.6817 -0.1825  0.2955
  145TCq2    C4 2210   0.133   2.425   1.094  0.4440  0.9216  0.2777
  145TCq2    C5 2211   0.184   2.437   1.225  0.3226  0.3889  0.3325
  145TCq2    C6 2212   0.160   2.552   1.289  0.5728  0.3341 -0.5661
  145TCq2    C7 2213   0.082   2.657   1.238 -0.1565 -0.2308  0.2250
  145TCq2    C8 2214   0.238   2.578   1.410 -0.4374  0.3670  0.5777
  145TCq2    O4 2215   0.330   2.503   1.437  0.1513 -0.0098  0.0318
  145TCq2    C9 2216   0.151   2.298   1.023  0.0315  0.4803  0.0574
  145TCq2    O5 2217   0.254   2.235   1.070  0.1282 -0.9031 -0.2573
  145TCq2    O6 2218   0.096   2.289   0.910  0.2483  0.4730  0.4710
  145TCq2    H2 2219   0.014   2.508   0.946  2.8617 -1.7494 -0.8176
  145TCq2    H3 2220   0.237   2.357   1.275  2.3006  1.5550  0.1044
  145TCq2    H4 2221   0.071   2.752   1.290  2.4002 -0.2058  0.7109
  146TMC2    C1 2222   1.441   0.997  12.523  0.6379 -0.1148  0.1149
  146TMC2    C2 2223   1.401   1.090  12.439 -0.2174 -0.4459  0.1856
  146TMC2    C3 2224   1.483   1.120  12.333  0.0324 -0.0801 -0.8860
  146TMC2    C4 2225   1.567   0.936  12.512 -0.0070 -0.0074  0.2101
  146TMC2    C5 2226   1.655   0.991  12.418 -0.0955 -0.7944  0.2003
  146TMC2    C6 2227   1.613   1.078  12.331 -0.3616  0.0576 -0.1630
  146TMC2     C 2228   1.361   0.984  12.647 -0.6354  0.3676 -0.1068
  146TMC2     O 2229   1.247   1.029  12.640  0.3502  0.0772  0.4189
  146TMC2     H 2230   1.305   1.138  12.449  0.4325  1.0293 -0.6290
  146TMC2    H1 2231   1.587   0.852  12.576  1.3170 -0.4658 -0.8077
  146TMC2    H2 2232   1.675   1.113  12.250  1.1859  0.0842  1.0304
  146TMC2    C7 2233   1.776   0.923  12.392 -0.4492  0.2138 -0.4911
  146TMC2    C8 2234   1.456   1.240  12.254  0.9388  0.2340 -0.4028
  146TMC2    O1 2235   1.830   0.938  12.281  0.2582 -0.2081 -0.4080
  146TMC2    O2 2236   1.384   1.331  12.284 -0.1076  0.0599 -0.2636
  146TMC2    O5 2237   1.487   1.206  12.124  0.6442 -0.2461 -0.6261
  146TMC2    H5 2238   1.545   1.126  12.122  0.5990 -0.3211  0.7639
  147MPD2     C 2239   2.187   0.663  12.547  0.2960 -0.2603 -0.6295
  147MPD2    C1 2240   2.100   0.659  12.653  0.7408 -0.2582 -0.1680
  147MPD2    C2 2241   1.984   0.729  12.638  1.0549  0.2268  0.3484
  147MPD2    C3 2242   1.945   0.782  12.513 -0.2458 -0.0222 -0.4443
  147MPD2    C4 2243   2.036   0.779  12.410  0.0768 -0.0231 -0.1849
  147MPD2    C5 2244   2.158   0.716  12.426  0.9678  0.4835 -0.6134
  147MPD2     H 2245   1.925   0.767  12.720 -0.3904 -0.8218 -0.1933
  147MPD2    H1 2246   2.024   0.817  12.309 -0.4790 -1.5092 -0.6858
  147MPD2    H2 2247   2.291   0.636  12.563  0.7214  0.6790 -1.7023
  147MPD2    H3 2248   2.233   0.729  12.349 -1.7903  0.9431 -3.1899
  147MPD2     N 2249   1.823   0.862  12.507 -0.2454  0.3626  0.0201
  147MPD2    H5 2250   1.766   0.850  12.591  2.8202 -0.2353  2.0136
  147MPD2    N1 2251   2.144   0.615  12.782  0.0267  0.5585 -0.2201
  147MPD2    H7 2252   2.243   0.596  12.792  0.1489  1.6563  0.6764
  148MPD2     C 2253   1.238   0.289  10.394  0.1775  0.9376  0.6524
  148MPD2    C1 2254   1.316   0.184  10.437  0.3754 -0.1025  0.1579
  148MPD2    C2 2255   1.259   0.076  10.487  0.3702 -0.1780  0.8448
  148MPD2    C3 2256   1.122   0.069  10.497  0.7055 -0.2241 -0.4514
  148MPD2    C4 2257   1.045   0.181  10.464 -0.0672  0.5399  0.1670
  148MPD2    C5 2258   1.107   0.290  10.407 -0.1892  0.1930  0.0321
  148MPD2     H 2259   1.323   4.722  10.524  1.1417  0.5614  1.0961
  148MPD2    H1 2260   0.938   0.192  10.472  0.2086  3.4207 -0.1744
  148MPD2    H2 2261   1.271   0.386  10.359 -0.9380  1.4587  1.0515
  148MPD2    H3 2262   1.042   0.369  10.374 -0.4355 -0.0413 -0.0469
  148MPD2     N 2263   1.043   4.684  10.532  0.5698  0.5889  0.2634
  148MPD2    H5 2264   0.943   4.698  10.540  0.3724 -1.6808  1.5177
  148MPD2    N1 2265   1.458   0.187  10.419  0.2669  0.2723 -0.0382
  148MPD2    H7 2266   1.515   0.114  10.460 -0.2321 -0.0558  0.0692
  149TCq2    C1 2267   1.534   0.283  10.367  0.2801  0.0993 -0.3165
  149TCq2    O2 2268   1.505   0.397  10.333 -0.4747 -0.3849 -0.4454
  149TCq2    C2 2269   1.676   0.244  10.356 -0.5323  0.0447  0.4645
  149TCq2    C3 2270   1.766   0.328  10.408  0.2567 -1.0139  0.5554
  149TCq2    C4 2271   1.889   0.286  10.457 -0.1688  0.2595  0.1926
  149TCq2    C5 2272   1.914   0.150  10.472  0.5588  0.0922  0.2924
  149TCq2    C6 2273   1.824   0.064  10.410 -0.1765 -0.5600  0.4126
  149TCq2    C7 2274   1.708   0.111  10.347  0.9204 -0.0508 -1.0794
  149TCq2    C8 2275   1.817   4.645  10.459  0.0467  0.0831 -0.0643
  149TCq2    O4 2276   1.759   4.574  10.376  0.2437 -0.0187 -0.4418
  149TCq2    C9 2277   1.967   0.378  10.526  0.1133  0.2534  0.1201
  149TCq2    O5 2278   1.924   0.496  10.520 -0.8218 -0.4575  0.4944
  149TCq2    O6 2279   2.058   0.332  10.600  0.2211 -0.1885 -0.6554
  149TCq2    H2 2280   1.737   0.429  10.434 -3.1604 -1.7856 -0.2754
  149TCq2    H3 2281   2.012   0.120  10.508  1.1709  0.5992 -0.9552
  149TCq2    H4 2282   1.630   0.047  10.306  0.7397 -0.4056 -0.1986
  150MPD2     C 2283   3.188   3.282  12.543 -0.4646  0.0968  0.6664
  150MPD2    C1 2284   3.110   3.370  12.467  0.2742  0.2578 -0.0092
  150MPD2    C2 2285   3.157   3.496  12.440 -0.1395 -0.1556  0.2413
  150MPD2    C3 2286   3.282   3.535  12.480 -0.0793 -0.5329  0.2063
  150MPD2    C4 2287   3.367   3.444  12.548 -0.1841 -0.3518  0.1917
  150MPD2    C5 2288   3.316   3.314  12.577 -0.3414 -0.3130  0.2529
  150MPD2     H 2289   3.102   3.563  12.376 -2.3615 -0.6527  1.6323
  150MPD2    H1 2290   3.470   3.464  12.572 -0.0782  0.1514 -0.6826
  150MPD2    H2 2291   3.151   3.182  12.564 -1.3881 -0.3162 -2.9152
  150MPD2    H3 2292   3.378   3.244  12.631  0.0006  1.9716  2.8342
  150MPD2     N 2293   3.322   3.661  12.438  1.2869 -0.2024 -0.1925
  150MPD2    H5 2294   3.260   3.709  12.373  0.4001  0.6874  1.3219
  150MPD2    N1 2295   2.990   3.314  12.409 -0.7918  0.0176 -0.0564
  150MPD2    H7 2296   2.991   3.213  12.420  1.0281 -0.2443 -2.8068
  151TCq2    C1 2297   3.445   3.720  12.460  0.7678  0.2273 -0.2883
  151TCq2    O2 2298   3.543   3.672  12.515  0.6666  0.4304  0.2446
  151TCq2    C2 2299   3.458   3.852  12.402 -0.0835 -0.6506  0.8024
  151TCq2    C3 2300   3.423   3.879  12.272  0.2163  0.6331 -0.0965
  151TCq2    C4 2301   3.479   3.987  12.208 -0.6025 -0.0502  0.2205
  151TCq2    C5 2302   3.562   4.072  12.278 -0.2510 -0.5214 -0.1275
  151TCq2    C6 2303   3.612   4.023  12.394  0.4508 -0.2184  0.4154
  151TCq2    C7 2304   3.567   3.914  12.455  0.9962 -0.2721  0.0994
  151TCq2    C8 2305   3.706   4.107  12.472 -0.4443  0.2812 -0.5549
  151TCq2    O4 2306   3.718   4.222  12.431 -0.1789 -0.3478 -0.1140
  151TCq2    C9 2307   3.421   4.033  12.075  0.8780 -0.3391  0.4253
  151TCq2    O5 2308   3.483   4.123  12.014 -0.2036  0.6050  0.4100
  151TCq2    O6 2309   3.320   3.974  12.028  0.2066 -0.4271  0.3262
  151TCq2    H2 2310   3.357   3.817  12.213  1.8157 -0.1030 -1.1248
  151TCq2    H3 2311   3.585   4.165  12.227  1.2239 -0.8961 -0.1389
  151TCq2    H4 2312   3.579   3.903  12.562  0.3643  0.2748  0.2255
  152MPD2     C 2313   2.935   3.195  12.805 -0.1189 -0.3757  0.7787
  152MPD2    C1 2314   2.940   3.332  12.783  0.8144  0.1870 -0.9796
  152MPD2    C2 2315   2.832   3.399  12.729 -0.0993  0.2391 -1.1500
  152MPD2    C3 2316   2.716   3.328  12.691 -0.1991  0.0963  0.1081
  152MPD2    C4 2317   2.716   3.193  12.712  0.5010  0.7624 -0.2806
  152MPD2    C5 2318   2.820   3.128  12.772  0.6353 -0.6336  0.4708
  152MPD2     H 2319   2.830   3.507  12.732 -0.2833  0.1714  0.7662
  152MPD2    H1 2320   2.627   3.138  12.683  1.8553 -1.0063 -1.0940
  152MPD2    H2 2321   3.022   3.150  12.851 -0.6213  0.0189  2.1327
  152MPD2    H3 2322   2.808   3.029  12.814  3.3010 -2.3261 -2.7230
  152MPD2     N 2323   2.598   3.401  12.646 -0.1691  0.2827  0.3619
  152MPD2    H5 2324   2.621   3.497  12.622  2.2756 -0.6193 -0.8516
  152MPD2    N1 2325   3.057   3.397  12.814  0.0606 -0.1253  0.5893
  152MPD2    H7 2326   3.138   3.341  12.838 -0.3331  0.5964  3.4938
  153TCq2    C1 2327   3.080   3.533  12.817 -0.7780  0.5726 -0.1315
  153TCq2    O2 2328   3.003   3.629  12.806  0.1209  0.0663  0.4426
  153TCq2    C2 2329   3.220   3.569  12.851  0.3150 -0.0966  0.2383
  153TCq2    C3 2330   3.303   3.478  12.909  0.0114 -0.2940 -0.4886
  153TCq2    C4 2331   3.430   3.520  12.930  0.9729 -0.2402 -0.3102
  153TCq2    C5 2332   3.474   3.643  12.900 -0.3604  1.0308  0.3531
  153TCq2    C6 2333   3.396   3.724  12.828  0.5196 -0.2661  0.4038
  153TCq2    C7 2334   3.264   3.688  12.806 -0.0670  0.2895  0.3161
  153TCq2    C8 2335   3.441   3.861  12.798 -0.1776  0.4293 -0.8158
  153TCq2    O4 2336   3.387   3.926  12.710 -0.6089  0.3552 -0.2895
  153TCq2    C9 2337   3.525   3.430  12.990 -0.3111 -0.1789 -0.2200
  153TCq2    O5 2338   3.646   3.459  12.969  0.0460 -0.1829 -1.3737
  153TCq2    O6 2339   3.483   3.326  13.042 -0.4187  0.2702  0.5420
  153TCq2    H2 2340   3.265   3.382  12.942  0.8531 -1.4420 -2.8642
  153TCq2    H3 2341   3.577   3.663  12.929 -0.2465  1.3981 -0.2954
  153TCq2    H4 2342   3.205   3.762  12.752 -0.4845 -2.5061 -3.0251
  154MPD2     C 2343   0.093   3.996   0.862 -0.0592  0.1685  0.3611
  154MPD2    C1 2344   0.083   3.962   0.999  0.0187 -0.3099  0.4539
  154MPD2    C2 2345   4.691   3.990   1.066  0.2452 -0.8199 -0.1093
  154MPD2    C3 2346   4.583   4.044   0.992 -0.3865 -0.2479  0.8689
  154MPD2    C4 2347   4.603   4.086   0.862  0.5576  0.2008  0.1890
  154MPD2    C5 2348   4.724   4.065   0.798  0.3740 -0.4167  0.1547
  154MPD2     H 2349   4.673   3.961   1.169 -0.0879  0.4208  0.1734
  154MPD2    H1 2350   4.522   4.140   0.815 -1.2253 -1.9077  0.8021
  154MPD2    H2 2351   0.188   3.985   0.811 -0.1879  3.6169 -0.6235
  154MPD2    H3 2352   0.020   4.105   0.700  1.9175 -1.4671  0.0799
  154MPD2     N 2353   4.466   4.064   1.063  0.2692  0.8220 -0.9549
  154MPD2    H5 2354   4.457   4.026   1.157  1.2384 -0.6837 -1.4862
  154MPD2    N1 2355   0.193   3.901   1.063 -0.7433 -0.2531 -0.4636
  154MPD2    H7 2356   0.272   3.872   1.008 -1.6516 -2.1321 -0.7837
  155TCq2    C1 2357   0.206   3.878   1.200  0.4688  0.7407 -0.4475
  155TCq2    O2 2358   0.137   3.903   1.295 -0.2474 -0.0562  0.7262
  155TCq2    C2 2359   0.323   3.793   1.235  0.3287  0.0087  0.2525
  155TCq2    C3 2360   0.303   3.701   1.332 -0.1735 -0.6359  0.1840
  155TCq2    C4 2361   0.377   3.587   1.320 -0.4929  0.0741 -0.8050
  155TCq2    C5 2362   0.457   3.563   1.213  0.0109  0.3405  0.1395
  155TCq2    C6 2363   0.483   3.660   1.129 -0.1836  0.1072 -0.2914
  155TCq2    C7 2364   0.421   3.788   1.143  0.3205  0.0997  0.3083
  155TCq2    C8 2365   0.588   3.653   1.036 -0.0773 -0.1935 -0.1222
  155TCq2    O4 2366   0.644   3.756   1.011  0.0298 -0.0401 -0.3557
  155TCq2    C9 2367   0.350   3.475   1.412  0.0995 -0.2973 -0.6007
  155TCq2    O5 2368   0.250   3.493   1.489  0.1468 -0.1196  0.7485
  155TCq2    O6 2369   0.410   3.367   1.387  0.2370  0.3908  0.3179
  155TCq2    H2 2370   0.235   3.703   1.416 -1.1898  0.3533 -0.6646
  155TCq2    H3 2371   0.501   3.464   1.205 -4.7891 -1.5241 -2.8366
  155TCq2    H4 2372   0.446   3.871   1.077  0.0679 -1.7160 -2.0744
  156MPD2     C 2373   3.705   0.500  11.948  0.8273  0.3295  0.1287
  156MPD2    C1 2374   3.709   0.608  11.866 -0.2016  0.6053  0.0072
  156MPD2    C2 2375   3.802   0.705  11.893 -0.6199 -0.6305  0.6240
  156MPD2    C3 2376   3.887   0.705  11.999  0.0628  0.2009  0.3972
  156MPD2    C4 2377   3.885   0.591  12.074 -0.4448  0.2834 -0.2261
  156MPD2    C5 2378   3.799   0.491  12.044 -0.1724  1.0737 -0.3087
  156MPD2     H 2379   3.789   0.797  11.838  0.1828 -0.0442  1.4258
  156MPD2    H1 2380   3.958   0.579  12.153 -1.5697 -0.4713  0.7016
  156MPD2    H2 2381   3.631   0.422  11.934 -0.3843  1.3334  0.9803
  156MPD2    H3 2382   3.815   0.401  12.101  1.8641  1.6398  0.0408
  156MPD2     N 2383   3.972   0.819  12.013  0.9193 -0.4502 -0.1982
  156MPD2    H5 2384   3.976   0.877  11.929  0.1973  1.8948  1.3871
  156MPD2    N1 2385   3.623   0.608  11.752  0.3184  0.5384  0.2936
  156MPD2    H7 2386   3.561   0.529  11.734  2.2211 -0.3491 -2.3722
  157TCq2    C1 2387   3.613   0.710  11.657 -0.4822  0.0613  0.3654
  157TCq2    O2 2388   3.653   0.827  11.658 -0.5024  0.2237 -0.2705
  157TCq2    C2 2389   3.524   0.681  11.544  0.0294 -0.2971 -0.5715
  157TCq2    C3 2390   3.480   0.554  11.519  0.0567  0.0296 -0.6078
  157TCq2    C4 2391   3.384   0.531  11.432 -0.0061  0.4928  0.1176
  157TCq2    C5 2392   3.319   0.635  11.369 -0.2925  0.9947 -0.0108
  157TCq2    C6 2393   3.363   0.764  11.398 -0.4044  0.4188  0.2316
  157TCq2    C7 2394   3.467   0.789  11.488  0.2996 -0.7734 -0.0317
  157TCq2    C8 2395   3.316   0.879  11.319  0.1313 -1.1334  0.0888
  157TCq2    O4 2396   3.409   0.949  11.290  0.4303 -0.3602 -0.0919
  157TCq2    C9 2397   3.335   0.393  11.421  0.4300 -0.5824  0.3842
  157TCq2    O5 2398   3.367   0.315  11.515 -0.2423 -0.4679  0.1356
  157TCq2    O6 2399   3.291   0.349  11.316 -0.0264 -0.3674  0.4045
  157TCq2    H2 2400   3.529   0.470  11.568  1.5511  0.9018 -0.6279
  157TCq2    H3 2401   3.235   0.616  11.303 -0.5222 -1.0950  0.8851
  157TCq2    H4 2402   3.495   0.894  11.496  0.4014 -0.7234 -1.0902
  158TMC2    C1 2403   3.238   4.545  13.443  0.0940  0.3793 -0.5364
  158TMC2    C2 2404   3.223   4.599  13.318 -0.3266  0.5255  0.1719
  158TMC2    C3 2405   3.107   4.673  13.301 -0.2985  0.6390 -1.3366
  158TMC2    C4 2406   3.131   4.548  13.530 -0.3194  0.3430  0.1664
  158TMC2    C5 2407   3.026   4.630  13.511 -0.2014 -0.7855  0.9466
  158TMC2    C6 2408   3.012   4.696  13.393 -0.0004  0.0380  0.2608
  158TMC2     C 2409   3.322   4.426  13.459  0.1966  0.3201  0.5778
  158TMC2     O 2410   3.325   4.345  13.369  0.3506 -0.2090  0.3680
  158TMC2     H 2411   3.289   4.564  13.240  0.0214  0.9123  0.2910
  158TMC2    H1 2412   3.124   4.474  13.609 -0.2226  2.1976  1.8949
  158TMC2    H2 2413   2.918   0.019  13.369  1.5550  1.4917 -2.9258
  158TMC2    C7 2414   2.914   4.632  13.606  0.1230  0.0326  0.6050
  158TMC2    C8 2415   3.074   4.718  13.171  0.0103  0.7178 -0.4174
  158TMC2    O1 2416   2.806   4.678  13.568 -0.0699  0.3437  0.5356
  158TMC2    O2 2417   2.961   0.021  13.136 -0.2559  0.5528  0.4436
  158TMC2    O5 2418   3.173   4.696  13.079 -0.9996 -0.1952  0.2264
  158TMC2    H5 2419   3.262   4.702  13.118 -1.1231 -0.6169  0.5694
  159MPD2     C 2420   3.658   4.168  13.753 -0.6900 -0.1758 -0.3220
  159MPD2    C1 2421   3.616   4.277  13.826  0.0468 -0.2682  0.2694
  159MPD2    C2 2422   3.518   4.352  13.764 -0.0603 -0.2584 -0.5222
  159MPD2    C3 2423   3.458   4.322  13.647 -0.5631 -0.1470 -0.4732
  159MPD2    C4 2424   3.513   4.220  13.574 -0.2531  0.3232 -0.0024
  159MPD2    C5 2425   3.610   4.139  13.625  0.6207  0.4032 -0.0500
  159MPD2     H 2426   3.487   4.446  13.810  0.2909 -1.0856  1.3974
  159MPD2    H1 2427   3.475   4.199  13.475  1.2686  0.8574 -0.7106
  159MPD2    H2 2428   3.733   4.100  13.791  0.1302  0.3160 -1.0620
  159MPD2    H3 2429   3.643   4.050  13.573 -0.3802  0.0125 -0.0053
  159MPD2     N 2430   3.365   4.412  13.594  0.4132  0.0207 -0.6592
  159MPD2    H5 2431   3.345   4.488  13.657 -0.6897 -0.5750 -0.2793
  159MPD2    N1 2432   3.666   4.297  13.958  0.4179  0.1353  0.5373
  159MPD2    H7 2433   3.717   4.222  14.003 -0.1872 -0.2289  0.6191
  160TMC2    C1 2434   2.902   3.395   2.367  0.2962 -0.6323 -0.2877
  160TMC2    C2 2435   2.994   3.302   2.380  0.9507  0.9916 -0.1808
  160TMC2    C3 2436   3.081   3.266   2.279 -0.3834 -0.0127 -0.3676
  160TMC2    C4 2437   2.890   3.470   2.249  0.2264 -0.0589 -0.3666
  160TMC2    C5 2438   2.982   3.436   2.152  0.5631  0.4496 -0.0078
  160TMC2    C6 2439   3.077   3.337   2.162 -0.1165  0.1446 -0.1545
  160TMC2     C 2440   2.853   3.446   2.497  0.0919  0.7028  0.1596
  160TMC2     O 2441   2.915   3.421   2.598 -0.6711  0.3874  0.2166
  160TMC2     H 2442   2.985   3.241   2.469  1.9924  0.6177 -0.3264
  160TMC2    H1 2443   2.821   3.554   2.255  0.3759  0.0044  0.5398
  160TMC2    H2 2444   3.139   3.300   2.081 -2.0620  0.4199 -1.7949
  160TMC2    C7 2445   2.990   3.517   2.037  0.6175  0.4877 -0.2713
  160TMC2    C8 2446   3.156   3.143   2.288 -0.4529  0.2942 -0.1379
  160TMC2    O1 2447   2.894   3.592   2.025 -0.5467 -0.2816  0.4497
  160TMC2    O2 2448   3.274   3.132   2.257 -0.0045  0.0941 -0.2166
  160TMC2    O5 2449   3.064   3.061   2.226  0.0144 -0.2996  0.0423
  160TMC2    H5 2450   2.974   3.072   2.263 -0.2273  2.2530 -1.2668
  161MPD2     C 2451   2.762   3.674   2.673 -0.2138  0.8924  0.1856
  161MPD2    C1 2452   2.682   3.599   2.588 -0.7196 -0.3091  0.1450
  161MPD2    C2 2453   2.546   3.633   2.583 -0.6354 -0.1863  0.4319
  161MPD2    C3 2454   2.493   3.737   2.650  0.0742 -0.6359  0.0629
  161MPD2    C4 2455   2.575   3.807   2.731  0.0082  0.0097  0.4454
  161MPD2    C5 2456   2.709   3.771   2.752  0.1297 -0.1177 -0.3217
  161MPD2     H 2457   2.482   3.581   2.512  3.5199 -2.5302 -1.5895
  161MPD2    H1 2458   2.525   3.879   2.796  1.5141 -0.3039  1.9576
  161MPD2    H2 2459   2.868   3.656   2.688 -0.2951 -1.6033 -2.2862
  161MPD2    H3 2460   2.766   3.831   2.822  1.4023 -0.3469 -1.1546
  161MPD2     N 2461   2.359   3.787   2.640 -0.1245 -0.2365  0.0423
  161MPD2    H5 2462   2.347   3.879   2.681 -0.9673 -0.1511 -0.3851
  161MPD2    N1 2463   2.732   3.508   2.489  0.5737 -0.3521  0.5226
  161MPD2    H7 2464   2.673   3.491   2.408  0.5038  0.6392  0.3708
  162TMC2    C1 2465   1.158   0.644   1.252  0.3932 -0.4480 -0.2844
  162TMC2    C2 2466   1.093   0.739   1.170  0.8297 -0.0811  0.2123
  162TMC2    C3 2467   0.958   0.751   1.200  0.2408 -0.6145  0.0558
  162TMC2    C4 2468   1.103   0.579   1.353  0.5471  0.2153 -0.1305
  162TMC2    C5 2469   0.973   0.609   1.389  0.3858 -0.3687 -0.2035
  162TMC2    C6 2470   0.901   0.700   1.315 -0.2100 -0.6732 -1.0620
  162TMC2     C 2471   1.283   0.587   1.216  0.4530 -0.4132  0.1047
  162TMC2     O 2472   1.296   0.470   1.249  0.5186 -0.2386 -0.8335
  162TMC2     H 2473   1.139   0.792   1.087  0.1449  0.2864  0.0652
  162TMC2    H1 2474   1.167   0.513   1.411 -1.2656 -2.5748 -1.3142
  162TMC2    H2 2475   0.797   0.721   1.334  0.3154  0.2002  0.8675
  162TMC2    C7 2476   0.899   0.526   1.485 -1.0240  0.1402 -0.2827
  162TMC2    C8 2477   0.883   0.862   1.137 -0.2870  0.6975  0.1021
  162TMC2    O1 2478   0.786   0.510   1.450 -0.8538  0.3445 -0.0243
  162TMC2    O2 2479   0.818   0.942   1.208 -0.0504  0.3103 -0.2764
  162TMC2    O5 2480   0.951   0.896   1.024  0.1408 -0.4309  0.2641
  162TMC2    H5 2481   0.987   0.811   0.991  1.3647 -0.5412  1.8992
  163MPD2     C 2482   1.642   0.531   0.866  0.4908 -0.4131  0.0844
  163MPD2    C1 2483   1.597   0.441   0.961 -0.3446  0.3630  0.3092
  163MPD2    C2 2484   1.498   0.482   1.049  0.3754 -0.6201 -0.3563
  163MPD2    C3 2485   1.456   0.617   1.050 -0.6292  0.2751 -0.1651
  163MPD2    C4 2486   1.504   0.709   0.960 -0.7447  0.1210  0.0383
  163MPD2    C5 2487   1.606   0.663   0.876 -0.1714  0.0073 -0.2931
  163MPD2     H 2488   1.465   0.410   1.124 -0.7613  1.8998  1.6001
  163MPD2    H1 2489   1.470   0.810   0.947 -1.7019 -0.2753 -0.5116
  163MPD2    H2 2490   1.718   0.502   0.794  0.9047  0.1581  0.2947
  163MPD2    H3 2491   1.650   0.728   0.801  0.8775 -0.6868 -0.2750
  163MPD2     N 2492   1.353   0.665   1.128  0.3929  0.0008  0.6116
  163MPD2    H5 2493   1.324   0.762   1.116  0.6356  0.3262  2.6490
  163MPD2    N1 2494   1.652   0.309   0.948 -0.1093  0.9517  0.8325
  163MPD2    H7 2495   1.717   0.287   0.873 -2.5120  0.0082 -0.9536
  164TCq2    C1 2496   1.578   0.110  11.070  0.7551 -0.0184  0.3072
  164TCq2    O2 2497   1.456   0.098  11.051 -0.0048  0.1916 -0.1865
  164TCq2    C2 2498   1.622   0.241  11.109  0.6628  0.1265 -0.1264
  164TCq2    C3 2499   1.733   0.274  11.181 -0.4300 -0.0499 -0.5463
  164TCq2    C4 2500   1.745   0.402  11.227 -0.1614  0.0860  0.4791
  164TCq2    C5 2501   1.641   0.493  11.206  0.3905  0.4806 -0.3918
  164TCq2    C6 2502   1.531   0.448  11.143  0.5970  0.4837  0.2022
  164TCq2    C7 2503   1.522   0.329  11.077 -0.2776  0.1249 -0.1590
  164TCq2    C8 2504   1.402   0.520  11.160  0.2023  0.2894 -0.2469
  164TCq2    O4 2505   1.309   0.488  11.091  0.2253  0.1580  0.6396
  164TCq2    C9 2506   1.851   0.426  11.318  0.4491 -0.0605  0.4078
  164TCq2    O5 2507   1.920   0.329  11.348  0.1285  0.5724 -0.0635
  164TCq2    O6 2508   1.830   0.520  11.398  0.0932  0.0004  0.7537
  164TCq2    H2 2509   1.818   0.209  11.200 -0.1295  0.1588 -1.1696
  164TCq2    H3 2510   1.636   0.591  11.252  0.2390  0.2716  0.0440
  164TCq2    H4 2511   1.437   0.312  11.012 -0.3703 -0.0650  0.0121
  165MPD2     C 2512   2.930   2.155   2.582 -0.2036 -0.0367 -0.3745
  165MPD2    C1 2513   2.923   2.154   2.442 -0.0152  0.1993  0.3121
  165MPD2    C2 2514   2.864   2.251   2.375 -0.4235 -0.5314  0.3393
  165MPD2    C3 2515   2.803   2.360   2.444 -0.0799 -0.5347 -1.0662
  165MPD2    C4 2516   2.813   2.366   2.583  0.5560  0.6464  0.2868
  165MPD2    C5 2517   2.879   2.261   2.648 -0.4903 -0.3721  0.5076
  165MPD2     H 2518   2.855   2.245   2.267 -1.6072 -2.5732  0.5531
  165MPD2    H1 2519   2.790   2.453   2.643 -1.3158  1.4356 -1.5744
  165MPD2    H2 2520   2.980   2.075   2.636 -0.0900  0.4571  0.2490
  165MPD2    H3 2521   2.890   2.269   2.756 -0.6351  0.5327  0.4604
  165MPD2     N 2522   2.717   2.455   2.384  0.6785 -0.0803  0.5613
  165MPD2    H5 2523   2.665   2.515   2.448  0.5264  0.5431 -0.1458
  165MPD2    N1 2524   2.991   2.042   2.391 -0.1402  0.0128 -0.3058
  165MPD2    H7 2525   3.037   1.974   2.450  2.1811  0.5557 -1.4898
  166TCq2    C1 2526   2.702   2.465   2.246  0.0504  0.1703 -1.2033
  166TCq2    O2 2527   2.757   2.408   2.153  0.5275 -0.0098  0.0360
  166TCq2    C2 2528   2.639   2.593   2.220  0.5509 -0.3838 -0.4105
  166TCq2    C3 2529   2.549   2.648   2.307 -0.4570 -0.0765 -0.0058
  166TCq2    C4 2530   2.527   2.785   2.299 -0.4695 -0.4539 -0.0321
  166TCq2    C5 2531   2.582   2.865   2.206 -0.5547  0.3376 -0.0487
  166TCq2    C6 2532   2.661   2.799   2.112  0.5629 -0.9962 -1.1262
  166TCq2    C7 2533   2.690   2.663   2.114  0.4615 -0.2744  0.7181
  166TCq2    C8 2534   2.748   2.879   2.026 -0.1967 -0.1276  0.3832
  166TCq2    O4 2535   2.853   2.828   1.982  0.2256  0.0101 -0.4067
  166TCq2    C9 2536   2.445   2.848   2.398 -0.0902  0.1119  0.1383
  166TCq2    O5 2537   2.438   2.972   2.407 -0.1448 -0.3607 -0.1428
  166TCq2    O6 2538   2.401   2.775   2.492 -0.7269 -0.1949 -0.2441
  166TCq2    H2 2539   2.497   2.587   2.379 -1.2972  0.5123 -0.1106
  166TCq2    H3 2540   2.558   2.970   2.211 -0.6894  0.3518 -1.0083
  166TCq2    H4 2541   2.774   2.629   2.055 -0.8186 -0.2182 -1.1495
  167TMC2    C1 2542   1.110   4.637  13.165  0.3989  0.4103 -0.3460
  167TMC2    C2 2543   1.034   4.721  13.239 -0.2862  0.0158  0.5393
  167TMC2    C3 2544   0.939   4.658  13.313  0.1453 -0.0769  0.3179
  167TMC2    C4 2545   1.108   4.502  13.178  0.5993  0.2797  0.0032
  167TMC2    C5 2546   1.016   4.446  13.258  0.0410  0.4032  0.8328
  167TMC2    C6 2547   0.928   4.520  13.335  0.0687  0.0810  1.1005
  167TMC2     C 2548   1.212   4.703  13.096 -0.0528 -0.3525 -0.2524
  167TMC2     O 2549   1.249   0.091  13.123 -0.1731 -0.2188  0.8244
  167TMC2     H 2550   1.041   0.103  13.232  2.2646 -0.0888  1.4244
  167TMC2    H1 2551   1.183   4.436  13.137 -1.7238 -2.4460  0.1541
  167TMC2    H2 2552   0.844   4.473  13.384 -0.1819 -0.0641  0.5391
  167TMC2    C7 2553   0.991   4.302  13.251 -0.5074 -0.4396 -0.8309
  167TMC2    C8 2554   0.863   0.008  13.414  0.2952 -0.5760 -0.2907
  167TMC2    O1 2555   0.942   4.253  13.349  0.3360 -0.0808  0.1670
  167TMC2    O2 2556   0.746   4.714  13.438 -0.5878  0.1603 -0.7361
  167TMC2    O5 2557   0.957   0.071  13.489 -0.0063  0.1061  0.0659
  167TMC2    H5 2558   1.042   0.059  13.442  1.1344  1.0287  1.8604
  168MPD2     C 2559   1.428   0.041  12.893 -0.8118 -0.8543  0.3595
  168MPD2    C1 2560   1.345   4.658  12.887 -0.2502  0.4460  0.1857
  168MPD2    C2 2561   1.349   4.586  12.770  0.4639 -0.2537  0.0767
  168MPD2    C3 2562   1.418   4.627  12.661  0.6297  0.1925  0.5097
  168MPD2    C4 2563   1.488   0.015  12.667  0.0181 -0.6384  0.0066
  168MPD2    C5 2564   1.501   0.080  12.785  0.0337 -0.8819 -0.6413
  168MPD2     H 2565   1.283   4.500  12.761  1.6397 -1.0844 -0.6627
  168MPD2    H1 2566   1.536   0.055  12.578  0.1942  1.3213  0.9883
  168MPD2    H2 2567   1.442   0.117  12.969  1.2926 -1.0644  0.1657
  168MPD2    H3 2568   1.569   0.165  12.792 -3.1863  1.3523  3.1409
  168MPD2     N 2569   1.401   4.568  12.534 -0.0800 -0.0881 -0.1218
  168MPD2    H5 2570   1.457   4.605  12.457  1.1736  1.5254  1.5511
  168MPD2    N1 2571   1.249   4.626  12.986  0.9164 -0.0864  0.1013
  168MPD2    H7 2572   1.207   4.534  12.978  0.5357  0.1517 -0.6594
  169MPD1     C 2573   2.476   4.498   9.539 -0.2088 -0.5859 -0.1939
  169MPD1    C1 2574   2.577   4.452   9.454 -0.0127  0.1234 -0.0396
  169MPD1    C2 2575   2.678   4.371   9.514  0.1728 -0.4285  0.2183
  169MPD1    C3 2576   2.678   4.325   9.650 -0.7997 -0.5344  0.6209
  169MPD1    C4 2577   2.560   4.359   9.723 -0.2551  0.0518 -0.3122
  169MPD1    C5 2578   2.468   4.446   9.666  0.1138  0.0750 -0.6652
  169MPD1     H 2579   2.768   4.350   9.458 -1.5135 -1.4827 -2.0986
  169MPD1    H1 2580   2.536   4.309   9.816 -0.4755  3.6113  1.5303
  169MPD1    H2 2581   2.400   4.567   9.506 -1.1816 -1.6875 -0.2721
  169MPD1    H3 2582   2.386   4.470   9.734 -0.0577  0.0364 -0.8572
  169MPD1     N 2583   2.777   4.237   9.688 -0.0965  0.2837 -1.1251
  169MPD1    H5 2584   2.846   4.221   9.615  1.4451  1.5685  0.0400
  169MPD1    N1 2585   2.599   4.496   9.320 -0.2349 -0.2021 -0.3106
  169MPD1    H6 2586   2.635   4.425   9.257  1.1544  0.1572  0.0836
  169MPD1    H7 2587   2.511   4.526   9.278 -1.0125 -1.4552  0.4394
  170MPD1     C 2588   1.809   1.797  13.052 -0.0523 -0.1935 -0.1643
  170MPD1    C1 2589   1.751   1.909  13.113 -0.3465  0.5177 -0.1024
  170MPD1    C2 2590   1.778   1.935  13.247 -0.9904  0.2064 -0.3691
  170MPD1    C3 2591   1.843   1.844  13.327  0.4908 -0.9593 -0.8069
  170MPD1    C4 2592   1.897   1.730  13.271  0.1069  0.1000 -0.4788
  170MPD1    C5 2593   1.877   1.710  13.137 -0.4870  0.2423 -0.8000
  170MPD1     H 2594   1.738   2.024  13.294 -1.0564  0.4897 -0.9715
  170MPD1    H1 2595   1.949   1.657  13.332  0.7444 -0.4951 -1.7456
  170MPD1    H2 2596   1.807   1.780  12.945 -2.8259  0.4900 -0.2237
  170MPD1    H3 2597   1.897   1.613  13.093  1.3487  0.4526 -0.4190
  170MPD1     N 2598   1.852   1.883  13.468  0.3620 -0.6678 -0.5120
  170MPD1    H5 2599   1.815   1.969  13.509  1.9990  1.6939 -3.9972
  170MPD1    N1 2600   1.704   2.007  13.025  0.4514 -0.2968  0.6846
  170MPD1    H6 2601   1.644   2.073  13.073 -2.2111 -1.5691 -0.8781
  170MPD1    H7 2602   1.662   1.961  12.944  1.6785  1.6831 -1.0775
  171MPD1     C 2603   0.089   3.207  15.984 -0.6237  0.1248 -0.5203
  171MPD1    C1 2604   0.131   3.205  16.117  0.2695 -0.1073  0.3236
  171MPD1    C2 2605   0.228   3.110  16.149 -0.2723 -0.0636  0.7691
  171MPD1    C3 2606   0.283   3.020  16.063 -0.6754  0.4460 -0.5229
  171MPD1    C4 2607   0.239   3.033  15.932 -0.3613  0.0548  0.4883
  171MPD1    C5 2608   0.152   3.131  15.891  0.2286  0.1793  0.2599
  171MPD1     H 2609   0.252   3.114  16.255  0.3301 -0.5235  0.6488
  171MPD1    H1 2610   0.305   2.996  15.855 -1.1458  3.0202 -1.5986
  171MPD1    H2 2611   0.021   3.283  15.947 -0.7300  0.6988  0.8428
  171MPD1    H3 2612   0.137   3.143  15.784 -1.0518  0.0129  0.4272
  171MPD1     N 2613   0.388   2.927  16.087 -0.5228 -0.1028  0.2887
  171MPD1    H5 2614   0.427   2.887  16.002 -1.1005  0.1800 -0.1061
  171MPD1    N1 2615   0.063   3.267  16.222 -0.2612  0.2429 -0.4269
  171MPD1    H6 2616   0.030   3.348  16.170 -0.8218  0.8952  0.9773
  171MPD1    H7 2617   0.118   3.296  16.303 -2.0793  0.4364  0.7285
  172MPD1     C 2618   4.498   3.669   1.418 -0.2391 -0.5077 -0.3378
  172MPD1    C1 2619   4.628   3.640   1.388 -0.4606  0.1816 -0.0080
  172MPD1    C2 2620   4.670   3.626   1.258  0.0367  1.7192 -0.3410
  172MPD1    C3 2621   4.584   3.634   1.153  0.6166 -0.3695 -0.0002
  172MPD1    C4 2622   4.454   3.664   1.183 -0.5779  0.2192  0.0034
  172MPD1    C5 2623   4.408   3.682   1.313 -0.3614 -0.3097  0.3156
  172MPD1     H 2624   0.046   3.602   1.232 -0.9870 -1.7624 -1.1139
  172MPD1    H1 2625   4.379   3.674   1.105 -0.4053  1.9429  0.0717
  172MPD1    H2 2626   4.465   3.701   1.516 -0.4911  1.5911 -1.0952
  172MPD1    H3 2627   4.307   3.720   1.324 -0.2813  0.1283 -0.5122
  172MPD1     N 2628   4.618   3.612   1.015 -0.2785 -0.5347  0.1749
  172MPD1    H5 2629   4.547   3.635   0.946  2.0871  1.3131 -1.6392
  172MPD1    N1 2630   4.720   3.642   1.487  0.3345 -0.0251  0.5527
  172MPD1    H6 2631   4.686   3.602   1.574 -1.0746  1.2153  0.5667
  172MPD1    H7 2632   0.075   3.587   1.459  1.8547  3.1882 -1.3795
  173MPD1     C 2633   1.680   2.369  13.900  0.1642 -0.4973  0.1661
  173MPD1    C1 2634   1.578   2.432  13.971 -0.2496  0.4062  0.3757
  173MPD1    C2 2635   1.557   2.381  14.097  0.5727  0.2726  0.7412
  173MPD1    C3 2636   1.639   2.287  14.157  0.0239  0.5066  0.2518
  173MPD1    C4 2637   1.731   2.223  14.079  0.8708 -0.0270  0.1572
  173MPD1    C5 2638   1.746   2.261  13.952 -0.0403 -0.4583 -1.1456
  173MPD1     H 2639   1.473   2.420  14.153  1.6888 -0.7256  3.0875
  173MPD1    H1 2640   1.798   2.145  14.114  2.5264  1.6789  0.8216
  173MPD1    H2 2641   1.705   2.402  13.800  0.7234 -0.1569  0.4220
  173MPD1    H3 2642   1.828   2.214  13.899  1.4308  1.7157 -0.7907
  173MPD1     N 2643   1.607   2.248  14.286 -0.3600 -0.3691 -0.3687
  173MPD1    H5 2644   1.535   2.296  14.339  1.6995  1.3823  0.8571
  173MPD1    N1 2645   1.491   2.513  13.906 -0.5915  0.4027  0.3089
  173MPD1    H6 2646   1.447   2.578  13.971  0.5666 -1.3302  2.8215
  173MPD1    H7 2647   1.533   2.572  13.834  1.4385 -1.6660 -0.1885
  174MPD1     C 2648   2.302   1.937  14.926 -0.2198  0.3380  0.2511
  174MPD1    C1 2649   2.198   1.961  15.016 -0.2203  0.4412  1.0059
  174MPD1    C2 2650   2.076   1.995  14.965  0.6594  0.5099  0.2806
  174MPD1    C3 2651   2.054   2.015  14.828 -0.0210 -0.1807 -0.4066
  174MPD1    C4 2652   2.156   1.986  14.741 -0.0045 -0.7099 -0.0111
  174MPD1    C5 2653   2.274   1.947  14.794 -0.2113  0.1521 -0.4263
  174MPD1     H 2654   1.992   2.003  15.032  0.4488  0.1966  0.0589
  174MPD1    H1 2655   2.150   2.001  14.634 -5.2154 -0.1585  0.3379
  174MPD1    H2 2656   2.401   1.917  14.964 -0.3007  0.4821  0.5357
  174MPD1    H3 2657   2.351   1.920  14.722  0.3010  2.1616 -0.6447
  174MPD1     N 2658   1.936   2.056  14.765  0.2050  0.6491  0.0737
  174MPD1    H5 2659   1.950   2.075  14.666  2.1765  0.4671  0.3232
  174MPD1    N1 2660   2.221   1.946  15.155  0.2967 -0.3924 -0.0610
  174MPD1    H6 2661   2.162   2.010  15.209  1.0301  1.2413 -1.2151
  174MPD1    H7 2662   2.317   1.963  15.182  0.2231  0.0385 -0.0771
  175MPD1     C 2663   4.404   3.266  15.399 -0.3009 -0.2536 -0.6039
  175MPD1    C1 2664   4.455   3.152  15.460  0.2071  0.1328 -0.5866
  175MPD1    C2 2665   4.471   3.152  15.594 -0.4266 -0.0402  0.0286
  175MPD1    C3 2666   4.445   3.271  15.665 -0.2775 -0.0486 -0.6920
  175MPD1    C4 2667   4.415   3.386  15.600  0.1358 -0.3031 -0.2569
  175MPD1    C5 2668   4.396   3.383  15.465  0.0565  0.4701  0.3992
  175MPD1     H 2669   4.495   3.060  15.646 -0.0173 -1.4697 -2.6774
  175MPD1    H1 2670   4.400   3.486  15.641  0.9456 -0.2035 -0.2091
  175MPD1    H2 2671   4.386   3.286  15.294  0.1628 -0.6018 -0.7438
  175MPD1    H3 2672   4.364   3.474  15.416  2.6704  1.3225  0.2752
  175MPD1     N 2673   4.436   3.278  15.808  0.1011 -0.2071  0.3081
  175MPD1    H5 2674   4.393   3.362  15.847  0.6949  0.4107 -0.3867
  175MPD1    N1 2675   4.450   3.037  15.382 -0.2844 -0.5118  0.1249
  175MPD1    H6 2676   4.524   2.972  15.406  2.3350  2.0098 -1.0480
  175MPD1    H7 2677   4.469   3.062  15.285  2.6493 -1.1014  0.5342
  176MPD1     C 2678   1.260   4.567   0.461 -0.5224  0.3654 -0.2264
  176MPD1    C1 2679   1.281   4.686   0.529  0.6707  0.3112  0.5023
  176MPD1    C2 2680   1.341   0.065   0.461 -0.0763  0.7061 -0.0393
  176MPD1    C3 2681   1.373   0.057   0.324  0.4323 -1.3079 -0.0053
  176MPD1    C4 2682   1.345   4.667   0.261  0.0970 -0.3505  0.1877
  176MPD1    C5 2683   1.280   4.567   0.327  0.1550 -0.2853 -0.3183
  176MPD1     H 2684   1.362   0.151   0.524  3.7091 -1.4461  1.6816
  176MPD1    H1 2685   1.361   4.665   0.154  0.5672  0.6781  0.2359
  176MPD1    H2 2686   1.227   4.484   0.521 -0.0261  0.0310 -0.4195
  176MPD1    H3 2687   1.253   4.475   0.277 -0.4504  0.3656 -1.1817
  176MPD1     N 2688   1.429   0.167   0.263 -0.1997  0.3811  0.4610
  176MPD1    H5 2689   1.455   0.239   0.329 -0.1341  0.7192  0.0712
  176MPD1    N1 2690   1.240   4.707   0.661 -0.0131 -0.7699 -0.1854
  176MPD1    H6 2691   1.276   0.070   0.694 -1.4180  0.5882 -2.3146
  176MPD1    H7 2692   1.279   4.636   0.723  0.5299 -0.4275 -0.1321
  177MPD1     C 2693   0.830   4.619   9.019 -0.1862  0.6145 -0.5378
  177MPD1    C1 2694   0.747   0.005   9.016 -0.1918  0.7284  0.2412
  177MPD1    C2 2695   0.616   4.710   9.066 -0.0285 -0.4584 -0.2933
  177MPD1    C3 2696   0.583   4.595   9.129 -0.2260 -0.3958 -0.3875
  177MPD1    C4 2697   0.677   4.491   9.140  0.0955 -0.2317  0.6958
  177MPD1    C5 2698   0.800   4.507   9.085 -0.1357 -0.0814  0.6643
  177MPD1     H 2699   0.545   0.066   9.059  1.1166  0.5466 -0.1889
  177MPD1    H1 2700   0.658   4.394   9.185  0.4421  0.4711  2.3625
  177MPD1    H2 2701   0.928   4.627   8.973 -1.1080 -2.3163 -2.9819
  177MPD1    H3 2702   0.873   4.427   9.083 -0.3317 -0.3622  3.5612
  177MPD1     N 2703   0.452   4.587   9.182 -0.0372  0.2158  0.5829
  177MPD1    H5 2704   0.390   4.658   9.143 -1.7304 -0.8358  1.3466
  177MPD1    N1 2705   0.780   0.111   8.939  0.7726  0.0206 -0.1566
  177MPD1    H6 2706   0.739   0.197   8.975  2.2830  0.5445  0.3185
  177MPD1    H7 2707   0.879   0.132   8.927  0.2491  1.2020 -2.3489
  178MPD1     C 2708   2.081   1.252   0.814 -0.3200  0.9396 -0.2645
  178MPD1    C1 2709   2.138   1.346   0.738 -0.5650 -0.9004  0.3633
  178MPD1    C2 2710   2.149   1.319   0.602 -0.1125 -1.3219  0.1368
  178MPD1    C3 2711   2.111   1.198   0.547 -0.2830 -0.7596  0.1528
  178MPD1    C4 2712   2.059   1.102   0.631  0.0509  0.2992 -0.2422
  178MPD1    C5 2713   2.056   1.124   0.769 -0.0356  0.1872 -0.0971
  178MPD1     H 2714   2.188   1.404   0.547  0.5217 -1.4254  0.4262
  178MPD1    H1 2715   2.016   1.012   0.588 -1.4828  0.7597  0.3444
  178MPD1    H2 2716   2.076   1.273   0.920 -1.0857 -1.7408  0.2299
  178MPD1    H3 2717   2.027   1.046   0.837  2.3835 -0.4440  0.1975
  178MPD1     N 2718   2.121   1.161   0.410  0.0504 -0.9774  0.2931
  178MPD1    H5 2719   2.085   1.069   0.386  0.2884 -0.8362 -0.6293
  178MPD1    N1 2720   2.156   1.479   0.789  0.3421  0.6930  0.1019
  178MPD1    H6 2721   2.192   1.469   0.884  0.7232  1.1986  0.0087
  178MPD1    H7 2722   2.238   1.519   0.746  0.5395 -1.0737 -1.1649
  179MPD1     C 2723   1.644   4.024  15.376  0.1067 -0.1692 -0.2185
  179MPD1    C1 2724   1.758   3.958  15.423  0.0269 -0.0472 -0.0315
  179MPD1    C2 2725   1.745   3.879  15.535  0.1696 -0.5443  0.1554
  179MPD1    C3 2726   1.619   3.851  15.588 -0.0134  0.3063 -0.0890
  179MPD1    C4 2727   1.505   3.903  15.533  0.3266  0.0100 -0.3432
  179MPD1    C5 2728   1.524   3.989  15.432  0.7329 -0.3166  0.0182
  179MPD1     H 2729   1.835   3.836  15.577  2.0083 -0.4499 -3.6624
  179MPD1    H1 2730   1.404   3.888  15.569  0.7615  0.0630  0.8810
  179MPD1    H2 2731   1.645   4.086  15.288 -1.2981  0.4316  0.1941
  179MPD1    H3 2732   1.437   4.037  15.387 -1.0798 -1.2769  2.4994
  179MPD1     N 2733   1.595   3.761  15.694  0.6622  0.2103 -0.1506
  179MPD1    H5 2734   1.500   3.728  15.710  1.2868 -1.0435  1.0187
  179MPD1    N1 2735   1.883   3.971  15.360  0.1338 -0.1939 -0.1503
  179MPD1    H6 2736   1.947   4.002  15.433 -0.7850 -3.5883  2.1064
  179MPD1    H7 2737   1.889   4.048  15.294 -0.7198 -0.9297 -1.0746
  180MPD1     C 2738   1.252   0.021  15.448  0.2962 -0.2177 -0.7893
  180MPD1    C1 2739   1.315   0.042  15.325  0.2097  0.2859  0.3739
  180MPD1    C2 2740   1.294   0.160  15.255  0.6608  0.0659  0.2766
  180MPD1    C3 2741   1.205   0.254  15.303  0.8495 -0.1174  0.1680
  180MPD1    C4 2742   1.148   0.239  15.427 -0.0680 -0.1172  0.6921
  180MPD1    C5 2743   1.181   0.127  15.501 -1.1765  0.3784 -0.3352
  180MPD1     H 2744   1.348   0.170  15.161  0.8376 -1.3748  0.2268
  180MPD1    H1 2745   1.082   0.309  15.477 -0.3595 -1.7601  2.5557
  180MPD1    H2 2746   1.261   4.654  15.503 -0.6019  1.1695  1.6944
  180MPD1    H3 2747   1.145   0.125  15.604 -1.1571 -0.3183 -0.3412
  180MPD1     N 2748   1.160   0.353  15.220 -0.1135 -0.0057  0.5175
  180MPD1    H5 2749   1.186   0.341  15.123 -0.3863  1.4996  0.2686
  180MPD1    N1 2750   1.415   4.678  15.295  0.0379  0.0600  0.0053
  180MPD1    H6 2751   1.442   4.674  15.197  1.4701  2.5137  0.3105
  180MPD1    H7 2752   1.394   4.588  15.337 -1.3510 -0.5298 -1.9061
  181MPD1     C 2753   4.646   2.549   9.893 -0.2419  0.4809  0.0950
  181MPD1    C1 2754   0.046   2.501   9.899 -0.0307 -0.4218 -0.1676
  181MPD1    C2 2755   0.054   2.365   9.936 -0.6160 -1.1380  0.1242
  181MPD1    C3 2756   4.670   2.277   9.930  0.1989 -0.2650 -0.2345
  181MPD1    C4 2757   4.544   2.330   9.900  0.7215 -0.8088  0.3303
  181MPD1    C5 2758   4.534   2.468   9.881  1.1033 -0.1593 -0.0551
  181MPD1     H 2759   0.149   2.322   9.964 -0.0391  1.4538  2.1600
  181MPD1    H1 2760   4.461   2.264   9.880  0.2881  0.0113 -0.5912
  181MPD1    H2 2761   4.628   2.656   9.887  0.2527  0.5044 -0.9152
  181MPD1    H3 2762   4.435   2.512   9.868  0.4729 -1.3517  0.6562
  181MPD1     N 2763   4.670   2.146   9.974  0.2001  0.0590  0.4673
  181MPD1    H5 2764   4.585   2.093   9.961 -0.6186  1.2766  0.8627
  181MPD1    N1 2765   0.164   2.582   9.906  0.2812 -0.2522  0.6573
  181MPD1    H6 2766   0.239   2.530   9.861  0.2607  2.3994 -2.4125
  181MPD1    H7 2767   0.150   2.667   9.852  0.3187 -0.4657  0.3135
  182MPD1     C 2768   3.280   2.915   1.623  0.4717 -0.8268  0.4617
  182MPD1    C1 2769   3.397   2.842   1.619 -0.2271  0.2245  0.4386
  182MPD1    C2 2770   3.455   2.813   1.495 -0.5490 -0.3784 -0.4725
  182MPD1    C3 2771   3.389   2.854   1.377 -0.3338 -0.6938 -0.2391
  182MPD1    C4 2772   3.265   2.921   1.379 -0.1595 -0.0689 -0.2754
  182MPD1    C5 2773   3.217   2.949   1.504 -0.1645 -0.8820  0.2836
  182MPD1     H 2774   3.544   2.751   1.490 -1.4646 -1.6411 -1.1087
  182MPD1    H1 2775   3.217   2.960   1.289 -3.8808 -1.5299  1.0683
  182MPD1    H2 2776   3.225   2.920   1.716  1.9654  0.6452  1.2533
  182MPD1    H3 2777   3.125   3.006   1.508 -1.0496 -2.2125 -1.3286
  182MPD1     N 2778   3.423   2.811   1.244 -0.0047  0.4662 -0.2496
  182MPD1    H5 2779   3.366   2.855   1.173 -0.4034  1.0914  0.4657
  182MPD1    N1 2780   3.481   2.837   1.735 -0.1717 -1.1157  0.0520
  182MPD1    H6 2781   3.417   2.831   1.814 -1.0800 -0.1742 -0.6090
  182MPD1    H7 2782   3.555   2.768   1.738  1.4232  0.5585 -1.1487
  183MPD1     C 2783   0.767   2.597  10.208  0.1698  0.0967  0.5699
  183MPD1    C1 2784   0.736   2.464  10.225  1.2079  0.1424 -0.7106
  183MPD1    C2 2785   0.608   2.424  10.258  0.0649 -0.1499  0.1662
  183MPD1    C3 2786   0.502   2.512  10.265 -0.1887  0.5598  0.9912
  183MPD1    C4 2787   0.532   2.646  10.235 -0.0848  0.6983  0.3927
  183MPD1    C5 2788   0.661   2.681  10.211  0.0355  0.4278  0.0919
  183MPD1     H 2789   0.594   2.318  10.278 -0.8442  0.0028  0.3133
  183MPD1    H1 2790   0.458   2.725  10.236  1.3041  1.9993 -0.5502
  183MPD1    H2 2791   0.867   2.628  10.181 -0.1582  0.2410 -0.4556
  183MPD1    H3 2792   0.654   2.783  10.173 -0.0060  1.1047  1.9189
  183MPD1     N 2793   0.370   2.462  10.279 -0.2061  0.2992  0.1708
  183MPD1    H5 2794   0.357   2.362  10.270  0.9580  0.2186 -0.5913
  183MPD1    N1 2795   0.840   2.376  10.256  0.8653  0.4841 -0.2043
  183MPD1    H6 2796   0.927   2.404  10.210  1.3819  0.3777  0.7245
  183MPD1    H7 2797   0.816   2.282  10.226  2.0565  0.6741 -1.7626
  184MPD1     C 2798   3.444   3.918  10.804 -0.1514  0.6077 -0.7176
  184MPD1    C1 2799   3.332   3.955  10.736 -0.0517 -0.6473  0.9350
  184MPD1    C2 2800   3.354   4.049  10.635  0.3484  0.1753 -0.2791
  184MPD1    C3 2801   3.481   4.100  10.603  0.7030 -0.3441  0.5687
  184MPD1    C4 2802   3.588   4.050  10.671 -0.9281 -0.3644 -0.3369
  184MPD1    C5 2803   3.571   3.955  10.765 -0.6383  1.0513 -0.1038
  184MPD1     H 2804   3.266   4.094  10.590  0.7580 -1.9176 -3.1375
  184MPD1    H1 2805   3.694   4.057  10.651 -0.6576 -2.0336  0.5387
  184MPD1    H2 2806   3.442   3.839  10.879  1.4084 -0.4339 -1.7519
  184MPD1    H3 2807   3.658   3.919  10.819 -0.1161  0.3997 -1.3905
  184MPD1     N 2808   3.506   4.196  10.503 -0.1088 -0.7180  0.4551
  184MPD1    H5 2809   3.605   4.208  10.482 -0.3238 -1.3327 -0.9417
  184MPD1    N1 2810   3.205   3.932  10.778 -0.1036  0.1921 -0.4339
  184MPD1    H6 2811   3.142   3.918  10.699 -0.9153  3.3594 -0.3602
  184MPD1    H7 2812   3.212   3.849  10.836  0.0649 -0.1021 -0.8807
  185MPD1     C 2813   2.850   4.590   9.814  0.1578 -0.8024 -0.6783
  185MPD1    C1 2814   2.976   4.611   9.761  0.3953  0.6288 -0.5316
  185MPD1    C2 2815   3.091   4.591   9.843  0.3335 -0.3093  0.0475
  185MPD1    C3 2816   3.076   4.533   9.972 -0.2056  0.3951  0.8394
  185MPD1    C4 2817   2.951   4.509  10.027  0.0754  0.4948  0.2009
  185MPD1    C5 2818   2.849   4.547   9.948  0.1160 -0.6686  0.5194
  185MPD1     H 2819   3.189   4.607   9.799 -0.9360  1.8953 -1.9492
  185MPD1    H1 2820   2.931   4.469  10.125  2.7292  0.3194  0.6747
  185MPD1    H2 2821   2.762   4.606   9.754  1.3715  1.0440 -1.9503
  185MPD1    H3 2822   2.749   4.521   9.980 -1.0027 -0.3407 -2.7694
  185MPD1     N 2823   3.187   4.511  10.055  0.2748  0.3214  0.2292
  185MPD1    H5 2824   3.160   4.494  10.151  2.3768 -1.2170  0.5436
  185MPD1    N1 2825   2.993   4.680   9.644  0.1494  0.0232 -0.0749
  185MPD1    H6 2826   3.076   4.641   9.599  0.4247  2.0033 -1.2702
  185MPD1    H7 2827   2.917   4.656   9.581  0.6969  1.1605 -1.1789
  186MPD1     C 2828   1.630   4.571  16.209 -0.0376  0.6249 -0.3285
  186MPD1    C1 2829   1.757   4.574  16.152  0.2888 -0.2362  0.3417
  186MPD1    C2 2830   1.862   4.540  16.235 -0.0240 -0.0756 -0.3493
  186MPD1    C3 2831   1.849   4.475  16.357  0.1287  0.3391  0.0133
  186MPD1    C4 2832   1.726   4.470  16.408  0.1454  0.3763  0.0667
  186MPD1    C5 2833   1.617   4.514  16.335  0.0109 -0.3271  0.4455
  186MPD1     H 2834   1.958   4.540  16.184  0.4960 -0.1779  0.6285
  186MPD1    H1 2835   1.706   4.426  16.505 -0.9728 -3.7320 -2.0484
  186MPD1    H2 2836   1.537   4.603  16.165  0.6002  3.4913  0.4081
  186MPD1    H3 2837   1.517   4.501  16.373  0.4032 -2.8144  0.6271
  186MPD1     N 2838   1.959   4.417  16.421 -0.4642 -0.6265  0.2004
  186MPD1    H5 2839   1.938   4.357  16.501 -2.0536  1.7158  1.5463
  186MPD1    N1 2840   1.770   4.585  16.014 -0.5113 -0.5380 -0.8070
  186MPD1    H6 2841   1.860   4.613  15.976 -0.5514  2.3307  1.2168
  186MPD1    H7 2842   1.695   4.622  15.955 -0.9894 -0.0369  0.1219
  187MPD1     C 2843   1.859   1.459   0.416 -0.1087 -0.0748  0.0662
  187MPD1    C1 2844   1.818   1.568   0.352 -0.3976 -0.1008 -0.1456
  187MPD1    C2 2845   1.739   1.550   0.241 -0.2170  1.0475  0.1851
  187MPD1    C3 2846   1.693   1.425   0.206  0.7339 -0.0712  0.5972
  187MPD1    C4 2847   1.738   1.321   0.283  0.2725  0.2825 -0.0639
  187MPD1    C5 2848   1.825   1.335   0.383  0.1220  0.0876 -0.2130
  187MPD1     H 2849   1.709   1.637   0.184 -0.5984  0.3478 -0.6872
  187MPD1    H1 2850   1.715   1.219   0.256  2.5844  0.1387 -1.5055
  187MPD1    H2 2851   1.928   1.475   0.498  0.2765  1.9222 -0.6503
  187MPD1    H3 2852   1.863   1.255   0.445 -3.2597 -0.8340  0.6632
  187MPD1     N 2853   1.605   1.426   0.098  0.0716 -0.2382  0.3229
  187MPD1    H5 2854   1.588   1.518   0.058 -0.3487 -1.9034 -3.4008
  187MPD1    N1 2855   1.885   1.688   0.391  0.3149  0.1552  0.5747
  187MPD1    H6 2856   1.841   1.776   0.365  0.0477 -0.4593 -1.0334
  187MPD1    H7 2857   1.915   1.699   0.488  1.2961  2.0248  0.0693
  188MPD1     C 2858   1.628   1.412   9.926 -0.5174  0.1027 -0.9399
  188MPD1    C1 2859   1.496   1.420   9.898  0.4332  0.2141  1.0034
  188MPD1    C2 2860   1.445   1.297   9.845  0.3825  0.1375  0.3844
  188MPD1    C3 2861   1.518   1.180   9.835  0.1734 -0.3352 -0.6526
  188MPD1    C4 2862   1.635   1.173   9.908 -0.2062  0.3142 -0.1437
  188MPD1    C5 2863   1.697   1.293   9.938 -0.0588 -0.1121 -0.3787
  188MPD1     H 2864   1.343   1.299   9.808  0.3597  0.8694  0.4829
  188MPD1    H1 2865   1.684   1.076   9.903 -2.1034 -0.6456 -0.1998
  188MPD1    H2 2866   1.682   1.503   9.948 -0.8003  0.5374 -2.0264
  188MPD1    H3 2867   1.799   1.299   9.977  0.0109 -1.4542 -0.3553
  188MPD1     N 2868   1.473   1.063   9.755  0.0285 -0.0955  0.1527
  188MPD1    H5 2869   1.534   0.983   9.761 -0.9606 -0.8132  0.7050
  188MPD1    N1 2870   1.424   1.541   9.885 -0.0553 -0.0527  0.2406
  188MPD1    H6 2871   1.324   1.530   9.898 -0.2759 -0.4087 -1.7441
  188MPD1    H7 2872   1.456   1.613   9.950  1.7707  1.7734 -2.6620
  189MPD1     C 2873   3.484   1.372   0.197  0.2482 -0.0549  0.2102
  189MPD1    C1 2874   3.491   1.404   0.334 -0.1137  0.3876 -0.4738
  189MPD1    C2 2875   3.378   1.470   0.395  0.0062  0.0340  1.2781
  189MPD1    C3 2876   3.274   1.508   0.316  0.0159  0.6726 -0.2222
  189MPD1    C4 2877   3.273   1.492   0.181 -0.7403  0.5721  0.2657
  189MPD1    C5 2878   3.373   1.420   0.124 -0.2321 -0.1994  0.6226
  189MPD1     H 2879   3.375   1.482   0.502 -1.1010  1.8707  1.0577
  189MPD1    H1 2880   3.184   1.515   0.123 -0.0277 -0.8417 -1.4063
  189MPD1    H2 2881   3.553   1.306   0.146  1.4043  0.2330  1.4152
  189MPD1    H3 2882   3.363   1.386   0.022  1.8298  1.3962 -0.1061
  189MPD1     N 2883   3.169   1.567   0.389 -0.0989 -0.0172  0.7818
  189MPD1    H5 2884   3.182   1.561   0.489 -1.0450  2.1182  1.0310
  189MPD1    N1 2885   3.584   1.338   0.417  0.4395  0.4305  0.6284
  189MPD1    H6 2886   3.666   1.302   0.368 -0.0874  0.7420 -0.4941
  189MPD1    H7 2887   3.612   1.402   0.491  2.4504 -2.4080  2.3332
  190MPD1     C 2888   1.302   0.503  15.633  0.1631  0.3039 -0.2028
  190MPD1    C1 2889   1.421   0.574  15.638 -0.1045  0.1655  0.0505
  190MPD1    C2 2890   1.528   0.517  15.714  0.5618 -0.3046  0.3485
  190MPD1    C3 2891   1.514   0.402  15.783 -0.3324  0.2530  0.0793
  190MPD1    C4 2892   1.396   0.334  15.770  0.6046 -0.5405 -0.2151
  190MPD1    C5 2893   1.292   0.386  15.697  0.0680 -0.0218  0.1819
  190MPD1     H 2894   1.622   0.571  15.724  0.4785  0.4195 -2.8047
  190MPD1    H1 2895   1.383   0.235  15.811 -2.6423 -0.5082 -1.2126
  190MPD1    H2 2896   1.223   0.538  15.567  0.0690 -1.0676 -0.8053
  190MPD1    H3 2897   1.201   0.326  15.692  0.2183 -0.4135  2.1917
  190MPD1     N 2898   1.619   0.353  15.858  0.0856  0.0400 -0.1694
  190MPD1    H5 2899   1.706   0.405  15.848 -0.5426  1.0253 -0.5309
  190MPD1    N1 2900   1.438   0.682  15.547  0.3433  0.0205 -0.4128
  190MPD1    H6 2901   1.515   0.737  15.586  1.8369 -2.8246  0.6847
  190MPD1    H7 2902   1.360   0.742  15.521 -0.2342 -1.5085 -2.1991
  191MPD1     C 2903   1.099   2.494  13.345 -0.9970 -0.2267  0.2110
  191MPD1    C1 2904   1.033   2.618  13.369  0.2362  0.4286  0.0497
  191MPD1    C2 2905   1.083   2.731  13.307 -0.6757  0.5189  0.0707
  191MPD1    C3 2906   1.181   2.718  13.207 -0.2453  0.2627 -0.4186
  191MPD1    C4 2907   1.246   2.601  13.191  0.1848  0.3771  0.9217
  191MPD1    C5 2908   1.206   2.492  13.261 -0.5923 -0.0365 -0.4798
  191MPD1     H 2909   1.026   2.821  13.325 -2.3343 -0.5589  0.1215
  191MPD1    H1 2910   1.336   2.588  13.132 -0.6710  2.1479 -0.7830
  191MPD1    H2 2911   1.069   2.401  13.391 -3.0002 -0.0497 -0.7694
  191MPD1    H3 2912   1.257   2.397  13.248  0.5505  0.7806 -1.9026
  191MPD1     N 2913   1.215   2.843  13.141 -0.0494 -0.0489  0.4804
  191MPD1    H5 2914   1.139   2.909  13.148  0.4213  0.4304  1.0832
  191MPD1    N1 2915   0.944   2.627  13.476  0.3669 -0.1630 -0.4034
  191MPD1    H6 2916   0.887   2.710  13.458 -0.8173 -1.0980 -0.9532
  191MPD1    H7 2917   0.891   2.541  13.483  0.0234  0.0084 -0.8390
  192MPD1     C 2918   1.185   3.836  13.071  0.0847 -0.1265 -0.0397
  192MPD1    C1 2919   1.178   3.731  13.168  0.1629 -0.1115  0.1235
  192MPD1    C2 2920   1.198   3.599  13.125  0.1624  0.4042 -0.4528
  192MPD1    C3 2921   1.214   3.575  12.986 -0.0514  0.0781 -0.0213
  192MPD1    C4 2922   1.225   3.675  12.899  0.3663  0.7508  0.0966
  192MPD1    C5 2923   1.201   3.800  12.942 -0.0094 -0.5961 -0.5281
  192MPD1     H 2924   1.206   3.518  13.197 -0.3410  2.0666  1.5036
  192MPD1    H1 2925   1.250   3.658  12.795  0.2613 -2.4736  0.6139
  192MPD1    H2 2926   1.163   3.938  13.097 -0.5505 -0.0200 -0.9859
  192MPD1    H3 2927   1.187   3.880  12.870  3.2558  0.1438 -0.3638
  192MPD1     N 2928   1.236   3.446  12.935  0.1853 -0.1623  0.2235
  192MPD1    H5 2929   1.262   3.437  12.838  0.5073  1.2208  0.1792
  192MPD1    N1 2930   1.175   3.768  13.301  0.1945 -0.4349  0.3684
  192MPD1    H6 2931   1.120   3.849  13.329  3.1364  1.4705  0.6654
  192MPD1    H7 2932   1.150   3.682  13.351  0.5459 -0.6301  0.2053
  193MPD1     C 2933   0.580   2.595  16.608  0.1089 -0.0059  0.2180
  193MPD1    C1 2934   0.541   2.691  16.706 -0.0227 -0.0135  0.1715
  193MPD1    C2 2935   0.646   2.737  16.793  1.1295  0.1692  0.4994
  193MPD1    C3 2936   0.773   2.686  16.785  0.3846  0.4095 -0.0875
  193MPD1    C4 2937   0.805   2.579  16.698  0.7059  0.3378  0.3614
  193MPD1    C5 2938   0.703   2.536  16.616 -0.5854  0.4537  0.2058
  193MPD1     H 2939   0.629   2.820  16.861  0.3058  0.3609  0.0600
  193MPD1    H1 2940   0.907   2.544  16.687  0.9282  1.1541 -0.1670
  193MPD1    H2 2941   0.510   2.569  16.530 -0.4149 -1.0880  1.0433
  193MPD1    H3 2942   0.731   2.449  16.558  2.6030  2.1546 -0.8235
  193MPD1     N 2943   0.888   2.729  16.860  0.5827  0.3100  0.8332
  193MPD1    H5 2944   0.965   2.664  16.873  0.3816 -0.0155  0.3959
  193MPD1    N1 2945   0.418   2.754  16.712  0.0416 -0.1720 -0.4983
  193MPD1    H6 2946   0.419   2.837  16.772  0.5567 -0.9999  0.6549
  193MPD1    H7 2947   0.376   2.774  16.622 -1.1430  0.9761  0.3217
  194MPD1     C 2948   2.870   0.193  17.599 -0.2021  0.2935  0.2017
  194MPD1    C1 2949   2.975   0.138  17.667  0.1404  0.4110 -0.0572
  194MPD1    C2 2950   3.063   0.058  17.594 -0.1338  0.1233  0.1564
  194MPD1    C3 2951   3.068   0.053  17.456  0.1556  0.2274  1.1368
  194MPD1    C4 2952   2.971   0.128  17.389  0.9153 -0.0516 -0.1484
  194MPD1    C5 2953   2.873   0.197  17.463  0.0745  0.1153 -0.5938
  194MPD1     H 2954   3.128   4.723  17.655  0.4040  0.5638  0.0291
  194MPD1    H1 2955   2.959   0.143  17.283 -3.1946  1.4826  0.5421
  194MPD1    H2 2956   2.790   0.254  17.639 -1.8348 -0.3754 -2.0281
  194MPD1    H3 2957   2.805   0.255  17.403 -1.1827  0.0483  0.7742
  194MPD1     N 2958   3.157   4.697  17.396  0.0499  0.1573 -0.4057
  194MPD1    H5 2959   3.214   4.638  17.456  0.0346  0.2476 -0.3031
  194MPD1    N1 2960   2.966   0.118   0.104 -0.3136  0.9636  0.4040
  194MPD1    H6 2961   2.912   0.183   0.161 -2.1944 -0.3506  0.0957
  194MPD1    H7 2962   3.052   0.096   0.155  0.2089  3.1440  0.5027
  195MPD1     C 2963   1.693   2.088   0.315  0.1730  0.6257  1.0929
  195MPD1    C1 2964   1.579   2.021   0.266  0.1380 -1.1732 -0.5908
  195MPD1    C2 2965   1.537   1.917   0.347 -0.3835 -0.3633  0.2803
  195MPD1    C3 2966   1.596   1.882   0.469 -0.0349 -0.0531  0.6436
  195MPD1    C4 2967   1.699   1.951   0.514 -0.1735 -0.1527 -0.1305
  195MPD1    C5 2968   1.745   2.049   0.432 -0.5726  0.0072 -0.4651
  195MPD1     H 2969   1.460   1.854   0.304  0.7395 -1.4300 -0.2036
  195MPD1    H1 2970   1.738   1.934   0.614  1.3818  0.6905 -0.5949
  195MPD1    H2 2971   1.749   2.163   0.260 -3.2825  1.5778 -1.1032
  195MPD1    H3 2972   1.832   2.106   0.463  0.5484 -1.2425 -1.3205
  195MPD1     N 2973   1.552   1.767   0.539 -0.1203 -0.4020  0.3521
  195MPD1    H5 2974   1.611   1.732   0.613  0.8872  0.1352 -0.1968
  195MPD1    N1 2975   1.540   2.044   0.132 -0.3379  0.0710 -0.4465
  195MPD1    H6 2976   1.563   2.135   0.094  0.8168  0.2165  0.5750
  195MPD1    H7 2977   1.444   2.017   0.111 -0.4869 -0.2209  0.6028
  196MPD1     C 2978   3.915   1.420   0.718 -0.8220  0.0281 -0.2131
  196MPD1    C1 2979   4.042   1.404   0.763 -0.3576  0.8539  0.1125
  196MPD1    C2 2980   4.082   1.462   0.881 -0.0229 -0.1097  0.8218
  196MPD1    C3 2981   3.994   1.510   0.976 -0.1797  0.0173 -0.4147
  196MPD1    C4 2982   3.869   1.530   0.932  0.3580  0.2787  0.7552
  196MPD1    C5 2983   3.831   1.481   0.808  0.1581  0.4513 -0.5612
  196MPD1     H 2984   4.188   1.481   0.886 -0.1577  1.2023 -1.2210
  196MPD1    H1 2985   3.803   1.583   1.000 -0.3467  0.0850  0.2212
  196MPD1    H2 2986   3.875   1.385   0.624 -1.4179  0.1324  0.0035
  196MPD1    H3 2987   3.726   1.494   0.785  0.2020 -0.1594 -1.0926
  196MPD1     N 2988   4.026   1.576   1.103 -0.0383 -1.1266 -0.5177
  196MPD1    H5 2989   3.949   1.620   1.152  0.5398  0.5648 -1.0964
  196MPD1    N1 2990   4.131   1.377   0.665 -0.2927 -0.3994 -0.7625
  196MPD1    H6 2991   4.098   1.302   0.605  0.3805 -0.8918 -0.5218
  196MPD1    H7 2992   4.217   1.331   0.696 -0.7011  1.1498  2.7011
  197MPD1     C 2993   3.755   3.211  17.514 -0.2715  0.0361  0.1691
  197MPD1    C1 2994   3.835   3.240  17.622 -0.0549  0.1433  0.0807
  197MPD1    C2 2995   3.966   3.276  17.598 -0.0785 -0.6029 -0.3191
  197MPD1    C3 2996   4.018   3.302  17.474 -0.2635 -0.7473 -0.5282
  197MPD1    C4 2997   3.931   3.287  17.369  0.3686 -0.6783 -0.6205
  197MPD1    C5 2998   3.805   3.237  17.394 -0.0594 -0.1444 -0.6072
  197MPD1     H 2999   4.034   3.278  17.682 -0.4477 -2.3967  0.0130
  197MPD1    H1 3000   3.960   3.306  17.266  3.3783  0.2285  0.3972
  197MPD1    H2 3001   3.656   3.168  17.527 -0.6112  0.5949 -0.5877
  197MPD1    H3 3002   3.744   3.216  17.307  0.5456  1.7131 -1.4858
  197MPD1     N 3003   4.160   3.317  17.450 -0.7574  0.1206 -0.2053
  197MPD1    H5 3004   4.188   3.334  17.354 -0.7733  0.7464 -0.1007
  197MPD1    N1 3005   3.790   3.206   0.044 -0.7711 -0.5288  0.0930
  197MPD1    H6 3006   3.698   3.244   0.066  0.0487  1.4008  0.1630
  197MPD1    H7 3007   3.849   3.241   0.119  0.9417 -0.2696 -1.3827
  198MPD1     C 3008   1.671   1.029  16.391 -1.1105  0.1754 -0.1521
  198MPD1    C1 3009   1.687   1.130  16.483 -0.0880 -0.7655  0.4559
  198MPD1    C2 3010   1.751   1.245  16.444 -0.6720  0.4688  0.8309
  198MPD1    C3 3011   1.797   1.269  16.317  0.6290 -0.0894  0.5212
  198MPD1    C4 3012   1.764   1.178  16.216  0.0887 -0.0721  0.1398
  198MPD1    C5 3013   1.711   1.056  16.262 -0.0867 -1.0520  0.0786
  198MPD1     H 3014   1.781   1.317  16.520 -0.0553  0.4405  0.6147
  198MPD1    H1 3015   1.803   1.194  16.117  1.3630  1.1151  0.8277
  198MPD1    H2 3016   1.639   0.930  16.423 -1.3897  1.0724  2.3280
  198MPD1    H3 3017   1.708   0.974  16.191  0.0768  0.1742 -1.3605
  198MPD1     N 3018   1.897   1.369  16.307 -0.2056  0.5019 -0.4889
  198MPD1    H5 3019   1.933   1.402  16.396  1.1177 -1.0647 -0.4453
  198MPD1    N1 3020   1.659   1.105  16.616  0.0926  0.0545  0.0286
  198MPD1    H6 3021   1.569   1.059  16.632 -0.0731  0.2182 -0.4242
  198MPD1    H7 3022   1.674   1.186  16.675  1.3095 -2.1506  2.7871
  199MPD1     C 3023   4.316   3.414   9.836  0.4337  0.0713 -0.5515
  199MPD1    C1 3024   4.311   3.429   9.976  0.3053  0.0811  0.2857
  199MPD1    C2 3025   4.195   3.396  10.044  0.5300  0.2145  0.0922
  199MPD1    C3 3026   4.079   3.356   9.972  0.8363 -0.1364 -0.5398
  199MPD1    C4 3027   4.087   3.343   9.837  0.8712  0.1125  0.2215
  199MPD1    C5 3028   4.202   3.373   9.770  0.2088 -0.3997  0.5371
  199MPD1     H 3029   4.204   3.391  10.152 -3.5246 -1.8108  0.3319
  199MPD1    H1 3030   3.997   3.312   9.785 -1.0073  0.9531  2.9467
  199MPD1    H2 3031   4.409   3.433   9.783  0.2357 -0.3552 -1.0442
  199MPD1    H3 3032   4.201   3.364   9.662  1.2410 -0.4620  0.5308
  199MPD1     N 3033   3.953   3.320  10.042 -0.0736  0.0295  0.2628
  199MPD1    H5 3034   3.881   3.276   9.985  0.8045 -0.7160 -0.2684
  199MPD1    N1 3035   4.431   3.432  10.057  0.6373  0.2377  0.3553
  199MPD1    H6 3036   4.417   3.464  10.152 -0.6625 -0.6175  0.4693
  199MPD1    H7 3037   4.501   3.494  10.017  0.9805  0.2204  0.9245
  200MPD1     C 3038   2.232   2.447  15.775 -0.2546 -0.1391  0.6141
  200MPD1    C1 3039   2.357   2.494  15.816 -0.1064  0.4050  0.3372
  200MPD1    C2 3040   2.444   2.540  15.717  0.2191 -0.2117 -0.1318
  200MPD1    C3 3041   2.411   2.534  15.584 -0.4078 -0.1570  0.2540
  200MPD1    C4 3042   2.295   2.479  15.549 -0.3623 -0.2068  0.4672
  200MPD1    C5 3043   2.209   2.434  15.640 -0.3860  0.2604 -0.3573
  200MPD1     H 3044   2.537   2.576  15.759 -0.3889  0.9273  0.2589
  200MPD1    H1 3045   2.259   2.459  15.449  1.7749  2.3531 -0.8301
  200MPD1    H2 3046   2.161   2.396  15.840 -1.9934  1.5500  0.0628
  200MPD1    H3 3047   2.123   2.379  15.605 -0.5303 -0.7202  1.5154
  200MPD1     N 3048   2.508   2.571  15.485 -0.1888 -0.5768 -0.4706
  200MPD1    H5 3049   2.604   2.591  15.512 -1.4772  0.2948  3.3697
  200MPD1    N1 3050   2.398   2.480  15.950  0.3696  0.7673  0.1144
  200MPD1    H6 3051   2.442   2.559  15.998 -0.9190  0.4616  1.8064
  200MPD1    H7 3052   2.318   2.453  16.008 -0.3264 -1.0957 -1.7395
  201MPD1     C 3053   4.505   1.269  14.150  0.6265 -0.2300 -0.7778
  201MPD1    C1 3054   4.594   1.173  14.186 -0.6867 -0.1173 -0.7474
  201MPD1    C2 3055   4.720   1.176  14.131  0.3732 -1.1913  0.4939
  201MPD1    C3 3056   0.039   1.280  14.051  0.3337 -0.0368 -0.4904
  201MPD1    C4 3057   4.672   1.369  14.012  0.6391 -0.2299  0.4250
  201MPD1    C5 3058   4.543   1.359  14.052  0.0877 -0.0567  0.5484
  201MPD1     H 3059   0.065   1.099  14.160  0.5202 -0.9386  0.8113
  201MPD1    H1 3060   4.684   1.443  13.934 -0.1516 -1.0444 -0.4870
  201MPD1    H2 3061   4.405   1.278  14.192  0.7246  0.1804 -0.6330
  201MPD1    H3 3062   4.469   1.426  14.009  0.7656  1.3536  1.5458
  201MPD1     N 3063   0.179   1.281  14.022  0.0842 -0.4378  0.4423
  201MPD1    H5 3064   0.240   1.202  14.043  1.1240  0.7591  1.9218
  201MPD1    N1 3065   4.557   1.083  14.285 -0.8366  0.1234 -0.0762
  201MPD1    H6 3066   4.634   1.055  14.345 -1.3935  2.0654  1.5803
  201MPD1    H7 3067   4.491   1.127  14.350 -0.6136  0.7648 -0.2884
  202MPD1     C 3068   1.334   1.671  10.305  0.1046  0.2007 -0.1676
  202MPD1    C1 3069   1.224   1.753  10.318 -0.0172 -0.3244 -0.3026
  202MPD1    C2 3070   1.102   1.697  10.296 -0.9264  0.3897 -0.8157
  202MPD1    C3 3071   1.078   1.558  10.278 -0.1580 -0.0926  0.5301
  202MPD1    C4 3072   1.193   1.479  10.271  0.2782 -0.2731 -0.6764
  202MPD1    C5 3073   1.321   1.538  10.289  0.1402 -0.3791  0.0875
  202MPD1     H 3074   1.014   1.760  10.301 -0.5182  0.8579  0.6686
  202MPD1    H1 3075   1.186   1.371  10.264 -0.4148 -0.2996  0.4947
  202MPD1    H2 3076   1.436   1.702  10.323  0.6223 -3.3053  3.0125
  202MPD1    H3 3077   1.402   1.466  10.288 -0.2609 -0.8205 -0.4528
  202MPD1     N 3078   0.954   1.492  10.286  0.0854  0.1677  0.7401
  202MPD1    H5 3079   0.969   1.391  10.285  0.2569  0.2144 -1.6014
  202MPD1    N1 3080   1.237   1.894  10.292 -0.7227  0.2701  0.5040
  202MPD1    H6 3081   1.324   1.931  10.331 -0.0418 -0.5031 -0.2722
  202MPD1    H7 3082   1.160   1.930  10.347 -1.4818  1.2234 -1.1932
  203MPD1     C 3083   3.696   2.600  12.573  0.5439  0.2599 -0.0339
  203MPD1    C1 3084   3.742   2.508  12.484 -0.0257 -0.5239  0.5034
  203MPD1    C2 3085   3.790   2.388  12.523 -0.3612  0.3533  0.0410
  203MPD1    C3 3086   3.791   2.352  12.654  0.1432 -0.0454  0.4366
  203MPD1    C4 3087   3.743   2.438  12.747 -0.6113  0.8932  0.0402
  203MPD1    C5 3088   3.694   2.562  12.706 -0.6808 -0.3255 -0.1578
  203MPD1     H 3089   3.832   2.324  12.447  1.7280  1.9743 -0.1870
  203MPD1    H1 3090   3.754   2.413  12.852 -2.5411  1.7474  0.4375
  203MPD1    H2 3091   3.662   2.700  12.549  3.1825  0.9799 -0.8787
  203MPD1    H3 3092   3.668   2.639  12.778  1.4011  1.2227 -1.0566
  203MPD1     N 3093   3.856   2.234  12.691 -0.2721 -0.2664 -0.0127
  203MPD1    H5 3094   3.903   2.179  12.619  2.2082 -0.4457  1.7471
  203MPD1    N1 3095   3.740   2.550  12.356  0.5440 -0.0730 -0.2457
  203MPD1    H6 3096   3.726   2.474  12.289  0.0404 -1.9832  2.0482
  203MPD1    H7 3097   3.674   2.626  12.340  0.6566  0.5581  2.2855
  204MPD1     C 3098   3.316   3.608  17.666 -0.7089  0.2605 -0.1508
  204MPD1    C1 3099   3.354   3.519  17.566  0.1654  0.5570  0.3216
  204MPD1    C2 3100   3.255   3.476  17.480 -0.1044 -0.2580  0.4742
  204MPD1    C3 3101   3.117   3.515  17.496  0.4789 -0.3835  0.0547
  204MPD1    C4 3102   3.084   3.600  17.593  0.2116 -0.1024 -1.1324
  204MPD1    C5 3103   3.187   3.644  17.671 -0.6494 -0.2396  0.2112
  204MPD1     H 3104   3.276   3.409  17.398 -0.2078  0.2181  0.0552
  204MPD1    H1 3105   2.987   3.645  17.609 -0.0592 -1.0631 -0.0673
  204MPD1    H2 3106   3.392   3.631   0.034 -0.8185  1.5418 -0.4346
  204MPD1    H3 3107   3.155   3.711   0.046  1.6114 -0.4608  1.3005
  204MPD1     N 3108   3.024   3.451  17.409  0.3653  0.0778  0.4718
  204MPD1    H5 3109   3.057   3.396  17.330  1.7494  0.2362  0.9576
  204MPD1    N1 3110   3.487   3.474  17.558 -0.5929 -0.0101 -0.1345
  204MPD1    H6 3111   3.514   3.464  17.460 -0.2170 -0.2111 -0.0105
  204MPD1    H7 3112   3.555   3.532  17.607 -1.2666  0.9828 -0.3540
  205MPD1     C 3113   3.915   2.661  17.150  1.5095 -0.0352  0.0369
  205MPD1    C1 3114   3.804   2.677  17.071 -0.5386  0.1716  0.1294
  205MPD1    C2 3115   3.692   2.602  17.095  0.3770  0.4019 -0.6471
  205MPD1    C3 3116   3.688   2.527  17.208 -0.6850  1.3592 -0.2526
  205MPD1    C4 3117   3.793   2.525  17.292  0.1082 -0.1929  0.4719
  205MPD1    C5 3118   3.909   2.593  17.271 -0.2682  0.0276 -0.4837
  205MPD1     H 3119   3.613   2.595  17.022 -0.3423  1.2248  0.0475
  205MPD1    H1 3120   3.791   2.464  17.382  0.7303 -1.0299 -0.0859
  205MPD1    H2 3121   4.012   2.702  17.123  0.7127  1.5121 -0.4607
  205MPD1    H3 3122   3.991   2.584  17.341 -1.8609 -2.6840  1.0048
  205MPD1     N 3123   3.571   2.463  17.249  0.4760 -0.0088 -0.4357
  205MPD1    H5 3124   3.577   2.410  17.335 -0.5156  1.6016  0.6318
  205MPD1    N1 3125   3.828   2.732  16.944  0.1110  0.5104  0.4269
  205MPD1    H6 3126   3.905   2.798  16.949  0.4951  0.0975 -0.0664
  205MPD1    H7 3127   3.742   2.775  16.911  1.8394  3.3125 -0.4086
  206MPD1     C 3128   3.656   4.537  16.949 -0.3967 -0.5245  0.2796
  206MPD1    C1 3129   3.597   4.663  16.959 -0.2571  0.0057  0.7888
  206MPD1    C2 3130   3.537   4.716  16.848  0.2075 -0.3485 -0.2022
  206MPD1    C3 3131   3.542   4.652  16.720 -0.4804  0.3824  0.2122
  206MPD1    C4 3132   3.608   4.535  16.711  0.8139  0.1317  0.1653
  206MPD1    C5 3133   3.664   4.483  16.827  0.4334 -0.2450 -0.6232
  206MPD1     H 3134   3.483   0.083  16.863  2.9622  1.2296 -0.1499
  206MPD1    H1 3135   3.612   4.480  16.618  1.4533  1.9814 -0.9004
  206MPD1    H2 3136   3.695   4.484  17.035  0.9766  0.6634  0.3691
  206MPD1    H3 3137   3.700   4.381  16.824  1.1754 -0.0423  1.0318
  206MPD1     N 3138   3.486   4.703  16.603  0.0480  0.2073  0.1156
  206MPD1    H5 3139   3.513   4.656  16.517  1.7079 -1.6828  1.6692
  206MPD1    N1 3140   3.579   4.721  17.087  0.2409 -0.3323  0.6672
  206MPD1    H6 3141   3.655   4.703  17.153  2.6020  3.7150 -0.9407
  206MPD1    H7 3142   3.573   0.096  17.098  0.3225  0.1775 -4.1613
  207MPD1     C 3143   1.299   3.482  10.556 -0.5686  0.1271  0.2061
  207MPD1    C1 3144   1.265   3.383  10.474  0.8105  0.0844  0.4174
  207MPD1    C2 3145   1.347   3.340  10.374 -0.0536  0.5854  0.1317
  207MPD1    C3 3146   1.476   3.393  10.362 -0.7346 -0.3383  0.5013
  207MPD1    C4 3147   1.504   3.492  10.456  0.3994 -0.3142 -0.3311
  207MPD1    C5 3148   1.420   3.538  10.549 -0.4491 -0.2137 -0.2227
  207MPD1     H 3149   1.310   3.264  10.306 -0.9508  1.5431 -0.4537
  207MPD1    H1 3150   1.607   3.527  10.460  0.5146 -0.6550 -0.3069
  207MPD1    H2 3151   1.228   3.529  10.624 -1.0485  0.0600 -0.2498
  207MPD1    H3 3152   1.449   3.626  10.606  0.5067 -1.8705  1.7968
  207MPD1     N 3153   1.571   3.361  10.262  0.5296 -0.4895 -0.8285
  207MPD1    H5 3154   1.662   3.408  10.260  0.2817 -0.0247 -1.2031
  207MPD1    N1 3155   1.129   3.347  10.474  0.1225 -0.7305 -0.0182
  207MPD1    H6 3156   1.091   3.358  10.568 -0.9449 -3.2725 -0.1309
  207MPD1    H7 3157   1.109   3.251  10.447 -0.1957 -1.0853  1.5083
  208MPD1     C 3158   0.078   1.962   0.235  0.6433  0.1056 -0.2665
  208MPD1    C1 3159   0.020   1.960   0.357 -0.3534 -0.4416  0.4006
  208MPD1    C2 3160   4.613   1.950   0.369 -0.6338 -0.1158  0.2172
  208MPD1    C3 3161   4.526   1.962   0.259  0.6086 -0.2990 -0.6579
  208MPD1    C4 3162   4.585   1.967   0.132  0.7953  0.4153  0.7487
  208MPD1    C5 3163   4.723   1.966   0.127 -0.0648  0.5946 -0.3826
  208MPD1     H 3164   4.561   1.931   0.462 -1.6534  0.3568 -0.2622
  208MPD1    H1 3165   4.532   1.962   0.038 -0.7711 -3.7843  1.8338
  208MPD1    H2 3166   0.187   1.963   0.236  0.6603 -0.7025 -2.0732
  208MPD1    H3 3167   0.042   1.959   0.028 -0.2218 -0.1908 -0.4002
  208MPD1     N 3168   4.385   1.970   0.275  0.7110  0.9029 -0.2320
  208MPD1    H5 3169   4.351   1.987   0.369  0.4039  0.3829 -0.2490
  208MPD1    N1 3170   0.092   1.959   0.476  0.1899  0.0358 -0.6007
  208MPD1    H6 3171   0.187   1.994   0.478  0.3711 -0.6314  2.1877
  208MPD1    H7 3172   0.042   2.001   0.553 -0.3972 -2.0536  0.1669
  209MPD1     C 3173   1.463   2.268  10.230 -0.4018  0.3304  0.4355
  209MPD1    C1 3174   1.535   2.381  10.225  0.2624 -0.1133  0.1638
  209MPD1    C2 3175   1.674   2.366  10.202  0.7018  0.6023 -0.0996
  209MPD1    C3 3176   1.736   2.244  10.209  0.7608  0.7468  0.1279
  209MPD1    C4 3177   1.663   2.130  10.227 -0.9844 -0.6491 -0.4876
  209MPD1    C5 3178   1.530   2.141  10.227 -0.2753  0.8747  0.4833
  209MPD1     H 3179   1.732   2.455  10.180  2.4532 -0.0404  1.8635
  209MPD1    H1 3180   1.701   2.028  10.227 -0.7274 -0.5531  0.2388
  209MPD1    H2 3181   1.355   2.275  10.233 -0.5228 -1.5709  0.3905
  209MPD1    H3 3182   1.475   2.048  10.240 -0.6937  0.9551 -0.7005
  209MPD1     N 3183   1.872   2.249  10.182  0.2931  0.1078 -0.0459
  209MPD1    H5 3184   1.917   2.338  10.160  0.4704  0.1762  0.6100
  209MPD1    N1 3185   1.483   2.510  10.203 -0.4508  0.8316 -0.1199
  209MPD1    H6 3186   1.392   2.521  10.247  0.5750 -0.5936  2.3292
  209MPD1    H7 3187   1.540   2.576  10.254 -1.0260  1.5880 -0.4560
  210MPD1     C 3188   2.856   1.760   9.995 -0.0568  0.3489 -0.3131
  210MPD1    C1 3189   2.733   1.710  10.028 -0.0778 -0.2010  0.6026
  210MPD1    C2 3190   2.627   1.795  10.046 -0.5447 -0.1036  0.3970
  210MPD1    C3 3191   2.645   1.934  10.033 -0.1901  0.3723 -0.0234
  210MPD1    C4 3192   2.773   1.983  10.019 -0.0766  0.6960 -0.2131
  210MPD1    C5 3193   2.874   1.897  10.000  1.2006  0.1408  0.4955
  210MPD1     H 3194   2.529   1.757  10.072 -0.4178  0.5894  1.9132
  210MPD1    H1 3195   2.796   2.089  10.009 -3.3713  1.7244  2.9220
  210MPD1    H2 3196   2.942   1.699   9.970  1.1396  1.7599  0.3514
  210MPD1    H3 3197   2.973   1.939   9.983  0.9140  0.4312 -0.4426
  210MPD1     N 3198   2.542   2.032  10.058  0.5731  0.0260  0.0006
  210MPD1    H5 3199   2.568   2.130  10.068  0.2784 -0.1771  2.7621
  210MPD1    N1 3200   2.712   1.569  10.028  0.3950  0.0057  0.1854
  210MPD1    H6 3201   2.801   1.519  10.035 -0.3543 -1.5476 -1.4040
  210MPD1    H7 3202   2.655   1.540  10.108  1.5597 -1.3296  0.5458
  211MPD1     C 3203   4.684   2.622  17.161 -0.5040 -0.3155  0.0069
  211MPD1    C1 3204   4.634   2.607  17.036  0.3722 -0.2476  0.1081
  211MPD1    C2 3205   4.506   2.557  17.020  0.8070  0.3575 -0.6915
  211MPD1    C3 3206   4.440   2.493  17.124  0.3479 -1.0014  0.0500
  211MPD1    C4 3207   4.503   2.490  17.251  0.0814  0.3477  0.5246
  211MPD1    C5 3208   4.625   2.556  17.267  0.9563 -0.1914 -0.4240
  211MPD1     H 3209   4.467   2.561  16.919  1.5422 -1.9618 -1.0801
  211MPD1    H1 3210   4.463   2.442  17.339 -0.7123  0.2393  0.0975
  211MPD1    H2 3211   0.050   2.678  17.178 -0.0366 -1.6445  1.8232
  211MPD1    H3 3212   4.659   2.567  17.369  0.7864  0.4945 -0.4435
  211MPD1     N 3213   4.312   2.437  17.094  0.0788 -0.1554 -0.1364
  211MPD1    H5 3214   4.277   2.441  16.999  0.2730 -0.2178 -0.2106
  211MPD1    N1 3215   4.689   2.674  16.926 -0.4287  0.0589  0.7044
  211MPD1    H6 3216   4.671   2.627  16.837 -2.6095  0.3947  0.9644
  211MPD1    H7 3217   0.065   2.683  16.932 -0.2206 -1.9083  0.3551
  212MPD1     C 3218   3.094   0.465  16.817 -0.4767  0.7428 -0.7030
  212MPD1    C1 3219   3.012   0.503  16.917  0.6925 -0.4178 -0.2024
  212MPD1    C2 3220   2.922   0.411  16.968  0.0402  0.4319 -0.0465
  212MPD1    C3 3221   2.922   0.285  16.925  0.5321  0.1495  0.7788
  212MPD1    C4 3222   3.003   0.244  16.823 -0.1919  0.2664 -0.1503
  212MPD1    C5 3223   3.086   0.338  16.769 -0.2141  0.9149 -0.2346
  212MPD1     H 3224   2.839   0.443  17.031  1.2597  0.5664  1.4916
  212MPD1    H1 3225   2.998   0.145  16.778  0.9311  0.3822 -0.5489
  212MPD1    H2 3226   3.158   0.535  16.765 -0.3781  1.1400 -0.0452
  212MPD1    H3 3227   3.160   0.298  16.701 -0.7461  0.2595 -0.4285
  212MPD1     N 3228   2.847   0.180  16.984  0.1203 -0.1844 -0.1836
  212MPD1    H5 3229   2.861   0.084  16.955  1.6838 -0.8284  2.6752
  212MPD1    N1 3230   3.013   0.639  16.952 -0.1269 -0.1012 -0.0037
  212MPD1    H6 3231   2.984   0.656  17.048  0.6053  0.5522  0.1069
  212MPD1    H7 3232   3.098   0.688  16.923  0.0098 -0.3231  0.0202
  213MPD1     C 3233   1.514   0.940  16.009 -0.3735  0.0830 -0.0307
  213MPD1    C1 3234   1.411   0.848  15.970  0.3512 -0.0089 -0.3242
  213MPD1    C2 3235   1.293   0.905  15.941 -0.0434 -0.9832 -0.9873
  213MPD1    C3 3236   1.281   1.040  15.904  0.3379  0.6442 -0.4385
  213MPD1    C4 3237   1.388   1.122  15.928 -0.5128 -0.3171 -0.5676
  213MPD1    C5 3238   1.502   1.078  15.980 -0.1447 -0.2151 -0.3725
  213MPD1     H 3239   1.205   0.843  15.926  0.8567 -2.5560  0.3003
  213MPD1    H1 3240   1.391   1.228  15.910 -0.2453 -0.2082  0.1086
  213MPD1    H2 3241   1.613   0.900  16.025 -0.6622 -0.9821 -0.9536
  213MPD1    H3 3242   1.585   1.147  15.987 -1.8346  1.7322  0.6474
  213MPD1     N 3243   1.158   1.074  15.853  0.7804  0.8243  0.2096
  213MPD1    H5 3244   1.100   0.995  15.828  0.5013  0.6968  1.2340
  213MPD1    N1 3245   1.412   0.719  16.027  0.1823  0.2456 -0.6290
  213MPD1    H6 3246   1.340   0.666  15.979  1.8679 -1.5338 -1.2135
  213MPD1    H7 3247   1.506   0.681  16.014  0.8779  1.7682  0.0310
  214MPD1     C 3248   0.414   0.592  15.507 -0.6386  0.2512  0.5790
  214MPD1    C1 3249   0.506   0.577  15.606 -0.6227  0.3756  0.5454
  214MPD1    C2 3250   0.591   0.681  15.630  0.5369 -0.5827 -0.0235
  214MPD1    C3 3251   0.566   0.805  15.569 -0.4477 -0.8335 -0.3465
  214MPD1    C4 3252   0.465   0.819  15.475 -0.1991 -0.8469 -0.9116
  214MPD1    C5 3253   0.398   0.707  15.436 -0.6959  0.3629  0.2148
  214MPD1     H 3254   0.671   0.680  15.704  2.8230  1.4317 -2.4349
  214MPD1    H1 3255   0.432   0.913  15.431  1.5491  0.8195  1.3336
  214MPD1    H2 3256   0.345   0.512  15.482  0.0501 -0.7745  1.9774
  214MPD1    H3 3257   0.335   0.720  15.349  1.1525 -0.9911 -1.3060
  214MPD1     N 3258   0.653   0.920  15.599 -0.9878  0.2519 -0.3897
  214MPD1    H5 3259   0.621   1.010  15.565 -0.2877 -0.2548 -2.4103
  214MPD1    N1 3260   0.500   0.468  15.691  0.1499 -0.0060  0.3716
  214MPD1    H6 3261   0.591   0.444  15.730 -0.7265 -1.6081  1.4588
  214MPD1    H7 3262   0.456   0.386  15.649  1.2875 -0.9312  0.9975
  215MPD1     C 3263   2.112   1.342  11.404  0.1289  0.5900  0.4802
  215MPD1    C1 3264   2.083   1.378  11.534 -0.4126 -0.0835 -0.1261
  215MPD1    C2 3265   2.140   1.496  11.579 -0.7354 -0.0430 -0.5578
  215MPD1    C3 3266   2.236   1.569  11.506  0.2298 -0.5233  0.1252
  215MPD1    C4 3267   2.283   1.517  11.386  0.0421 -0.0484 -0.2773
  215MPD1    C5 3268   2.218   1.402  11.337  0.6246  0.0738  0.8537
  215MPD1     H 3269   2.109   1.531  11.677 -0.3983 -0.0856 -0.4329
  215MPD1    H1 3270   2.372   1.560  11.341  0.4465  1.2163  1.7099
  215MPD1    H2 3271   2.067   1.255  11.357 -1.0742  1.7999 -0.6051
  215MPD1    H3 3272   2.244   1.371  11.236 -1.9057 -1.5314  0.7049
  215MPD1     N 3273   2.293   1.687  11.559 -0.2650 -0.1814  0.3603
  215MPD1    H5 3274   2.276   1.712  11.656  1.3440  1.3479  0.2326
  215MPD1    N1 3275   1.973   1.321  11.602 -0.2020  0.4099 -0.2050
  215MPD1    H6 3276   1.962   1.225  11.572 -1.9017  0.3988  0.4555
  215MPD1    H7 3277   1.993   1.319  11.702  1.3643 -1.2669 -0.5419
  216MPD1     C 3278   2.713   3.566   1.428  0.0144 -0.3002 -0.2093
  216MPD1    C1 3279   2.830   3.589   1.372  0.0477 -0.0526  0.0132
  216MPD1    C2 3280   2.857   3.551   1.244  0.1582 -0.1484  0.8130
  216MPD1    C3 3281   2.756   3.499   1.173 -0.2273  0.0583  0.1030
  216MPD1    C4 3282   2.629   3.477   1.229 -0.6677  0.6738  0.6671
  216MPD1    C5 3283   2.602   3.519   1.358 -0.0081  0.3707 -0.3271
  216MPD1     H 3284   2.955   3.574   1.204  0.1272 -1.8793 -0.2576
  216MPD1    H1 3285   2.535   3.435   1.193 -0.2126  2.7232 -2.9207
  216MPD1    H2 3286   2.710   3.590   1.534 -3.8878 -0.5452 -0.2402
  216MPD1    H3 3287   2.507   3.502   1.407 -0.6736 -1.2205 -2.1745
  216MPD1     N 3288   2.775   3.469   1.033 -0.7682 -0.8472  0.2991
  216MPD1    H5 3289   2.865   3.488   0.990 -0.1613 -0.1900  1.8307
  216MPD1    N1 3290   2.933   3.653   1.442 -0.2124 -0.2963 -0.9861
  216MPD1    H6 3291   2.917   3.647   1.543  4.2719  2.7028 -0.0702
  216MPD1    H7 3292   3.028   3.619   1.425  1.1005  2.6006  0.3353
  217MPD1     C 3293   4.331   1.900   9.219 -0.4246  0.7976  0.5225
  217MPD1    C1 3294   4.208   1.916   9.284 -0.0811 -0.0185  0.8581
  217MPD1    C2 3295   4.128   1.803   9.303  0.2740 -0.0384  0.4684
  217MPD1    C3 3296   4.168   1.679   9.259  0.9852 -0.1653 -0.3541
  217MPD1    C4 3297   4.296   1.667   9.197  0.4175  0.3626 -0.9278
  217MPD1    C5 3298   4.372   1.776   9.169  0.2886  0.3384  0.1548
  217MPD1     H 3299   4.037   1.810   9.362  0.5684 -1.6404  1.1235
  217MPD1    H1 3300   4.341   1.571   9.172 -0.1538 -0.5468  1.6042
  217MPD1    H2 3301   4.407   1.977   9.206 -1.1187  1.1210 -1.7434
  217MPD1    H3 3302   4.471   1.768   9.127  1.0722  0.5621  1.9652
  217MPD1     N 3303   4.090   1.561   9.270 -0.1076  0.3596  0.5015
  217MPD1    H5 3304   4.135   1.472   9.248 -0.6813  0.0880  0.4259
  217MPD1    N1 3305   4.175   2.036   9.349  0.1520 -1.0832  0.0813
  217MPD1    H6 3306   4.213   2.120   9.308 -0.8178 -0.4889  0.3978
  217MPD1    H7 3307   4.076   2.057   9.337  0.6295  1.1234  0.0900
  218MPD1     C 3308   0.957   2.596  12.139 -0.3160  0.3957 -0.0723
  218MPD1    C1 3309   1.081   2.650  12.171 -0.2477 -0.3364  0.4251
  218MPD1    C2 3310   1.148   2.586  12.279  0.4008 -0.2108 -0.0385
  218MPD1    C3 3311   1.089   2.497  12.368  0.3953  0.7490 -0.2274
  218MPD1    C4 3312   0.958   2.459  12.340 -0.1740  0.1429 -0.8591
  218MPD1    C5 3313   0.902   2.496  12.220  0.6104  0.2480 -0.9654
  218MPD1     H 3314   1.252   2.611  12.300  0.0329  0.3356  1.1304
  218MPD1    H1 3315   0.900   2.393  12.404 -1.6658 -0.5545 -2.9293
  218MPD1    H2 3316   0.903   2.621  12.049  0.0995  0.3825 -0.3249
  218MPD1    H3 3317   0.805   2.462  12.187 -0.5730  1.1942  1.5610
  218MPD1     N 3318   1.155   2.473  12.491 -0.4467 -0.2911 -0.0374
  218MPD1    H5 3319   1.246   2.515  12.505  0.4413 -2.1390 -0.2218
  218MPD1    N1 3320   1.153   2.718  12.070 -0.2701  0.1375 -0.1401
  218MPD1    H6 3321   1.094   2.774  12.008 -0.3565 -0.8595 -0.9497
  218MPD1    H7 3322   1.224   2.782  12.106 -0.3626  0.6770 -0.8992
  219MPD1     C 3323   1.888   2.746  12.566  0.2973 -0.5110 -0.3291
  219MPD1    C1 3324   1.880   2.669  12.683 -0.2225  0.2066 -0.0510
  219MPD1    C2 3325   1.763   2.629  12.746  0.5798 -0.2991 -0.0496
  219MPD1    C3 3326   1.643   2.662  12.690  0.0695 -0.1724  0.3308
  219MPD1    C4 3327   1.641   2.747  12.586 -0.0741 -0.1761  0.1169
  219MPD1    C5 3328   1.759   2.793  12.528 -0.2663  0.1641 -0.0727
  219MPD1     H 3329   1.779   2.558  12.827  0.4046  0.3665  0.5627
  219MPD1    H1 3330   1.552   2.784  12.536 -0.6766  0.8019  1.8728
  219MPD1    H2 3331   1.978   2.782  12.516 -0.2117  1.5870  0.2823
  219MPD1    H3 3332   1.760   2.869  12.451 -0.8941 -2.2865 -2.5171
  219MPD1     N 3333   1.512   2.620  12.737 -0.1797  0.0045  0.0184
  219MPD1    H5 3334   1.429   2.643  12.683  0.3056 -1.3825 -1.3199
  219MPD1    N1 3335   2.003   2.612  12.727 -0.6795  0.0328  0.1127
  219MPD1    H6 3336   2.014   2.585  12.824 -3.0040  3.9488  1.4734
  219MPD1    H7 3337   2.083   2.665  12.693 -1.8522  0.2170 -2.3930
  220MPD1     C 3338   1.978   1.311  10.781  0.2821 -1.2571 -1.2376
  220MPD1    C1 3339   1.972   1.385  10.900 -0.0392 -0.1781  0.0309
  220MPD1    C2 3340   1.928   1.521  10.893 -0.6489 -0.2079  0.5224
  220MPD1    C3 3341   1.896   1.577  10.769 -0.2167  0.2726 -0.7260
  220MPD1    C4 3342   1.902   1.502  10.654  0.5533  0.0089 -0.6875
  220MPD1    C5 3343   1.952   1.374  10.662 -0.7245 -0.4787  0.0727
  220MPD1     H 3344   1.907   1.574  10.985 -1.3662 -1.1449  0.8994
  220MPD1    H1 3345   1.891   1.549  10.556 -1.1411  0.9406 -0.0549
  220MPD1    H2 3346   2.001   1.205  10.785  1.0897 -1.0681 -0.8737
  220MPD1    H3 3347   1.979   1.318  10.574 -0.4246 -0.4411  0.1387
  220MPD1     N 3348   1.857   1.717  10.776 -0.7361 -0.0422 -0.1625
  220MPD1    H5 3349   1.853   1.756  10.870 -1.8921 -1.7004  0.4874
  220MPD1    N1 3350   2.017   1.331  11.016 -0.1212  0.1522 -0.3253
  220MPD1    H6 3351   2.011   1.230  11.024 -1.7967  0.1805 -1.3171
  220MPD1    H7 3352   2.000   1.390  11.098 -0.1415 -1.4921  0.8486
  221MPD1     C 3353   2.674   1.648  17.400  0.1422 -0.4113 -0.1508
  221MPD1    C1 3354   2.743   1.529  17.421  0.3768 -0.1091 -0.1640
  221MPD1    C2 3355   2.865   1.521  17.359  0.3403 -0.1798  0.2358
  221MPD1    C3 3356   2.922   1.632  17.289 -0.0306  0.0627 -0.2960
  221MPD1    C4 3357   2.854   1.754  17.281 -0.3080 -0.0018  0.5477
  221MPD1    C5 3358   2.731   1.755  17.337 -0.1863 -0.2623  0.1485
  221MPD1     H 3359   2.913   1.425  17.358  1.3764  0.3442 -0.5108
  221MPD1    H1 3360   2.878   1.841  17.222  0.4796  0.0438  0.9232
  221MPD1    H2 3361   2.573   1.656  17.441  0.0316  0.1066 -0.5373
  221MPD1    H3 3362   2.676   1.849  17.336 -0.7367 -0.6039 -1.9131
  221MPD1     N 3363   3.049   1.625  17.218 -0.2480  0.0323  0.2292
  221MPD1    H5 3364   3.073   1.705  17.160  1.0577 -0.5789 -0.0712
  221MPD1    N1 3365   2.679   1.409  17.468 -0.1435  0.3117 -0.2458
  221MPD1    H6 3366   2.605   1.424  17.536 -0.7632  2.3354 -1.3380
  221MPD1    H7 3367   2.734   1.337  17.515  1.3617 -0.6877 -3.5389
  222MPD1     C 3368   2.346   4.448   0.366  0.7243  0.0568 -0.7874
  222MPD1    C1 3369   2.363   4.579   0.323 -0.1987 -0.0618  0.2328
  222MPD1    C2 3370   2.363   4.679   0.417 -0.5444  0.0234  0.2451
  222MPD1    C3 3371   2.351   4.639   0.556 -1.2863 -0.2796  0.3350
  222MPD1    C4 3372   2.336   4.502   0.592  0.2301  0.5465  0.0419
  222MPD1    C5 3373   2.330   4.410   0.495  0.2695 -0.5611 -0.5434
  222MPD1     H 3374   2.358   0.057   0.386 -0.2025 -0.1345 -0.3347
  222MPD1    H1 3375   2.330   4.472   0.696 -0.5417 -1.3496 -0.5548
  222MPD1    H2 3376   2.327   4.367   0.297  0.8548 -0.3349 -0.3603
  222MPD1    H3 3377   2.321   4.304   0.514  1.8711 -0.1129  2.6375
  222MPD1     N 3378   2.342   0.012   0.662  0.1212  0.7312 -0.7722
  222MPD1    H5 3379   2.315   4.703   0.754 -0.8954  0.1269 -1.2914
  222MPD1    N1 3380   2.350   4.610   0.194  0.0327 -0.5030 -0.8652
  222MPD1    H6 3381   2.394   4.699   0.173  0.3081 -0.9349 -2.1361
  222MPD1    H7 3382   2.385   4.540   0.129 -0.9767 -0.8367 -1.0477
  223MPD1     C 3383   1.874   4.682   1.339  0.2624 -0.8190  0.2433
  223MPD1    C1 3384   1.936   4.610   1.239 -0.2890  0.0422 -0.8671
  223MPD1    C2 3385   2.002   4.678   1.144  0.5166 -0.9807  0.5496
  223MPD1    C3 3386   1.997   0.090   1.139 -0.0912  0.6194 -0.7778
  223MPD1    C4 3387   1.916   0.160   1.227 -0.3281  0.0960 -0.2150
  223MPD1    C5 3388   1.861   0.092   1.329  0.7882 -0.5683  0.2421
  223MPD1     H 3389   2.057   4.622   1.069 -2.5526 -1.7534 -1.0980
  223MPD1    H1 3390   1.897   0.266   1.216 -1.2785 -0.2950 -2.4487
  223MPD1    H2 3391   1.824   4.636   1.424 -2.2880  0.9320 -0.3060
  223MPD1    H3 3392   1.799   0.146   1.399 -0.1369  0.3419 -1.2806
  223MPD1     N 3393   2.078   0.147   1.037  0.1375 -1.1799  0.1586
  223MPD1    H5 3394   2.141   0.083   0.988  2.5861  0.2392  1.4192
  223MPD1    N1 3395   1.956   4.471   1.253 -0.1424  0.3402 -0.2356
  223MPD1    H6 3396   1.872   4.428   1.290 -0.7007  2.5728  1.1020
  223MPD1    H7 3397   1.998   4.419   1.176  0.7302  2.5624 -1.2676
  224MPD1     C 3398   1.217   0.508  10.024 -1.1112  0.1718 -0.2136
  224MPD1    C1 3399   1.096   0.442  10.029 -0.5200  0.3049 -1.3009
  224MPD1    C2 3400   0.990   0.503   9.957  1.0372  0.4088  0.9216
  224MPD1    C3 3401   0.999   0.633   9.911  0.2283  0.0727  0.7456
  224MPD1    C4 3402   1.123   0.694   9.918 -0.7941 -0.5046  0.2219
  224MPD1    C5 3403   1.232   0.635   9.974  0.2501  0.3306 -0.0623
  224MPD1     H 3404   0.894   0.457   9.976  0.7346  0.8623  0.5000
  224MPD1    H1 3405   1.124   0.793   9.876 -0.3268 -1.2512 -1.5402
  224MPD1    H2 3406   1.307   0.470  10.070 -0.9459  0.0464 -0.6427
  224MPD1    H3 3407   1.325   0.692   9.970  0.3519  0.0900 -1.1546
  224MPD1     N 3408   0.883   0.709   9.862  0.5350 -0.4153 -0.4475
  224MPD1    H5 3409   0.890   0.805   9.829 -0.5995  0.0351  0.6140
  224MPD1    N1 3410   1.080   0.309  10.074  0.0463  0.1663 -0.4563
  224MPD1    H6 3411   0.992   0.268  10.102 -0.3533 -0.9944 -3.3783
  224MPD1    H7 3412   1.163   0.269  10.117  1.2255  2.3475 -0.6680
  225MPD1     C 3413   0.866   3.442  12.956 -0.2989  0.3135 -0.3467
  225MPD1    C1 3414   0.790   3.322  12.969  0.2211  0.1374 -0.0044
  225MPD1    C2 3415   0.695   3.290  12.874  0.5079  0.3104  0.1405
  225MPD1    C3 3416   0.680   3.367  12.757  0.0498 -0.0945 -0.2812
  225MPD1    C4 3417   0.756   3.478  12.749  0.3062 -0.2269 -1.5379
  225MPD1    C5 3418   0.844   3.522  12.848 -0.0790  0.4387 -0.1516
  225MPD1     H 3419   0.648   3.193  12.884  0.9566 -0.0199 -0.8970
  225MPD1    H1 3420   0.756   3.552  12.670  0.7211  0.3238 -1.0145
  225MPD1    H2 3421   0.938   3.483  13.025 -0.5896 -0.6407  0.5298
  225MPD1    H3 3422   0.895   3.618  12.835 -2.7357  2.1586  2.1551
  225MPD1     N 3423   0.602   3.331  12.647 -0.1871  0.3607 -0.3333
  225MPD1    H5 3424   0.586   3.400  12.574 -3.2036  1.1494  1.0541
  225MPD1    N1 3425   0.813   3.236  13.074  0.0664 -0.3132 -0.2989
  225MPD1    H6 3426   0.813   3.288  13.162 -1.0811  0.9341 -1.0391
  225MPD1    H7 3427   0.756   3.151  13.075 -1.1494  0.5184  0.2404
  226MPD1     C 3428   3.602   1.829   9.997 -0.3087  0.2481 -0.2366
  226MPD1    C1 3429   3.517   1.868  10.098  0.8110 -0.3104 -0.0871
  226MPD1    C2 3430   3.526   2.003  10.136  0.5583 -0.0127  0.8808
  226MPD1    C3 3431   3.632   2.082  10.087  0.1866  0.0983 -0.0360
  226MPD1    C4 3432   3.718   2.039   9.986  0.4400  0.2539 -0.5667
  226MPD1    C5 3433   3.696   1.916   9.937 -0.2817 -0.2173 -0.1022
  226MPD1     H 3434   3.453   2.033  10.211  0.0395 -0.7747  0.6782
  226MPD1    H1 3435   3.799   2.099   9.947  0.7470  0.3680  0.2487
  226MPD1    H2 3436   3.594   1.727   9.960  0.4067  0.6666 -1.5668
  226MPD1    H3 3437   3.756   1.887   9.851  1.1404  1.6184  0.2723
  226MPD1     N 3438   3.649   2.213  10.145 -0.0464 -0.3119  0.1299
  226MPD1    H5 3439   3.586   2.249  10.216  0.9205  1.0889  0.2764
  226MPD1    N1 3440   3.398   1.799  10.126  0.6071  0.1960  0.7121
  226MPD1    H6 3441   3.372   1.794  10.225  2.4079 -2.4488  1.0327
  226MPD1    H7 3442   3.418   1.704  10.097  0.4146 -0.0467  1.3785
  227MPD1     C 3443   3.091   2.842  10.543 -0.1753  0.6237 -0.3352
  227MPD1    C1 3444   3.194   2.913  10.476  0.7301 -0.1955  0.5915
  227MPD1    C2 3445   3.322   2.854  10.456  0.3355 -0.0619  0.2294
  227MPD1    C3 3446   3.349   2.728  10.496  0.4147  0.0003  0.1480
  227MPD1    C4 3447   3.251   2.661  10.569 -0.4262  0.0405  0.3709
  227MPD1    C5 3448   3.130   2.716  10.585  0.5217 -0.3974 -0.7301
  227MPD1     H 3449   3.395   2.911  10.400 -1.2423  2.1770  0.4534
  227MPD1    H1 3450   3.266   2.559  10.602 -2.5094 -1.0537 -1.9989
  227MPD1    H2 3451   2.997   2.884  10.576  0.6407  1.4097  0.9749
  227MPD1    H3 3452   3.061   2.666  10.652 -0.6398  1.5402 -0.4859
  227MPD1     N 3453   3.477   2.681  10.463 -0.0246  0.3596  0.3894
  227MPD1    H5 3454   3.540   2.753  10.428  2.2075 -1.8113  0.0226
  227MPD1    N1 3455   3.164   3.037  10.422 -0.4416  0.1279  0.7247
  227MPD1    H6 3456   3.103   3.104  10.468 -1.8592  0.3782 -1.5437
  227MPD1    H7 3457   3.252   3.087  10.410 -1.3377  1.4965 -0.1734
  228MPD1     C 3458   2.813   1.069  12.999  0.5109  0.7367  0.0559
  228MPD1    C1 3459   2.756   1.024  12.888 -0.6607 -0.2286  0.5842
  228MPD1    C2 3460   2.661   0.926  12.902 -0.0514  0.4379  0.3325
  228MPD1    C3 3461   2.620   0.871  13.021  0.4380 -0.0097  0.2240
  228MPD1    C4 3462   2.676   0.928  13.140 -0.3006 -0.1688 -0.6163
  228MPD1    C5 3463   2.777   1.025  13.124 -0.4093 -0.2845  0.5582
  228MPD1     H 3464   2.623   0.876  12.814  2.6877  0.0297 -0.6338
  228MPD1    H1 3465   2.637   0.905  13.238 -1.0838  1.3899 -0.5612
  228MPD1    H2 3466   2.898   1.134  12.985 -0.4821  2.0284  0.0321
  228MPD1    H3 3467   2.830   1.065  13.210 -2.4757  0.6564  1.3772
  228MPD1     N 3468   2.517   0.781  13.010  0.2966 -0.0977 -0.5149
  228MPD1    H5 3469   2.468   0.777  12.921 -0.9027 -0.8091  0.1875
  228MPD1    N1 3470   2.790   1.064  12.752 -0.1192 -0.0220  0.2670
  228MPD1    H6 3471   2.704   1.055  12.698 -0.8217  0.1305  1.3505
  228MPD1    H7 3472   2.841   1.151  12.735  0.5091 -0.0188  2.1892
  229MPD1     C 3473   2.359   4.112  15.110 -0.4924  0.4601 -0.5016
  229MPD1    C1 3474   2.266   4.140  15.203  0.5659  0.4811 -0.2467
  229MPD1    C2 3475   2.221   4.042  15.295  0.7264  0.2804 -0.0212
  229MPD1    C3 3476   2.292   3.923  15.296 -0.4190  0.1886 -0.2930
  229MPD1    C4 3477   2.384   3.895  15.198 -0.0375 -0.1888  0.6464
  229MPD1    C5 3478   2.419   3.992  15.109  1.0039 -0.1250  0.6028
  229MPD1     H 3479   2.156   4.077  15.375  0.2334 -0.7882  0.0464
  229MPD1    H1 3480   2.438   3.801  15.196 -0.9652 -0.7270  1.0102
  229MPD1    H2 3481   2.383   4.189  15.037  1.5424 -1.5774 -1.9853
  229MPD1    H3 3482   2.499   3.986  15.036  0.4202 -2.4509  0.1680
  229MPD1     N 3483   2.257   3.825  15.389  0.4955 -0.4557 -0.2134
  229MPD1    H5 3484   2.287   3.733  15.359 -0.5093 -1.4985  2.0503
  229MPD1    N1 3485   2.195   4.258  15.185  0.4311 -0.1745  0.1286
  229MPD1    H6 3486   2.253   4.327  15.138 -1.0248  1.1299  0.2546
  229MPD1    H7 3487   2.168   4.307  15.269  1.4467 -2.4450  1.7794
  230MPD1     C 3488   2.011   4.006  16.325  0.1819 -0.6516 -0.1930
  230MPD1    C1 3489   1.931   4.029  16.222  0.7494 -0.0994 -0.6392
  230MPD1    C2 3490   1.945   3.958  16.104  0.3640 -0.6504  0.5304
  230MPD1    C3 3491   2.040   3.865  16.085 -0.2822  0.8767 -0.0275
  230MPD1    C4 3492   2.117   3.830  16.196 -0.3366  0.1647  0.5479
  230MPD1    C5 3493   2.101   3.904  16.316 -0.6346 -0.1884 -0.3675
  230MPD1     H 3494   1.870   3.979  16.029 -1.3250  0.7574  2.5968
  230MPD1    H1 3495   2.186   3.747  16.198 -0.8811 -0.2870  0.3409
  230MPD1    H2 3496   2.004   4.054  16.422 -2.1323 -1.8293  0.2320
  230MPD1    H3 3497   2.167   3.885  16.400  0.6570  0.1455 -1.2964
  230MPD1     N 3498   2.057   3.788  15.970 -0.5195 -0.4433  0.3349
  230MPD1    H5 3499   1.985   3.799  15.899  0.5939  0.6818 -0.5970
  230MPD1    N1 3500   1.815   4.106  16.245 -0.2955  0.1802 -0.4256
  230MPD1    H6 3501   1.777   4.144  16.159 -1.9794  0.7775  0.5808
  230MPD1    H7 3502   1.822   4.181  16.313 -1.8735  0.2753 -0.3713
  231MPD1     C 3503   0.554   1.313  15.733 -0.2163 -0.0459 -0.4303
  231MPD1    C1 3504   0.493   1.280  15.615  0.3542 -0.2890  0.0482
  231MPD1    C2 3505   0.503   1.372  15.518 -0.4760 -0.9093  0.0109
  231MPD1    C3 3506   0.576   1.492  15.530  0.2364  0.2629  0.1693
  231MPD1    C4 3507   0.614   1.529  15.656 -0.5024 -1.2294  0.0062
  231MPD1    C5 3508   0.603   1.436  15.756  0.2241 -0.6330 -1.0703
  231MPD1     H 3509   0.472   1.345  15.418 -0.6378  0.8471 -0.3973
  231MPD1    H1 3510   0.670   1.620  15.675 -0.6871 -1.1315  0.0751
  231MPD1    H2 3511   0.565   1.242  15.814  0.8723 -0.9087 -1.3456
  231MPD1    H3 3512   0.637   1.470  15.853 -0.9434  1.8148 -1.5158
  231MPD1     N 3513   0.593   1.586  15.428 -0.1244 -0.1382  0.2978
  231MPD1    H5 3514   0.555   1.557  15.339  0.0287  0.3300  0.0796
  231MPD1    N1 3515   0.453   1.143  15.591  0.1138  0.8324 -0.0933
  231MPD1    H6 3516   0.411   1.110  15.678 -0.0029 -0.9884 -0.8396
  231MPD1    H7 3517   0.383   1.147  15.518 -1.4535  2.1607  1.4948
  232MPD1     C 3518   2.624   3.854   0.388 -0.1043 -0.5618  0.6589
  232MPD1    C1 3519   2.618   3.810   0.521  0.4992 -0.6289  0.4987
  232MPD1    C2 3520   2.531   3.703   0.549 -0.2670  0.5984  0.6551
  232MPD1    C3 3521   2.467   3.631   0.444 -0.0844  0.1654 -0.1481
  232MPD1    C4 3522   2.481   3.673   0.311  0.6031 -0.1515 -0.2246
  232MPD1    C5 3523   2.565   3.778   0.288  0.1100 -0.5465 -0.4588
  232MPD1     H 3524   2.525   3.657   0.647  0.0507 -1.5085 -0.3107
  232MPD1    H1 3525   2.431   3.619   0.232  3.0142 -2.3515 -0.2270
  232MPD1    H2 3526   2.690   3.938   0.368 -0.7638 -0.2528 -0.2264
  232MPD1    H3 3527   2.573   3.811   0.185 -0.6068  0.0100 -0.3383
  232MPD1     N 3528   2.380   3.522   0.477  0.5951 -0.3656 -1.2237
  232MPD1    H5 3529   2.377   3.495   0.575  1.0898  2.2005 -0.5128
  232MPD1    N1 3530   2.672   3.885   0.628 -0.4746 -0.2340 -0.1897
  232MPD1    H6 3531   2.754   3.936   0.598 -0.8931 -0.7129 -2.2082
  232MPD1    H7 3532   2.694   3.839   0.716 -1.6850 -0.5103 -0.0232
  233MPD1     C 3533   2.108   2.061   0.543  0.4523  0.0622 -0.4423
  233MPD1    C1 3534   2.129   2.052   0.681  0.0461 -0.0571 -0.2654
  233MPD1    C2 3535   2.161   2.171   0.750 -0.3201 -0.1868  0.2152
  233MPD1    C3 3536   2.202   2.286   0.675 -0.1705 -0.9812  0.3451
  233MPD1    C4 3537   2.194   2.285   0.541 -0.1291  0.2268  0.2045
  233MPD1    C5 3538   2.147   2.176   0.475 -0.3218  0.1442 -0.8474
  233MPD1     H 3539   2.166   2.167   0.859 -1.4098 -0.5881  0.2553
  233MPD1    H1 3540   2.216   2.372   0.481  0.3960  1.8596  2.7824
  233MPD1    H2 3541   2.060   1.978   0.493  0.0328 -0.9260  1.5834
  233MPD1    H3 3542   2.126   2.191   0.370 -1.1627 -5.0878 -1.4244
  233MPD1     N 3543   2.257   2.399   0.739  0.1177 -0.1354 -0.1826
  233MPD1    H5 3544   2.291   2.473   0.679 -1.6428 -0.7131 -1.9075
  233MPD1    N1 3545   2.089   1.938   0.752 -0.2988  0.1818  0.3748
  233MPD1    H6 3546   2.086   1.847   0.707  0.2792  0.5727 -0.4492
  233MPD1    H7 3547   2.127   1.929   0.846  0.2504  2.8104  0.3930
  234MPD1     C 3548   0.065   4.617   8.990  0.4288 -0.0732 -0.3333
  234MPD1    C1 3549   0.146   0.006   9.020 -0.4774  0.2668  0.0212
  234MPD1    C2 3550   0.094   0.118   9.079 -0.0424  0.2732 -0.0385
  234MPD1    C3 3551   4.687   0.131   9.101 -0.2938 -0.2809 -0.0812
  234MPD1    C4 3552   4.605   0.027   9.060  0.1266  0.5251 -0.3563
  234MPD1    C5 3553   4.659   4.629   9.014 -0.2406 -0.2911  0.0883
  234MPD1     H 3554   0.156   0.205   9.099 -0.9524  0.9164  0.0159
  234MPD1    H1 3555   4.498   0.024   9.076  0.0597  1.8914 -0.6154
  234MPD1    H2 3556   0.118   4.528   8.957 -0.4651 -0.2258 -1.3579
  234MPD1    H3 3557   4.589   4.551   8.987 -2.9752  1.6433  1.5687
  234MPD1     N 3558   4.635   0.251   9.149  0.1429  0.2669 -0.2013
  234MPD1    H5 3559   4.700   0.310   9.201  1.9272 -1.6729 -0.2845
  234MPD1    N1 3560   0.283   4.719   8.991 -0.7216 -0.0712  0.6301
  234MPD1    H6 3561   0.309   0.076   8.939 -0.7922  0.5094  1.5117
  234MPD1    H7 3562   0.302   4.636   8.935 -0.2428 -1.1403  2.3646
  235MPD1     C 3563   0.701   4.124   9.289 -1.0099 -0.0756 -0.2870
  235MPD1    C1 3564   0.728   4.077   9.410  0.1230 -0.5680 -0.1939
  235MPD1    C2 3565   0.860   4.064   9.439  0.5167 -0.3468 -0.1864
  235MPD1    C3 3566   0.962   4.108   9.364 -0.0082 -0.3336 -0.5976
  235MPD1    C4 3567   0.927   4.176   9.249  0.0142 -0.1947  0.1641
  235MPD1    C5 3568   0.795   4.178   9.214 -0.5010 -0.4700 -0.0153
  235MPD1     H 3569   0.897   4.021   9.532  0.6362 -0.0265 -0.0822
  235MPD1    H1 3570   1.000   4.216   9.180 -2.0589 -0.9948 -2.4738
  235MPD1    H2 3571   0.601   4.129   9.248 -0.8261  0.5998 -0.6644
  235MPD1    H3 3572   0.778   4.217   9.114 -0.8608 -1.1378 -0.2172
  235MPD1     N 3573   1.093   4.098   9.412 -0.4651  0.2633  0.5355
  235MPD1    H5 3574   1.111   4.043   9.496  0.0806 -1.4389 -0.7005
  235MPD1    N1 3575   0.626   4.017   9.491  0.1105 -0.4326 -0.2087
  235MPD1    H6 3576   0.540   4.070   9.500  0.4964  0.1807 -0.1107
  235MPD1    H7 3577   0.649   3.992   9.587 -1.3695 -1.3570 -0.0910
  236MPD1     C 3578   0.411   4.370  10.034  0.2580 -0.7388 -0.1190
  236MPD1    C1 3579   0.412   4.476  10.124  0.0808 -0.0607 -0.3574
  236MPD1    C2 3580   0.475   4.465  10.240  0.0951 -0.2095 -0.1195
  236MPD1    C3 3581   0.540   4.348  10.271  0.5513 -0.5905 -0.1294
  236MPD1    C4 3582   0.529   4.245  10.193  0.5644 -0.2073 -0.5896
  236MPD1    C5 3583   0.469   4.250  10.070  0.0607 -0.3854 -0.1138
  236MPD1     H 3584   0.479   4.555  10.299  2.2802 -0.6424  0.4023
  236MPD1    H1 3585   0.564   4.146  10.221  0.5732 -0.4802 -1.5495
  236MPD1    H2 3586   0.362   4.375   9.938  1.0535  1.2450 -0.4313
  236MPD1    H3 3587   0.469   4.158  10.012  0.1211 -0.3295 -0.2031
  236MPD1     N 3588   0.614   4.331  10.385  0.8043  0.8672  0.2809
  236MPD1    H5 3589   0.654   4.239  10.402 -0.7729  0.1186 -0.0699
  236MPD1    N1 3590   0.363   4.607  10.084 -0.1240  0.1050 -0.0832
  236MPD1    H6 3591   0.291   4.612  10.012 -1.3967 -1.7125  1.0718
  236MPD1    H7 3592   0.335   4.660  10.166 -0.0733 -0.3429  0.2255
  237MPD1     C 3593   0.937   2.999  15.512 -0.1187 -0.9035  0.0201
  237MPD1    C1 3594   0.888   3.022  15.387  0.6384 -0.8061 -0.2251
  237MPD1    C2 3595   0.783   2.937  15.345  0.2687  0.5521 -0.4070
  237MPD1    C3 3596   0.738   2.831  15.422 -0.4925 -0.0939 -0.3328
  237MPD1    C4 3597   0.805   2.798  15.540  0.4454 -0.4859 -0.4168
  237MPD1    C5 3598   0.901   2.886  15.587 -0.2598 -0.0888  0.1950
  237MPD1     H 3599   0.735   2.958  15.251  0.8961  1.2977 -0.5662
  237MPD1    H1 3600   0.789   2.709  15.599 -1.1069 -1.4794 -2.3730
  237MPD1    H2 3601   1.013   3.065  15.552 -0.8502  0.2103 -0.4143
  237MPD1    H3 3602   0.936   2.864  15.687 -2.6821  2.9028  1.6986
  237MPD1     N 3603   0.634   2.746  15.385 -0.2812  0.4895 -0.1319
  237MPD1    H5 3604   0.612   2.666  15.443  0.3434 -0.5207 -1.2964
  237MPD1    N1 3605   0.913   3.145  15.321  0.7549 -0.3173  0.0910
  237MPD1    H6 3606   1.003   3.190  15.336  2.0901 -2.3539 -1.9447
  237MPD1    H7 3607   0.898   3.143  15.221  0.9407  0.6432  0.0412
  238MPD1     C 3608   2.055   0.982  15.923 -0.2222  0.4804  0.2524
  238MPD1    C1 3609   1.984   0.887  15.849 -0.7737 -0.0848 -0.2210
  238MPD1    C2 3610   1.861   0.929  15.791 -0.1691 -0.0524 -0.2012
  238MPD1    C3 3611   1.817   1.058  15.797  0.0426  0.0049 -0.6367
  238MPD1    C4 3612   1.887   1.147  15.876 -0.0423 -0.0680 -0.0588
  238MPD1    C5 3613   2.003   1.111  15.942  0.2036  0.2881 -0.0145
  238MPD1     H 3614   1.822   0.860  15.716  1.1927 -1.2157  0.1642
  238MPD1    H1 3615   1.867   1.253  15.888  0.9647 -0.1414  2.2828
  238MPD1    H2 3616   2.144   0.965  15.983  0.2706 -1.5297 -1.0740
  238MPD1    H3 3617   2.050   1.169  16.021  0.7438 -2.2521  1.5223
  238MPD1     N 3618   1.710   1.102  15.720 -0.3399 -0.0581 -0.8934
  238MPD1    H5 3619   1.682   1.199  15.723  0.5129  0.1621 -0.1765
  238MPD1    N1 3620   2.041   0.763  15.812  0.0291 -0.2649  0.2565
  238MPD1    H6 3621   1.965   0.706  15.773  0.9218 -1.6876  0.6129
  238MPD1    H7 3622   2.098   0.725  15.887 -0.4309  1.2538  1.3877
  239MPD1     C 3623   2.676   2.078  15.524 -0.6400  0.5898 -0.0830
  239MPD1    C1 3624   2.559   2.159  15.532  0.2162 -0.2554 -0.3468
  239MPD1    C2 3625   2.474   2.165  15.424 -0.0064 -0.4217 -0.2744
  239MPD1    C3 3626   2.519   2.120  15.296  0.0380 -0.2898  0.3527
  239MPD1    C4 3627   2.630   2.045  15.293  0.8010 -0.0714 -0.2098
  239MPD1    C5 3628   2.710   2.019  15.406 -0.1323 -0.7092  0.5830
  239MPD1     H 3629   2.391   2.231  15.444 -0.2812 -0.8391 -0.0242
  239MPD1    H1 3630   2.670   2.001  15.202 -0.5512 -1.2015 -0.2529
  239MPD1    H2 3631   2.744   2.059  15.606 -1.4526  0.5256  0.5782
  239MPD1    H3 3632   2.792   1.948  15.406 -0.0021 -0.5615 -1.9076
  239MPD1     N 3633   2.465   2.160  15.178 -0.0873 -0.3781 -0.1378
  239MPD1    H5 3634   2.520   2.154  15.094  0.8351 -0.0810  0.4498
  239MPD1    N1 3635   2.527   2.208  15.659 -0.3047  0.0758  0.2648
  239MPD1    H6 3636   2.470   2.292  15.656 -2.5404 -1.4163  1.2340
  239MPD1    H7 3637   2.611   2.230  15.713  0.0370 -1.0025  0.1784
  240MPD1     C 3638   2.044   1.684  14.450 -0.0247 -0.0506 -0.6067
  240MPD1    C1 3639   1.914   1.721  14.420  0.2226 -0.2830 -0.6725
  240MPD1    C2 3640   1.829   1.748  14.521 -0.9956  0.1481 -0.3889
  240MPD1    C3 3641   1.855   1.745  14.654 -0.2641  1.2447  0.2378
  240MPD1    C4 3642   1.982   1.703  14.692  0.0900  1.0556 -0.3804
  240MPD1    C5 3643   2.073   1.668  14.591  0.0640 -0.5936 -0.1113
  240MPD1     H 3644   1.730   1.778  14.491 -0.5711  1.2958 -0.6704
  240MPD1    H1 3645   2.022   1.711  14.792 -0.9340 -1.8912  0.2428
  240MPD1    H2 3646   2.118   1.669  14.372 -1.1079 -0.8143 -1.4852
  240MPD1    H3 3647   2.179   1.654  14.612 -0.2088  0.1660  1.8272
  240MPD1     N 3648   1.743   1.762  14.746  0.6866  0.4311 -0.1917
  240MPD1    H5 3649   1.648   1.774  14.711  0.6666  2.5385  0.5775
  240MPD1    N1 3650   1.879   1.750  14.290 -0.8032  0.1162  0.8975
  240MPD1    H6 3651   1.931   1.686  14.229  1.4313  1.8618  0.9738
  240MPD1    H7 3652   1.782   1.758  14.261 -0.4784  0.6079 -0.0708
  241MPD1     C 3653   1.441   1.475  15.776 -0.2666  0.7105 -0.1539
  241MPD1    C1 3654   1.562   1.472  15.718  0.1945 -0.7685  0.1018
  241MPD1    C2 3655   1.571   1.503  15.581 -0.6324  0.1092 -0.4961
  241MPD1    C3 3656   1.465   1.559  15.513  0.1556  0.8414  0.1850
  241MPD1    C4 3657   1.342   1.570  15.577 -0.0738  0.3669  0.2856
  241MPD1    C5 3658   1.332   1.529  15.708 -0.5309 -0.0908  0.0650
  241MPD1     H 3659   1.669   1.504  15.535 -0.5339  1.7068 -0.2504
  241MPD1    H1 3660   1.254   1.611  15.528  0.6695 -0.4327 -1.6763
  241MPD1    H2 3661   1.415   1.439  15.875 -1.2718 -0.0433 -0.6867
  241MPD1    H3 3662   1.233   1.541  15.749  0.1849  3.1604  0.7856
  241MPD1     N 3663   1.463   1.591  15.372 -0.6737  0.8323  0.0703
  241MPD1    H5 3664   1.373   1.614  15.332  0.4646  3.7009 -0.8647
  241MPD1    N1 3665   1.671   1.408  15.778 -0.0896 -0.3083 -0.5402
  241MPD1    H6 3666   1.763   1.450  15.764 -0.2475  0.0490 -0.5205
  241MPD1    H7 3667   1.657   1.420  15.878  2.7122 -2.8127  0.1688
  242MPD1     C 3668   1.409   3.661  16.178 -0.0849  0.1269 -0.2579
  242MPD1    C1 3669   1.315   3.702  16.085 -0.2393  0.5148 -0.1344
  242MPD1    C2 3670   1.346   3.810  16.002  0.6356 -0.3491 -0.8917
  242MPD1    C3 3671   1.458   3.892  16.024  0.3910 -0.0329 -0.2632
  242MPD1    C4 3672   1.546   3.855  16.123 -0.5898  0.3646  0.2635
  242MPD1    C5 3673   1.528   3.734  16.190  0.4321 -0.0390  0.1725
  242MPD1     H 3674   1.274   3.831  15.924 -0.4560 -1.4063 -0.1659
  242MPD1    H1 3675   1.636   3.905  16.155 -0.1180 -1.0272  1.1024
  242MPD1    H2 3676   1.383   3.576  16.239 -0.1000 -0.1307 -0.6239
  242MPD1    H3 3677   1.601   3.709  16.266  0.3935  1.3296  0.6562
  242MPD1     N 3678   1.491   4.011  15.945  0.7699 -0.1451 -0.4957
  242MPD1    H5 3679   1.583   4.053  15.959 -0.1230  1.3431  0.8259
  242MPD1    N1 3680   1.208   3.621  16.062 -0.0810  0.0988  0.0236
  242MPD1    H6 3681   1.175   3.568  16.142 -1.8717  0.5112 -0.4559
  242MPD1    H7 3682   1.124   3.665  16.024 -0.5461 -0.6903  0.1482
  243MPD1     C 3683   4.005   4.024   0.318  0.0300  0.1545 -0.1330
  243MPD1    C1 3684   3.885   3.962   0.346  0.4406  0.2610  0.1245
  243MPD1    C2 3685   3.784   3.953   0.248  0.1419 -0.2493 -0.4626
  243MPD1    C3 3686   3.815   4.000   0.120  0.4808 -0.2443 -0.1892
  243MPD1    C4 3687   3.941   4.062   0.098  0.7432  0.4714 -0.1799
  243MPD1    C5 3688   4.037   4.080   0.194 -0.5099 -0.1027  0.2756
  243MPD1     H 3689   3.688   3.902   0.259  0.3831 -0.6023  0.0153
  243MPD1    H1 3690   3.963   4.094  17.701 -0.5113  0.5160 -0.4450
  243MPD1    H2 3691   4.085   4.026   0.391 -0.0585  1.1048 -0.0606
  243MPD1    H3 3692   4.138   4.113   0.178 -0.5425 -0.6338 -0.9916
  243MPD1     N 3693   3.716   3.987   0.018 -0.4805 -0.5818  0.4794
  243MPD1    H5 3694   3.626   3.948   0.044 -0.7954  0.6869  1.3164
  243MPD1    N1 3695   3.853   3.923   0.479  0.0100 -0.3707  0.4929
  243MPD1    H6 3696   3.783   3.850   0.482 -0.5685  0.1142 -1.4196
  243MPD1    H7 3697   3.935   3.918   0.540  0.3409  1.0389  0.1814
  244MPD1     C 3698   2.752   3.980  17.494  0.1353 -0.4172  0.3800
  244MPD1    C1 3699   2.797   3.885  17.410  0.0547 -0.4812  0.3445
  244MPD1    C2 3700   2.928   3.871  17.397 -0.4280  0.0728 -0.4420
  244MPD1    C3 3701   3.012   3.960  17.466  0.3861  0.7413 -0.3317
  244MPD1    C4 3702   2.967   4.058  17.552  0.1146 -0.2482 -0.4953
  244MPD1    C5 3703   2.832   4.063  17.565 -0.1602  0.2717  0.9805
  244MPD1     H 3704   2.966   3.791  17.336 -0.1471 -0.2743  0.1827
  244MPD1    H1 3705   3.019   4.125  17.620  0.6615 -1.7729  0.5868
  244MPD1    H2 3706   2.645   3.995  17.505  0.6118  2.9516  0.3444
  244MPD1    H3 3707   2.779   4.127  17.634 -0.6549  1.4343 -0.4858
  244MPD1     N 3708   3.154   3.937  17.445  0.1335 -0.5090 -0.2089
  244MPD1    H5 3709   3.181   3.862  17.383  0.7084 -0.8069  0.4040
  244MPD1    N1 3710   2.714   3.786  17.351 -0.1708 -0.5413  0.4024
  244MPD1    H6 3711   2.768   3.757  17.269 -1.1660 -1.0459 -0.0739
  244MPD1    H7 3712   2.627   3.827  17.318 -0.2960  0.4708  2.0195
  245MPD1     C 3713   4.684   3.798  13.686  0.0722 -0.0322 -0.0391
  245MPD1    C1 3714   4.671   3.880  13.575  0.3470 -0.1330 -0.5310
  245MPD1    C2 3715   4.702   4.016  13.590 -0.1470  0.1521 -0.1579
  245MPD1    C3 3716   0.031   4.066  13.712 -0.2032  0.0340  0.4019
  245MPD1    C4 3717   0.056   3.974  13.812 -0.3000  0.1519 -0.2582
  245MPD1    C5 3718   0.019   3.842  13.798  0.2456  0.0882  0.4665
  245MPD1     H 3719   4.678   4.084  13.509 -0.2237  0.2353 -0.0655
  245MPD1    H1 3720   0.100   4.009  13.905 -0.2358  1.8251 -0.9071
  245MPD1    H2 3721   4.660   3.693  13.675 -0.6313 -0.0463  1.5622
  245MPD1    H3 3722   0.023   3.775  13.883 -1.3931  1.0747  1.3234
  245MPD1     N 3723   0.056   4.206  13.744  0.9254  0.3296  0.5959
  245MPD1    H5 3724   0.076   4.230  13.840  0.8600 -0.8708  0.9107
  245MPD1    N1 3725   4.628   3.822  13.453 -0.3118  0.1274 -0.6821
  245MPD1    H6 3726   4.673   3.876  13.379  0.7557  0.6692  0.3584
  245MPD1    H7 3727   4.644   3.722  13.444 -0.1985  0.1080 -0.2804
  246MPD1     C 3728   1.839   0.910   9.595 -0.1533 -0.2590 -0.0363
  246MPD1    C1 3729   1.783   1.022   9.544  0.4657 -0.4238  0.3152
  246MPD1    C2 3730   1.692   1.006   9.441 -0.7103 -0.1659 -0.6828
  246MPD1    C3 3731   1.653   0.873   9.402 -0.5940  0.2188  0.1390
  246MPD1    C4 3732   1.707   0.765   9.456  0.0675 -0.1577 -0.1947
  246MPD1    C5 3733   1.795   0.786   9.559  0.7631  0.3694 -0.4749
  246MPD1     H 3734   1.634   1.085   9.396 -0.9625  1.6224  2.7658
  246MPD1    H1 3735   1.670   0.665   9.435 -0.4262  0.3220 -1.6387
  246MPD1    H2 3736   1.891   0.912   9.690  2.3774  0.8273 -1.4544
  246MPD1    H3 3737   1.859   0.713   9.606  0.9865  1.0833  0.3393
  246MPD1     N 3738   1.542   0.871   9.314 -0.2413 -0.2132  0.5455
  246MPD1    H5 3739   1.497   0.960   9.293  1.1466  0.9414  2.4743
  246MPD1    N1 3740   1.835   1.149   9.564 -0.3026 -0.0176 -0.7014
  246MPD1    H6 3741   1.767   1.221   9.541  0.3793  1.0067  0.4493
  246MPD1    H7 3742   1.856   1.167   9.663  0.5733  2.0196 -1.2514
  247MPD1     C 3743   3.692   4.065  16.623  0.3345  0.4266  0.1741
  247MPD1    C1 3744   3.765   4.010  16.522  0.9654  0.0556 -0.7581
  247MPD1    C2 3745   3.888   3.951  16.550  0.1982  0.2592 -0.4867
  247MPD1    C3 3746   3.923   3.930  16.685  0.7257 -0.2293  0.1695
  247MPD1    C4 3747   3.849   3.973  16.784 -0.6001 -0.2107  0.6514
  247MPD1    C5 3748   3.737   4.045  16.757 -0.0713  1.2242  0.5226
  247MPD1     H 3749   3.953   3.915  16.471  0.7172 -1.9618  0.9541
  247MPD1    H1 3750   3.874   3.962  16.889  0.3407 -0.7600  0.3661
  247MPD1    H2 3751   3.593   4.102  16.598 -0.5249 -0.9986  1.4538
  247MPD1    H3 3752   3.686   4.096  16.839  0.1836  1.5089  0.5058
  247MPD1     N 3753   4.039   3.858  16.724 -0.3064 -1.0211  0.4221
  247MPD1    H5 3754   4.061   3.863  16.823  0.7316 -0.0265  0.1379
  247MPD1    N1 3755   3.731   4.045  16.391  0.2369 -0.2343 -0.4378
  247MPD1    H6 3756   3.629   4.045  16.383  0.2136 -1.2851 -0.1764
  247MPD1    H7 3757   3.758   3.984  16.314  0.5417  0.1931 -0.6702
  248MPD1     C 3758   0.887   3.415   0.698 -0.1435  0.0914 -0.0554
  248MPD1    C1 3759   0.796   3.324   0.740  1.1010  0.6676  0.1988
  248MPD1    C2 3760   0.706   3.367   0.832 -0.6937  0.4310 -0.4439
  248MPD1    C3 3761   0.702   3.497   0.884 -0.2047  0.2682  0.1337
  248MPD1    C4 3762   0.804   3.584   0.843 -0.4766  0.0246  0.0733
  248MPD1    C5 3763   0.886   3.542   0.747 -0.3538 -0.4247  0.4279
  248MPD1     H 3764   0.635   3.295   0.872  0.8595 -0.6607  0.3318
  248MPD1    H1 3765   0.825   3.676   0.897  0.1613 -1.6025  2.6075
  248MPD1    H2 3766   0.950   3.392   0.613 -1.1961 -1.2664 -0.4668
  248MPD1    H3 3767   0.965   3.603   0.704  0.2836 -0.3123  1.7413
  248MPD1     N 3768   0.596   3.529   0.979  0.0687  0.0129 -0.8069
  248MPD1    H5 3769   0.532   3.456   1.008 -0.4540  1.4935  1.7784
  248MPD1    N1 3770   0.774   3.203   0.680  1.0876 -0.2517  0.3581
  248MPD1    H6 3771   0.850   3.162   0.627  0.8051 -1.5879  0.9991
  248MPD1    H7 3772   0.752   3.131   0.748  1.8106  0.0831  0.9423
  249MPD1     C 3773   2.537   2.033  10.648  0.9149 -0.4476 -0.5969
  249MPD1    C1 3774   2.526   2.160  10.696 -0.1343  0.3411  0.6511
  249MPD1    C2 3775   2.558   2.269  10.611  0.5327  0.0074 -0.1315
  249MPD1    C3 3776   2.586   2.240  10.480 -0.1470  0.0532 -0.3410
  249MPD1    C4 3777   2.590   2.108  10.436 -0.4247 -0.1011  0.3413
  249MPD1    C5 3778   2.570   2.004  10.520  0.1580 -0.2086  0.1400
  249MPD1     H 3779   2.558   2.372  10.646  0.1216  1.1621 -3.5185
  249MPD1    H1 3780   2.614   2.088  10.333 -0.6651  1.1766  0.0324
  249MPD1    H2 3781   2.537   1.950  10.718 -1.5875 -0.2472 -0.3633
  249MPD1    H3 3782   2.591   1.905  10.482 -1.6168 -0.7177  0.4651
  249MPD1     N 3783   2.602   2.351  10.392 -0.4944  0.0584 -0.0574
  249MPD1    H5 3784   2.598   2.438  10.444 -1.6204  0.7754 -1.3454
  249MPD1    N1 3785   2.522   2.174  10.835 -0.0229 -0.5227 -0.4761
  249MPD1    H6 3786   2.460   2.100  10.866  1.6495 -1.1434  1.3497
  249MPD1    H7 3787   2.478   2.260  10.868 -0.2353 -2.2047  3.5514
  250MPD2     C 3788   3.126   2.067  13.105 -0.1111 -0.3378 -0.8243
  250MPD2    C1 3789   3.162   2.127  12.988 -0.0093 -0.2149  0.6802
  250MPD2    C2 3790   3.202   2.047  12.886  0.7674  0.0143 -0.3062
  250MPD2    C3 3791   3.219   1.913  12.900  0.7694 -0.3764 -0.3979
  250MPD2    C4 3792   3.200   1.856  13.019  0.5038  0.2380 -0.1275
  250MPD2    C5 3793   3.142   1.930  13.120  0.1488  0.3817  0.0001
  250MPD2     H 3794   3.219   2.094  12.790  2.8245 -2.3440 -1.1135
  250MPD2    H1 3795   3.240   1.757  13.038 -0.3606 -0.0564  0.1589
  250MPD2    H2 3796   3.095   2.122  13.193 -0.0424 -3.1847  0.9837
  250MPD2    H3 3797   3.126   1.892  13.220 -0.7318  1.5998  0.3271
  250MPD2     N 3798   3.253   1.826  12.797 -0.7194 -0.2617  0.4853
  250MPD2    H5 3799   3.294   1.738  12.826  0.0117 -0.7100 -1.8544
  250MPD2    N1 3800   3.144   2.266  12.986 -0.1581  0.6565  0.2804
  250MPD2    H7 3801   3.117   2.314  13.072 -0.2065 -1.8586  1.6614
  251TMC3    C1 3802   3.147   2.484  12.900  0.2926 -0.4195  0.5880
  251TMC3    C2 3803   3.022   2.520  12.938 -0.0261  0.2450 -0.0207
  251TMC3    C3 3804   2.971   2.648  12.919 -0.2411  0.3376  0.2221
  251TMC3    C4 3805   3.233   2.570  12.839  0.0010 -0.0075 -0.2120
  251TMC3    C5 3806   3.181   2.695  12.812  0.1303 -0.1739 -0.4258
  251TMC3    C6 3807   3.050   2.736  12.844  0.4342 -0.8395  0.9261
  251TMC3     C 3808   3.190   2.346  12.888 -0.8530 -0.2731  0.1756
  251TMC3     O 3809   3.290   2.328  12.822  0.3293 -0.1699 -0.7629
  251TMC3     H 3810   2.950   2.462  12.995  1.5786 -0.8663  0.8774
  251TMC3    H1 3811   3.336   2.546  12.816  0.3284  0.3795  0.8218
  251TMC3    H2 3812   3.018   2.837  12.821  0.3353 -0.2550  3.7259
  251TMC3    C7 3813   3.269   2.788  12.751  0.3704  0.2435  0.1483
  251TMC3    C8 3814   2.886   2.707  13.018  0.2499 -0.3416  0.3055
  251TMC3    O1 3815   3.225   2.875  12.679 -0.8427  0.2494  0.3045
  251TMC3    O2 3816   2.885   2.655  13.127 -0.2035  0.3675  0.1795
  252TMC3    C1 3817   2.892   4.069   9.794  0.1253 -0.2343 -0.7524
  252TMC3    C2 3818   3.000   4.081   9.708 -0.3486 -0.5679 -0.3517
  252TMC3    C3 3819   3.094   3.984   9.719  0.1229 -0.2091  1.2139
  252TMC3    C4 3820   2.880   3.960   9.879  0.1508  0.5800 -0.0689
  252TMC3    C5 3821   2.985   3.871   9.886  0.2861  0.0267  0.5902
  252TMC3    C6 3822   3.081   3.872   9.798 -0.7458 -0.1982 -0.0191
  252TMC3     C 3823   2.796   4.179   9.810  0.7801 -0.0299 -0.4584
  252TMC3     O 3824   2.722   4.174   9.908  0.5034 -0.3545  0.6346
  252TMC3     H 3825   3.021   4.179   9.667 -0.3032 -0.5378 -0.2583
  252TMC3    H1 3826   2.800   3.957   9.953 -0.7831  0.7551 -1.0755
  252TMC3    H2 3827   3.151   3.789   9.796  1.4476  1.6541  0.9631
  252TMC3    C7 3828   2.968   3.753   9.971 -0.6683  0.3323  0.0829
  252TMC3    C8 3829   3.210   3.990   9.630 -0.0512 -0.4206 -0.2971
  252TMC3    O1 3830   2.854   3.736  10.009 -0.5166  0.0521 -0.4115
  252TMC3    O2 3831   3.206   4.067   9.536 -0.0883 -0.0072 -0.2159
  253MPD2     C 3832   0.021   2.821  15.414  0.2685  0.1210 -0.3881
  253MPD2    C1 3833   4.635   2.736  15.417 -0.1327  0.8865  0.5059
  253MPD2    C2 3834   4.567   2.723  15.537  0.7842  0.5719  0.2177
  253MPD2    C3 3835   4.600   2.786  15.655 -0.0576 -0.0379 -0.1048
  253MPD2    C4 3836   4.716   2.860  15.648  0.0373  0.2624  0.2773
  253MPD2    C5 3837   0.058   2.877  15.530  0.5300  0.4090 -0.2667
  253MPD2     H 3838   4.479   2.660  15.530  0.6664  0.3334  3.7863
  253MPD2    H1 3839   0.033   2.914  15.731 -3.1586  1.2919  1.2755
  253MPD2    H2 3840   0.086   2.827  15.328 -1.7635 -1.2463 -2.0290
  253MPD2    H3 3841   0.147   2.938  15.527  0.4716  0.4364 -1.4632
  253MPD2     N 3842   4.526   2.791  15.771  0.3064  0.2959 -0.1169
  253MPD2    H5 3843   4.584   2.818  15.850  1.0221  1.6561 -1.0996
  253MPD2    N1 3844   4.573   2.680  15.304  0.3439 -0.4817 -0.2087
  253MPD2    H7 3845   4.488   2.627  15.321 -1.3236  2.6266  1.2285
  254TMC3    C1 3846   4.356   2.781  15.924 -0.7961  0.1284  0.2311
  254TMC3    C2 3847   4.233   2.837  15.948 -0.6019 -0.1495 -0.3532
  254TMC3    C3 3848   4.199   2.848  16.080 -0.3500  0.3783  1.0562
  254TMC3    C4 3849   4.441   2.732  16.027  0.0452  0.4641  0.3986
  254TMC3    C5 3850   4.402   2.752  16.157  0.0638 -0.5570  0.9518
  254TMC3    C6 3851   4.282   2.807  16.186 -0.0710 -0.1151 -0.4626
  254TMC3     C 3852   4.394   2.758  15.786  0.5934  0.0037 -0.4029
  254TMC3     O 3853   4.308   2.744  15.698  0.0448  0.2056 -0.1967
  254TMC3     H 3854   4.179   2.881  15.865  1.2183 -1.0458 -1.9904
  254TMC3    H1 3855   4.526   2.668  16.010 -0.3914  0.0802 -0.3383
  254TMC3    H2 3856   4.246   2.804  16.288 -0.1042 -2.6976 -0.5720
  254TMC3    C7 3857   4.475   2.696  16.271 -0.0472 -0.0124 -0.6250
  254TMC3    C8 3858   4.071   2.896  16.121 -0.6998  0.0924 -0.2992
  254TMC3    O1 3859   4.407   2.631  16.351  0.1575  0.0234 -0.0427
  254TMC3    O2 3860   4.044   2.858  16.234 -0.2882 -0.3413  0.5408
  255MPD2     C 3861   3.016   0.594  11.053 -0.6167  0.3259 -0.6952
  255MPD2    C1 3862   3.078   0.681  10.974  0.1006  0.8393 -0.6470
  255MPD2    C2 3863   3.207   0.667  10.938 -0.7669  0.1597  0.3217
  255MPD2    C3 3864   3.273   0.546  10.965 -0.1544  0.4289  0.0851
  255MPD2    C4 3865   3.211   0.453  11.046  0.0648 -0.3260  0.2699
  255MPD2    C5 3866   3.084   0.480  11.092 -0.0746  0.3815 -0.7887
  255MPD2     H 3867   3.253   0.736  10.867 -2.4382 -0.5846 -1.4777
  255MPD2    H1 3868   3.268   0.365  11.075  0.7270 -0.1021 -0.3617
  255MPD2    H2 3869   2.912   0.602  11.083 -0.3980 -0.9428  0.3981
  255MPD2    H3 3870   3.025   0.406  11.145  0.8999  0.0578 -0.1533
  255MPD2     N 3871   3.395   0.521  10.900 -0.3504  0.3019 -0.1024
  255MPD2    H5 3872   3.434   0.597  10.844  0.1716  1.0985  1.3628
  255MPD2    N1 3873   2.995   0.788  10.923 -0.7584 -0.1321 -0.0210
  255MPD2    H7 3874   2.895   0.793  10.939 -0.5317 -0.0422  1.3420
  256TMC3    C1 3875   2.946   0.977  10.790 -0.4621 -0.0834  0.8027
  256TMC3    C2 3876   2.996   1.084  10.719  0.6587 -0.0911 -0.2221
  256TMC3    C3 3877   2.918   1.141  10.622  0.0482 -0.3825  1.0764
  256TMC3    C4 3878   2.827   0.924  10.755 -0.1761  0.2430  1.4551
  256TMC3    C5 3879   2.755   0.985  10.661  0.6505  0.8282 -0.4663
  256TMC3    C6 3880   2.791   1.101  10.598 -0.0452 -1.3159  0.1977
  256TMC3     C 3881   3.043   0.902  10.865 -0.5115  0.0419 -0.4494
  256TMC3     O 3882   3.159   0.939  10.852  0.1234  0.0397  0.2881
  256TMC3     H 3883   3.094   1.126  10.739  1.0679 -0.9446 -0.4706
  256TMC3    H1 3884   2.804   0.820  10.778 -0.3148  0.6602  3.2251
  256TMC3    H2 3885   2.718   1.156  10.539  0.2556 -2.2401 -1.0361
  256TMC3    C7 3886   2.637   0.910  10.617  0.4396 -0.6660  0.3362
  256TMC3    C8 3887   2.984   1.233  10.525  0.1546 -0.6127  0.7348
  256TMC3    O1 3888   2.601   0.924  10.497 -0.3243 -0.5165 -0.2614
  256TMC3    O2 3889   3.084   1.294  10.557 -0.2431  0.1691  0.3488
  257MPD2     C 3890   2.175   2.662  13.658  0.4291 -0.0978  0.4593
  257MPD2    C1 3891   2.192   2.578  13.548  0.0878 -0.5247  0.6206
  257MPD2    C2 3892   2.163   2.438  13.565 -0.1651 -0.3194  0.4513
  257MPD2    C3 3893   2.122   2.387  13.687 -0.6165  0.9796  0.5325
  257MPD2    C4 3894   2.110   2.478  13.789 -0.2577 -0.2950  1.0320
  257MPD2    C5 3895   2.144   2.615  13.779  0.4335 -0.2624 -0.4765
  257MPD2     H 3896   2.164   2.377  13.476  1.3231 -0.9587  0.9065
  257MPD2    H1 3897   2.059   2.441  13.877 -2.5651 -1.6766 -0.8960
  257MPD2    H2 3898   2.192   2.769  13.650 -0.9892  0.1222  0.3979
  257MPD2    H3 3899   2.135   2.680  13.866  2.0622  0.2185 -0.6713
  257MPD2     N 3900   2.080   2.253  13.691 -0.0743  0.5893 -0.2176
  257MPD2    H5 3901   2.065   2.200  13.605  4.9509  2.1036 -2.0372
  257MPD2    N1 3902   2.226   2.637  13.423  0.2463 -0.3901 -0.4439
  257MPD2    H7 3903   2.208   2.737  13.423  2.4002 -0.0090 -2.1444
  258TMC3    C1 3904   2.024   2.051  13.801  0.3790 -0.1827  0.3400
  258TMC3    C2 3905   1.947   2.006  13.700  0.3245  0.2729  0.2497
  258TMC3    C3 3906   1.927   1.869  13.690  0.2698 -0.4444  0.4956
  258TMC3    C4 3907   2.064   1.974  13.905  0.5100  0.3103  0.4675
  258TMC3    C5 3908   2.028   1.841  13.899  0.2958  0.6100  0.3485
  258TMC3    C6 3909   1.960   1.786  13.794  0.5319  0.4964  0.1862
  258TMC3     C 3910   2.071   2.187  13.810  0.0463  0.7263 -0.4022
  258TMC3     O 3911   2.107   2.219  13.922  0.2461  0.2106  0.4826
  258TMC3     H 3912   1.915   2.076  13.624 -1.2505  0.1094  0.7650
  258TMC3    H1 3913   2.133   1.998  13.985 -1.4140  4.1801  0.9743
  258TMC3    H2 3914   1.954   1.678  13.796 -2.7000  0.6511  0.1416
  258TMC3    C7 3915   2.082   1.748  13.999 -0.7752  0.4120  0.0502
  258TMC3    C8 3916   1.918   1.804  13.563 -0.4345  0.0397  0.1069
  258TMC3    O1 3917   2.014   1.651  14.020 -0.2993  0.4477 -0.0224
  258TMC3    O2 3918   1.981   1.701  13.555 -0.2448  0.2229 -0.0538
  259MPD2     C 3919   1.049   4.062   1.394  0.5889 -0.0714  0.2540
  259MPD2    C1 3920   1.019   3.961   1.489 -0.2059 -0.2042 -0.4806
  259MPD2    C2 3921   1.097   3.849   1.491 -0.0722 -0.5554  0.2738
  259MPD2    C3 3922   1.198   3.830   1.398 -0.7368 -0.8379  0.0177
  259MPD2    C4 3923   1.220   3.923   1.305  0.2101  0.2991  0.0577
  259MPD2    C5 3924   1.148   4.040   1.301  0.5519 -0.3693 -0.5237
  259MPD2     H 3925   1.075   3.767   1.558 -2.4493  0.8531  1.2203
  259MPD2    H1 3926   1.302   3.913   1.234  0.4311  2.7873 -0.0691
  259MPD2    H2 3927   0.994   4.155   1.387 -2.8992 -2.1706 -0.7346
  259MPD2    H3 3928   1.173   4.110   1.221  0.8990 -0.7299 -0.7338
  259MPD2     N 3929   1.271   3.706   1.404  0.0200  0.3444 -0.0687
  259MPD2    H5 3930   1.237   3.638   1.471 -2.3356  0.4583 -1.1673
  259MPD2    N1 3931   0.921   3.992   1.587  0.3787  0.3992 -0.0164
  259MPD2    H7 3932   0.886   4.087   1.595 -0.3794  0.2341 -1.4652
  260TMC3    C1 3933   1.447   3.562   1.386  0.4842  0.8778 -0.3234
  260TMC3    C2 3934   1.585   3.560   1.397  0.0821  0.4775 -0.3309
  260TMC3    C3 3935   1.664   3.464   1.344 -0.2633  0.2372  0.7354
  260TMC3    C4 3936   1.383   3.462   1.313 -0.2494  0.5271 -0.4106
  260TMC3    C5 3937   1.469   3.368   1.250 -0.4653  0.1479 -1.0008
  260TMC3    C6 3938   1.609   3.369   1.261  0.2193  0.1910  0.0286
  260TMC3     C 3939   1.396   3.688   1.349  0.5235 -0.3657  0.0717
  260TMC3     O 3940   1.448   3.748   1.257  0.2373 -0.5258 -0.2020
  260TMC3     H 3941   1.623   3.645   1.454 -0.2865  1.6049 -1.7893
  260TMC3    H1 3942   1.277   3.453   1.295  0.0793  0.1309 -2.1902
  260TMC3    H2 3943   1.660   3.289   1.209 -2.8779 -1.6749 -0.1626
  260TMC3    C7 3944   1.414   3.315   1.129 -0.1217 -0.1154  0.2229
  260TMC3    C8 3945   1.809   3.499   1.326  0.5254  0.3243 -0.3182
  260TMC3    O1 3946   1.503   3.304   1.043 -0.7586  0.0089 -0.3299
  260TMC3    O2 3947   1.873   3.563   1.411  0.1976  0.2443  0.3203
  261MPD2     C 3948   3.336   1.740  11.967 -0.6916  0.3949  0.2377
  261MPD2    C1 3949   3.352   1.852  12.051  0.3935 -0.4517  0.2479
  261MPD2    C2 3950   3.334   1.982  11.999 -0.6005 -0.1234 -0.5740
  261MPD2    C3 3951   3.311   1.999  11.863  0.8603 -0.5416 -0.1120
  261MPD2    C4 3952   3.297   1.886  11.781 -0.0044  0.4662 -0.2662
  261MPD2    C5 3953   3.315   1.761  11.832  0.3150  0.5457  0.2718
  261MPD2     H 3954   3.344   2.073  12.058  1.6688  0.5537 -1.9887
  261MPD2    H1 3955   3.280   1.898  11.674  1.9425  1.0910 -0.5083
  261MPD2    H2 3956   3.343   1.636  11.998  0.3768 -0.1972 -1.9771
  261MPD2    H3 3957   3.318   1.672  11.771 -0.7746  0.4502  0.3521
  261MPD2     N 3958   3.308   2.131  11.804 -0.4123 -0.2744  0.0241
  261MPD2    H5 3959   3.289   2.209  11.866  1.1286 -0.2203  0.4113
  261MPD2    N1 3960   3.385   1.847  12.185  1.1576 -0.0879 -0.6057
  261MPD2    H7 3961   3.364   1.929  12.241  3.3125 -0.8864  1.4040
  262TMC3    C1 3962   3.296   2.289  11.638  0.4112  0.1735  0.3376
  262TMC3    C2 3963   3.183   2.340  11.691 -0.5118 -0.3210  0.1820
  262TMC3    C3 3964   3.131   2.462  11.647 -0.3139  0.3130  0.0353
  262TMC3    C4 3965   3.359   2.347  11.534 -0.2022 -0.4293 -0.8588
  262TMC3    C5 3966   3.316   2.478  11.500  0.0507 -0.1262 -0.4219
  262TMC3    C6 3967   3.206   2.535  11.553  0.0647  0.1130  1.0802
  262TMC3     C 3968   3.343   2.156  11.671  0.0885  0.2944 -0.9193
  262TMC3     O 3969   3.416   2.088  11.598  0.6987 -1.0517 -0.0241
  262TMC3     H 3970   3.125   2.281  11.760  1.1230 -0.7847  1.1512
  262TMC3    H1 3971   3.455   2.315  11.495  0.0847  0.2870 -0.7437
  262TMC3    H2 3972   3.165   2.632  11.527 -0.4613 -0.0079  1.4574
  262TMC3    C7 3973   3.402   2.549  11.407 -0.6547  0.7631 -0.7079
  262TMC3    C8 3974   3.051   2.544  11.737  0.4537 -0.1897 -0.4075
  262TMC3    O1 3975   3.493   2.487  11.357  0.1146  0.0993  0.7052
  262TMC3    O2 3976   3.047   2.664  11.710  0.3525  1.0119 -0.1125
  263MPD2     C 3977   3.956   1.719  11.482  0.4542 -0.3076 -0.4562
  263MPD2    C1 3978   4.080   1.772  11.505  0.4486  0.1357  0.3325
  263MPD2    C2 3979   4.151   1.823  11.394  0.0935  0.1141  0.0042
  263MPD2    C3 3980   4.096   1.833  11.270 -0.1330  0.0300 -0.0187
  263MPD2    C4 3981   3.967   1.792  11.252  0.0867  0.2402 -0.0731
  263MPD2    C5 3982   3.897   1.739  11.360 -0.0070 -1.0217 -0.9420
  263MPD2     H 3983   4.249   1.869  11.405 -0.5633  1.5293 -0.0665
  263MPD2    H1 3984   3.918   1.812  11.157 -2.3169  0.9382  1.2976
  263MPD2    H2 3985   3.889   1.676  11.555  0.9830  1.1705  0.9076
  263MPD2    H3 3986   3.791   1.718  11.350 -0.1642  0.3847 -2.1493
  263MPD2     N 3987   4.166   1.880  11.154  0.4775 -0.0406 -0.1454
  263MPD2    H5 3988   4.120   1.880  11.063  0.8642 -1.3688 -0.3470
  263MPD2    N1 3989   4.134   1.756  11.638 -0.3013 -0.3060  0.6429
  263MPD2    H7 3990   4.068   1.719  11.706 -1.6362  2.6386  0.9313
  264TMC3    C1 3991   4.334   1.959  11.008  0.4947  0.8845  0.6271
  264TMC3    C2 3992   4.250   2.044  10.937 -0.1739 -0.5346 -0.9388
  264TMC3    C3 3993   4.292   2.110  10.831 -0.1211 -0.1853  0.3150
  264TMC3    C4 3994   4.463   1.944  10.969  0.2639  0.7370 -0.6213
  264TMC3    C5 3995   4.499   2.005  10.856  0.0825  0.2124  0.3516
  264TMC3    C6 3996   4.413   2.075  10.779 -0.2303  0.4470 -0.7471
  264TMC3     C 3997   4.299   1.915  11.146  0.2953 -0.3574 -0.3980
  264TMC3     O 3998   4.391   1.907  11.227 -0.0677 -0.5098  0.5279
  264TMC3     H 3999   4.153   2.068  10.979  0.6826  0.9125  0.2047
  264TMC3    H1 4000   4.540   1.911  11.038 -0.1114  0.0164 -0.5432
  264TMC3    H2 4001   4.435   2.119  10.683 -0.4941 -0.0907 -1.0546
  264TMC3    C7 4002   4.642   2.029  10.822 -0.2232  0.0857 -0.0238
  264TMC3    C8 4003   4.292   2.256  10.850  0.0545 -0.7133  0.1273
  264TMC3    O1 4004   0.001   1.942  10.839 -0.5199  0.6169  0.5285
  264TMC3    O2 4005   4.398   2.305  10.820 -0.2053  0.1463  0.5747
  265MPD2     C 4006   0.551   2.370  15.713  0.2896 -0.0728 -0.2055
  265MPD2    C1 4007   0.659   2.446  15.728  0.6023  0.8133  0.6773
  265MPD2    C2 4008   0.760   2.425  15.635 -0.7463  0.4473 -0.4056
  265MPD2    C3 4009   0.753   2.320  15.540  0.1231  0.3820  0.5188
  265MPD2    C4 4010   0.647   2.250  15.528  0.6754  0.7193  0.3842
  265MPD2    C5 4011   0.541   2.277  15.607  0.0293  0.1659  0.2406
  265MPD2     H 4012   0.853   2.482  15.637  0.1614 -1.0379 -0.6428
  265MPD2    H1 4013   0.632   2.172  15.455  0.1212  0.1526  1.1041
  265MPD2    H2 4014   0.471   2.382  15.785 -0.6232  1.9558 -1.5554
  265MPD2    H3 4015   0.451   2.218  15.599  0.4289 -0.7365  2.3764
  265MPD2     N 4016   0.858   2.291  15.451  0.4657 -0.2741 -0.3338
  265MPD2    H5 4017   0.859   2.201  15.404  0.8794 -1.0556  1.1604
  265MPD2    N1 4018   0.683   2.517  15.848 -0.1626 -0.1620  0.6290
  265MPD2    H7 4019   0.769   2.570  15.848  0.3618 -1.0133  0.1553
  266TMC3    C1 4020   0.624   2.632  16.059 -0.4420 -0.5180  0.2563
  266TMC3    C2 4021   0.744   2.645  16.119  0.6203  0.5733 -0.2071
  266TMC3    C3 4022   0.765   2.730  16.223  0.1191  0.6096 -0.1430
  266TMC3    C4 4023   0.524   2.703  16.100 -0.0804  0.6116 -0.7324
  266TMC3    C5 4024   0.547   2.803  16.193 -0.4758 -0.0820  0.0585
  266TMC3    C6 4025   0.665   2.821  16.259  0.0129 -0.0778  0.4161
  266TMC3     C 4026   0.590   2.539  15.952  1.1107 -0.1933 -0.5024
  266TMC3     O 4027   0.491   2.480  15.994 -0.4301  0.2227 -0.1819
  266TMC3     H 4028   0.820   2.569  16.104  0.0637  0.2478 -1.3066
  266TMC3    H1 4029   0.421   2.688  16.072 -0.9217  2.6980  1.2555
  266TMC3    H2 4030   0.675   2.886  16.345 -1.1277  1.5635 -0.6996
  266TMC3    C7 4031   0.457   2.910  16.204  0.0665  0.6236 -0.3377
  266TMC3    C8 4032   0.862   2.696  16.322 -0.2814  0.0671 -0.1348
  266TMC3    O1 4033   0.442   2.958  16.318 -0.3536 -0.0082  0.2645
  266TMC3    O2 4034   0.889   2.576  16.322  0.3976 -0.5435 -0.6605
  267MPD2     C 4035   3.049   3.948   0.221 -0.2925 -0.1218 -0.2026
  267MPD2    C1 4036   3.091   3.936   0.355  0.3677  0.0533  0.9627
  267MPD2    C2 4037   3.036   3.829   0.431  0.4871  0.2972  0.1980
  267MPD2    C3 4038   2.955   3.729   0.376  0.3246 -0.6495 -0.2135
  267MPD2    C4 4039   2.909   3.747   0.244  0.1397  0.5724  0.0975
  267MPD2    C5 4040   2.955   3.853   0.166 -0.2644 -0.8827  0.3712
  267MPD2     H 4041   3.070   3.821   0.534 -0.8073  1.5503  0.7242
  267MPD2    H1 4042   2.835   3.682   0.199 -0.4085  0.5583  1.0179
  267MPD2    H2 4043   3.088   4.035   0.169  0.6723  0.3722  1.3312
  267MPD2    H3 4044   2.919   3.866   0.065  0.0924  0.7360  0.4379
  267MPD2     N 4045   2.902   3.614   0.449 -0.8519  0.3497  0.0020
  267MPD2    H5 4046   2.847   3.553   0.390 -0.7084 -0.8618  1.1319
  267MPD2    N1 4047   3.202   4.017   0.401  0.4531  0.5233  0.7670
  267MPD2    H7 4048   3.253   4.068   0.330 -3.1262  0.7897 -1.5935
  268TMC3    C1 4049   3.381   4.062   0.548  0.3764  0.2449  0.2595
  268TMC3    C2 4050   3.442   4.153   0.469 -0.3863 -0.3145 -0.0919
  268TMC3    C3 4051   3.564   4.205   0.501 -0.5341 -0.3439 -0.4217
  268TMC3    C4 4052   3.443   4.010   0.655 -0.7370 -0.5394  0.7122
  268TMC3    C5 4053   3.564   4.066   0.686 -0.0674 -0.1541  0.0927
  268TMC3    C6 4054   3.632   4.154   0.606 -0.3483  0.4310 -0.3176
  268TMC3     C 4055   3.242   4.026   0.530  0.2015 -0.1825  0.7905
  268TMC3     O 4056   3.195   3.985   0.631 -0.0025 -0.0641 -0.2979
  268TMC3     H 4057   3.377   4.199   0.395  0.2126  0.8111  0.0931
  268TMC3    H1 4058   3.391   3.939   0.717  0.2112 -0.9776  1.0093
  268TMC3    H2 4059   3.734   4.182   0.627  0.0126 -2.0428  1.3412
  268TMC3    C7 4060   3.632   3.998   0.794 -0.6903 -0.1025  0.0566
  268TMC3    C8 4061   3.645   4.269   0.397 -0.0982 -0.3145 -0.5807
  268TMC3    O1 4062   3.556   3.952   0.878 -0.5518  0.1881  0.5680
  268TMC3    O2 4063   3.757   4.305   0.424 -0.2537 -0.1648 -0.4519
  269MPD2     C 4064   3.806   2.719  15.763  0.6056  0.3947  0.0822
  269MPD2    C1 4065   3.684   2.761  15.809  0.0134 -0.3556  0.2225
  269MPD2    C2 4066   3.631   2.886  15.771 -0.6537  0.4486 -0.7739
  269MPD2    C3 4067   3.697   2.957  15.679 -0.4834 -0.1386  0.2798
  269MPD2    C4 4068   3.818   2.913  15.627 -0.1003 -0.0642 -0.1174
  269MPD2    C5 4069   3.871   2.792  15.663 -0.3740 -0.5480  0.1090
  269MPD2     H 4070   3.542   2.933  15.811 -0.5673  0.9772 -1.2057
  269MPD2    H1 4071   3.861   2.975  15.549 -0.0292  0.5330  0.3938
  269MPD2    H2 4072   3.847   2.622  15.787  0.1253  0.7120  2.1602
  269MPD2    H3 4073   3.961   2.757  15.614 -0.7959  2.0951 -2.5427
  269MPD2     N 4074   3.633   3.073  15.644  0.0728 -0.5838  0.6623
  269MPD2    H5 4075   3.552   3.088  15.704 -1.7662  0.4813 -2.0799
  269MPD2    N1 4076   3.616   2.673  15.899 -0.1658  0.3496  0.6098
  269MPD2    H7 4077   3.667   2.591  15.927 -0.2597 -0.0887 -0.4871
  270TMC3    C1 4078   3.460   2.565  16.041 -0.3234 -0.2826  0.3627
  270TMC3    C2 4079   3.394   2.466  15.975 -0.4606  0.0233  0.3313
  270TMC3    C3 4080   3.414   2.341  16.013 -0.1655 -0.1533  0.5904
  270TMC3    C4 4081   3.563   2.529  16.126 -0.4224  0.2761  0.2815
  270TMC3    C5 4082   3.582   2.397  16.165 -0.2277  0.2635  0.2016
  270TMC3    C6 4083   3.495   2.299  16.113  0.0511 -0.5401 -0.4566
  270TMC3     C 4084   3.485   2.681  15.952 -0.0537  0.7157 -0.3118
  270TMC3     O 4085   3.388   2.740  15.906 -0.0292  0.3488 -0.0393
  270TMC3     H 4086   3.323   2.489  15.896  1.4183  0.9069 -1.0996
  270TMC3    H1 4087   3.621   2.611  16.166 -0.4316 -0.0028  0.8632
  270TMC3    H2 4088   3.520   2.194  16.124 -0.6256 -0.4079  2.4419
  270TMC3    C7 4089   3.711   2.362  16.210  0.4813  0.9453  0.0710
  270TMC3    C8 4090   3.415   2.243  15.905 -0.0748  0.0077 -0.6489
  270TMC3    O1 4091   3.800   2.445  16.199 -0.0651 -0.3639  0.0003
  270TMC3    O2 4092   3.523   2.190  15.882 -0.0648  0.2267  0.0741
  271MPD2     C 4093   2.805   2.449  14.335  0.9138 -0.2861  0.1536
  271MPD2    C1 4094   2.731   2.423  14.451 -0.2791 -0.5549  0.3878
  271MPD2    C2 4095   2.603   2.466  14.463 -0.0873  0.3592 -0.5747
  271MPD2    C3 4096   2.544   2.538  14.356 -0.8966  0.2087  0.2202
  271MPD2    C4 4097   2.617   2.545  14.233 -0.1025  0.1053 -0.2169
  271MPD2    C5 4098   2.745   2.502  14.224  0.0204 -0.3918  0.4922
  271MPD2     H 4099   2.557   2.446  14.559  1.4524  2.5481  0.6520
  271MPD2    H1 4100   2.580   2.599  14.146  3.1286  3.5166  0.5170
  271MPD2    H2 4101   2.904   2.407  14.320  0.7089 -0.0206 -1.8346
  271MPD2    H3 4102   2.797   2.511  14.129  0.5645  0.0232  0.8345
  271MPD2     N 4103   2.410   2.581  14.359 -0.0095 -0.1895  0.2568
  271MPD2    H5 4104   2.377   2.623  14.272  1.6609 -1.9733 -1.2463
  271MPD2    N1 4105   2.785   2.348  14.561  0.0159 -0.3684 -0.0126
  271MPD2    H7 4106   2.736   2.349  14.649  1.1492 -1.0903  0.6255
  272TMC3    C1 4107   2.929   2.202  14.677  0.4966  0.1989 -0.5363
  272TMC3    C2 4108   3.056   2.158  14.675 -0.6479 -0.3736 -0.5411
  272TMC3    C3 4109   3.126   2.141  14.793  0.2065  0.3124 -0.4554
  272TMC3    C4 4110   2.862   2.233  14.798  0.5188  0.3506 -0.5965
  272TMC3    C5 4111   2.932   2.205  14.914  0.4385 -0.0669  0.2936
  272TMC3    C6 4112   3.066   2.171  14.915 -0.8993 -0.3605 -0.0242
  272TMC3     C 4113   2.897   2.269  14.553  0.2214  0.4242 -0.7162
  272TMC3     O 4114   2.972   2.249  14.458 -0.1978  0.3436 -0.1368
  272TMC3     H 4115   3.103   2.146  14.579  0.1266  1.0233 -0.3379
  272TMC3    H1 4116   2.762   2.271  14.813  0.2717 -0.1093 -1.0771
  272TMC3    H2 4117   3.119   2.148  15.006  1.3053 -2.7483 -1.8855
  272TMC3    C7 4118   2.872   2.236  15.034  0.8687 -0.0836 -0.4135
  272TMC3    C8 4119   3.272   2.144  14.785  0.3422  1.0356 -0.1610
  272TMC3    O1 4120   2.759   2.198  15.057 -0.0927 -0.3388  0.0693
  272TMC3    O2 4121   3.315   2.187  14.682 -0.0433 -0.4651 -0.0968
  273MPD2     C 4122   4.130   0.351  12.268  0.0510 -0.6192  0.7647
  273MPD2    C1 4123   4.218   0.451  12.238 -0.4192  0.0379  0.4395
  273MPD2    C2 4124   4.240   0.480  12.108 -0.0516  0.2894 -0.6048
  273MPD2    C3 4125   4.163   0.406  12.013 -0.2930 -0.1150  0.1901
  273MPD2    C4 4126   4.070   0.309  12.049 -1.3616  0.2400 -0.7532
  273MPD2    C5 4127   4.066   0.277  12.178  0.5319  0.2434 -0.0048
  273MPD2     H 4128   4.303   0.559  12.071  1.4446 -0.7880 -0.3431
  273MPD2    H1 4129   4.012   0.248  11.981 -3.7918  0.3182  1.2329
  273MPD2    H2 4130   4.111   0.332  12.373  0.1998 -0.8880  0.7423
  273MPD2    H3 4131   4.003   0.193  12.207 -3.1727  2.6626 -1.0402
  273MPD2     N 4132   4.175   0.462  11.888 -0.2533  0.2926  0.4178
  273MPD2    H5 4133   4.249   0.531  11.880  0.3953 -0.0882  3.0012
  273MPD2    N1 4134   4.282   0.524  12.343  0.4983 -0.1274  0.0080
  273MPD2    H7 4135   4.267   0.496  12.439 -2.2555 -0.1839 -0.4325
  274TMC3    C1 4136   4.162   0.506  11.662  0.5000  0.6975 -0.2384
  274TMC3    C2 4137   4.178   0.447  11.541  0.1504 -0.3749  0.0874
  274TMC3    C3 4138   4.250   0.512  11.440  0.4462  0.7139  0.2149
  274TMC3    C4 4139   4.224   0.622  11.703  0.1895 -0.2938 -0.2980
  274TMC3    C5 4140   4.299   0.681  11.602 -0.1244  0.1130  0.3352
  274TMC3    C6 4141   4.316   0.630  11.477  0.2575 -0.6419 -0.5341
  274TMC3     C 4142   4.108   0.423  11.775 -0.3135 -0.0525  0.9558
  274TMC3     O 4143   4.026   0.339  11.748  0.3476  0.2805  0.2095
  274TMC3     H 4144   4.135   0.350  11.521 -0.2050 -0.5693  1.7529
  274TMC3    H1 4145   4.209   0.675  11.796  0.5989 -1.5799  0.5085
  274TMC3    H2 4146   4.355   0.684  11.392  1.6679  1.0518  1.1922
  274TMC3    C7 4147   4.373   0.798  11.639 -0.6670  0.3925  0.6443
  274TMC3    C8 4148   4.233   0.485  11.299  0.2991  0.4694 -0.7379
  274TMC3    O1 4149   4.387   0.895  11.569  0.4773 -0.2480  0.0726
  274TMC3    O2 4150   4.318   0.530  11.221  0.0643  0.2900 -0.1287
  275MPD2     C 4151   4.606   3.324  14.730  0.2740 -0.3177  0.9483
  275MPD2    C1 4152   4.484   3.378  14.759 -0.4665 -0.2575  0.5876
  275MPD2    C2 4153   4.372   3.308  14.736 -0.3471 -0.2365  0.4076
  275MPD2    C3 4154   4.377   3.176  14.689  0.3120 -0.6663  0.0088
  275MPD2    C4 4155   4.496   3.121  14.652 -0.4280 -0.9141 -0.5936
  275MPD2    C5 4156   4.607   3.201  14.671 -0.1899  0.2488  0.1383
  275MPD2     H 4157   4.277   3.358  14.749 -1.0264 -1.1522 -1.0115
  275MPD2    H1 4158   4.508   3.020  14.615 -0.9740 -1.3301  0.3634
  275MPD2    H2 4159   4.697   3.382  14.741  1.2805 -1.7286  0.1588
  275MPD2    H3 4160   4.707   3.176  14.638 -0.0606  2.3535 -1.0922
  275MPD2     N 4161   4.266   3.089  14.679 -0.0895 -0.4725  0.7486
  275MPD2    H5 4162   4.288   3.005  14.627  2.4122  0.1494  0.8092
  275MPD2    N1 4163   4.463   3.509  14.815 -0.0698 -0.1731 -0.1910
  275MPD2    H7 4164   4.366   3.538  14.822  0.0640 -0.0719  1.1754
  276TMC3    C1 4165   4.489   3.677  14.968  0.5836 -0.4464  0.2316
  276TMC3    C2 4166   4.356   3.641  15.000  0.8475 -1.6318  0.2138
  276TMC3    C3 4167   4.313   3.660  15.132 -0.3438 -0.1646  0.4151
  276TMC3    C4 4168   4.576   3.711  15.066 -0.1214  0.8200 -0.3209
  276TMC3    C5 4169   4.533   3.711  15.198 -0.4068 -1.6520 -0.1402
  276TMC3    C6 4170   4.403   3.699  15.234 -0.0870  0.2346  0.4534
  276TMC3     C 4171   4.554   3.588  14.873  0.1872  0.4335 -0.6596
  276TMC3     O 4172   4.676   3.570  14.879  0.2207  0.0755  0.1001
  276TMC3     H 4173   4.286   3.664  14.921  1.0261 -1.5590  0.0752
  276TMC3    H1 4174   4.680   3.732  15.043  0.2887  0.6142  1.2869
  276TMC3    H2 4175   4.366   3.699  15.336  1.0449  1.8758  0.8548
  276TMC3    C7 4176   4.634   3.688  15.301 -0.0439  0.0233  0.4091
  276TMC3    C8 4177   4.215   3.558  15.168  0.0714 -1.6084 -0.1615
  276TMC3    O1 4178   4.628   3.764  15.398  0.4377  0.3528  0.5015
  276TMC3    O2 4179   4.134   3.594  15.253  0.1852 -0.3164 -0.0791
  277MPD2     C 4180   1.768   2.592  13.442  0.2832 -0.0491 -0.2310
  277MPD2    C1 4181   1.631   2.605  13.461 -0.3063 -0.1974  0.0278
  277MPD2    C2 4182   1.561   2.504  13.522  0.1581 -0.5427  0.1991
  277MPD2    C3 4183   1.622   2.391  13.559 -0.2208 -0.1060  0.3868
  277MPD2    C4 4184   1.757   2.376  13.544  0.2146  0.3947  0.0697
  277MPD2    C5 4185   1.832   2.477  13.492 -0.2258 -0.3741  0.0424
  277MPD2     H 4186   1.455   2.508  13.547 -0.5275 -2.2953 -2.3404
  277MPD2    H1 4187   1.813   2.287  13.570  1.4341  1.5336  1.3001
  277MPD2    H2 4188   1.827   2.669  13.394  1.6800 -1.6554 -1.0998
  277MPD2    H3 4189   1.939   2.468  13.477 -0.0005 -0.2732  1.5781
  277MPD2     N 4190   1.533   2.304  13.619  0.1496  0.6594 -0.1724
  277MPD2    H5 4191   1.440   2.336  13.645 -0.5744 -2.6043  1.3315
  277MPD2    N1 4192   1.573   2.726  13.424  0.3528 -0.2095  0.3560
  277MPD2    H7 4193   1.635   2.784  13.369 -0.0147 -0.0300  0.1279
  278TMC3    C1 4194   1.463   2.097  13.704  1.1188 -1.0040  0.6189
  278TMC3    C2 4195   1.424   1.974  13.670 -0.3210  0.2819  0.1466
  278TMC3    C3 4196   1.303   1.932  13.712  0.3277 -0.2180 -0.0592
  278TMC3    C4 4197   1.393   2.168  13.800 -0.1653  0.3406 -0.0320
  278TMC3    C5 4198   1.283   2.112  13.852  0.4153 -0.0518 -0.6187
  278TMC3    C6 4199   1.230   1.998  13.808  0.3974  0.0969  0.1071
  278TMC3     C 4200   1.563   2.164  13.629  0.0117  0.2947 -0.1081
  278TMC3     O 4201   1.661   2.099  13.586 -0.0965  0.7569 -0.6040
  278TMC3     H 4202   1.478   1.924  13.591  0.3575 -0.2758  0.9691
  278TMC3    H1 4203   1.441   2.258  13.835  1.9595 -0.7107 -0.2760
  278TMC3    H2 4204   1.130   1.975  13.841  0.0207  1.8475  0.1995
  278TMC3    C7 4205   1.187   2.212  13.901  0.4764  0.1818 -0.0178
  278TMC3    C8 4206   1.231   1.837  13.627  0.3702 -0.2999  0.1360
  278TMC3    O1 4207   1.235   2.310  13.959  0.2240  0.6074  0.2488
  278TMC3    O2 4208   1.292   1.814  13.524  0.0873  0.0026 -0.5228
  279MPD2     C 4209   4.515   3.100   0.408  0.1534  0.1923  0.1038
  279MPD2    C1 4210   4.644   3.140   0.435 -0.8300 -0.0238  0.0280
  279MPD2    C2 4211   0.021   3.073   0.363  0.3311 -0.4532 -0.3349
  279MPD2    C3 4212   4.720   2.973   0.270 -1.2186  0.1721 -0.0566
  279MPD2    C4 4213   4.592   2.925   0.258 -0.4867  0.2774  0.2810
  279MPD2    C5 4214   4.495   2.988   0.333  0.0733  0.2691  0.6683
  279MPD2     H 4215   0.123   3.109   0.370  0.3600 -0.4201 -0.9815
  279MPD2    H1 4216   4.571   2.853   0.180  2.3958 -0.1351 -0.1064
  279MPD2    H2 4217   4.436   3.161   0.450  1.8739  2.2947  0.3109
  279MPD2    H3 4218   4.392   2.955   0.326  0.1745 -0.4541  2.3811
  279MPD2     N 4219   0.093   2.923   0.182  0.6614 -0.9712  0.2968
  279MPD2    H5 4220   0.055   2.864   0.110 -2.9448 -0.7612  2.0304
  279MPD2    N1 4221   4.655   3.237   0.529 -0.2249 -0.3276  0.0134
  279MPD2    H7 4222   4.564   3.281   0.547 -1.5497 -3.5246  1.0113
  280TMC3    C1 4223   0.015   3.417   0.645 -0.0036 -0.3523 -0.2732
  280TMC3    C2 4224   0.043   3.433   0.777 -0.3685 -0.1358  0.0790
  280TMC3    C3 4225   4.724   3.550   0.822 -0.3337 -0.3881 -0.6058
  280TMC3    C4 4226   4.685   3.514   0.557  0.6927 -0.2186 -0.2269
  280TMC3    C5 4227   4.648   3.631   0.617 -0.2470  0.4788 -0.8524
  280TMC3    C6 4228   4.658   3.653   0.759  0.9914  0.5089  0.0626
  280TMC3     C 4229   0.043   3.284   0.587  0.0256 -0.2487  0.2283
  280TMC3     O 4230   0.157   3.242   0.588 -0.2343 -0.0333  0.5314
  280TMC3     H 4231   0.092   3.357   0.837 -1.0160  1.4056  2.5510
  280TMC3    H1 4232   4.691   3.496   0.450  3.0334  0.4246 -0.2032
  280TMC3    H2 4233   4.637   3.746   0.810  0.6618  0.8587 -0.7186
  280TMC3    C7 4234   4.614   3.740   0.528 -0.6899  0.5262 -0.4961
  280TMC3    C8 4235   0.011   3.571   0.961  0.1682 -0.0247 -0.2861
  280TMC3    O1 4236   4.628   3.854   0.574  0.5513 -0.3525 -0.4861
  280TMC3    O2 4237   0.114   3.542   1.020 -0.0303 -0.2445 -0.6021
  281TMC3    C1 4238   4.045   3.279  13.208  0.1628  0.0355 -0.8149
  281TMC3    C2 4239   4.009   3.248  13.082 -1.1066 -0.0707  0.3679
  281TMC3    C3 4240   3.980   3.117  13.051 -0.1874  0.0766  1.1108
  281TMC3    C4 4241   4.035   3.190  13.311  0.1438  0.4685 -0.3459
  281TMC3    C5 4242   4.007   3.053  13.276  0.0365 -0.4487  0.1129
  281TMC3    C6 4243   3.978   3.019  13.149  0.4315 -0.0068 -0.5286
  281TMC3     C 4244   3.972   3.404  13.236  0.1266  0.0195  0.1503
  281TMC3     O 4245   3.878   3.425  13.163  0.9059 -0.3571 -0.1533
  281TMC3     H 4246   4.009   3.327  13.008  0.5986 -2.8447 -2.6070
  281TMC3    H1 4247   4.045   3.224  13.413 -0.1371  1.6699 -0.7174
  281TMC3    H2 4248   3.947   2.919  13.120 -0.5586  0.0346  0.3827
  281TMC3    C7 4249   3.996   2.957  13.377  0.7162 -0.0095  0.2732
  281TMC3    C8 4250   3.914   3.092  12.924  0.4771  0.2302  0.3086
  281TMC3    O1 4251   4.011   2.842  13.339 -0.6272  0.7541 -0.1653
  281TMC3    O2 4252   3.953   3.165  12.831  0.5337 -0.3329 -0.0257
  282MPD2     C 4253   1.197   3.923  15.264  0.2107  0.0505 -0.3000
  282MPD2    C1 4254   1.067   3.961  15.285 -0.1515  0.1839 -0.0111
  282MPD2    C2 4255   0.980   3.973  15.176  0.0811 -0.6038 -0.2187
  282MPD2    C3 4256   1.022   3.953  15.043 -0.0926 -0.3053 -0.1862
  282MPD2    C4 4257   1.150   3.914  15.030  0.2551 -0.4874  1.0583
  282MPD2    C5 4258   1.234   3.898  15.136  0.2778  0.4986 -0.8323
  282MPD2     H 4259   0.883   4.016  15.196  0.3068  0.4119 -1.3160
  282MPD2    H1 4260   1.189   3.873  14.937 -3.0517 -0.4666 -0.3073
  282MPD2    H2 4261   1.274   3.893  15.335  0.9104 -0.5546 -1.3098
  282MPD2    H3 4262   1.326   3.841  15.126 -1.0833 -1.8354 -0.1429
  282MPD2     N 4263   0.928   3.968  14.936  0.0911 -0.0013 -0.0237
  282MPD2    H5 4264   0.836   4.004  14.960  0.5098  0.8513  0.2992
  282MPD2    N1 4265   1.018   3.983  15.417  0.3237 -0.4530 -0.1119
  282MPD2    H7 4266   0.933   4.037  15.426  0.7438  0.1644  0.1269
  283TMC3    C1 4267   1.008   3.976  15.644 -0.1270 -0.3421  0.0341
  283TMC3    C2 4268   0.984   4.107  15.674  0.3358  0.1451 -0.3075
  283TMC3    C3 4269   0.954   4.134  15.802 -0.2535 -0.4422  0.0842
  283TMC3    C4 4270   1.001   3.876  15.729 -0.1761  0.5616 -0.9412
  283TMC3    C5 4271   0.980   3.912  15.856 -0.1434  0.0875 -0.2057
  283TMC3    C6 4272   0.956   4.039  15.897 -0.2750  0.7505 -0.0648
  283TMC3     C 4273   1.090   3.951  15.529 -0.3601 -0.1103  0.3377
  283TMC3     O 4274   1.172   3.864  15.548  0.0300  0.6472  0.4970
  283TMC3     H 4275   1.016   4.179  15.600  1.8424 -2.9784 -2.7300
  283TMC3    H1 4276   1.043   3.779  15.703 -1.1833 -0.7769  2.4229
  283TMC3    H2 4277   0.944   4.057  16.003  0.5650  0.2081  0.1316
  283TMC3    C7 4278   0.930   3.808  15.939 -0.4751  0.2096 -0.1534
  283TMC3    C8 4279   0.966   4.272  15.847  0.1433  0.0179  0.0427
  283TMC3    O1 4280   0.937   3.834  16.058 -0.5350 -0.3683 -0.2601
  283TMC3    O2 4281   1.016   4.289  15.956  0.0066  0.0878 -0.3290
  284MPD2     C 4282   3.712   3.518  11.797  0.2122  0.0372  0.5673
  284MPD2    C1 4283   3.821   3.465  11.722  0.2515  0.2609 -0.2765
  284MPD2    C2 4284   3.814   3.329  11.684 -0.2146  0.8530 -0.7673
  284MPD2    C3 4285   3.707   3.245  11.722 -0.2006 -0.2259  0.5188
  284MPD2    C4 4286   3.609   3.300  11.804 -0.4916 -0.1870 -0.0458
  284MPD2    C5 4287   3.608   3.434  11.849  0.1207  0.4640 -0.4146
  284MPD2     H 4288   3.901   3.291  11.632 -0.2901  0.0494 -0.2973
  284MPD2    H1 4289   3.527   3.236  11.836  0.6749 -0.9532  1.4025
  284MPD2    H2 4290   3.705   3.624  11.817 -2.5746 -0.6901  3.5126
  284MPD2    H3 4291   3.524   3.475  11.903 -0.7902  0.0034 -1.4766
  284MPD2     N 4292   3.712   3.105  11.693 -0.2579 -0.1660 -0.0696
  284MPD2    H5 4293   3.789   3.073  11.635  1.2027  1.4644  0.9644
  284MPD2    N1 4294   3.931   3.533  11.666  0.0884 -0.0825  0.3325
  284MPD2    H7 4295   3.989   3.479  11.602 -0.2732  0.9248 -0.8482
  285TMC3    C1 4296   4.092   3.710  11.640  0.2433  0.1266 -0.3433
  285TMC3    C2 4297   4.161   3.627  11.558  0.1757  0.2179  0.2932
  285TMC3    C3 4298   4.278   3.680  11.505 -0.7720 -0.8205  0.1547
  285TMC3    C4 4299   4.139   3.835  11.679 -0.5692  0.3049 -0.7200
  285TMC3    C5 4300   4.261   3.878  11.629  0.3536 -0.5375  0.2891
  285TMC3    C6 4301   4.325   3.804  11.535  0.1038  0.3143 -0.6392
  285TMC3     C 4302   3.968   3.662  11.693 -0.0660 -0.0132 -0.3668
  285TMC3     O 4303   3.907   3.725  11.777  0.7350 -0.3268 -0.9186
  285TMC3     H 4304   4.139   3.523  11.542 -2.4661  0.5036  2.0188
  285TMC3    H1 4305   4.083   3.881  11.760  1.6227 -0.5944  1.2844
  285TMC3    H2 4306   4.418   3.840  11.493  1.1345 -0.8722  0.6378
  285TMC3    C7 4307   4.301   4.016  11.647 -0.6255  0.5422  0.7194
  285TMC3    C8 4308   4.366   3.582  11.443  0.0217 -0.1943 -0.4097
  285TMC3    O1 4309   4.356   4.072  11.551  0.1201  0.0188 -0.1325
  285TMC3    O2 4310   4.321   3.494  11.371 -0.2037 -0.3214 -0.1716
  286MPD2     C 4311   3.802   2.989   2.104 -0.4083 -0.5716  0.4910
  286MPD2    C1 4312   3.782   2.960   1.969 -0.2507  0.1202 -0.1202
  286MPD2    C2 4313   3.874   2.879   1.907  0.3365  0.8947 -0.1327
  286MPD2    C3 4314   3.978   2.816   1.973 -0.3394  0.0699 -0.1473
  286MPD2    C4 4315   3.998   2.853   2.107  0.0093  0.1841  0.2410
  286MPD2    C5 4316   3.905   2.938   2.170  0.6712 -0.3548 -0.6468
  286MPD2     H 4317   3.848   2.845   1.807 -0.1357 -0.5435  0.4696
  286MPD2    H1 4318   4.077   2.818   2.172  0.3650  1.1573  0.3357
  286MPD2    H2 4319   3.736   3.047   2.167 -2.2808 -4.0508  1.7266
  286MPD2    H3 4320   3.921   2.960   2.275 -2.0518  1.4891 -0.6369
  286MPD2     N 4321   4.064   2.722   1.912 -0.0452  0.6737 -0.6014
  286MPD2    H5 4322   4.131   2.680   1.976 -0.1942 -1.4142 -1.8353
  286MPD2    N1 4323   3.678   3.015   1.891  0.3157 -0.0420 -0.4914
  286MPD2    H7 4324   3.665   2.978   1.797  1.9237  0.4356 -0.8999
  287TMC3    C1 4325   4.139   2.550   1.756  0.2008  0.1637  0.5188
  287TMC3    C2 4326   4.150   2.489   1.632 -0.1411  0.9779 -0.6625
  287TMC3    C3 4327   4.237   2.388   1.606 -0.5902 -0.2142  0.1581
  287TMC3    C4 4328   4.233   2.513   1.854  0.8968  0.5527 -0.5794
  287TMC3    C5 4329   4.326   2.417   1.823 -0.0537  0.1459 -0.2446
  287TMC3    C6 4330   4.333   2.355   1.700  0.5842 -0.2325 -0.8330
  287TMC3     C 4331   4.050   2.667   1.786  0.1432 -0.0339  0.1193
  287TMC3     O 4332   3.975   2.709   1.697  0.1908  0.3135  0.2395
  287TMC3     H 4333   4.065   2.507   1.568 -2.5159  0.4781  2.3483
  287TMC3    H1 4334   4.237   2.556   1.953  0.0201  0.3797 -0.4641
  287TMC3    H2 4335   4.407   2.278   1.682  0.5708 -0.4173 -0.1072
  287TMC3    C7 4336   4.429   2.386   1.916  0.3381 -0.5191  0.2989
  287TMC3    C8 4337   4.216   2.293   1.499  0.7160 -0.3630 -0.3426
  287TMC3    O1 4338   4.439   2.463   2.010 -0.4735 -0.2696 -0.0471
  287TMC3    O2 4339   4.102   2.291   1.458 -0.3790  0.3914  0.5671
  288TMC3    C1 4340   1.705   2.105  14.725  0.4436  0.2607  0.1424
  288TMC3    C2 4341   1.585   2.155  14.772 -0.7547 -0.2318 -0.5170
  288TMC3    C3 4342   1.508   2.213  14.681 -0.1580  0.4901 -0.1382
  288TMC3    C4 4343   1.736   2.099  14.592 -0.8900 -0.0911  0.3427
  288TMC3    C5 4344   1.648   2.158  14.502 -0.3912 -0.5534 -0.5431
  288TMC3    C6 4345   1.527   2.205  14.549  0.1632 -0.5365  0.2853
  288TMC3     C 4346   1.812   2.075  14.824 -0.0786 -0.5761 -0.3857
  288TMC3     O 4347   1.783   2.084  14.944 -0.6365  0.5808 -0.0008
  288TMC3     H 4348   1.558   2.170  14.876  1.3102 -0.6027  0.0733
  288TMC3    H1 4349   1.826   2.060  14.547 -0.9522  0.1244  0.0382
  288TMC3    H2 4350   1.452   2.251  14.485  0.4994 -0.9829 -0.4242
  288TMC3    C7 4351   1.688   2.164  14.360  0.2909  0.0634 -0.4057
  288TMC3    C8 4352   1.385   2.273  14.727  0.7368  0.3461  0.0699
  288TMC3    O1 4353   1.795   2.118  14.328  0.3121 -0.6447  0.4082
  288TMC3    O2 4354   1.363   2.384  14.683  1.0324  0.7259  0.0390
  289MPD2     C 4355   1.155   1.195  14.976 -0.6193  0.0803 -0.8710
  289MPD2    C1 4356   1.204   1.290  14.885  0.3521 -0.4525 -0.4106
  289MPD2    C2 4357   1.161   1.284  14.756 -0.0192  0.0198  0.1628
  289MPD2    C3 4358   1.078   1.186  14.704  0.0773  0.1324  0.1799
  289MPD2    C4 4359   1.018   1.103  14.790  0.0268 -1.1365 -0.6204
  289MPD2    C5 4360   1.056   1.108  14.920  0.7898  0.5744 -0.3710
  289MPD2     H 4361   1.193   1.363  14.688  1.5090  0.8725  1.8711
  289MPD2    H1 4362   0.936   1.041  14.757 -0.5059 -0.4218 -0.6340
  289MPD2    H2 4363   1.190   1.186  15.078 -2.2380 -2.1874 -0.5271
  289MPD2    H3 4364   1.013   1.028  14.980 -1.3427  1.8783 -0.1401
  289MPD2     N 4365   1.036   1.186  14.569  0.0361  0.3374 -0.3608
  289MPD2    H5 4366   0.969   1.112  14.550 -0.8776  0.8656  0.7786
  289MPD2    N1 4367   1.299   1.379  14.932  0.2706  0.0195 -0.0160
  289MPD2    H7 4368   1.331   1.353  15.025  2.0018  1.8353 -0.0906
  290TMC3    C1 4369   1.025   1.221  14.344  0.0215 -0.1137 -0.0808
  290TMC3    C2 4370   0.979   1.333  14.276 -0.3563  0.0873  1.1452
  290TMC3    C3 4371   0.979   1.321  14.141  0.3377 -0.5349 -0.0889
  290TMC3    C4 4372   1.055   1.101  14.287  0.0063 -0.2445  0.0720
  290TMC3    C5 4373   1.024   1.089  14.156  0.2623  0.4516  0.2789
  290TMC3    C6 4374   0.985   1.196  14.078 -0.6394 -0.0353 -0.1057
  290TMC3     C 4375   1.081   1.266  14.471  0.3621  0.0138  0.4754
  290TMC3     O 4376   1.164   1.358  14.466  0.3075 -0.2430  0.2951
  290TMC3     H 4377   0.955   1.421  14.334  1.1521  0.4711  1.2109
  290TMC3    H1 4378   1.097   1.020  14.345  0.0458 -0.3059 -0.0435
  290TMC3    H2 4379   0.957   1.191  13.974  0.0706 -2.0559 -0.1927
  290TMC3    C7 4380   1.063   0.967  14.081  0.2318 -0.2405  0.1809
  290TMC3    C8 4381   0.924   1.433  14.069  0.2761  0.7641 -0.0896
  290TMC3    O1 4382   1.069   0.984  13.961  0.6752  0.2100 -0.2333
  290TMC3    O2 4383   0.873   1.414  13.956  0.0674 -0.2586 -0.3495
  291MPD2     C 4384   0.684   1.243   0.364 -0.8839  0.5289  0.3210
  291MPD2    C1 4385   0.742   1.176   0.473 -0.2722  0.2329 -0.1014
  291MPD2    C2 4386   0.856   1.241   0.527  0.3999  0.1175 -0.5655
  291MPD2    C3 4387   0.917   1.354   0.478  0.5063 -0.1226 -0.4324
  291MPD2    C4 4388   0.856   1.412   0.369 -0.4448 -0.1584  0.7210
  291MPD2    C5 4389   0.741   1.358   0.314 -0.1135 -0.0328  0.1095
  291MPD2     H 4390   0.906   1.194   0.612 -2.8948  0.0018  1.3072
  291MPD2    H1 4391   0.901   1.498   0.321 -2.3159 -0.2330 -1.1859
  291MPD2    H2 4392   0.600   1.203   0.307 -0.3920  0.3188 -0.2505
  291MPD2    H3 4393   0.692   1.407   0.231  0.3817 -0.8368 -0.6542
  291MPD2     N 4394   1.040   1.406   0.523  0.3471 -0.0556  0.3872
  291MPD2    H5 4395   1.075   1.482   0.466 -1.0019 -0.1186 -0.5180
  291MPD2    N1 4396   0.689   1.055   0.525  0.2070 -0.3058 -0.6181
  291MPD2    H7 4397   0.743   1.016   0.601  2.5544  0.6959 -1.7695
  292TMC3    C1 4398   0.548   0.875   0.570  0.1748  0.0101 -0.2536
  292TMC3    C2 4399   0.570   0.882   0.707 -0.6939 -0.2054  0.1653
  292TMC3    C3 4400   0.535   0.779   0.787 -0.2133  0.0027 -0.3996
  292TMC3    C4 4401   0.494   0.767   0.517  0.3584  0.6370 -0.0449
  292TMC3    C5 4402   0.456   0.666   0.599  0.5585  0.5102  0.4362
  292TMC3    C6 4403   0.473   0.667   0.738  0.2817  0.0006  0.3483
  292TMC3     C 4404   0.585   0.981   0.480 -0.1296 -0.0187 -0.4337
  292TMC3     O 4405   0.505   0.998   0.389 -0.2628 -0.5507 -0.0179
  292TMC3     H 4406   0.614   0.975   0.742 -4.0038  1.8343 -1.0305
  292TMC3    H1 4407   0.463   0.765   0.413 -0.3102  0.0085  0.1678
  292TMC3    H2 4408   0.443   0.576   0.788  0.1316  0.0816  0.4047
  292TMC3    C7 4409   0.465   0.532   0.543 -0.5086 -0.3715  0.6238
  292TMC3    C8 4410   0.540   0.803   0.930  0.4419 -0.3250 -0.4886
  292TMC3    O1 4411   0.531   0.456   0.607  0.1693 -0.2476 -0.0114
  292TMC3    O2 4412   0.562   0.920   0.969 -0.1241  0.5180  0.4759
  293MPD2     C 4413   2.468   1.990  13.077  0.2477 -0.0907 -0.3885
  293MPD2    C1 4414   2.403   2.106  13.086 -0.1277 -0.3333  0.5882
  293MPD2    C2 4415   2.408   2.187  13.199 -0.0242 -0.6161  0.1289
  293MPD2    C3 4416   2.461   2.131  13.315 -0.2269 -0.4659 -0.3025
  293MPD2    C4 4417   2.517   2.004  13.311 -0.2419  0.0100  0.0263
  293MPD2    C5 4418   2.529   1.938  13.187  0.7427  0.1051  0.4012
  293MPD2     H 4419   2.360   2.284  13.211 -3.3469 -1.9709 -1.9811
  293MPD2    H1 4420   2.557   1.952  13.397  0.7056  1.0466  0.2162
  293MPD2    H2 4421   2.465   1.926  12.989 -0.0352 -2.1676  1.1363
  293MPD2    H3 4422   2.572   1.838  13.183  0.4848  0.0450 -1.0010
  293MPD2     N 4423   2.449   2.203  13.429 -0.5888  0.3220 -0.1219
  293MPD2    H5 4424   2.423   2.301  13.424  1.5650  0.7806 -2.1779
  293MPD2    N1 4425   2.335   2.150  12.969  0.6836  0.0414  0.0234
  293MPD2    H7 4426   2.329   2.082  12.894  0.9625  0.9588 -0.8247
  294TMC3    C1 4427   2.228   2.291  12.818  0.0740  0.4086 -0.2843
  294TMC3    C2 4428   2.150   2.193  12.776  0.3510  0.0360  0.6600
  294TMC3    C3 4429   2.130   2.177  12.634 -0.7098  0.3108 -0.3363
  294TMC3    C4 4430   2.275   2.389  12.734 -0.5567 -0.4495 -0.5722
  294TMC3    C5 4431   2.241   2.371  12.604 -0.4848  0.4211  0.2382
  294TMC3    C6 4432   2.179   2.265  12.550  0.4712 -0.1376 -0.2390
  294TMC3     C 4433   2.288   2.282  12.948 -0.2826 -0.5398  0.0166
  294TMC3     O 4434   2.318   2.384  13.011 -0.6036  0.0474  0.3489
  294TMC3     H 4435   2.103   2.115  12.834  2.0953  0.3849  2.5129
  294TMC3    H1 4436   2.313   2.480  12.780 -1.0117  0.7083 -2.4763
  294TMC3    H2 4437   2.158   2.257  12.444  2.1854  0.1084 -0.5983
  294TMC3    C7 4438   2.264   2.486  12.519 -0.9788  0.3201  0.1678
  294TMC3    C8 4439   2.097   2.046  12.590  0.3038 -0.3484  0.1183
  294TMC3    O1 4440   2.283   2.591  12.586  0.2193  0.3754 -0.3656
  294TMC3    O2 4441   2.194   1.990  12.539 -0.3704  0.3277 -0.0387
  295MPD2     C 4442   3.228   1.227   0.574 -0.6080 -0.0418  0.3888
  295MPD2    C1 4443   3.123   1.156   0.620  0.3176  0.1477 -0.1228
  295MPD2    C2 4444   3.122   1.115   0.752 -0.3810  0.5019 -0.9053
  295MPD2    C3 4445   3.223   1.154   0.838  0.4173  0.3922  0.4360
  295MPD2    C4 4446   3.337   1.216   0.792 -0.1222  0.1373 -1.0735
  295MPD2    C5 4447   3.338   1.257   0.661 -0.4759  0.5274 -0.0652
  295MPD2     H 4448   3.028   1.070   0.783 -0.4756  0.5544 -1.1200
  295MPD2    H1 4449   3.425   1.231   0.854 -0.5218 -0.0560 -0.4625
  295MPD2    H2 4450   3.231   1.264   0.472  0.9226  0.0576  0.4670
  295MPD2    H3 4451   3.428   1.305   0.627 -1.4445  2.8766  0.6622
  295MPD2     N 4452   3.222   1.136   0.979  0.4027  0.3767  0.1717
  295MPD2    H5 4453   3.283   1.201   1.026  0.8916  0.6311 -0.8109
  295MPD2    N1 4454   3.001   1.140   0.550 -0.1423 -0.0288  0.5387
  295MPD2    H7 4455   2.921   1.120   0.608 -0.2817  0.7344  0.6047
  296TMC3    C1 4456   3.142   1.078   1.198  0.0685  0.6893  0.3081
  296TMC3    C2 4457   3.130   1.208   1.235  0.1006  0.3639 -0.4764
  296TMC3    C3 4458   3.073   1.239   1.351  0.1044 -0.1063  0.1540
  296TMC3    C4 4459   3.084   0.983   1.279  0.9424 -0.5484 -0.4137
  296TMC3    C5 4460   3.023   1.013   1.394 -0.5423  0.3600  0.4441
  296TMC3    C6 4461   3.014   1.143   1.434 -0.0290 -0.1979  0.5321
  296TMC3     C 4462   3.135   1.063   1.054  0.3588  0.1413 -0.3183
  296TMC3     O 4463   3.068   0.971   1.016  0.2178  0.0859  0.4405
  296TMC3     H 4464   3.143   1.287   1.162  2.1531 -1.1277 -1.7546
  296TMC3    H1 4465   3.104   0.883   1.243  3.3421  0.5189 -2.0216
  296TMC3    H2 4466   2.980   1.165   1.535  0.1892  0.2119  0.5197
  296TMC3    C7 4467   3.008   0.909   1.489  0.0004 -0.2190  0.3453
  296TMC3    C8 4468   3.035   1.374   1.362  0.0662  0.0015  0.2680
  296TMC3    O1 4469   3.073   0.803   1.483 -0.4375 -0.2563  0.4512
  296TMC3    O2 4470   3.033   1.447   1.263  0.5880 -0.6632 -0.7802
  297MPD2     C 4471   4.624   2.939  16.564  0.5077 -0.5564  0.0912
  297MPD2    C1 4472   4.669   3.030  16.477 -0.4636 -0.7653 -0.3368
  297MPD2    C2 4473   0.078   3.068  16.495 -0.1379 -0.0043 -0.2394
  297MPD2    C3 4474   0.150   3.010  16.600 -0.5266 -0.1700 -0.3822
  297MPD2    C4 4475   0.095   2.908  16.676 -1.1902  0.1791  0.0351
  297MPD2    C5 4476   4.692   2.878  16.664  0.5668 -1.0054 -0.2142
  297MPD2     H 4477   0.130   3.141  16.434  0.5152 -0.3100 -0.0395
  297MPD2    H1 4478   0.142   2.876  16.769 -0.8599 -1.0320 -0.5615
  297MPD2    H2 4479   4.527   2.890  16.561 -0.3841  1.1343  1.3864
  297MPD2    H3 4480   4.637   2.802  16.719  2.1474 -2.9724 -1.3782
  297MPD2     N 4481   0.271   3.082  16.639  0.1051 -0.3825 -0.5142
  297MPD2    H5 4482   0.292   3.160  16.578 -1.9979  1.5272  1.2019
  297MPD2    N1 4483   4.591   3.082  16.365 -0.5957  0.1728 -0.2737
  297MPD2    H7 4484   4.635   3.141  16.294  0.9592  1.0594  1.4263
  298TMC3    C1 4485   4.392   3.122  16.238 -0.6733  0.0509 -0.2441
  298TMC3    C2 4486   4.472   3.126  16.128  0.5653  0.5538 -0.0065
  298TMC3    C3 4487   4.419   3.200  16.023 -0.6628  0.4771  0.1259
  298TMC3    C4 4488   4.270   3.182  16.252  0.1879 -0.1052 -0.1973
  298TMC3    C5 4489   4.220   3.247  16.143  0.2231  0.1249 -0.3305
  298TMC3    C6 4490   4.290   3.253  16.020 -0.1588  0.1379  0.5191
  298TMC3     C 4491   4.451   3.074  16.364  0.4467 -0.8003 -0.7338
  298TMC3     O 4492   4.374   3.025  16.445 -0.2583  0.4361  0.4032
  298TMC3     H 4493   4.574   3.089  16.134  0.1775 -0.5303 -0.1289
  298TMC3    H1 4494   4.204   3.172  16.337  1.6242  0.1009  0.9464
  298TMC3    H2 4495   4.251   3.301  15.932  3.9398  0.7757 -0.9521
  298TMC3    C7 4496   4.104   3.338  16.164 -0.9747 -0.1477  0.2974
  298TMC3    C8 4497   4.483   3.185  15.896 -0.3866  0.1469 -0.1960
  298TMC3    O1 4498   4.085   3.373  16.281  0.6829 -0.1741  0.1077
  298TMC3    O2 4499   4.552   3.081  15.888 -0.2679  0.0444  0.0580
  299MPD2     C 4500   1.409   3.215  10.814 -0.6613 -0.6511 -0.8735
  299MPD2    C1 4501   1.325   3.156  10.903 -0.3077 -0.1344  0.1429
  299MPD2    C2 4502   1.227   3.062  10.861 -0.0412 -0.0144  0.1601
  299MPD2    C3 4503   1.226   3.015  10.729  0.3940 -0.2132  0.5924
  299MPD2    C4 4504   1.314   3.081  10.649 -0.1693  0.0601 -0.2380
  299MPD2    C5 4505   1.410   3.176  10.682 -0.6624  0.1523 -0.7896
  299MPD2     H 4506   1.161   3.014  10.931 -0.5258 -0.9862 -0.9605
  299MPD2    H1 4507   1.310   3.045  10.547 -0.6606  1.7366 -0.8092
  299MPD2    H2 4508   1.480   3.294  10.833 -1.3861 -0.4682  1.0034
  299MPD2    H3 4509   1.473   3.217  10.604 -0.4971  2.7799  0.7496
  299MPD2     N 4510   1.153   2.908  10.675  0.1814 -0.1974 -0.4353
  299MPD2    H5 4511   1.153   2.894  10.575  0.6739  1.3952 -0.6515
  299MPD2    N1 4512   1.331   3.202  11.035  0.3467 -0.2100  0.0227
  299MPD2    H7 4513   1.393   3.279  11.056 -0.7684  0.5207  0.6677
  300TMC3    C1 4514   1.005   2.725  10.663  0.6640  0.0895 -0.8179
  300TMC3    C2 4515   0.941   2.782  10.553  0.1300  0.0468  0.3538
  300TMC3    C3 4516   0.822   2.738  10.513  0.9758 -0.1440 -0.3705
  300TMC3    C4 4517   0.939   2.627  10.731 -0.4615 -0.2843  0.5590
  300TMC3    C5 4518   0.820   2.580  10.686  0.0364  0.0019  0.0456
  300TMC3    C6 4519   0.760   2.632  10.571  0.3946  0.7635  0.4410
  300TMC3     C 4520   1.078   2.820  10.746 -0.4706  0.3899 -0.5012
  300TMC3     O 4521   1.076   2.806  10.868  0.3812  0.2784 -0.4513
  300TMC3     H 4522   0.984   2.869  10.505 -2.4258  1.1372  0.0530
  300TMC3    H1 4523   0.990   2.589  10.819  3.9168  0.7798 -1.5579
  300TMC3    H2 4524   0.663   2.589  10.546  0.9780 -0.3839  0.1600
  300TMC3    C7 4525   0.735   2.544  10.800  0.1129 -0.0961 -0.3303
  300TMC3    C8 4526   0.735   2.855  10.528  0.2212  0.1910 -0.1033
  300TMC3    O1 4527   0.786   2.495  10.896 -0.0396  0.0728 -0.5893
  300TMC3    O2 4528   0.780   2.962  10.571  0.5660 -0.2114  0.4516
  301MPD2     C 4529   2.194   4.624   2.557  0.0879 -0.3838 -0.1770
  301MPD2    C1 4530   2.094   4.572   2.472  0.1126 -0.3240  0.2197
  301MPD2    C2 4531   2.064   4.436   2.473  0.4133  0.5469  0.2218
  301MPD2    C3 4532   2.140   4.356   2.552 -0.9468  0.0537 -0.6390
  301MPD2    C4 4533   2.240   4.404   2.626 -0.3503 -0.2020 -0.2919
  301MPD2    C5 4534   2.275   4.537   2.623 -0.6457 -0.1412  0.0694
  301MPD2     H 4535   1.977   4.404   2.417 -0.3360 -0.0985  1.7588
  301MPD2    H1 4536   2.306   4.335   2.678  2.2608  1.4990 -1.3534
  301MPD2    H2 4537   2.217   0.003   2.563 -0.1839 -0.2878 -0.7547
  301MPD2    H3 4538   2.359   4.575   2.681 -0.4099  0.2589 -0.5316
  301MPD2     N 4539   2.111   4.216   2.560 -0.4335  0.3878 -0.0762
  301MPD2    H5 4540   2.151   4.179   2.645 -0.8416 -2.4687 -1.1110
  301MPD2    N1 4541   2.008   4.648   2.380 -0.6998  0.0199  0.4315
  301MPD2    H7 4542   1.944   4.592   2.324 -1.4819 -2.6236  3.9262
  302TMC3    C1 4543   2.045   3.999   2.482  0.1154  0.2377 -0.6859
  302TMC3    C2 4544   2.149   3.940   2.546 -0.0058 -0.5401  0.8932
  302TMC3    C3 4545   2.136   3.811   2.588 -0.6129 -0.5198  0.2116
  302TMC3    C4 4546   1.936   3.924   2.438 -0.0214  0.1206  0.1493
  302TMC3    C5 4547   1.922   3.798   2.484  0.5544  0.4469  0.2418
  302TMC3    C6 4548   2.016   3.746   2.564  0.2396  0.0002 -0.4058
  302TMC3     C 4549   2.026   4.145   2.473 -0.1897  0.6336 -0.0799
  302TMC3     O 4550   1.967   4.187   2.374 -0.2981 -0.2861  0.0097
  302TMC3     H 4551   2.243   3.992   2.562  1.3889 -2.5040 -0.8483
  302TMC3    H1 4552   1.848   3.986   2.423  0.7332  0.9355 -0.8608
  302TMC3    H2 4553   2.014   3.644   2.599  0.9490 -0.0788 -0.5962
  302TMC3    C7 4554   1.788   3.740   2.480 -1.2419  0.0847  0.9416
  302TMC3    C8 4555   2.254   3.729   2.582  0.4322 -0.1845 -0.5358
  302TMC3    O1 4556   1.746   3.685   2.578  0.4956  0.5560 -0.0202
  302TMC3    O2 4557   2.247   3.608   2.546 -0.0871 -0.5276  0.9237
  303MPD2     C 4558   2.572   2.797  10.541 -0.0159 -0.3889 -0.6152
  303MPD2    C1 4559   2.613   2.694  10.625  0.4221  0.2873  0.0879
  303MPD2    C2 4560   2.722   2.618  10.593 -0.6276  0.7135  0.9640
  303MPD2    C3 4561   2.790   2.636  10.479 -0.1856 -0.6242 -0.5167
  303MPD2    C4 4562   2.761   2.747  10.402 -0.8124  0.4539  0.3409
  303MPD2    C5 4563   2.650   2.823  10.431  0.3782 -0.1621 -0.1764
  303MPD2     H 4564   2.747   2.530  10.651  1.2493  0.6080 -0.0293
  303MPD2    H1 4565   2.813   2.748  10.307 -3.4929  0.5261 -1.0996
  303MPD2    H2 4566   2.481   2.853  10.559  0.2767  0.0692 -0.5347
  303MPD2    H3 4567   2.612   2.896  10.360  0.2153 -0.0545  0.0198
  303MPD2     N 4568   2.892   2.542  10.439  0.2439 -0.2829 -0.0324
  303MPD2    H5 4569   2.933   2.567  10.349 -0.4886 -0.4463 -0.4095
  303MPD2    N1 4570   2.521   2.674  10.732  0.0539 -0.4888  0.1274
  303MPD2    H7 4571   2.429   2.715  10.733  0.6077  0.7333  0.3561
  304TMC3    C1 4572   2.416   2.541  10.896  0.0291 -0.0068 -0.0278
  304TMC3    C2 4573   2.299   2.529  10.825  0.3145  0.1025  0.5197
  304TMC3    C3 4574   2.197   2.460  10.882 -0.3813 -0.0438 -0.6341
  304TMC3    C4 4575   2.425   2.490  11.023  0.9793  0.0798 -0.3863
  304TMC3    C5 4576   2.323   2.416  11.079  0.1702 -0.7060 -0.5874
  304TMC3    C6 4577   2.199   2.415  11.009 -0.5199  0.0069 -0.1773
  304TMC3     C 4578   2.541   2.582  10.828 -0.9670 -0.3052 -0.0069
  304TMC3     O 4579   2.648   2.536  10.868 -0.1246  0.3514  0.5000
  304TMC3     H 4580   2.292   2.563  10.723 -2.2540 -0.2010  0.6080
  304TMC3    H1 4581   2.523   2.496  11.070  1.6636 -2.2796 -1.5155
  304TMC3    H2 4582   2.114   2.353  11.035 -0.1169 -1.0458 -1.3786
  304TMC3    C7 4583   2.355   2.287  11.123 -0.0532  0.0916  0.1376
  304TMC3    C8 4584   2.135   2.369  10.785 -0.1400 -0.9666 -0.1422
  304TMC3    O1 4585   2.288   2.207  11.063  0.2232  0.5234 -0.4352
  304TMC3    O2 4586   2.097   2.417  10.678  0.3402  0.3573 -0.0167
  305MPD2     C 4587   0.775   4.323  14.338  0.7687  0.0713 -0.1384
  305MPD2    C1 4588   0.899   4.266  14.330  0.7506  0.7684  0.9964
  305MPD2    C2 4589   0.935   4.215  14.208 -0.1583  0.1125 -1.1627
  305MPD2    C3 4590   0.847   4.227  14.098  0.2802 -0.2110 -0.4121
  305MPD2    C4 4591   0.718   4.265  14.116 -0.2210 -0.1346  0.2672
  305MPD2    C5 4592   0.677   4.315  14.238 -0.0270  0.0130  0.2265
  305MPD2     H 4593   1.034   4.172  14.198 -0.1374 -0.3093  0.8478
  305MPD2    H1 4594   0.640   4.260  14.041  0.1065 -3.6367  0.1775
  305MPD2    H2 4595   0.744   4.380  14.425  1.1292  2.2547 -1.4345
  305MPD2    H3 4596   0.578   4.354  14.260 -0.9699 -1.7242 -0.9728
  305MPD2     N 4597   0.879   4.178  13.969  0.2004  0.1536  0.2510
  305MPD2    H5 4598   0.801   4.171  13.905  1.5349  2.1926 -1.5827
  305MPD2    N1 4599   0.987   4.271  14.443  0.0564  0.7333 -0.0348
  305MPD2    H7 4600   0.947   4.316  14.524  0.9457 -0.3627  1.0034
  306TMC3    C1 4601   1.183   4.231  14.563  0.5221 -0.0292  0.0048
  306TMC3    C2 4602   1.315   4.218  14.567 -0.8089 -0.6797  0.7971
  306TMC3    C3 4603   1.378   4.225  14.686 -0.6842  0.3107  0.3400
  306TMC3    C4 4604   1.114   4.240  14.679  0.2019 -0.2173  0.6923
  306TMC3    C5 4605   1.178   4.242  14.798 -1.0181 -0.0164 -0.3463
  306TMC3    C6 4606   1.314   4.234  14.806  0.0706 -0.2916 -0.1925
  306TMC3     C 4607   1.111   4.211  14.438 -0.6851  0.8404 -0.3289
  306TMC3     O 4608   1.178   4.156  14.354  0.2070  0.7726 -0.3156
  306TMC3     H 4609   1.374   4.189  14.481 -0.7668  1.1044  0.2218
  306TMC3    H1 4610   1.007   4.249  14.686  0.0313 -1.2244 -0.6940
  306TMC3    H2 4611   1.371   4.227  14.898 -1.0940 -1.3485  0.4484
  306TMC3    C7 4612   1.101   4.271  14.919 -0.3139  0.4563  0.7562
  306TMC3    C8 4613   1.511   4.158  14.703 -0.1745 -0.0129 -0.4879
  306TMC3    O1 4614   0.982   4.305  14.906 -0.6162  0.1030  0.5116
  306TMC3    O2 4615   1.535   4.110  14.811  0.4146 -0.2168 -0.2039
  307MPD2     C 4616   3.899   2.715   0.846  0.5901 -0.0451  0.6400
  307MPD2    C1 4617   3.809   2.737   0.744  0.1485  0.1337  0.5504
  307MPD2    C2 4618   3.709   2.826   0.773  0.8230 -0.3473  0.4337
  307MPD2    C3 4619   3.696   2.902   0.888  0.4959  0.6079 -0.4845
  307MPD2    C4 4620   3.786   2.875   0.988 -0.0522  0.1097 -0.1093
  307MPD2    C5 4621   3.887   2.786   0.965 -0.2128 -0.0441 -0.4577
  307MPD2     H 4622   3.631   2.848   0.700 -0.0968 -2.6854  0.7150
  307MPD2    H1 4623   3.787   2.928   1.082 -1.6576 -0.9104  0.4665
  307MPD2    H2 4624   3.978   2.643   0.827 -1.1859 -1.8567  0.1340
  307MPD2    H3 4625   3.963   2.769   1.041 -1.4357  0.6714  0.9445
  307MPD2     N 4626   3.594   2.998   0.904  0.8064  0.3958  0.1348
  307MPD2    H5 4627   3.530   3.008   0.826  1.1033  1.4617  0.0285
  307MPD2    N1 4628   3.812   2.665   0.618 -0.2590  0.6592  0.1780
  307MPD2    H7 4629   3.733   2.676   0.555  1.2450 -0.1872 -1.8364
  308TMC3    C1 4630   3.249   3.219   1.065  0.0728 -0.7262  0.9339
  308TMC3    C2 4631   3.217   3.277   0.952 -0.4235  0.4985 -0.8311
  308TMC3    C3 4632   3.317   3.275   0.859 -0.1910 -0.3565 -0.8800
  308TMC3    C4 4633   3.371   3.174   1.099 -0.3693 -0.1331  0.4731
  308TMC3    C5 4634   3.464   3.168   1.000  0.7404  0.0872  0.6798
  308TMC3    C6 4635   3.437   3.222   0.879 -0.2593 -0.3270  0.0785
  308TMC3     C 4636   3.154   3.234   1.170  0.1303  0.3447  0.3131
  308TMC3     O 4637   3.201   3.251   1.280  0.4297  0.5296  0.0963
  308TMC3     H 4638   3.117   3.311   0.927 -0.2474  0.5554 -1.4553
  308TMC3    H1 4639   3.401   3.138   1.197  0.0636 -1.2118 -0.0426
  308TMC3    H2 4640   3.513   3.229   0.802 -2.3984 -0.9055 -2.0842
  308TMC3    C7 4641   3.580   3.084   1.012  1.3039 -0.0753  0.5299
  308TMC3    C8 4642   3.298   3.332   0.729  0.4495  0.7076  0.1518
  308TMC3    O1 4643   3.620   3.072   1.125 -0.3643  0.8129  0.5670
  308TMC3    O2 4644   3.391   3.388   0.673  0.1358 -0.6256 -0.4683
  309MPD2     C 4645   2.695   2.206  17.360  0.2040 -0.1678  0.1445
  309MPD2    C1 4646   2.677   2.331  17.315 -0.4653  0.1272 -0.1587
  309MPD2    C2 4647   2.578   2.406  17.373 -0.1476  0.2024  0.2185
  309MPD2    C3 4648   2.488   2.349  17.468 -0.2154  0.3861  0.1880
  309MPD2    C4 4649   2.507   2.215  17.494 -0.0518  0.4666  1.3033
  309MPD2    C5 4650   2.613   2.145  17.447 -0.2990 -0.0082  0.9269
  309MPD2     H 4651   2.575   2.512  17.353  2.5028  0.1072 -0.6734
  309MPD2    H1 4652   2.445   2.164  17.567  0.3542  0.9430  1.9713
  309MPD2    H2 4653   2.775   2.142  17.325  1.1085  0.0292  1.8926
  309MPD2    H3 4654   2.628   2.044  17.482 -0.9979 -0.3713  0.1720
  309MPD2     N 4655   2.396   2.419  17.543  0.6534 -0.2563 -0.5500
  309MPD2    H5 4656   2.356   2.368  17.621 -1.6185 -0.0621 -1.5935
  309MPD2    N1 4657   2.767   2.402  17.227 -0.4136 -0.6692  0.0320
  309MPD2    H7 4658   2.747   2.497  17.197  1.2584 -1.0838 -2.4497
  310TMC3    C1 4659   2.933   2.413  17.069 -0.1541  0.6876 -0.4792
  310TMC3    C2 4660   2.857   2.497  16.994  0.0669 -0.3416  0.5360
  310TMC3    C3 4661   2.912   2.570  16.884 -0.2686  1.3288 -0.1443
  310TMC3    C4 4662   3.057   2.387  17.027 -0.3715  0.4842  0.6012
  310TMC3    C5 4663   3.108   2.436  16.903 -0.0525  0.2672  0.4573
  310TMC3    C6 4664   3.037   2.540  16.841  1.4358  0.4720 -0.6153
  310TMC3     C 4665   2.885   2.344  17.181 -0.3858  0.6442 -0.5620
  310TMC3     O 4666   2.946   2.255  17.238  0.4354  0.4710 -0.2487
  310TMC3     H 4667   2.750   2.508  17.012 -0.2033 -0.2629 -1.0912
  310TMC3    H1 4668   3.114   2.313  17.083 -0.8346 -0.2944  0.0477
  310TMC3    H2 4669   3.077   2.581  16.749 -2.4370 -0.4276 -2.7037
  310TMC3    C7 4670   3.246   2.403  16.873 -0.0022 -0.1077  0.2566
  310TMC3    C8 4671   2.831   2.674  16.821  0.2000 -0.0321  0.3982
  310TMC3    O1 4672   3.307   2.329  16.950 -0.2081  0.4367 -0.6640
  310TMC3    O2 4673   2.710   2.664  16.831 -0.6904  0.0794 -0.7450
  311MPD2     C 4674   0.131   3.800  13.010  0.3489 -0.3443  0.4188
  311MPD2    C1 4675   0.152   3.917  13.075 -0.0163 -0.9913  0.3045
  311MPD2    C2 4676   0.040   3.979  13.117  0.2849  0.4956  0.0418
  311MPD2    C3 4677   4.641   3.929  13.105 -0.3262 -0.2046 -0.1862
  311MPD2    C4 4678   4.620   3.810  13.038 -0.3928  0.5101 -0.3404
  311MPD2    C5 4679   0.005   3.741  13.003  0.4759 -0.0848  0.3961
  311MPD2     H 4680   0.057   4.066  13.179 -0.6024  0.0006  0.9802
  311MPD2    H1 4681   4.525   3.758  13.033 -0.1287  0.2369 -2.4093
  311MPD2    H2 4682   0.210   3.734  12.976 -0.5100 -1.9770  1.6203
  311MPD2    H3 4683   0.001   3.644  12.954 -2.1596  0.9301 -1.3991
  311MPD2     N 4684   4.526   4.000  13.149 -0.1400 -0.0555  0.0400
  311MPD2    H5 4685   4.546   4.094  13.184  1.3634 -1.0389  1.8654
  311MPD2    N1 4686   0.278   3.982  13.091 -0.4078  0.2773  0.1086
  311MPD2    H7 4687   0.287   4.059  13.156 -1.1861  1.7693 -1.5377
  312TMC3    C1 4688   4.298   4.079  13.156 -0.1531 -0.3340  0.5824
  312TMC3    C2 4689   4.181   4.089  13.090 -0.5179  0.6851  0.1156
  312TMC3    C3 4690   4.094   4.184  13.122 -0.2041  0.0054 -0.0175
  312TMC3    C4 4691   4.315   4.151  13.268 -0.0727 -0.5101 -0.1018
  312TMC3    C5 4692   4.222   4.251  13.294  0.1508 -0.4576 -0.6553
  312TMC3    C6 4693   4.107   4.268  13.222  0.5827 -0.0498  0.4401
  312TMC3     C 4694   4.393   3.968  13.132 -0.3387 -0.2170 -0.0127
  312TMC3     O 4695   4.347   3.866  13.087  0.3641 -0.0355  0.4122
  312TMC3     H 4696   4.158   4.024  13.006 -0.5632 -0.7868  1.2574
  312TMC3    H1 4697   4.402   4.142  13.331 -0.5914  0.3053  0.7168
  312TMC3    H2 4698   4.034   4.344  13.246  1.0147  0.4932  0.0392
  312TMC3    C7 4699   4.258   4.339  13.402 -0.6021 -0.6477  0.3741
  312TMC3    C8 4700   3.961   4.133  13.100 -0.0106 -0.1648 -0.0105
  312TMC3    O1 4701   4.217   4.455  13.396  0.2525  0.2639  0.4128
  312TMC3    O2 4702   3.935   4.020  13.137  0.9789  0.6281  0.6804
  313MPD2     C 4703   4.489   3.031  10.694 -0.6068  0.1183  0.1063
  313MPD2    C1 4704   4.381   3.053  10.775 -0.1168  0.4180 -1.1749
  313MPD2    C2 4705   4.276   2.952  10.780  0.3131 -0.3343 -0.0534
  313MPD2    C3 4706   4.283   2.837  10.710 -0.0600  0.0366  0.5672
  313MPD2    C4 4707   4.388   2.824  10.624 -0.1372  0.0675  0.2647
  313MPD2    C5 4708   4.488   2.917  10.617 -0.4614 -0.2183 -0.3194
  313MPD2     H 4709   4.185   2.971  10.835 -0.4329  0.1656 -1.4643
  313MPD2    H1 4710   4.387   2.745  10.550  0.7968  0.8734 -0.6171
  313MPD2    H2 4711   4.570   3.100  10.675  1.2442 -1.2074  3.0965
  313MPD2    H3 4712   4.572   2.908  10.550 -1.1473  0.5411 -1.2954
  313MPD2     N 4713   4.179   2.741  10.718 -0.6038 -0.1984  0.3919
  313MPD2    H5 4714   4.102   2.755  10.782  0.3038  0.4967  1.3498
  313MPD2    N1 4715   4.361   3.169  10.852  0.1716 -0.1363 -0.6397
  313MPD2    H7 4716   4.270   3.186  10.894  0.9810 -0.1814  1.1432
  314TMC3    C1 4717   4.393   3.379  10.938  0.5347 -0.3432  0.1471
  314TMC3    C2 4718   4.482   3.453  11.002  0.1652 -0.0522  0.4728
  314TMC3    C3 4719   4.437   3.573  11.051 -0.1834  0.2215 -0.2072
  314TMC3    C4 4720   4.262   3.419  10.909 -0.6379  0.0591 -0.3942
  314TMC3    C5 4721   4.221   3.528  10.972  0.9294  0.4403 -0.9484
  314TMC3    C6 4722   4.304   3.612  11.044 -0.1357 -0.8440  0.1806
  314TMC3     C 4723   4.442   3.276  10.847 -0.6889 -0.3875  0.1458
  314TMC3     O 4724   4.558   3.282  10.812  0.1259 -0.8465 -0.0782
  314TMC3     H 4725   4.583   3.418  11.017  0.6153  0.2564 -1.9397
  314TMC3    H1 4726   4.201   3.365  10.837 -1.3361  1.3656 -0.7722
  314TMC3    H2 4727   4.276   3.715  11.063  2.0553 -0.0458 -0.9668
  314TMC3    C7 4728   4.116   3.605  10.908 -0.3447  0.4583  0.0789
  314TMC3    C8 4729   4.530   3.674  11.114  0.1220  0.1653  0.5699
  314TMC3    O1 4730   4.072   3.701  10.968  0.1208 -0.1630 -0.1562
  314TMC3    O2 4731   4.472   3.769  11.168  0.0730 -0.2512 -0.0972
  315MPD2     C 4732   3.636   3.393   0.388 -0.2620  0.0073 -0.1196
  315MPD2    C1 4733   3.772   3.362   0.369  0.1914 -0.5185  0.1679
  315MPD2    C2 4734   3.848   3.436   0.281 -0.0052  0.3162  0.8885
  315MPD2    C3 4735   3.777   3.527   0.196  0.7374  0.1676  1.0473
  315MPD2    C4 4736   3.647   3.561   0.213 -0.0087  0.4932 -0.4659
  315MPD2    C5 4737   3.582   3.490   0.313 -0.6306  0.8479 -0.2010
  315MPD2     H 4738   3.951   3.405   0.272 -0.2972 -0.5898  0.7054
  315MPD2    H1 4739   3.594   3.631   0.149 -1.3149  0.2957  0.3977
  315MPD2    H2 4740   3.573   3.330   0.450  0.6587  0.5660  1.4023
  315MPD2    H3 4741   3.474   3.505   0.315 -0.7372  0.5829 -3.2877
  315MPD2     N 4742   3.856   3.582   0.087 -0.1630 -0.3366  0.2889
  315MPD2    H5 4743   3.956   3.569   0.100  0.1698  1.9553  0.0094
  315MPD2    N1 4744   3.844   3.270   0.452 -0.0754 -0.1851 -0.5523
  315MPD2    H7 4745   3.941   3.258   0.425  0.0462 -0.5795  0.0905
  316TMC3    C1 4746   3.911   3.689  17.591 -0.5043 -0.2303 -0.1614
  316TMC3    C2 4747   4.015   3.755  17.644 -0.3093  0.1256  0.0731
  316TMC3    C3 4748   4.116   3.784  17.558 -0.4429  0.1272  0.6604
  316TMC3    C4 4749   3.900   3.650  17.464  0.0870  0.5161  0.3471
  316TMC3    C5 4750   4.005   3.684  17.382  0.4503 -0.3565  0.3065
  316TMC3    C6 4751   4.112   3.759  17.428 -0.3085  0.3115 -0.8206
  316TMC3     C 4752   3.806   3.639  17.677 -0.2374  0.5751 -0.1634
  316TMC3     O 4753   3.692   3.643  17.637  0.2459  0.4728  0.2191
  316TMC3     H 4754   4.018   3.801   0.038 -0.5175 -1.3854  0.7843
  316TMC3    H1 4755   3.829   3.574  17.432  0.2687  0.8421 -0.8531
  316TMC3    H2 4756   4.194   3.788  17.364 -0.4740  0.4140 -0.9843
  316TMC3    C7 4757   4.038   3.595  17.275 -0.1915 -0.2016 -0.0855
  316TMC3    C8 4758   4.226   3.853  17.622  0.0496 -0.5001 -0.2241
  316TMC3    O1 4759   4.145   3.533  17.278  0.0219 -0.4954  0.4385
  316TMC3    O2 4760   4.278   3.939  17.554  1.0202  0.5371 -0.5919
  317MPD2     C 4761   1.264   0.947  12.920 -0.2955 -0.1009  0.4655
  317MPD2    C1 4762   1.391   0.937  12.893 -1.0118  0.2869 -0.1735
  317MPD2    C2 4763   1.485   0.920  12.996 -0.3727 -0.2519 -0.1818
  317MPD2    C3 4764   1.443   0.905  13.129 -0.4782 -0.1563  0.2259
  317MPD2    C4 4765   1.312   0.929  13.151  0.1084  0.8143  0.2022
  317MPD2    C5 4766   1.224   0.962  13.048  0.0752 -0.1911 -0.4666
  317MPD2     H 4767   1.589   0.901  12.970  0.1307  0.9820  0.9445
  317MPD2    H1 4768   1.281   0.938  13.254  1.0463 -0.2403  0.5674
  317MPD2    H2 4769   1.191   0.968  12.843  0.0189  0.7868  0.4094
  317MPD2    H3 4770   1.124   0.992  13.076  0.1971 -2.4219  2.4173
  317MPD2     N 4771   1.535   0.866  13.229 -0.3159 -0.0604  0.0890
  317MPD2    H5 4772   1.630   0.844  13.202  0.5066  1.8977  1.4322
  317MPD2    N1 4773   1.435   0.935  12.756  1.1856 -0.2929 -0.3974
  317MPD2    H7 4774   1.534   0.926  12.737  1.3871  0.3606  0.3455
  318TMC3    C1 4775   1.608   0.757  13.426 -0.0234  0.4150  0.1631
  318TMC3    C2 4776   1.585   0.634  13.468  0.3491 -0.3979 -0.4040
  318TMC3    C3 4777   1.677   0.552  13.522 -0.1653 -0.0452  0.0659
  318TMC3    C4 4778   1.739   0.801  13.416 -0.4888 -0.0058 -0.1189
  318TMC3    C5 4779   1.831   0.726  13.477 -0.3693  0.9560  0.0645
  318TMC3    C6 4780   1.806   0.603  13.529 -0.4459  0.3482 -0.4817
  318TMC3     C 4781   1.501   0.825  13.361 -0.3993 -0.3336 -0.4454
  318TMC3     O 4782   1.389   0.805  13.403 -0.3079 -0.1118 -0.0587
  318TMC3     H 4783   1.485   0.594  13.457  0.1967  0.7180 -3.0756
  318TMC3    H1 4784   1.766   0.890  13.361 -0.9808  0.0820 -0.2121
  318TMC3    H2 4785   1.878   0.542  13.580  0.3370  0.3291 -1.6008
  318TMC3    C7 4786   1.971   0.768  13.457 -0.0149 -0.1537  0.1825
  318TMC3    C8 4787   1.652   0.428  13.592  0.1990 -0.3253  0.1305
  318TMC3    O1 4788   1.991   0.842  13.362 -0.2437 -0.0759  0.3538
  318TMC3    O2 4789   1.743   0.348  13.615  0.0414  0.1420 -0.0720
  319MPD2     C 4790   2.037   2.151  16.545 -0.0289  0.0312  0.0123
  319MPD2    C1 4791   1.924   2.082  16.567 -0.7921 -1.2045 -0.8009
  319MPD2    C2 4792   1.884   1.988  16.476 -0.7544 -0.3227 -0.5631
  319MPD2    C3 4793   1.959   1.952  16.364 -0.1575  0.5619  0.6343
  319MPD2    C4 4794   2.076   2.024  16.345  0.5093  0.1340  0.2367
  319MPD2    C5 4795   2.112   2.124  16.428 -0.0784  0.8375 -0.2226
  319MPD2     H 4796   1.784   1.947  16.486 -0.2128 -0.5591  3.6607
  319MPD2    H1 4797   2.134   2.006  16.255 -0.8707  0.3894 -0.7047
  319MPD2    H2 4798   2.065   2.240  16.599 -0.5138  0.0508  0.2260
  319MPD2    H3 4799   2.198   2.187  16.406  0.9763 -0.5829 -0.2312
  319MPD2     N 4800   1.909   1.859  16.263  0.0608 -0.1573 -0.1206
  319MPD2    H5 4801   1.954   1.846  16.174  0.2682 -0.2029 -0.0075
  319MPD2    N1 4802   1.835   2.106  16.674  0.0744 -0.8261 -0.1526
  319MPD2    H7 4803   1.756   2.043  16.674  1.0487 -2.0289  0.7101
  320TMC3    C1 4804   1.728   1.765  16.143  0.2816  0.2477 -0.4761
  320TMC3    C2 4805   1.666   1.870  16.085  0.3700 -0.8604 -0.0114
  320TMC3    C3 4806   1.534   1.860  16.037  0.6717  0.2071 -0.2632
  320TMC3    C4 4807   1.652   1.655  16.156  0.7014 -0.0003  0.3852
  320TMC3    C5 4808   1.525   1.647  16.107  0.4423  0.0023  0.3806
  320TMC3    C6 4809   1.462   1.745  16.050 -0.5988  0.4255  0.0529
  320TMC3     C 4810   1.780   1.802  16.270 -0.1607 -1.3267 -0.3599
  320TMC3     O 4811   1.721   1.759  16.370 -0.6012 -0.9789  0.0221
  320TMC3     H 4812   1.722   1.963  16.084 -2.1710  0.6539 -0.5809
  320TMC3    H1 4813   1.705   1.571  16.198  0.3121 -0.6311 -0.3862
  320TMC3    H2 4814   1.361   1.732  16.015 -0.6316 -1.1487  0.7346
  320TMC3    C7 4815   1.441   1.566  16.189  0.4219 -0.4855  0.1010
  320TMC3    C8 4816   1.469   1.992  16.031  0.6163 -0.4237  0.0351
  320TMC3    O1 4817   1.354   1.491  16.142 -0.0848 -0.1981  0.2847
  320TMC3    O2 4818   1.542   2.090  16.009 -0.4683  0.2829 -0.6626
  321TMC3    C1 4819   1.745   2.189  16.875  0.2496  0.0616 -0.4598
  321TMC3    C2 4820   1.716   2.067  16.929 -0.0253 -0.0946 -0.3767
  321TMC3    C3 4821   1.626   2.064  17.028  0.5270  0.4932 -0.5615
  321TMC3    C4 4822   1.700   2.306  16.931  0.4810  0.0338  0.1421
  321TMC3    C5 4823   1.610   2.300  17.029 -0.2951 -0.2354  0.0755
  321TMC3    C6 4824   1.568   2.182  17.077 -1.1507 -0.5462  0.2827
  321TMC3     C 4825   1.853   2.192  16.780  0.1296  0.5109 -0.8292
  321TMC3     O 4826   1.936   2.283  16.795 -0.2272 -0.3738  0.4367
  321TMC3     H 4827   1.767   1.977  16.896 -0.3099 -0.0982 -0.8119
  321TMC3    H1 4828   1.729   2.401  16.887  1.7703 -0.3933  0.0695
  321TMC3    H2 4829   1.487   2.170  17.148  0.2129  1.3077  2.1567
  321TMC3    C7 4830   1.638   2.394  17.137 -0.2199 -0.4456 -0.1660
  321TMC3    C8 4831   1.664   1.977  17.142  0.0756 -0.7045  0.4480
  321TMC3    O1 4832   1.659   2.512  17.117 -0.1746 -0.4191 -0.3377
  321TMC3    O2 4833   1.643   2.028  17.254 -0.4321 -0.1037  0.4261
  322MPD2     C 4834   1.215   3.839  13.918  0.4766  0.3308 -0.9103
  322MPD2    C1 4835   1.240   3.767  14.038  0.5522  0.3280  0.1038
  322MPD2    C2 4836   1.215   3.630  14.029 -0.1688  0.0904  0.2762
  322MPD2    C3 4837   1.202   3.568  13.901 -0.3747 -0.3822  0.1420
  322MPD2    C4 4838   1.198   3.641  13.787 -0.6202 -0.3185  0.1701
  322MPD2    C5 4839   1.197   3.774  13.800 -0.6850  0.2774 -0.6073
  322MPD2     H 4840   1.223   3.561  14.112  1.2012  0.1027  0.1504
  322MPD2    H1 4841   1.171   3.603  13.689  0.9355  0.0145 -0.3923
  322MPD2    H2 4842   1.215   3.947  13.919  0.9378  0.3343 -0.9484
  322MPD2    H3 4843   1.182   3.833  13.710 -1.1455  0.7979 -0.1890
  322MPD2     N 4844   1.184   3.428  13.896 -0.3044  0.0482  0.5776
  322MPD2    H5 4845   1.186   3.383  13.987  3.1673  1.0109  0.9905
  322MPD2    N1 4846   1.273   3.831  14.160 -0.5162 -0.4856 -0.0347
  322MPD2    H7 4847   1.305   3.927  14.161  0.1354 -0.7309  2.5281
  323TMC3    C1 4848   1.336   3.824  14.395  0.3164 -0.5312 -0.4402
  323TMC3    C2 4849   1.466   3.854  14.366 -0.1085 -0.5387  0.3079
  323TMC3    C3 4850   1.554   3.856  14.467 -0.2145  0.1347 -0.5962
  323TMC3    C4 4851   1.285   3.806  14.521  0.3321 -0.3513  0.1213
  323TMC3    C5 4852   1.381   3.825  14.627  0.1727 -1.0190 -0.8794
  323TMC3    C6 4853   1.515   3.849  14.597 -0.0895 -1.1347 -0.5609
  323TMC3     C 4854   1.257   3.767  14.284 -0.1571 -0.0787 -0.3896
  323TMC3     O 4855   1.174   3.687  14.314  0.8347  0.0097  0.0878
  323TMC3     H 4856   1.495   3.852  14.262 -0.3727  0.1106  0.2261
  323TMC3    H1 4857   1.181   3.779  14.535 -0.6279  2.9993 -0.5303
  323TMC3    H2 4858   1.591   3.857  14.673 -2.2894  2.2770  1.3076
  323TMC3    C7 4859   1.358   3.749  14.747  0.0378 -0.1298  0.1670
  323TMC3    C8 4860   1.691   3.813  14.441 -0.2256 -0.1036 -0.5384
  323TMC3    O1 4861   1.277   3.659  14.745 -0.5170  0.0722 -0.6652
  323TMC3    O2 4862   1.750   3.756  14.530  0.0799 -0.0356  0.3605
  324MPD2     C 4863   2.619   0.253  14.542 -0.2833  0.1852 -0.4820
  324MPD2    C1 4864   2.669   0.328  14.644 -0.3487  1.3329  0.3849
  324MPD2    C2 4865   2.585   0.359  14.746 -0.3133  0.1229 -0.0509
  324MPD2    C3 4866   2.451   0.328  14.745  0.3566  0.3435 -0.4363
  324MPD2    C4 4867   2.404   0.246  14.645 -0.1371 -0.0678  0.9855
  324MPD2    C5 4868   2.489   0.210  14.546 -0.0095  0.3479 -0.6699
  324MPD2     H 4869   2.632   0.409  14.829 -1.5438 -1.4538  1.5826
  324MPD2    H1 4870   2.310   0.193  14.654 -0.9503  1.1143 -0.4584
  324MPD2    H2 4871   2.688   0.207  14.471  0.6818  0.1227  0.5026
  324MPD2    H3 4872   2.457   0.145  14.465 -1.0970  2.2637 -1.7820
  324MPD2     N 4873   2.364   0.352  14.852  0.2289  0.0329 -0.1736
  324MPD2    H5 4874   2.272   0.308  14.851  0.0625  0.3699  0.1507
  324MPD2    N1 4875   2.808   0.371  14.652 -0.3864 -0.1624  0.7532
  324MPD2    H7 4876   2.843   0.426  14.730 -0.7390 -0.0414  0.8293
  325TMC3    C1 4877   2.282   0.409  15.059  0.5690  0.4021 -0.6254
  325TMC3    C2 4878   2.220   0.285  15.063 -0.0446  0.2355 -0.4543
  325TMC3    C3 4879   2.085   0.277  15.085 -0.2824  0.1693  0.1885
  325TMC3    C4 4880   2.226   0.521  15.098  0.0628 -0.0473  0.6444
  325TMC3    C5 4881   2.090   0.515  15.114  0.2363  0.1944 -0.5789
  325TMC3    C6 4882   2.020   0.396  15.103  0.5087 -0.1886  0.1534
  325TMC3     C 4883   2.395   0.421  14.965  0.4708  0.0113  0.2427
  325TMC3     O 4884   2.454   0.531  14.972  0.2517 -0.5443 -0.0173
  325TMC3     H 4885   2.275   0.194  15.043 -0.0490 -0.1746  1.4665
  325TMC3    H1 4886   2.266   0.621  15.082  3.2268 -1.1053  2.1079
  325TMC3    H2 4887   1.912   0.395  15.117  0.3783 -1.1535 -0.9334
  325TMC3    C7 4888   2.024   0.640  15.101  0.0217  0.7614  0.4121
  325TMC3    C8 4889   2.012   0.186  14.996  0.4888 -0.5450 -0.3630
  325TMC3    O1 4890   2.091   0.742  15.106  0.4877  0.3574 -0.1660
  325TMC3    O2 4891   2.063   0.180  14.885  0.1404  0.2072 -0.3106
  326MPD2     C 4892   4.401   0.938  11.125  0.4557  0.1981  1.2427
  326MPD2    C1 4893   4.446   1.001  11.014 -0.0665 -0.0965  1.0104
  326MPD2    C2 4894   4.524   1.107  11.028 -0.2061  0.4893 -0.1021
  326MPD2    C3 4895   4.549   1.158  11.153 -0.3127  0.5329  0.3655
  326MPD2    C4 4896   4.493   1.095  11.265 -0.6137  0.1680 -0.0448
  326MPD2    C5 4897   4.424   0.984  11.251 -0.4543 -0.1004  0.6246
  326MPD2     H 4898   4.550   1.165  10.940 -3.0264 -0.3671 -1.5175
  326MPD2    H1 4899   4.514   1.132  11.365  0.7436  0.9379 -0.6119
  326MPD2    H2 4900   4.345   0.846  11.132  1.8982 -0.8402 -0.5594
  326MPD2    H3 4901   4.395   0.924  11.336 -0.2664 -1.4184 -0.2329
  326MPD2     N 4902   4.650   1.255  11.189  0.0156 -0.4787 -0.1865
  326MPD2    H5 4903   4.664   1.288  11.283 -0.2196  0.8443 -0.6191
  326MPD2    N1 4904   4.425   0.953  10.885 -0.3847  0.3095  0.0847
  326MPD2    H7 4905   4.480   0.995  10.810  1.8511  1.1153  2.1525
  327TMC3    C1 4906   4.298   0.857  10.710 -0.0487  0.2929  0.0246
  327TMC3    C2 4907   4.228   0.971  10.685 -0.0520 -0.1626 -0.6410
  327TMC3    C3 4908   4.106   0.963  10.628 -0.0158 -0.1208  0.5050
  327TMC3    C4 4909   4.255   0.733  10.668  0.1154  0.1375  0.2407
  327TMC3    C5 4910   4.124   0.725  10.623  0.1590 -0.4568  0.0380
  327TMC3    C6 4911   4.049   0.843  10.598 -0.5950 -0.1681  0.0921
  327TMC3     C 4912   4.338   0.849  10.852 -0.4139  0.3939  0.3600
  327TMC3     O 4913   4.285   0.758  10.920 -0.0472 -0.1745 -0.3127
  327TMC3     H 4914   4.262   1.066  10.723 -1.6975 -0.4893  1.6065
  327TMC3    H1 4915   4.309   0.644  10.700 -2.0665 -1.1589  0.2880
  327TMC3    H2 4916   3.948   0.836  10.559 -0.1371  2.3066 -1.5684
  327TMC3    C7 4917   4.040   0.617  10.685 -0.1238 -0.2220  1.0060
  327TMC3    C8 4918   4.033   1.091  10.607 -0.2724 -0.4460  0.1904
  327TMC3    O1 4919   3.932   0.580  10.642  0.3401 -0.1474 -0.3598
  327TMC3    O2 4920   4.105   1.189  10.597  0.1479  0.2235 -0.1877
  328MPD2     C 4921   1.490   0.897  17.386 -0.5682  0.2959  0.1010
  328MPD2    C1 4922   1.414   0.784  17.410 -0.1398  0.4223 -0.1760
  328MPD2    C2 4923   1.299   0.757  17.334  0.1179  0.2610  0.2292
  328MPD2    C3 4924   1.249   0.846  17.241  0.3002 -0.0680 -0.1748
  328MPD2    C4 4925   1.327   0.956  17.214  0.8163 -0.9577  0.3469
  328MPD2    C5 4926   1.442   0.982  17.290  0.1887 -0.3793  0.1222
  328MPD2     H 4927   1.250   0.661  17.345 -0.7652  0.7610  0.6281
  328MPD2    H1 4928   1.308   1.032  17.140  0.6974 -2.1093 -0.8017
  328MPD2    H2 4929   1.585   0.910  17.436  0.7124 -1.2593 -1.9332
  328MPD2    H3 4930   1.501   1.069  17.263  1.0623 -1.4182 -1.2698
  328MPD2     N 4931   1.131   0.836  17.168 -0.2894 -0.6332 -0.5438
  328MPD2    H5 4932   1.108   0.909  17.102 -2.8165 -0.2135  0.7970
  328MPD2    N1 4933   1.454   0.699  17.517 -0.1563  0.5331  0.5629
  328MPD2    H7 4934   1.532   0.735  17.572 -1.3875  1.6216  1.5859
  329TMC3    C1 4935   1.469   0.516  17.669  0.1202 -0.5394 -0.0005
  329TMC3    C2 4936   1.530   0.595   0.058 -0.2142  0.7567  1.1874
  329TMC3    C3 4937   1.573   0.533   0.176  1.1231  0.0960 -0.3634
  329TMC3    C4 4938   1.435   0.389  17.697 -0.5646  0.4585 -0.3520
  329TMC3    C5 4939   1.480   0.326   0.105  0.1908 -0.0663 -0.4414
  329TMC3    C6 4940   1.562   0.398   0.195  0.3408  0.3074 -0.1820
  329TMC3     C 4941   1.409   0.572  17.549  0.2409  0.6350 -0.2751
  329TMC3     O 4942   1.342   0.501  17.480 -0.0973  0.2050  0.2815
  329TMC3     H 4943   1.557   0.699   0.041 -0.6897  1.0879  2.4457
  329TMC3    H1 4944   1.372   0.330  17.631  0.3333 -0.5795 -0.2814
  329TMC3    H2 4945   1.595   0.363   0.293 -0.2043  0.9267  0.2262
  329TMC3    C7 4946   1.426   0.196   0.127 -0.2813  0.0109  0.0949
  329TMC3    C8 4947   1.639   0.603   0.287 -0.0487 -0.4194  0.2121
  329TMC3    O1 4948   1.397   0.132   0.025  0.4833  0.0028  0.2003
  329TMC3    O2 4949   1.726   0.535   0.343  0.0728  0.5683 -0.9996
  330TMC3    C1 4950   0.092   4.631   9.378  0.6179  0.0002  0.5248
  330TMC3    C2 4951   0.004   4.530   9.383 -0.1886  0.3300 -0.5402
  330TMC3    C3 4952   0.053   4.404   9.346 -0.0020  0.0136  0.3037
  330TMC3    C4 4953   0.213   4.617   9.319  0.8955  0.4131 -0.5771
  330TMC3    C5 4954   0.257   4.493   9.286 -0.4932  0.4813 -0.3834
  330TMC3    C6 4955   0.182   4.384   9.302  0.9653 -0.2786  0.0346
  330TMC3     C 4956   0.069   0.033   9.432  0.2704  0.3080  0.3531
  330TMC3     O 4957   0.159   0.115   9.438  0.4233 -0.2738 -0.3205
  330TMC3     H 4958   4.628   4.550   9.415  0.4144  2.1034  0.2887
  330TMC3    H1 4959   0.282   4.701   9.317  0.0056  1.1889  1.1241
  330TMC3    H2 4960   0.210   4.285   9.268  1.2327 -0.1600 -0.0874
  330TMC3    C7 4961   0.397   4.481   9.252 -0.3055 -0.3937  0.3699
  330TMC3    C8 4962   4.690   4.284   9.354  0.3851 -0.1306  0.5538
  330TMC3    O1 4963   0.442   4.366   9.266  0.1521  0.0732 -0.0372
  330TMC3    O2 4964   0.000   4.177   9.302 -0.4269  0.3552  0.1479
  331MPD2     C 4965   1.877   4.029  12.826  0.1069 -0.5332  0.3147
  331MPD2    C1 4966   1.983   4.057  12.743 -0.1364  0.0906  0.0220
  331MPD2    C2 4967   2.034   3.956  12.667  0.2864  0.2371 -0.1316
  331MPD2    C3 4968   1.981   3.826  12.662 -0.3966  0.1003 -0.0441
  331MPD2    C4 4969   1.876   3.799  12.757 -1.1289  0.5435  0.6093
  331MPD2    C5 4970   1.823   3.901  12.828  0.3241 -0.4267  0.6432
  331MPD2     H 4971   2.122   3.974  12.606 -0.4959 -1.2320 -1.7036
  331MPD2    H1 4972   1.830   3.703  12.778 -1.4365  0.2589 -1.3610
  331MPD2    H2 4973   1.837   4.110  12.885 -1.4641  0.0434 -1.5214
  331MPD2    H3 4974   1.743   3.875  12.897 -1.0367  0.1775 -0.7249
  331MPD2     N 4975   2.058   3.739  12.587  0.5635 -0.0657 -0.2086
  331MPD2    H5 4976   2.117   3.782  12.516  0.4390  1.0640  0.3740
  331MPD2    N1 4977   2.035   4.193  12.740  0.3027 -0.0116  0.5904
  331MPD2    H7 4978   1.984   4.258  12.799 -0.7519  1.6571 -2.1676
  332TMC3    C1 4979   2.176   3.544  12.529 -0.1855  0.1871 -0.0678
  332TMC3    C2 4980   2.220   3.610  12.414 -0.5521  0.6956 -0.1924
  332TMC3    C3 4981   2.352   3.590  12.380  0.6592  0.0331 -0.0054
  332TMC3    C4 4982   2.248   3.439  12.583  0.3304  0.3889 -0.1559
  332TMC3    C5 4983   2.378   3.413  12.543  0.2149  0.1112  0.5747
  332TMC3    C6 4984   2.432   3.493  12.446 -0.2405  0.4441  0.1359
  332TMC3     C 4985   2.069   3.602  12.609  0.0485 -0.2753 -0.0482
  332TMC3     O 4986   2.000   3.529  12.682 -0.0201 -0.4479  0.2300
  332TMC3     H 4987   2.163   3.687  12.364 -1.5107  0.6676  0.8856
  332TMC3    H1 4988   2.220   3.390  12.676  2.6762 -0.8815 -0.1220
  332TMC3    H2 4989   2.535   3.479  12.415  0.2448  1.0893  1.4104
  332TMC3    C7 4990   2.466   3.351  12.641  0.4027 -0.0573 -0.3780
  332TMC3    C8 4991   2.419   3.660  12.273 -0.1779 -0.4434  0.6155
  332TMC3    O1 4992   2.411   3.264  12.704  0.4446  0.5067  0.5369
  332TMC3    O2 4993   2.538   3.669  12.288 -0.5615  0.1964 -0.2802
  333MPD2     C 4994   2.116   4.143  11.436 -0.4296  0.1543 -0.4244
  333MPD2    C1 4995   2.217   4.069  11.481 -0.1316  0.2478  0.2404
  333MPD2    C2 4996   2.182   3.961  11.553 -0.4105 -0.1299  0.0462
  333MPD2    C3 4997   2.047   3.926  11.586  0.0785  0.6635  0.2824
  333MPD2    C4 4998   1.951   4.023  11.557 -0.3490 -0.1258 -0.5333
  333MPD2    C5 4999   1.988   4.134  11.485 -0.7735  0.1612  0.3501
  333MPD2     H 5000   2.268   3.907  11.591  0.0870 -0.9865 -2.3182
  333MPD2    H1 5001   1.845   4.012  11.576  0.0006 -1.4517  0.6183
  333MPD2    H2 5002   2.119   4.226  11.366  0.2323  2.1778  1.9897
  333MPD2    H3 5003   1.905   4.186  11.440 -1.5895 -1.3958  0.0648
  333MPD2     N 5004   2.024   3.802  11.658 -0.5673 -0.8753 -0.1883
  333MPD2    H5 5005   2.100   3.735  11.662 -0.6213 -0.9007  0.3384
  333MPD2    N1 5006   2.349   4.100  11.437  0.0859 -0.4077  0.4360
  333MPD2    H7 5007   2.360   4.195  11.404 -0.3745 -0.0067  1.4558
  334TMC3    C1 5008   2.580   4.082  11.375  0.0329 -0.3781  0.3228
  334TMC3    C2 5009   2.688   4.001  11.384  1.0560  0.1272 -0.2613
  334TMC3    C3 5010   2.789   4.034  11.301 -0.1684 -0.0854 -0.3110
  334TMC3    C4 5011   2.564   4.187  11.295 -0.4796 -0.7081  0.0649
  334TMC3    C5 5012   2.672   4.224  11.217 -0.3754 -0.6359 -0.7081
  334TMC3    C6 5013   2.788   4.153  11.220  0.0299  0.2595  0.2187
  334TMC3     C 5014   2.460   4.025  11.453 -0.3732  0.0162 -0.8097
  334TMC3     O 5015   2.475   3.926  11.524  0.5658  0.4547 -0.3304
  334TMC3     H 5016   2.699   3.913  11.446  0.5460  2.2621  2.8535
  334TMC3    H1 5017   2.472   4.244  11.302  0.6558  1.1355 -0.0762
  334TMC3    H2 5018   2.871   4.176  11.155 -0.4894 -0.3607 -0.6789
  334TMC3    C7 5019   2.705   4.362  11.197 -0.4566  0.3673 -0.2947
  334TMC3    C8 5020   2.913   3.949  11.313 -0.3082  0.3543  0.3835
  334TMC3    O1 5021   2.818   4.402  11.219 -0.2607  0.2731  0.1075
  334TMC3    O2 5022   2.915   3.846  11.378 -0.0317 -0.3356  0.1292
  335TMC3    C1 5023   2.128   1.163   0.180  0.8844 -0.5338  0.3285
  335TMC3    C2 5024   2.032   1.066   0.187 -0.1493  0.5451 -0.0921
  335TMC3    C3 5025   2.039   0.953   0.106 -0.2580  0.3129  0.4355
  335TMC3    C4 5026   2.238   1.147   0.099 -0.2884 -0.0806 -0.1007
  335TMC3    C5 5027   2.247   1.030   0.032 -0.2580 -0.1768  0.3850
  335TMC3    C6 5028   2.149   0.929   0.026 -0.3348 -0.7033 -0.2230
  335TMC3     C 5029   2.158   1.239   0.303 -0.1261  0.3487  0.8916
  335TMC3     O 5030   2.221   1.341   0.298  0.0947  0.1433  0.1653
  335TMC3     H 5031   1.934   1.093   0.225 -0.9807 -0.6087 -1.3815
  335TMC3    H1 5032   2.315   1.221   0.089 -0.6735  0.3680  0.2405
  335TMC3    H2 5033   2.169   0.838  17.675  0.8244 -0.4308 -0.2536
  335TMC3    C7 5034   2.341   1.040  17.634  0.0580 -0.4535  0.2233
  335TMC3    C8 5035   1.920   0.900   0.048  0.0988 -0.4378  0.4469
  335TMC3    O1 5036   2.441   1.113  17.654 -0.1509  0.1267  0.3822
  335TMC3    O2 5037   1.830   0.979   0.013  0.0463 -0.0311  0.2432
  336MPD2     C 5038   1.867   3.302  16.422 -0.5956 -0.0246 -0.2347
  336MPD2    C1 5039   1.819   3.229  16.315  0.3424 -0.5249  0.4271
  336MPD2    C2 5040   1.847   3.094  16.311 -0.0524  0.9568 -0.4478
  336MPD2    C3 5041   1.905   3.032  16.421  0.4389 -0.8917  0.4867
  336MPD2    C4 5042   1.925   3.108  16.542  0.8631 -0.2018  0.0432
  336MPD2    C5 5043   1.901   3.243  16.537 -0.3044 -0.0298 -0.3762
  336MPD2     H 5044   1.814   3.038  16.224  1.4629 -0.7985  0.1113
  336MPD2    H1 5045   1.973   3.069  16.631  1.5095  0.0809 -0.1843
  336MPD2    H2 5046   1.844   3.408  16.421 -1.3306 -0.1882 -3.5873
  336MPD2    H3 5047   1.912   3.300  16.629 -2.2418 -0.7657  0.3144
  336MPD2     N 5048   1.927   2.890  16.423  0.5254 -0.2354  0.2061
  336MPD2    H5 5049   1.958   2.849  16.510  2.6746  0.2065 -0.3456
  336MPD2    N1 5050   1.772   3.283  16.197 -0.1394  0.3599  0.1110
  336MPD2    H7 5051   1.734   3.214  16.133 -0.4185  2.6891 -2.2395
  337TMC3    C1 5052   1.709   3.443  16.036 -0.0726  0.1382  0.4139
  337TMC3    C2 5053   1.596   3.369  16.008  0.2843  0.3865 -0.1592
  337TMC3    C3 5054   1.514   3.405  15.902  0.7815 -0.1563  0.2058
  337TMC3    C4 5055   1.739   3.551  15.956  0.3445  0.0923 -0.0275
  337TMC3    C5 5056   1.653   3.593  15.859  0.3609  0.1613 -0.5012
  337TMC3    C6 5057   1.542   3.516  15.824  0.7672 -0.4986 -0.3182
  337TMC3     C 5058   1.777   3.418  16.158  0.2638  0.4205  0.2830
  337TMC3     O 5059   1.832   3.511  16.212  0.1006  0.6343 -0.1836
  337TMC3     H 5060   1.569   3.286  16.073  1.7863 -0.4433 -0.5858
  337TMC3    H1 5061   1.833   3.602  15.974  0.5804 -0.6824  0.9263
  337TMC3    H2 5062   1.475   3.554  15.748  0.0944  0.3599  0.6809
  337TMC3    C7 5063   1.696   3.705  15.771  0.2559  0.6856  0.2080
  337TMC3    C8 5064   1.388   3.332  15.896 -0.3600 -0.5183 -0.1345
  337TMC3    O1 5065   1.815   3.740  15.772 -0.2848 -0.3457 -0.0596
  337TMC3    O2 5066   1.378   3.225  15.951  0.2037 -0.9190  0.2951
  338MPD2     C 5067   1.688   3.020   1.311  0.0404 -0.2132 -0.2792
  338MPD2    C1 5068   1.729   3.037   1.183  0.4277 -0.2778  0.2684
  338MPD2    C2 5069   1.646   3.011   1.076  0.3457 -0.1466 -0.5106
  338MPD2    C3 5070   1.516   2.968   1.097 -0.0453 -0.2789 -0.8048
  338MPD2    C4 5071   1.474   2.956   1.234 -0.3680  0.1837  0.3326
  338MPD2    C5 5072   1.562   2.979   1.335 -0.2145  0.4937 -0.2365
  338MPD2     H 5073   1.690   3.010   0.978  0.7899  1.8592 -0.3275
  338MPD2    H1 5074   1.375   2.921   1.259 -0.1260 -0.2177  0.7361
  338MPD2    H2 5075   1.755   3.028   1.396 -1.7244  1.9345  0.9030
  338MPD2    H3 5076   1.531   2.949   1.434 -1.8612  2.9709  0.0002
  338MPD2     N 5077   1.437   2.922   0.985  0.0629 -0.1729  0.0572
  338MPD2    H5 5078   1.473   2.942   0.892 -3.1865  0.8635 -0.9744
  338MPD2    N1 5079   1.860   3.055   1.142 -0.0051  0.8805 -0.0567
  338MPD2    H7 5080   1.880   3.031   1.045 -1.9534 -1.9732  0.2469
  339TMC3    C1 5081   1.251   2.813   0.880  0.1593 -0.6152  0.2990
  339TMC3    C2 5082   1.222   2.675   0.900  0.2937  0.4306  0.3922
  339TMC3    C3 5083   1.284   2.586   0.810  0.7667  1.0566  0.0071
  339TMC3    C4 5084   1.328   2.852   0.771  0.1044  0.5419  0.4507
  339TMC3    C5 5085   1.372   2.756   0.682  0.3429  0.3196 -0.0015
  339TMC3    C6 5086   1.354   2.624   0.698  0.0399  0.5528  0.1360
  339TMC3     C 5087   1.310   2.871   1.003 -0.5003 -0.5890  0.4214
  339TMC3     O 5088   1.254   2.820   1.101  0.0775 -0.4966  0.1152
  339TMC3     H 5089   1.162   2.647   0.986  1.1677  0.7286  1.1023
  339TMC3    H1 5090   1.355   2.956   0.755 -0.1727  0.2902 -1.6430
  339TMC3    H2 5091   1.398   2.556   0.626 -0.8430 -0.9445  1.0139
  339TMC3    C7 5092   1.502   2.795   0.634  0.8658  0.3284  0.6230
  339TMC3    C8 5093   1.304   2.451   0.848 -0.1997  0.4173 -0.2120
  339TMC3    O1 5094   1.570   2.875   0.703  0.4862  0.0802 -0.7342
  339TMC3    O2 5095   1.337   2.374   0.757 -0.6781  0.5625  0.3984
  340MPD2     C 5096   2.233   0.599  10.709 -0.3589 -0.1338  0.9411
  340MPD2    C1 5097   2.313   0.613  10.596 -0.6375 -0.1891 -0.2380
  340MPD2    C2 5098   2.416   0.704  10.595 -0.7245  0.7714 -0.4469
  340MPD2    C3 5099   2.457   0.760  10.714  0.0581  0.0200 -0.4502
  340MPD2    C4 5100   2.384   0.740  10.826  0.2367 -0.9355  0.9125
  340MPD2    C5 5101   2.275   0.652  10.819  0.1453 -0.6018  0.7807
  340MPD2     H 5102   2.476   0.723  10.507  2.6238  0.0195  1.6727
  340MPD2    H1 5103   2.419   0.782  10.920  1.8986  2.0452 -1.0338
  340MPD2    H2 5104   2.152   0.527  10.708 -2.0027  1.7372 -1.2342
  340MPD2    H3 5105   2.222   0.623  10.909 -1.9642 -1.6620 -0.8022
  340MPD2     N 5106   2.566   0.853  10.723  0.2891  0.3802 -0.0976
  340MPD2    H5 5107   2.580   0.902  10.811 -2.5165  0.8601  0.0686
  340MPD2    N1 5108   2.284   0.536  10.484  0.1611 -0.2154 -0.0376
  340MPD2    H7 5109   2.205   0.475  10.501  0.5056 -1.3390 -2.4596
  341TMC3    C1 5110   2.307   0.422  10.274 -0.5861  0.4210 -0.0162
  341TMC3    C2 5111   2.249   0.308  10.322 -0.4669 -0.4540  0.2459
  341TMC3    C3 5112   2.226   0.205  10.231  0.4284  0.5257 -0.8092
  341TMC3    C4 5113   2.347   0.435  10.144  0.4321  0.0766 -0.1993
  341TMC3    C5 5114   2.315   0.333  10.059 -0.3497  0.1744 -0.5913
  341TMC3    C6 5115   2.256   0.214  10.100 -0.2098  0.1635 -0.1857
  341TMC3     C 5116   2.358   0.522  10.370  0.4578  0.5509 -0.6114
  341TMC3     O 5117   2.459   0.582  10.333 -0.0840  0.1326 -0.3542
  341TMC3     H 5118   2.227   0.298  10.428 -0.7184 -0.7688  0.1632
  341TMC3    H1 5119   2.386   0.529  10.108 -0.0152  1.3956  2.7286
  341TMC3    H2 5120   2.224   0.146  10.023 -1.2473  0.6900 -0.2181
  341TMC3    C7 5121   2.344   0.347   9.919 -0.1357  0.0780  0.0034
  341TMC3    C8 5122   2.226   0.067  10.284 -0.0245 -0.3844 -0.2459
  341TMC3    O1 5123   2.257   0.323   9.838  0.6049 -0.9284 -0.0056
  341TMC3    O2 5124   2.143   4.715  10.237 -0.2386  0.1547  0.0007
  342MPD2     C 5125   0.283   3.798   0.437 -0.1306 -0.5402  0.3067
  342MPD2    C1 5126   0.392   3.796   0.353 -0.4891  0.2160 -0.1268
  342MPD2    C2 5127   0.467   3.913   0.335 -0.0585 -0.0291 -0.3197
  342MPD2    C3 5128   0.429   4.027   0.408  0.1258 -0.2786 -0.0432
  342MPD2    C4 5129   0.317   4.024   0.484  0.2011 -0.5134  0.5432
  342MPD2    C5 5130   0.243   3.914   0.501  0.4532 -0.2323 -0.1723
  342MPD2     H 5131   0.550   3.912   0.265  1.5169 -0.9035  1.5505
  342MPD2    H1 5132   0.279   4.115   0.530  0.2059 -0.9352  1.3840
  342MPD2    H2 5133   0.224   3.708   0.454 -0.8412  0.2689  2.1434
  342MPD2    H3 5134   0.152   3.905   0.558  0.8037  2.3190  0.7798
  342MPD2     N 5135   0.498   4.150   0.408 -0.0622  0.2278 -0.5995
  342MPD2    H5 5136   0.481   4.209   0.489 -2.3354  0.0777 -0.9669
  342MPD2    N1 5137   0.433   3.688   0.276 -0.2201 -0.1240  0.6625
  342MPD2    H7 5138   0.508   3.706   0.210  1.7054 -2.4841  2.1987
  343TMC3    C1 5139   0.436   3.460   0.187  0.2078 -0.4511  0.5550
  343TMC3    C2 5140   0.562   3.470   0.150  0.1764 -0.0578 -0.2792
  343TMC3    C3 5141   0.605   3.403   0.038  0.2394  0.3901  0.6575
  343TMC3    C4 5142   0.349   3.398   0.107  0.3950 -0.2553 -0.8198
  343TMC3    C5 5143   0.389   3.329  17.704 -0.3325  0.3919 -0.8179
  343TMC3    C6 5144   0.517   3.329  17.660  0.0732 -0.0858 -0.3340
  343TMC3     C 5145   0.371   3.562   0.267 -0.5737  0.1980  0.6809
  343TMC3     O 5146   0.282   3.521   0.340 -0.2067 -0.3640 -0.1981
  343TMC3     H 5147   0.637   3.493   0.225 -0.0290  1.0833 -0.4104
  343TMC3    H1 5148   0.244   3.402   0.133  0.6527  0.4883  0.1069
  343TMC3    H2 5149   0.554   3.269  17.577  0.8725  0.3932 -0.3246
  343TMC3    C7 5150   0.293   3.252  17.627 -0.3353 -0.4571  0.0025
  343TMC3    C8 5151   0.749   3.405   0.003  0.1613  0.4186  0.3323
  343TMC3    O1 5152   0.189   3.211  17.677  0.0736  0.1690 -0.1443
  343TMC3    O2 5153   0.820   3.471   0.083  0.0531 -0.1212 -0.4724
  344MPD2     C 5154   1.346   3.864  11.270  0.2367  0.0379 -0.4907
  344MPD2    C1 5155   1.329   3.759  11.184 -0.5543 -0.6254 -0.6725
  344MPD2    C2 5156   1.330   3.778  11.045  0.5300  0.0870 -0.3258
  344MPD2    C3 5157   1.332   3.909  10.995 -0.0681  0.5568  0.5898
  344MPD2    C4 5158   1.336   4.016  11.079  0.1926 -0.3366  0.4115
  344MPD2    C5 5159   1.347   3.992  11.212  0.1289  0.5626  0.2712
  344MPD2     H 5160   1.325   3.688  10.986  0.3796  0.3600 -0.7269
  344MPD2    H1 5161   1.329   4.118  11.044 -0.7350 -0.9713 -1.2421
  344MPD2    H2 5162   1.342   3.860  11.379  0.8800 -1.5036 -0.5301
  344MPD2    H3 5163   1.352   4.083  11.271  2.1067  0.1046  0.7966
  344MPD2     N 5164   1.350   3.935  10.858 -0.1605  0.6906 -0.7285
  344MPD2    H5 5165   1.369   4.030  10.830  2.0029  0.6041  0.3860
  344MPD2    N1 5166   1.313   3.631  11.226 -0.2606  0.3593  0.2243
  344MPD2    H7 5167   1.289   3.569  11.150  0.6475  0.4940 -0.1697
  345TMC3    C1 5168   1.382   3.906  10.629  0.5283 -0.4479  0.2077
  345TMC3    C2 5169   1.494   3.986  10.641  0.3459 -0.3777  0.3542
  345TMC3    C3 5170   1.534   4.039  10.527 -0.2773  0.3928 -0.3390
  345TMC3    C4 5171   1.308   3.881  10.510 -0.4252 -1.0402 -0.7995
  345TMC3    C5 5172   1.358   3.943  10.397 -0.0727  0.4818  0.1283
  345TMC3    C6 5173   1.474   4.010  10.407  0.3930  0.1382 -0.0523
  345TMC3     C 5174   1.325   3.852  10.752  0.2288  0.0261 -0.0047
  345TMC3     O 5175   1.269   3.743  10.751 -0.0472 -0.0519  0.6218
  345TMC3     H 5176   1.544   4.001  10.736  3.1543  1.2430 -1.3556
  345TMC3    H1 5177   1.213   3.831  10.501 -1.0482 -0.3533  2.1242
  345TMC3    H2 5178   1.518   4.049  10.316  0.4339  1.9036  0.7281
  345TMC3    C7 5179   1.266   4.012  10.313 -0.1795 -0.0672 -0.6572
  345TMC3    C8 5180   1.621   4.161  10.535 -0.5137  0.5045 -0.2430
  345TMC3    O1 5181   1.305   4.120  10.274 -0.5051 -0.4093  0.5280
  345TMC3    O2 5182   1.597   4.245  10.448  0.1895 -0.0858 -0.5152
  346MPD2     C 5183   1.494   0.139  14.544  0.4845 -0.1056 -0.3148
  346MPD2    C1 5184   1.468   0.263  14.488  0.0347  0.0197 -0.2388
  346MPD2    C2 5185   1.381   0.354  14.557 -0.0988  0.3177 -0.3787
  346MPD2    C3 5186   1.330   0.323  14.676  0.0019  0.0411  0.3851
  346MPD2    C4 5187   1.348   0.197  14.731  0.0689 -0.5992  0.1352
  346MPD2    C5 5188   1.433   0.112  14.665  0.3297  0.3028  0.1829
  346MPD2     H 5189   1.346   0.448  14.515 -0.9872  0.4272  0.5973
  346MPD2    H1 5190   1.313   0.169  14.829 -1.6058 -3.1013 -1.1670
  346MPD2    H2 5191   1.559   0.067  14.497  2.8331  1.4972  0.4760
  346MPD2    H3 5192   1.441   0.009  14.695 -2.2450 -0.2794 -1.1759
  346MPD2     N 5193   1.247   0.419  14.746 -0.3442 -0.0335 -0.3525
  346MPD2    H5 5194   1.227   0.512  14.709  1.7958  0.7587  0.4713
  346MPD2    N1 5195   1.527   0.306  14.367  0.4087  0.2495 -0.0880
  346MPD2    H7 5196   1.505   0.404  14.349 -1.6365 -0.1974 -0.0826
  347TMC3    C1 5197   1.113   0.520  14.915 -0.0475  0.6265  0.5727
  347TMC3    C2 5198   1.187   0.635  14.911  0.1718  0.0412  0.4434
  347TMC3    C3 5199   1.206   0.706  15.027 -0.5140 -0.5469 -0.8805
  347TMC3    C4 5200   1.045   0.490  15.023 -0.3825 -0.1878 -0.4334
  347TMC3    C5 5201   1.070   0.552  15.142  0.1111 -1.0307  0.3164
  347TMC3    C6 5202   1.154   0.659  15.144 -0.6196 -0.1243 -0.2768
  347TMC3     C 5203   1.175   0.402  14.864  0.2038  0.9527  0.0913
  347TMC3     O 5204   1.151   0.297  14.919 -0.0055 -0.4250  0.6119
  347TMC3     H 5205   1.246   0.664  14.825 -1.5368 -0.1503 -0.7836
  347TMC3    H1 5206   0.991   0.396  15.033 -2.6486  1.0914 -0.5427
  347TMC3    H2 5207   1.178   0.707  15.238  1.7843 -0.4949 -0.6835
  347TMC3    C7 5208   1.086   0.465  15.256  0.2436 -0.0661 -0.3171
  347TMC3    C8 5209   1.318   0.802  15.047  1.0810  0.0784 -0.7930
  347TMC3    O1 5210   1.045   0.509  15.366  0.1438 -0.1225 -0.0324
  347TMC3    O2 5211   1.307   0.904  15.112  0.4798 -0.4453  0.2972
  348MPD2     C 5212   4.543   4.715  12.656  0.1322 -0.4522 -0.5863
  348MPD2    C1 5213   4.652   0.045  12.587 -0.0095 -0.0355 -0.7767
  348MPD2    C2 5214   4.627   0.146  12.491  0.5324 -0.3722  0.5514
  348MPD2    C3 5215   4.504   0.189  12.462  0.4438  0.1868  0.4233
  348MPD2    C4 5216   4.397   0.139  12.532 -0.6513 -0.5490 -0.8508
  348MPD2    C5 5217   4.419   0.038  12.622  0.7612  0.3615  0.2563
  348MPD2     H 5218   4.714   0.196  12.451 -0.7801  2.2440  0.9579
  348MPD2    H1 5219   4.297   0.179  12.525 -0.5228 -0.1660 -0.5181
  348MPD2    H2 5220   4.550   4.646  12.739  1.1188  1.3249  0.7998
  348MPD2    H3 5221   4.330   4.724  12.670  0.2729  1.4018  0.2114
  348MPD2     N 5222   4.474   0.270  12.346 -0.3587 -0.2312  0.2541
  348MPD2    H5 5223   4.378   0.272  12.312 -0.2298 -1.4764 -0.1752
  348MPD2    N1 5224   0.061   0.004  12.610  0.0072 -0.0621 -0.4020
  348MPD2    H7 5225   0.132   0.052  12.555 -1.3175  0.9474 -1.2299
  349TMC3    C1 5226   0.231   4.584  12.628  0.2445  0.6142  0.5989
  349TMC3    C2 5227   0.249   4.453  12.664 -0.1088  0.5281  0.2115
  349TMC3    C3 5228   0.304   4.371  12.572  0.9571 -0.3344 -0.4049
  349TMC3    C4 5229   0.298   4.649  12.524 -0.1250 -0.1038  0.0687
  349TMC3    C5 5230   0.334   4.557  12.426  0.0233 -0.0565 -1.3095
  349TMC3    C6 5231   0.340   4.424  12.447  0.5092  0.3567  0.2555
  349TMC3     C 5232   0.101   4.619  12.667  0.5582  0.1378  0.2334
  349TMC3     O 5233   0.037   4.538  12.733  0.3173  0.0072 -0.2943
  349TMC3     H 5234   0.210   4.406  12.754  0.5035 -0.0325  0.1741
  349TMC3    H1 5235   0.293   0.028  12.497  1.6367 -0.4362 -1.4961
  349TMC3    H2 5236   0.381   4.354  12.375  0.1622 -1.7918  2.1565
  349TMC3    C7 5237   0.306   4.605  12.287  0.2752 -0.0637  0.0875
  349TMC3    C8 5238   0.301   4.222  12.597  0.0811 -0.2630  0.4769
  349TMC3    O1 5239   0.258   4.522  12.207  0.6894 -0.3789  0.1740
  349TMC3    O2 5240   0.307   4.192  12.714  0.0756  0.0665 -0.1941
  350MPD2     C 5241   4.278   1.800  10.497  0.3405 -0.2324  0.1920
  350MPD2    C1 5242   4.310   1.900  10.407 -0.0640 -0.3761  0.0204
  350MPD2    C2 5243   4.245   2.019  10.425 -0.4633 -0.1263 -0.0470
  350MPD2    C3 5244   4.146   2.041  10.522 -0.7313  0.9702  0.3280
  350MPD2    C4 5245   4.128   1.935  10.616 -0.3311 -0.5024  0.0549
  350MPD2    C5 5246   4.190   1.817  10.599 -0.7197 -0.2135  0.5862
  350MPD2     H 5247   4.279   2.102  10.364 -0.2378 -0.6718 -0.6716
  350MPD2    H1 5248   4.059   1.940  10.699  0.3415  0.2501  0.5646
  350MPD2    H2 5249   4.323   1.701  10.500  1.9992  0.5007 -0.5161
  350MPD2    H3 5250   4.179   1.737  10.672  1.2772  0.1338  1.2778
  350MPD2     N 5251   4.077   2.162  10.530  0.1833  0.0655  0.1308
  350MPD2    H5 5252   4.097   2.235  10.462 -2.0580  0.0368 -0.5680
  350MPD2    N1 5253   4.409   1.888  10.299  0.3344 -0.1963  0.3814
  350MPD2    H7 5254   4.422   1.972  10.243 -1.0580 -0.3839 -0.2003
  351TMC3    C1 5255   4.583   1.788  10.167  0.5341  0.4291  0.1890
  351TMC3    C2 5256   4.666   1.683  10.140  0.5067 -0.1142 -0.4405
  351TMC3    C3 5257   0.052   1.705  10.061  0.0324 -0.3647  0.2047
  351TMC3    C4 5258   4.610   1.918  10.121 -0.0777  0.1851  0.1736
  351TMC3    C5 5259   0.005   1.938  10.054 -0.4521 -0.2449  0.2719
  351TMC3    C6 5260   0.083   1.831  10.019  0.4892  0.3953  0.5984
  351TMC3     C 5261   4.476   1.769  10.265  0.3087  0.2578  0.7148
  351TMC3     O 5262   4.463   1.655  10.306 -0.3660 -0.0591 -0.1198
  351TMC3     H 5263   4.659   1.590  10.196 -3.1154 -0.9095 -2.2153
  351TMC3    H1 5264   4.533   1.992  10.140  1.0572  0.8610  2.0736
  351TMC3    H2 5265   0.151   1.853   9.937 -0.2947  2.0772  0.3831
  351TMC3    C7 5266   0.047   2.074  10.029 -0.6376  0.1287  0.0335
  351TMC3    C8 5267   0.142   1.591  10.032  0.7117  0.0134 -0.8505
  351TMC3    O1 5268   0.167   2.101  10.040 -0.4067 -0.6043  0.8072
  351TMC3    O2 5269   0.109   1.475  10.043  0.0627 -0.4564 -0.1013
  352MPD2     C 5270   2.176   0.303   1.492  0.1400  0.2467 -0.6615
  352MPD2    C1 5271   2.054   0.356   1.534  0.3785 -0.0338  0.4088
  352MPD2    C2 5272   2.017   0.339   1.671 -0.5488  0.2639 -0.2124
  352MPD2    C3 5273   2.101   0.260   1.757 -0.4664 -0.6570 -0.0337
  352MPD2    C4 5274   2.221   0.211   1.712 -0.0009 -0.1554 -0.2988
  352MPD2    C5 5275   2.255   0.224   1.576  0.1537  0.0776  0.5172
  352MPD2     H 5276   1.918   0.363   1.709 -0.7949  3.8888 -3.1965
  352MPD2    H1 5277   2.290   0.160   1.778  0.6105 -0.4744 -1.1719
  352MPD2    H2 5278   2.207   0.325   1.390 -0.6116  0.5993 -0.8119
  352MPD2    H3 5279   2.356   0.199   1.547  0.4565  1.0878  0.7064
  352MPD2     N 5280   2.061   0.240   1.891 -0.0751  0.4132 -0.4742
  352MPD2    H5 5281   2.119   0.173   1.940  0.2278  1.7786  1.0472
  352MPD2    N1 5282   1.980   0.430   1.444  0.0911 -0.2278  0.0522
  352MPD2    H7 5283   2.017   0.450   1.351  2.5048  1.7555  1.4406
  353TMC3    C1 5284   1.912   0.216   2.058  0.1139 -0.0944 -0.4623
  353TMC3    C2 5285   1.991   0.194   2.163  0.0743 -0.5725 -0.7297
  353TMC3    C3 5286   1.934   0.112   2.261  1.0453  0.1607 -0.8495
  353TMC3    C4 5287   1.781   0.173   2.039 -0.1643  0.4094  0.3850
  353TMC3    C5 5288   1.733   0.094   2.141 -0.4407  0.5571 -0.2599
  353TMC3    C6 5289   1.811   0.056   2.245  0.7378  1.0112 -0.6192
  353TMC3     C 5290   1.957   0.302   1.953 -0.5644 -1.0419 -0.5322
  353TMC3     O 5291   1.872   0.377   1.910  0.3182  0.1920  0.7288
  353TMC3     H 5292   2.097   0.218   2.167  0.0699 -0.7893  0.6271
  353TMC3    H1 5293   1.731   0.194   1.945  0.0625 -1.0631 -0.0598
  353TMC3    H2 5294   1.776   4.709   2.318 -0.0535 -0.1899 -2.2112
  353TMC3    C7 5295   1.610   0.021   2.120 -0.1793 -0.0246  0.3442
  353TMC3    C8 5296   2.019   0.062   2.360  0.4535 -0.3094 -0.4279
  353TMC3    O1 5297   1.594   4.638   2.174  0.0817  0.3085  0.2510
  353TMC3    O2 5298   2.100   0.142   2.411  0.2120 -0.0134 -0.0784
  354TMC3    C1 5299   3.823   1.127  13.809  0.5200 -0.8832  0.4711
  354TMC3    C2 5300   3.767   1.243  13.758  0.1634  0.5461  0.0152
  354TMC3    C3 5301   3.813   1.303  13.649  0.2043  0.2776 -0.1015
  354TMC3    C4 5302   3.916   1.063  13.729 -0.6173  0.1873 -0.5455
  354TMC3    C5 5303   3.944   1.115  13.602 -0.0510  0.2136  0.5484
  354TMC3    C6 5304   3.904   1.241  13.569  0.2146 -0.1797  0.4904
  354TMC3     C 5305   3.827   1.114  13.956  0.1545  0.0679 -0.1483
  354TMC3     O 5306   3.870   1.008  14.005  0.5539 -0.3534 -0.2297
  354TMC3     H 5307   3.688   1.286  13.820  0.8265  1.5145  0.1862
  354TMC3    H1 5308   3.986   0.992  13.772  0.2729  1.5815  0.3348
  354TMC3    H2 5309   3.938   1.280  13.473  1.5974 -3.9467 -0.5640
  354TMC3    C7 5310   4.077   1.072  13.545  0.0265  0.0946 -0.4117
  354TMC3    C8 5311   3.752   1.429  13.600  0.5352 -0.5529  0.3779
  354TMC3    O1 5312   4.150   1.025  13.628 -0.0349  0.6290 -0.2038
  354TMC3    O2 5313   3.669   1.480  13.673  0.4664 -0.4146  0.1895
  355MPD2     C 5314   4.031   2.073  11.672  0.5781 -0.1427  0.4962
  355MPD2    C1 5315   4.110   2.133  11.574  0.4830  1.0825  0.1969
  355MPD2    C2 5316   4.236   2.167  11.614  0.3026 -0.0104  0.4636
  355MPD2    C3 5317   4.289   2.147  11.740  0.1035 -0.4351 -0.3782
  355MPD2    C4 5318   4.206   2.085  11.829 -0.3191 -0.2914  0.3615
  355MPD2    C5 5319   4.080   2.046  11.798  1.1147  0.0237 -0.2418
  355MPD2     H 5320   4.301   2.210  11.539 -1.0247 -1.1672 -1.3425
  355MPD2    H1 5321   4.240   2.052  11.927  0.8150 -1.9914 -0.6025
  355MPD2    H2 5322   3.926   2.053  11.659  0.2131  3.0263 -1.4442
  355MPD2    H3 5323   4.019   1.997  11.874  1.9656  1.2757  1.2552
  355MPD2     N 5324   4.411   2.198  11.781  0.2124 -0.2619  0.2491
  355MPD2    H5 5325   4.437   2.210  11.879 -0.0126 -1.9383  0.5222
  355MPD2    N1 5326   4.046   2.140  11.443  0.1776 -0.3035  0.2044
  355MPD2    H7 5327   3.956   2.091  11.442 -0.0956  0.2478 -2.6661
  356TMC3    C1 5328   4.626   2.302  11.733  0.1753  0.3348  0.3436
  356TMC3    C2 5329   4.697   2.370  11.640  0.1083  0.1641  0.0598
  356TMC3    C3 5330   0.055   2.466  11.685  0.9132  0.3120 -0.0008
  356TMC3    C4 5331   4.660   2.298  11.864  0.1527 -0.0801  0.1075
  356TMC3    C5 5332   0.031   2.387  11.909 -0.5240 -0.2146  0.2882
  356TMC3    C6 5333   0.080   2.480  11.820 -0.1643 -0.2475  0.2222
  356TMC3     C 5334   4.504   2.238  11.685  0.9688  0.7579  0.6254
  356TMC3     O 5335   4.511   2.214  11.566  0.9297  0.2667 -0.2681
  356TMC3     H 5336   4.655   2.378  11.540  0.7957 -0.6121 -0.2897
  356TMC3    H1 5337   4.603   2.235  11.931 -0.8604 -0.8209 -1.4512
  356TMC3    H2 5338   0.164   2.545  11.842 -0.9296  0.5289  0.8150
  356TMC3    C7 5339   0.030   2.399  12.052 -0.1765  0.6471 -0.2231
  356TMC3    C8 5340   0.120   2.542  11.579  0.1654  0.2366 -0.5065
  356TMC3    O1 5341   4.708   2.306  12.115  0.7952 -0.5856 -0.3324
  356TMC3    O2 5342   0.118   2.490  11.472  0.2896 -0.0588  0.2191
  357MPD2     C 5343   3.066   2.405   0.588  0.5501 -0.9142  0.0784
  357MPD2    C1 5344   3.061   2.500   0.684  0.0335 -0.3933  0.1527
  357MPD2    C2 5345   2.946   2.558   0.731  0.1484  0.3023 -0.2997
  357MPD2    C3 5346   2.822   2.537   0.669  0.9927 -0.0731 -0.2945
  357MPD2    C4 5347   2.822   2.451   0.567 -0.0724 -0.3765  0.3264
  357MPD2    C5 5348   2.943   2.388   0.529  0.3979 -0.0729 -0.3268
  357MPD2     H 5349   2.943   2.626   0.815  0.1745  0.8158 -0.7101
  357MPD2    H1 5350   2.732   2.438   0.508 -1.9772  0.1895  3.1644
  357MPD2    H2 5351   3.160   2.367   0.551 -0.3335 -2.8217 -0.2089
  357MPD2    H3 5352   2.935   2.314   0.450 -1.6113  0.2913 -0.4851
  357MPD2     N 5353   2.699   2.580   0.719 -0.8322 -0.5372  0.2432
  357MPD2    H5 5354   2.623   2.567   0.652 -1.3623 -2.7130  1.2640
  357MPD2    N1 5355   3.185   2.518   0.748 -0.2695  0.3253 -0.4069
  357MPD2    H7 5356   3.270   2.485   0.703  0.7123  0.7753  1.1478
  358TMC3    C1 5357   3.354   2.587   0.903 -0.3750 -0.4257 -0.7635
  358TMC3    C2 5358   3.453   2.513   0.848 -0.3613  0.1286 -0.3177
  358TMC3    C3 5359   3.580   2.503   0.911 -0.0638  0.2224  0.0500
  358TMC3    C4 5360   3.380   2.669   1.007  0.1065  0.5004 -0.4868
  358TMC3    C5 5361   3.505   2.663   1.067 -0.3635  0.1291  0.1753
  358TMC3    C6 5362   3.604   2.581   1.023  0.2639  0.2612  0.4987
  358TMC3     C 5363   3.208   2.578   0.866 -0.6019 -0.1756 -0.6308
  358TMC3     O 5364   3.124   2.603   0.954 -0.6169  0.5123  0.2764
  358TMC3     H 5365   3.431   2.436   0.775 -1.3877  1.6448 -1.6098
  358TMC3    H1 5366   3.295   2.711   1.060  0.5095 -1.3569  1.6331
  358TMC3    H2 5367   3.706   2.593   1.054  0.2951 -1.0744  0.9184
  358TMC3    C7 5368   3.522   2.716   1.205 -0.5165 -0.6282  0.2615
  358TMC3    C8 5369   3.679   2.428   0.839  0.3919  0.1768  0.5061
  358TMC3    O1 5370   3.612   2.668   1.273 -0.1767 -0.1783  0.2669
  358TMC3    O2 5371   3.637   2.375   0.735  0.3614 -1.4113 -0.0869
  359MPD2     C 5372   4.640   0.241  12.868  0.7606  0.1643  0.0695
  359MPD2    C1 5373   4.547   0.329  12.832 -0.5046  0.0087 -0.3981
  359MPD2    C2 5374   4.420   0.317  12.880  0.3791 -0.2563 -0.3296
  359MPD2    C3 5375   4.389   0.215  12.976 -0.0415 -0.2387  0.0598
  359MPD2    C4 5376   4.489   0.130  13.016  0.0693 -0.1730  0.3381
  359MPD2    C5 5377   4.614   0.144  12.962  0.7659  0.4691  0.2065
  359MPD2     H 5378   4.343   0.385  12.845 -0.1211 -1.0179 -0.7124
  359MPD2    H1 5379   4.469   0.047  13.083  0.9720  0.4718  1.4028
  359MPD2    H2 5380   0.017   0.242  12.833  0.4055 -0.3401 -0.9833
  359MPD2    H3 5381   4.689   0.070  12.988  0.2715 -0.3305 -0.6526
  359MPD2     N 5382   4.258   0.196  13.028 -0.1697 -0.3273 -0.3712
  359MPD2    H5 5383   4.243   0.122  13.095 -0.4209  0.0386 -0.0213
  359MPD2    N1 5384   4.570   0.434  12.743 -0.1035 -0.4704  0.0533
  359MPD2    H7 5385   4.492   0.491  12.711  0.2967 -0.1012 -0.2717
  360TMC3    C1 5386   4.640   0.561  12.565 -0.3569 -0.4178 -0.2956
  360TMC3    C2 5387   4.713   0.679  12.543 -0.4168  0.5399 -0.1499
  360TMC3    C3 5388   4.639   0.778  12.481 -0.0973  0.6404  1.0997
  360TMC3    C4 5389   4.518   0.543  12.505  0.1391 -1.2418 -0.0500
  360TMC3    C5 5390   4.454   0.645  12.442  0.0785 -0.2172 -0.2646
  360TMC3    C6 5391   4.518   0.765  12.428  0.3991 -0.2244  0.0179
  360TMC3     C 5392   4.683   0.465  12.665  0.0831  0.1172  0.8339
  360TMC3     O 5393   0.072   0.418  12.652  0.2879 -0.2301 -0.4639
  360TMC3     H 5394   0.070   0.703  12.609 -0.7152 -0.6852  0.6685
  360TMC3    H1 5395   4.465   0.448  12.513 -0.2358 -1.0438 -0.1695
  360TMC3    H2 5396   4.469   0.851  12.386  3.0814  1.4096  0.2312
  360TMC3    C7 5397   4.387   0.611  12.319  0.3850 -0.1923 -0.5898
  360TMC3    C8 5398   4.721   0.884  12.435 -0.0294 -0.7151 -0.3578
  360TMC3    O1 5399   4.428   0.658  12.213 -0.3239  0.3963 -0.0460
  360TMC3    O2 5400   4.664   0.991  12.418 -1.2023 -0.1881  0.0480
  361MPD2     C 5401   1.577   4.087  16.970 -0.2725  0.3324 -0.0119
  361MPD2    C1 5402   1.551   4.147  17.090 -0.1027 -0.0508 -0.2889
  361MPD2    C2 5403   1.644   4.123  17.189 -0.8082 -1.1747 -1.1361
  361MPD2    C3 5404   1.759   4.046  17.165 -0.6110  0.0886 -0.1896
  361MPD2    C4 5405   1.786   3.997  17.041  1.0049  0.0646  0.3918
  361MPD2    C5 5406   1.691   4.011  16.945 -0.3780  0.0907  0.0743
  361MPD2     H 5407   1.642   4.185  17.278  1.0323  1.3109 -2.8114
  361MPD2    H1 5408   1.875   3.941  17.016  1.0117  0.5289 -0.5970
  361MPD2    H2 5409   1.509   4.095  16.886 -2.5803 -3.1578  1.5030
  361MPD2    H3 5410   1.701   3.962  16.849  0.8177  1.0953 -0.3101
  361MPD2     N 5411   1.852   4.014  17.270  0.5874 -0.1875  0.1786
  361MPD2    H5 5412   1.929   3.952  17.244  1.3989  2.2252 -3.2643
  361MPD2    N1 5413   1.441   4.232  17.112 -0.5426 -0.3567 -0.2643
  361MPD2    H7 5414   1.436   4.289  17.195 -2.2921 -2.6838  1.2257
  362TMC3    C1 5415   1.251   4.357  17.056 -0.5276 -0.2581 -0.1831
  362TMC3    C2 5416   1.180   4.335  17.170  1.2061 -0.3853 -0.5540
  362TMC3    C3 5417   1.082   4.414  17.206  0.3151 -0.9116 -0.3729
  362TMC3    C4 5418   1.194   4.431  16.959  0.2854  0.4097  0.1208
  362TMC3    C5 5419   1.074   4.498  16.986 -0.1385  0.2366  0.2919
  362TMC3    C6 5420   1.019   4.492  17.111  0.0694  0.2943 -0.5579
  362TMC3     C 5421   1.350   4.263  17.012 -0.1795 -0.2231 -0.3021
  362TMC3     O 5422   1.359   4.241  16.891  0.2417  0.2037 -0.2008
  362TMC3     H 5423   1.227   4.265  17.239  1.4765 -0.2310 -0.5814
  362TMC3    H1 5424   1.242   4.435  16.862  0.7173  1.1270  0.3713
  362TMC3    H2 5425   0.926   4.544  17.129 -0.7017 -1.5433  0.7979
  362TMC3    C7 5426   0.967   4.532  16.885  0.2055 -0.4523 -0.1374
  362TMC3    C8 5427   0.993   4.348  17.308 -0.0029 -0.2525  0.3950
  362TMC3    O1 5428   0.851   4.555  16.919 -0.0120 -0.4687  0.6169
  362TMC3    O2 5429   0.973   4.227  17.304  0.4933  0.1952  0.3548
  363TMC3    C1 5430   0.132   2.446  10.297  0.9803 -0.2213  0.5566
  363TMC3    C2 5431   0.140   2.328  10.359 -0.1970 -0.1512 -0.0492
  363TMC3    C3 5432   0.018   2.257  10.374  0.7390  0.5656 -0.5845
  363TMC3    C4 5433   0.016   2.504  10.264  0.9600  0.6065  0.7251
  363TMC3    C5 5434   4.630   2.446  10.289 -0.2993  0.2700 -0.3966
  363TMC3    C6 5435   4.627   2.324  10.347 -0.1167  1.1631  0.1975
  363TMC3     C 5436   0.250   2.534  10.286  0.3734  0.0673  0.5855
  363TMC3     O 5437   0.234   2.654  10.278 -0.6240  0.1861  0.0511
  363TMC3     H 5438   0.233   2.286  10.397 -0.2037 -0.5736 -0.4935
  363TMC3    H1 5439   0.019   2.607  10.229  3.4884  0.0946 -0.5238
  363TMC3    H2 5440   4.541   2.266  10.377  1.5249 -0.4924  1.7345
  363TMC3    C7 5441   4.500   2.498  10.268  0.1413  0.4140 -0.0871
  363TMC3    C8 5442   0.012   2.119  10.418 -0.1543 -0.2549 -0.4526
  363TMC3    O1 5443   4.406   2.421  10.268 -0.4941 -0.1705  0.3206
  363TMC3    O2 5444   4.628   2.083  10.453  0.1859 -0.3858  0.1665
  364MPD2     C 5445   3.619   1.375  10.579 -0.2844  0.0564 -0.6662
  364MPD2    C1 5446   3.750   1.409  10.575 -0.3668 -0.3578 -0.3477
  364MPD2    C2 5447   3.846   1.312  10.590 -0.2084  0.5194 -0.5641
  364MPD2    C3 5448   3.809   1.182  10.618  0.4217  0.3860  0.8433
  364MPD2    C4 5449   3.674   1.145  10.616 -0.2462 -0.0842 -0.6201
  364MPD2    C5 5450   3.584   1.243  10.605  0.5746  0.6280 -0.0284
  364MPD2     H 5451   3.951   1.336  10.583 -0.2219 -0.1111 -3.1207
  364MPD2    H1 5452   3.647   1.043  10.637 -3.4596  0.8524 -0.1376
  364MPD2    H2 5453   3.538   1.447  10.579 -2.1586 -2.0427  1.5967
  364MPD2    H3 5454   3.481   1.213  10.617  0.4304  1.4042  0.6971
  364MPD2     N 5455   3.898   1.076  10.626  0.0179 -0.0539 -0.6486
  364MPD2    H5 5456   3.857   0.984  10.637  0.1659  0.1588  1.6203
  364MPD2    N1 5457   3.779   1.544  10.537 -0.3164  0.1234 -0.5036
  364MPD2    H7 5458   3.695   1.590  10.502 -1.6040 -0.0625  2.3621
  365TMC3    C1 5459   3.890   1.720  10.460  0.0764 -0.3349 -0.1531
  365TMC3    C2 5460   3.967   1.732  10.345 -1.1281  0.2833  0.2485
  365TMC3    C3 5461   3.958   1.845  10.278  0.6256 -0.5246 -0.5771
  365TMC3    C4 5462   3.791   1.801  10.487  0.2820  0.6099 -0.0880
  365TMC3    C5 5463   3.776   1.906  10.408  0.3569 -0.1572  0.2305
  365TMC3    C6 5464   3.855   1.937  10.299  0.1378  0.4453  0.7915
  365TMC3     C 5465   3.904   1.597  10.530  0.6028 -0.4773 -0.8577
  365TMC3     O 5466   4.019   1.552  10.550 -0.0804 -0.2374 -1.0708
  365TMC3     H 5467   4.045   1.659  10.327 -0.5904  0.8913  0.1397
  365TMC3    H1 5468   3.736   1.791  10.580  1.2229 -0.1858  0.3862
  365TMC3    H2 5469   3.840   2.016  10.226 -1.1596 -0.6902 -0.1545
  365TMC3    C7 5470   3.679   2.005  10.458  0.1991 -0.0826  0.5095
  365TMC3    C8 5471   3.988   1.824  10.137  0.1717 -0.5554 -0.0035
  365TMC3    O1 5472   3.691   2.120  10.418 -0.5632  0.1029  0.0181
  365TMC3    O2 5473   4.011   1.923  10.067 -0.0981  0.3545  0.3175
  366MPD2     C 5474   1.166   2.414  15.732  0.0481 -0.6205 -0.8722
  366MPD2    C1 5475   1.294   2.445  15.690 -0.4422  0.0966 -0.0054
  366MPD2    C2 5476   1.373   2.344  15.645  0.1908  0.3583  0.1145
  366MPD2    C3 5477   1.335   2.210  15.657 -0.1916  0.4121 -0.0385
  366MPD2    C4 5478   1.210   2.182  15.696  0.5424  0.7901 -0.3320
  366MPD2    C5 5479   1.124   2.285  15.721  0.4076 -0.0376 -0.1138
  366MPD2     H 5480   1.474   2.376  15.621  0.0468 -0.4876 -1.6713
  366MPD2    H1 5481   1.166   2.084  15.681 -0.0561  0.9159  0.6253
  366MPD2    H2 5482   1.090   2.488  15.757 -0.0328 -1.5402  1.6049
  366MPD2    H3 5483   1.018   2.275  15.742  0.6160 -3.8677 -0.9504
  366MPD2     N 5484   1.422   2.111  15.610 -0.4556 -1.0527 -0.1599
  366MPD2    H5 5485   1.506   2.138  15.559 -2.2161 -0.4719 -2.6980
  366MPD2    N1 5486   1.351   2.576  15.697  0.5377 -0.0535  0.0266
  366MPD2    H7 5487   1.447   2.597  15.673  0.7190  0.6561  1.3442
  367TMC3    C1 5488   1.350   2.813  15.697 -0.4714  0.2102 -0.1568
  367TMC3    C2 5489   1.464   2.827  15.767 -0.2175  0.3328 -0.3214
  367TMC3    C3 5490   1.522   2.952  15.763 -0.5727  0.2417  0.2643
  367TMC3    C4 5491   1.299   2.916  15.626  0.1039  0.2872 -0.0195
  367TMC3    C5 5492   1.359   3.039  15.621  0.6579  0.4497  0.2833
  367TMC3    C6 5493   1.472   3.057  15.688  0.1158  0.3297 -0.3932
  367TMC3     C 5494   1.273   2.690  15.707 -0.1096 -0.1612  0.2684
  367TMC3     O 5495   1.152   2.713  15.718 -0.0879  0.5053 -0.5149
  367TMC3     H 5496   1.514   2.748  15.822 -0.1453  0.1022 -0.7222
  367TMC3    H1 5497   1.193   2.917  15.599  0.1471  2.3449 -0.1345
  367TMC3    H2 5498   1.522   3.152  15.675  0.3409  0.1441 -0.8790
  367TMC3    C7 5499   1.331   3.126  15.511 -0.0996 -0.2948  0.0026
  367TMC3    C8 5500   1.646   2.966  15.839  0.6923  0.2531  0.0208
  367TMC3    O1 5501   1.379   3.242  15.522  0.3146 -0.6666 -0.0949
  367TMC3    O2 5502   1.679   2.874  15.915 -0.2865  0.4403  0.4332
  368MPD2     C 5503   2.798   4.315  13.532 -0.4156 -0.0792  0.7130
  368MPD2    C1 5504   2.743   4.339  13.406  0.9077 -0.1609 -0.3204
  368MPD2    C2 5505   2.825   4.341  13.294  0.4647  0.6805 -0.3001
  368MPD2    C3 5506   2.958   4.321  13.307 -0.0052  0.4100 -0.6903
  368MPD2    C4 5507   3.007   4.277  13.431  0.4472  0.5664 -0.0191
  368MPD2    C5 5508   2.927   4.275  13.538 -0.0206  0.0216  0.3846
  368MPD2     H 5509   2.788   4.388  13.203 -1.2598 -0.7237 -0.3121
  368MPD2    H1 5510   3.113   4.261  13.446  0.7436  2.6761  0.1774
  368MPD2    H2 5511   2.745   4.319  13.627 -1.3264  1.7243  0.1325
  368MPD2    H3 5512   2.969   4.246  13.634  0.3178  0.2617  0.3105
  368MPD2     N 5513   3.049   4.335  13.203  0.3101  0.2105 -0.1469
  368MPD2    H5 5514   3.143   4.317  13.236  0.1829 -0.2394 -0.0245
  368MPD2    N1 5515   2.612   4.389  13.395  0.0090 -0.5225 -0.4365
  368MPD2    H7 5516   2.571   4.427  13.479 -0.0606 -0.6643 -0.4062
  369TMC3    C1 5517   2.413   4.468  13.288 -0.2110 -0.2033  0.0356
  369TMC3    C2 5518   2.413   4.576  13.214  0.3033 -0.2063  1.0732
  369TMC3    C3 5519   2.320   4.668  13.249  0.1825 -0.1641  0.3559
  369TMC3    C4 5520   2.323   4.451  13.396  0.1607  0.7219  0.2080
  369TMC3    C5 5521   2.240   4.552  13.425  0.2469 -0.7541  0.6938
  369TMC3    C6 5522   2.233   4.665  13.349 -0.0819  0.1364  0.3314
  369TMC3     C 5523   2.540   4.388  13.286 -0.0607 -0.2723 -0.3577
  369TMC3     O 5524   2.549   4.331  13.178  0.1715 -0.1709  0.0629
  369TMC3     H 5525   2.484   4.587  13.133  0.7044  2.0545  1.7399
  369TMC3    H1 5526   2.332   4.361  13.456 -2.7465 -1.1616 -2.1608
  369TMC3    H2 5527   2.168   0.023  13.372  1.8284  2.0468 -1.2331
  369TMC3    C7 5528   2.171   4.547  13.550  0.3273  0.1934 -1.0959
  369TMC3    C8 5529   2.363   0.077  13.220 -0.3844  0.3961 -0.4449
  369TMC3    O1 5530   2.210   4.469  13.638  0.0480 -0.7427  0.2430
  369TMC3    O2 5531   2.284   0.161  13.186  0.2118 -0.2752 -0.2828
  370TMC3    C1 5532   2.368   0.338  16.457 -0.4608 -0.4878 -0.6232
  370TMC3    C2 5533   2.284   0.268  16.542  0.1469 -0.8850 -0.2744
  370TMC3    C3 5534   2.271   0.133  16.525  0.2755 -0.0764  0.4410
  370TMC3    C4 5535   2.447   0.266  16.371 -0.3870 -0.1685 -0.4829
  370TMC3    C5 5536   2.415   0.133  16.356 -0.5942 -0.1586 -0.0255
  370TMC3    C6 5537   2.332   0.065  16.429  0.3073 -0.3954  0.2314
  370TMC3     C 5538   2.435   0.446  16.529 -1.0289  1.5528  0.0450
  370TMC3     O 5539   2.446   0.440  16.648  0.0457  0.1377 -0.2980
  370TMC3     H 5540   2.249   0.331  16.623 -0.8160 -2.0430  0.2052
  370TMC3    H1 5541   2.530   0.321  16.327 -0.1801  0.5391  0.7777
  370TMC3    H2 5542   2.323   4.683  16.422  1.4501 -0.5556  1.3719
  370TMC3    C7 5543   2.503   0.051  16.271 -0.0125 -0.4169 -0.1495
  370TMC3    C8 5544   2.246   0.057  16.646  1.3434  0.9095  0.4702
  370TMC3    O1 5545   2.608   0.103  16.244 -0.7942  0.1991  0.0551
  370TMC3    O2 5546   2.273   4.662  16.651 -0.7323  0.1896  0.1923
  371TMC3    C1 5547   3.578   3.286  15.564 -0.2651  0.5471 -0.1307
  371TMC3    C2 5548   3.482   3.307  15.664  0.0722  0.5090  0.0304
  371TMC3    C3 5549   3.451   3.432  15.703  0.1935 -0.1876  0.1035
  371TMC3    C4 5550   3.624   3.400  15.501 -0.9831  0.1023 -1.1418
  371TMC3    C5 5551   3.584   3.529  15.548  0.2253  0.2268 -0.3925
  371TMC3    C6 5552   3.495   3.545  15.652 -0.5287  0.5310  0.0156
  371TMC3     C 5553   3.663   3.176  15.561 -0.2171 -0.2306 -0.8459
  371TMC3     O 5554   3.748   3.181  15.475 -0.2509 -0.1436 -0.2058
  371TMC3     H 5555   3.431   3.220  15.704  0.4982 -0.9715 -2.6557
  371TMC3    H1 5556   3.705   3.393  15.430  1.3788 -2.3102  1.8056
  371TMC3    H2 5557   3.473   3.639  15.700  0.2530 -0.1159  1.6178
  371TMC3    C7 5558   3.600   3.643  15.464  0.1859 -0.2822  0.4419
  371TMC3    C8 5559   3.393   3.434  15.833  0.7309 -0.1916  0.5376
  371TMC3    O1 5560   3.582   3.756  15.510 -0.0302 -0.0620 -0.3380
  371TMC3    O2 5561   3.437   3.341  15.896 -0.0787 -0.5578 -0.0351
  372MPD2     C 5562   2.712   4.603  13.824 -0.2892  0.7901 -0.0825
  372MPD2    C1 5563   2.836   4.546  13.823  0.3808  0.0471  0.7457
  372MPD2    C2 5564   2.879   4.474  13.932  0.1578 -0.3895 -0.1016
  372MPD2    C3 5565   2.789   4.425  14.025 -0.2614  0.6168  0.9698
  372MPD2    C4 5566   2.660   4.481  14.028 -0.0258 -0.4291 -0.4358
  372MPD2    C5 5567   2.622   4.565  13.924 -0.6617  0.4261  0.0870
  372MPD2     H 5568   2.979   4.431  13.932  0.0068 -0.7590 -1.7169
  372MPD2    H1 5569   2.590   4.463  14.109 -0.4548 -1.8452 -1.1352
  372MPD2    H2 5570   2.685   4.685  13.759 -1.3699  1.9215  1.7738
  372MPD2    H3 5571   2.522   4.605  13.933 -1.3879 -1.4351  0.3305
  372MPD2     N 5572   2.823   4.329  14.128 -0.6456  0.0644  0.6344
  372MPD2    H5 5573   2.921   4.303  14.137 -0.0866  2.3052  0.9624
  372MPD2    N1 5574   2.936   4.570  13.724  0.1504  0.0757  0.2994
  372MPD2    H7 5575   3.026   4.526  13.741  0.2469  0.4691  0.7915
  373TMC3    C1 5576   2.790   4.154  14.271  0.2517 -0.1732  0.2949
  373TMC3    C2 5577   2.886   4.218  14.353 -0.0138  0.5802  0.4106
  373TMC3    C3 5578   3.003   4.149  14.382  0.5439  0.3101  0.1653
  373TMC3    C4 5579   2.823   4.040  14.203 -0.0851  0.3210 -0.5179
  373TMC3    C5 5580   2.935   3.976  14.241  0.1844  0.7494 -0.6072
  373TMC3    C6 5581   3.030   4.025  14.330 -0.3052 -0.4631 -0.4967
  373TMC3     C 5582   2.728   4.253  14.192 -0.8810 -0.3661 -0.8785
  373TMC3     O 5583   2.605   4.246  14.175 -0.2325  0.5945 -0.2034
  373TMC3     H 5584   2.851   4.309  14.399 -0.5098  0.8302 -0.4643
  373TMC3    H1 5585   2.766   4.000  14.120  1.5966 -1.1701 -0.9553
  373TMC3    H2 5586   3.128   3.978  14.337  0.2917  0.8277 -0.3261
  373TMC3    C7 5587   2.966   3.868  14.147  0.2792  0.0798  0.1124
  373TMC3    C8 5588   3.119   4.228  14.430  0.4839  0.4360  0.2596
  373TMC3    O1 5589   2.921   3.867  14.036  0.1045 -0.4343 -0.0002
  373TMC3    O2 5590   3.232   4.182  14.432  0.2787 -0.2345 -0.4805
  374TMC3    C1 5591   3.463   4.338  10.313  0.9507 -0.1903 -0.2338
  374TMC3    C2 5592   3.598   4.357  10.283 -0.2234 -0.7542  0.1169
  374TMC3    C3 5593   3.633   4.435  10.187  0.7939  0.0521  0.8128
  374TMC3    C4 5594   3.364   4.407  10.245 -0.2591 -0.5517 -0.6787
  374TMC3    C5 5595   3.408   4.491  10.141  0.4749  0.0724 -0.3844
  374TMC3    C6 5596   3.541   4.510  10.116  0.1747  0.3139 -0.1674
  374TMC3     C 5597   3.411   4.250  10.416 -0.0993  0.4824  0.2512
  374TMC3     O 5598   3.287   4.254  10.424 -0.0210  0.5741 -0.0033
  374TMC3     H 5599   3.675   4.303  10.338 -0.5221 -1.2803  0.0219
  374TMC3    H1 5600   3.259   4.381  10.244 -0.5379  0.5418  1.5081
  374TMC3    H2 5601   3.585   4.584  10.050 -0.9111  0.6577 -0.5055
  374TMC3    C7 5602   3.319   4.516  10.025 -0.2122 -0.2758  0.2031
  374TMC3    C8 5603   3.769   4.496  10.180 -0.9492  0.1669  0.0628
  374TMC3    O1 5604   3.375   4.550   9.921 -0.2817 -0.0855 -0.4607
  374TMC3    O2 5605   3.803   4.527  10.066 -0.7814 -0.4829  0.0280
  375MPD2     C 5606   3.265   0.784  17.168  0.2797  0.4083 -0.4311
  375MPD2    C1 5607   3.251   0.852  17.046 -0.3772  0.2321 -0.4289
  375MPD2    C2 5608   3.298   0.797  16.926  0.2401  0.2905  0.1070
  375MPD2    C3 5609   3.358   0.674  16.929  1.1489 -0.2104  0.3844
  375MPD2    C4 5610   3.374   0.608  17.052  0.6074 -0.1167  0.7909
  375MPD2    C5 5611   3.322   0.659  17.171  0.3063 -0.5072 -0.3266
  375MPD2     H 5612   3.282   0.858  16.838 -1.7751  0.1344  0.3494
  375MPD2    H1 5613   3.417   0.508  17.055 -1.1457 -0.8234  2.4849
  375MPD2    H2 5614   3.220   0.816  17.261 -0.0002 -0.9224 -0.1064
  375MPD2    H3 5615   3.319   0.597  17.260  1.2561  2.6172  1.8972
  375MPD2     N 5616   3.412   0.609  16.815  0.1584 -0.6464 -0.0298
  375MPD2    H5 5617   3.455   0.518  16.828 -0.7818 -0.7563  2.2423
  375MPD2    N1 5618   3.187   0.980  17.042 -0.2783  0.3126 -0.1163
  375MPD2    H7 5619   3.171   1.022  16.952  3.5787 -3.6108 -2.6741
  376TMC3    C1 5620   3.484   0.573  16.588 -0.0603 -0.2909 -0.0717
  376TMC3    C2 5621   3.561   0.466  16.631  0.5467 -0.2889  0.8658
  376TMC3    C3 5622   3.653   0.416  16.548  0.8581  0.0157  0.5663
  376TMC3    C4 5623   3.505   0.626  16.466 -0.5869 -0.0959  1.0148
  376TMC3    C5 5624   3.589   0.567  16.381  0.0442 -0.2435 -0.0513
  376TMC3    C6 5625   3.675   0.466  16.420  0.3880  0.5302 -0.1368
  376TMC3     C 5626   3.398   0.645  16.682  0.6835 -0.7155  0.5083
  376TMC3     O 5627   3.326   0.731  16.631  0.5186  0.5676 -0.4059
  376TMC3     H 5628   3.544   0.427  16.731  0.0748 -1.7826  0.2057
  376TMC3    H1 5629   3.445   0.704  16.421 -2.4575 -1.6867  0.7727
  376TMC3    H2 5630   3.740   0.413  16.352  1.6679 -1.6592  2.7733
  376TMC3    C7 5631   3.651   0.669  16.285 -0.0811 -0.5265 -0.5874
  376TMC3    C8 5632   3.742   0.319  16.599  0.4037  0.0274 -0.2131
  376TMC3    O1 5633   3.679   0.779  16.332  0.6159 -0.0645 -0.3256
  376TMC3    O2 5634   3.703   0.244  16.687 -0.1634  0.0017 -0.3745
  377MPD2     C 5635   1.525   0.583  12.614  0.4373 -0.1252  0.2008
  377MPD2    C1 5636   1.611   0.502  12.681 -0.5305  0.2382 -0.3550
  377MPD2    C2 5637   1.579   0.469  12.813  0.3810 -1.1184 -0.4487
  377MPD2    C3 5638   1.462   0.515  12.876 -0.3155 -0.1785  0.1520
  377MPD2    C4 5639   1.379   0.601  12.803 -0.2546 -0.0779 -1.1484
  377MPD2    C5 5640   1.409   0.626  12.677  0.3415 -0.2059  0.0058
  377MPD2     H 5641   1.641   0.399  12.869  1.2944  1.6044  1.9493
  377MPD2    H1 5642   1.291   0.643  12.849 -0.4948  1.4281 -2.9721
  377MPD2    H2 5643   1.539   0.613  12.511  2.1930 -0.1156  0.4343
  377MPD2    H3 5644   1.343   0.692  12.622  0.5165 -1.6399 -1.9426
  377MPD2     N 5645   1.421   0.481  13.007  0.2320 -0.7829  0.0632
  377MPD2    H5 5646   1.332   0.518  13.040  0.8086 -0.0267  0.8011
  377MPD2    N1 5647   1.733   0.469  12.612  0.1932 -0.0386 -0.2174
  377MPD2    H7 5648   1.748   0.497  12.515 -2.3892 -2.3595 -1.2766
  378TMC3    C1 5649   2.056   0.351  12.384  0.0360  0.1647 -0.4204
  378TMC3    C2 5650   1.944   0.388  12.455  0.3503  0.6730 -0.1010
  378TMC3    C3 5651   1.938   0.346  12.584 -0.0112 -0.0710 -0.1297
  378TMC3    C4 5652   2.166   0.300  12.452 -0.3168  0.2854  0.4097
  378TMC3    C5 5653   2.153   0.272  12.582  0.9661  0.4106 -0.0297
  378TMC3    C6 5654   2.034   0.280  12.653  0.1287  0.1754  0.2656
  378TMC3     C 5655   2.061   0.401  12.244 -0.1548 -0.0340  0.4501
  378TMC3     O 5656   1.967   0.469  12.203  0.3623 -0.3155 -0.1819
  378TMC3     H 5657   1.860   0.433  12.405 -2.1653 -1.3439  2.2807
  378TMC3    H1 5658   2.263   0.291  12.404  0.3966  1.8624  1.5318
  378TMC3    H2 5659   2.024   0.251  12.757  0.8809  0.8759  0.5347
  378TMC3    C7 5660   2.261   0.213  12.654 -0.4043  0.3330 -0.1977
  378TMC3    C8 5661   1.831   0.392  12.673  0.3785  0.2260  0.6905
  378TMC3    O1 5662   2.231   0.158  12.759  0.2393 -0.4333  0.1225
  378TMC3    O2 5663   1.825   0.323  12.773  0.3622  0.0557  0.1855
  379MPD2     C 5664   2.774   3.042  16.464  0.1351 -0.4510 -0.4442
  379MPD2    C1 5665   2.677   2.970  16.533  0.3386  0.3098  0.0264
  379MPD2    C2 5666   2.728   2.873  16.618 -0.9311 -0.0332  0.5156
  379MPD2    C3 5667   2.858   2.865  16.658 -0.6548  0.5134  0.7152
  379MPD2    C4 5668   2.952   2.941  16.593 -0.2654  0.4211 -0.6519
  379MPD2    C5 5669   2.906   3.031  16.498  0.5207 -0.6468 -0.3549
  379MPD2     H 5670   2.654   2.797  16.640 -0.2846 -0.4167  1.3426
  379MPD2    H1 5671   3.059   2.944  16.615 -0.8148 -0.3835  2.1531
  379MPD2    H2 5672   2.746   3.125  16.400 -2.5392  0.7696  2.3406
  379MPD2    H3 5673   2.975   3.091  16.441 -0.0091  1.9269  1.7219
  379MPD2     N 5674   2.905   2.762  16.743  0.2891 -0.4945 -0.3923
  379MPD2    H5 5675   3.005   2.747  16.738  0.0121 -1.9649 -1.3650
  379MPD2    N1 5676   2.539   2.990  16.503 -0.4077  0.5260  0.3631
  379MPD2    H7 5677   2.514   3.052  16.427 -1.4513  1.7389  1.6803
  380TMC3    C1 5678   2.321   2.915  16.471 -0.7974  0.6498  0.3810
  380TMC3    C2 5679   2.303   2.784  16.433  0.1984 -0.1343 -0.1613
  380TMC3    C3 5680   2.281   2.757  16.300  0.1795 -0.3041  0.4141
  380TMC3    C4 5681   2.298   3.019  16.381  0.6340 -0.2048 -0.4539
  380TMC3    C5 5682   2.256   2.985  16.260 -0.4497  0.0069 -0.4906
  380TMC3    C6 5683   2.266   2.858  16.209  0.6909  0.0753  0.7321
  380TMC3     C 5684   2.437   2.924  16.564 -0.1542 -0.0180 -0.0343
  380TMC3     O 5685   2.430   2.841  16.652  0.2805  0.1997 -0.1430
  380TMC3     H 5686   2.300   2.706  16.509  0.4692 -0.7391 -0.7740
  380TMC3    H1 5687   2.295   3.124  16.408  5.6535 -0.1879  0.0822
  380TMC3    H2 5688   2.235   2.829  16.109  1.7558 -0.9991  0.7086
  380TMC3    C7 5689   2.206   3.086  16.167  0.2162 -0.2108  0.3836
  380TMC3    C8 5690   2.393   2.683  16.245 -0.0618  0.4916 -0.2091
  380TMC3    O1 5691   2.230   3.205  16.200 -0.3288 -0.5412  0.4733
  380TMC3    O2 5692   2.420   2.702  16.126 -0.2324 -0.3962 -0.2392
  381TMC3    C1 5693   2.187   4.385  16.487  0.3250 -0.1670 -0.2689
  381TMC3    C2 5694   2.320   4.395  16.444 -0.1277  0.2921  0.4936
  381TMC3    C3 5695   2.417   4.397  16.537 -0.3190 -1.0228  0.4415
  381TMC3    C4 5696   2.151   4.356  16.616  0.1782  0.2904  0.4150
  381TMC3    C5 5697   2.250   4.340  16.702  0.2839  0.4408  0.0089
  381TMC3    C6 5698   2.384   4.358  16.667  0.3779  0.0833 -0.5845
  381TMC3     C 5699   2.092   4.439  16.391 -0.3789  0.1913 -0.5102
  381TMC3     O 5700   2.142   4.501  16.299 -0.7673  0.2199 -0.2282
  381TMC3     H 5701   2.342   4.406  16.339  0.6441  0.5430  0.6767
  381TMC3    H1 5702   2.049   4.342  16.648 -0.9764  1.0757 -2.9301
  381TMC3    H2 5703   2.456   4.337  16.746 -0.3535  2.6897  0.7751
  381TMC3    C7 5704   2.235   4.290  16.837  0.2605  0.2075 -0.5280
  381TMC3    C8 5705   2.535   4.471  16.521 -0.3890 -0.0070 -0.0901
  381TMC3    O1 5706   2.321   4.214  16.881 -0.2132  0.2037 -0.8606
  381TMC3    O2 5707   2.600   4.451  16.422 -0.1327 -0.0716  0.1910
  382MPD2     C 5708   1.276   1.974  17.048  0.4430 -0.2632 -1.1054
  382MPD2    C1 5709   1.268   1.984  17.190  0.5308  0.0209 -0.5474
  382MPD2    C2 5710   1.300   1.873  17.272  0.0916  0.3757  0.0542
  382MPD2    C3 5711   1.329   1.750  17.212  0.5857 -0.6013 -1.0769
  382MPD2    C4 5712   1.339   1.739  17.070 -0.1125 -0.2264 -1.0386
  382MPD2    C5 5713   1.313   1.849  16.990 -0.8855  0.4141  0.7939
  382MPD2     H 5714   1.283   1.891  17.378  0.8457 -0.5256  0.3319
  382MPD2    H1 5715   1.365   1.647  17.020 -0.9662 -0.7720 -0.4821
  382MPD2    H2 5716   1.248   2.053  16.979 -1.9459  0.6062  0.8607
  382MPD2    H3 5717   1.315   1.850  16.882  0.1465 -0.1474  0.8083
  382MPD2     N 5718   1.355   1.631  17.283 -0.4313 -0.3915  0.3626
  382MPD2    H5 5719   1.363   1.545  17.230  1.3849  0.0276 -0.0150
  382MPD2    N1 5720   1.228   2.102  17.265 -0.7687  0.2683  0.1033
  382MPD2    H7 5721   1.225   2.099  17.366 -0.5367 -0.0059  0.1027
  383TMC3    C1 5722   1.385   1.485  17.453  0.6735 -0.3771  0.2268
  383TMC3    C2 5723   1.300   1.386  17.410 -0.6469  0.6115 -0.4946
  383TMC3    C3 5724   1.286   1.272  17.480  0.9449  0.4478 -0.0974
  383TMC3    C4 5725   1.472   1.458  17.557  0.0013 -0.0369  0.2274
  383TMC3    C5 5726   1.473   1.335  17.620  0.8343 -0.0262 -0.2220
  383TMC3    C6 5727   1.377   1.238  17.575 -0.2258  0.1067 -0.3074
  383TMC3     C 5728   1.369   1.623  17.415 -0.5076 -0.6452  0.0267
  383TMC3     O 5729   1.389   1.710  17.499 -0.2156  0.3193 -0.6755
  383TMC3     H 5730   1.231   1.435  17.343 -1.7554  1.6857  1.4225
  383TMC3    H1 5731   1.532   1.540  17.595  2.1359 -1.8947  0.9420
  383TMC3    H2 5732   1.374   1.142  17.625 -0.4646  1.4206  2.2292
  383TMC3    C7 5733   1.542   1.314   0.045  0.2017  0.3735 -0.1463
  383TMC3    C8 5734   1.167   1.196  17.457 -0.3620  1.4614 -0.3338
  383TMC3    O1 5735   1.524   1.199   0.091 -0.0750  0.6030  0.4965
  383TMC3    O2 5736   1.082   1.272  17.405  0.1675  0.3468 -0.4899
  384MPD2     C 5737   3.315   2.683  11.970 -0.4629 -0.6305  0.0779
  384MPD2    C1 5738   3.355   2.595  12.071  0.0701  0.1171 -0.4623
  384MPD2    C2 5739   3.441   2.492  12.051 -0.2061  0.0783 -0.4571
  384MPD2    C3 5740   3.497   2.469  11.927  0.3878 -0.2805  0.0577
  384MPD2    C4 5741   3.465   2.560  11.818 -0.1812  0.5555  0.0608
  384MPD2    C5 5742   3.378   2.665  11.847 -0.0770  0.0217 -0.2616
  384MPD2     H 5743   3.462   2.424  12.133  1.5327  1.1997  0.0288
  384MPD2    H1 5744   3.499   2.551  11.716  0.6240 -0.3338  0.4118
  384MPD2    H2 5745   3.245   2.765  11.985  1.1164  0.6139  0.7189
  384MPD2    H3 5746   3.359   2.728  11.761 -1.7403 -0.7926 -0.4764
  384MPD2     N 5747   3.589   2.360  11.917 -0.2383  1.1266  0.5113
  384MPD2    H5 5748   3.614   2.316  12.005  1.1652  3.1973  1.1508
  384MPD2    N1 5749   3.309   2.607  12.206  0.4249  0.1600  0.6178
  384MPD2    H7 5750   3.340   2.531  12.266  2.9281  1.4158  0.9140
  385TMC3    C1 5751   3.733   2.203  11.832 -0.7718 -0.1228  0.1258
  385TMC3    C2 5752   3.688   2.084  11.775 -0.3792  0.1493 -0.1927
  385TMC3    C3 5753   3.681   1.971  11.858  0.9407  0.2310  0.4641
  385TMC3    C4 5754   3.760   2.203  11.967  0.3867  0.8900  0.1400
  385TMC3    C5 5755   3.752   2.087  12.045  0.4520  0.3968 -0.4756
  385TMC3    C6 5756   3.714   1.970  11.996  0.5017  0.1316  0.4968
  385TMC3     C 5757   3.657   2.315  11.805 -0.0579 -0.3399  0.4185
  385TMC3     O 5758   3.635   2.348  11.691 -0.0818  0.0616  0.1966
  385TMC3     H 5759   3.658   2.082  11.671  1.9190 -1.9303 -0.8157
  385TMC3    H1 5760   3.797   2.299  12.003  0.2942  0.5510  1.1629
  385TMC3    H2 5761   3.715   1.886  12.065 -1.5489 -0.3595 -0.0782
  385TMC3    C7 5762   3.720   2.130  12.178  0.1411  0.1406  0.8405
  385TMC3    C8 5763   3.682   1.846  11.784  0.0672  0.0173 -0.0040
  385TMC3    O1 5764   3.703   2.252  12.187  0.3135  0.2857 -0.2642
  385TMC3    O2 5765   3.704   1.747  11.858  0.0511 -0.2485  0.2180
  386TMC3    C1 5766   3.676   0.396  12.429 -0.2839  1.2237  0.4499
  386TMC3    C2 5767   3.622   0.339  12.315  0.2326 -0.0268  0.3525
  386TMC3    C3 5768   3.528   0.425  12.256 -0.1906  0.3521 -0.0277
  386TMC3    C4 5769   3.642   0.517  12.479  0.2755  0.0927  0.8294
  386TMC3    C5 5770   3.531   0.582  12.426 -0.1983 -0.2600  0.4130
  386TMC3    C6 5771   3.482   0.543  12.308 -0.4639  0.7962 -0.4082
  386TMC3     C 5772   3.778   0.325  12.504  0.7035  0.3554  0.1922
  386TMC3     O 5773   3.838   0.392  12.582  0.9659 -0.0881  0.1747
  386TMC3     H 5774   3.674   0.256  12.267 -1.3356  0.2775 -1.8181
  386TMC3    H1 5775   3.667   0.531  12.583  0.1142 -0.8920  1.0017
  386TMC3    H2 5776   3.397   0.596  12.268 -0.5385  0.4872 -0.6618
  386TMC3    C7 5777   3.440   0.658  12.502 -0.4315  0.3725 -0.4643
  386TMC3    C8 5778   3.425   0.357  12.171 -0.4680 -0.2205  0.3058
  386TMC3    O1 5779   3.410   0.626  12.612 -0.5226 -0.3665 -0.2877
  386TMC3    O2 5780   3.324   0.424  12.148 -0.1285  0.4770 -0.4763
  387MPD2     C 5781   0.790   0.550   9.553  0.1453  1.2250 -0.2222
  387MPD2    C1 5782   0.919   0.509   9.580  0.5532  0.3000 -0.2640
  387MPD2    C2 5783   0.932   0.382   9.630 -0.0935 -0.3343 -0.2887
  387MPD2    C3 5784   0.828   0.296   9.660  0.0307  0.2824 -0.2412
  387MPD2    C4 5785   0.696   0.335   9.624  0.1559 -0.8958  0.1887
  387MPD2    C5 5786   0.683   0.463   9.573 -0.6980 -0.1881 -0.2788
  387MPD2     H 5787   1.030   0.353   9.666 -0.1783  1.3139  1.2880
  387MPD2    H1 5788   0.611   0.274   9.652 -0.5317  0.1889  0.4603
  387MPD2    H2 5789   0.763   0.646   9.511  1.6606  2.0255  0.6117
  387MPD2    H3 5790   0.583   0.501   9.557  0.1135  1.2720 -1.9492
  387MPD2     N 5791   0.866   0.178   9.724 -0.0876  0.5912 -0.6941
  387MPD2    H5 5792   0.966   0.171   9.740 -0.0967 -2.6701 -2.1287
  387MPD2    N1 5793   1.029   0.585   9.563 -0.2928 -0.1209  0.3453
  387MPD2    H7 5794   1.115   0.530   9.563  0.2840  0.7724 -1.3202
  388TMC3    C1 5795   1.185   0.752   9.599  0.1454  0.0650 -0.4837
  388TMC3    C2 5796   1.223   0.881   9.594  0.1055  0.2595  0.0551
  388TMC3    C3 5797   1.352   0.919   9.633 -0.0854 -0.6646 -1.0431
  388TMC3    C4 5798   1.280   0.652   9.621 -0.0735  0.3200  0.4765
  388TMC3    C5 5799   1.407   0.693   9.646 -0.5509 -0.1845 -0.4341
  388TMC3    C6 5800   1.447   0.821   9.670  0.7333  0.2371  0.3911
  388TMC3     C 5801   1.046   0.721   9.575  0.3410 -0.2194 -0.1459
  388TMC3     O 5802   0.959   0.808   9.579 -0.3015  0.0751 -0.3140
  388TMC3     H 5803   1.149   0.954   9.564 -0.1682  0.6599  1.6900
  388TMC3    H1 5804   1.254   0.556   9.665 -1.0478  0.3085 -0.1298
  388TMC3    H2 5805   1.554   0.837   9.677  0.6143  0.7380  1.0467
  388TMC3    C7 5806   1.492   0.596   9.720  0.2611 -0.0772 -0.7353
  388TMC3    C8 5807   1.361   1.058   9.677  0.9244  0.4045  0.2483
  388TMC3    O1 5808   1.581   0.636   9.793 -0.1314  0.2323  0.1327
  388TMC3    O2 5809   1.281   1.146   9.649  0.1688  0.0307  0.3318
  389MPD2     C 5810   0.497   3.614  11.593  0.2081 -0.2759 -0.8371
  389MPD2    C1 5811   0.472   3.488  11.532 -0.4263  0.0441  0.5124
  389MPD2    C2 5812   0.406   3.391  11.611  0.2531 -1.3361 -0.1164
  389MPD2    C3 5813   0.389   3.409  11.747  0.1541 -0.1461  0.2141
  389MPD2    C4 5814   0.421   3.526  11.806  0.5042 -0.2505 -0.1338
  389MPD2    C5 5815   0.475   3.626  11.727 -1.0036  0.5022  0.2470
  389MPD2     H 5816   0.366   3.304  11.560 -1.8070  0.4330 -1.5214
  389MPD2    H1 5817   0.407   3.547  11.912  0.4351  0.5327 -0.2938
  389MPD2    H2 5818   0.511   3.708  11.541  3.4028 -0.4928 -0.3617
  389MPD2    H3 5819   0.503   3.717  11.779  1.2592  0.4537 -0.8673
  389MPD2     N 5820   0.330   3.309  11.830  0.7097  0.1576 -0.7921
  389MPD2    H5 5821   0.322   3.339  11.926  1.1564 -1.0343 -0.3841
  389MPD2    N1 5822   0.496   3.483  11.399  1.0018  0.4864  0.2894
  389MPD2    H7 5823   0.532   3.570  11.361 -1.0564  0.3976 -1.9165
  390TMC3    C1 5824   0.198   3.140  11.913 -0.2551  0.5956  0.5678
  390TMC3    C2 5825   0.172   3.007  11.917  0.3695  0.5073  0.1531
  390TMC3    C3 5826   0.057   2.954  11.973 -0.0818  0.2444  0.1630
  390TMC3    C4 5827   0.096   3.222  11.948 -0.2112  0.0234  0.4076
  390TMC3    C5 5828   4.701   3.173  11.993 -0.1888  0.1105  0.5448
  390TMC3    C6 5829   4.686   3.038  12.024  0.1641 -0.2760 -0.4211
  390TMC3     C 5830   0.274   3.189  11.800  0.4948  0.5135 -0.0839
  390TMC3     O 5831   0.252   3.124  11.696 -0.3212  0.2938 -0.7920
  390TMC3     H 5832   0.252   2.939  11.891  1.4661  2.3309 -1.1945
  390TMC3    H1 5833   0.104   3.328  11.930  1.2687 -0.5807 -2.5591
  390TMC3    H2 5834   4.604   3.012  12.089  1.1968 -2.5139 -0.0216
  390TMC3    C7 5835   4.596   3.228  11.908 -0.3276 -0.3057 -0.1540
  390TMC3    C8 5836   0.004   2.835  11.909  0.3387 -0.2972  1.1951
  390TMC3    O1 5837   4.604   3.343  11.867 -0.5939  0.2145  0.0146
  390TMC3    O2 5838   0.062   2.784  11.815 -0.0125  0.4729 -0.2938
  391MPD2     C 5839   4.116   4.709  11.722  0.3164 -0.5427  0.4431
  391MPD2    C1 5840   4.226   0.056  11.676  0.3439 -0.0126  0.0932
  391MPD2    C2 5841   4.256   0.061  11.542 -0.3137  0.0688 -0.2869
  391MPD2    C3 5842   4.170   0.010  11.446 -0.0737  0.2278  0.8536
  391MPD2    C4 5843   4.063   4.665  11.492  0.0649 -0.2544 -0.4609
  391MPD2    C5 5844   4.034   4.649  11.627 -0.8072  0.5661  0.3021
  391MPD2     H 5845   4.346   0.112  11.510 -1.3401  1.6700 -0.6097
  391MPD2    H1 5846   4.007   4.603  11.424 -2.2728  1.2586  0.0975
  391MPD2    H2 5847   4.098   4.699  11.828 -3.4754  1.1735 -0.0174
  391MPD2    H3 5848   3.951   4.590  11.666 -1.5110  1.1705 -0.2816
  391MPD2     N 5849   4.202   0.034  11.308 -0.4587 -0.2987 -0.6884
  391MPD2    H5 5850   4.292   0.080  11.298 -1.2475  0.9757 -1.9058
  391MPD2    N1 5851   4.319   0.116  11.760  0.3073 -0.2306 -0.5297
  391MPD2    H7 5852   4.392   0.169  11.714  0.5426  0.5964  0.8117
  392TMC3    C1 5853   4.172   0.040  11.067 -0.5251 -0.8325  0.4469
  392TMC3    C2 5854   4.097   4.714  10.959  0.4151  0.2976  0.0072
  392TMC3    C3 5855   4.147   0.027  10.835 -0.0829 -0.0662 -0.1583
  392TMC3    C4 5856   4.268   0.139  11.050  0.3729 -0.2726 -0.1650
  392TMC3    C5 5857   4.289   0.190  10.924 -0.2216  0.6053 -0.1298
  392TMC3    C6 5858   4.229   0.131  10.813  0.6779 -0.3090  0.1457
  392TMC3     C 5859   4.118   4.725  11.201  0.5716  0.0883 -0.0064
  392TMC3     O 5860   4.011   4.664  11.208 -0.2072 -0.0721  0.2743
  392TMC3     H 5861   4.039   4.625  10.974  0.1450  0.4211 -0.3094
  392TMC3    H1 5862   4.302   0.203  11.131 -0.2186  1.0447 -0.9465
  392TMC3    H2 5863   4.240   0.174  10.714 -0.7697  0.7124  0.4340
  392TMC3    C7 5864   4.393   0.289  10.901  0.2703  0.6801 -0.2342
  392TMC3    C8 5865   4.083   4.691  10.721  0.0719 -0.1991  0.6829
  392TMC3    O1 5866   4.447   0.330  11.007  0.1041 -0.0431 -0.2390
  392TMC3    O2 5867   3.992   4.612  10.743  0.1512  0.6018 -0.6512
  393TMC3    C1 5868   3.009   3.003  10.822  0.1741  0.2935  0.5649
  393TMC3    C2 5869   2.876   3.018  10.854  0.1270  0.0311  0.7187
  393TMC3    C3 5870   2.817   2.915  10.909 -0.0617 -0.6897  0.1228
  393TMC3    C4 5871   3.083   2.898  10.867 -0.6916 -0.0414  0.5425
  393TMC3    C5 5872   3.018   2.795  10.937  0.8827  0.1479  0.7284
  393TMC3    C6 5873   2.884   2.805  10.956  0.3941 -0.3960 -0.0272
  393TMC3     C 5874   3.069   3.125  10.764  0.4781  0.2008  0.0086
  393TMC3     O 5875   2.986   3.197  10.709 -0.0812 -0.3392  0.3108
  393TMC3     H 5876   2.825   3.111  10.831 -1.6677 -1.0540  0.3197
  393TMC3    H1 5877   3.191   2.900  10.854 -0.9067  0.9130 -1.0654
  393TMC3    H2 5878   2.826   2.727  11.004  0.4017  0.4203  1.3279
  393TMC3    C7 5879   3.094   2.678  10.985  0.7122 -0.3371 -0.4642
  393TMC3    C8 5880   2.685   2.933  10.964 -0.4777  0.0936 -0.6027
  393TMC3    O1 5881   3.021   2.595  11.037 -0.1261 -0.1404 -0.2352
  393TMC3    O2 5882   2.656   2.880  11.073  0.4185  0.1176 -0.6307
  394TMC3    C1 5883   0.479   3.410  11.166 -0.5562 -0.4704  0.1837
  394TMC3    C2 5884   0.396   3.344  11.076  0.2663 -0.0234  0.1734
  394TMC3    C3 5885   0.402   3.367  10.944  0.1343 -0.3572  0.3094
  394TMC3    C4 5886   0.570   3.500  11.119 -0.5754  0.1985  0.0075
  394TMC3    C5 5887   0.573   3.516  10.981  0.3955 -0.6623  0.2611
  394TMC3    C6 5888   0.494   3.456  10.892  0.5090  0.8897  0.1306
  394TMC3     C 5889   0.472   3.382  11.308  0.2782 -0.4181  0.5924
  394TMC3     O 5890   0.437   3.272  11.342 -0.9409 -0.2186  0.0720
  394TMC3     H 5891   0.325   3.266  11.102  0.6344 -0.6487 -0.7153
  394TMC3    H1 5892   0.649   3.548  11.176 -1.8799  1.5542  0.6657
  394TMC3    H2 5893   0.487   3.478  10.786 -1.0866  1.0095  0.2566
  394TMC3    C7 5894   0.676   3.614  10.940 -0.1028 -0.1322 -0.9007
  394TMC3    C8 5895   0.337   3.261  10.861  0.3585  0.1029 -0.0344
  394TMC3    O1 5896   0.709   3.703  11.020 -0.1248 -0.3906  0.4836
  394TMC3    O2 5897   0.216   3.254  10.862  0.3760  0.1230 -0.1300
  395TMC3    C1 5898   0.276   0.660  15.043 -0.3317  0.5771 -0.3459
  395TMC3    C2 5899   0.184   0.654  14.939  0.5048  0.3295  0.3584
  395TMC3    C3 5900   0.201   0.758  14.844 -0.1716  0.1470 -0.1246
  395TMC3    C4 5901   0.376   0.755  15.053  0.5216  0.7070  0.5542
  395TMC3    C5 5902   0.383   0.853  14.953  0.3157  0.5902 -0.3897
  395TMC3    C6 5903   0.290   0.860  14.853  0.5986  0.2907  0.0860
  395TMC3     C 5904   0.263   0.545  15.119 -0.5751 -0.0999 -0.2095
  395TMC3     O 5905   0.164   0.523  15.188  0.2773  0.2033  0.3903
  395TMC3     H 5906   0.102   0.584  14.944  1.6217 -0.9429  0.9993
  395TMC3    H1 5907   0.434   0.764  15.144  1.5982  2.4020 -0.3007
  395TMC3    H2 5908   0.284   0.938  14.779 -0.9323 -1.4507 -1.6285
  395TMC3    C7 5909   0.459   0.978  14.963 -0.6061 -0.2313 -0.2586
  395TMC3    C8 5910   0.093   0.779  14.751  0.3772 -0.1103 -0.9164
  395TMC3    O1 5911   0.490   1.021  15.073  0.6514 -0.2197 -0.7271
  395TMC3    O2 5912   0.079   0.890  14.700  0.2901  0.1967 -0.7273
  396MPD2     C 5913   4.203   1.820  17.335 -0.9124  0.4470 -0.0704
  396MPD2    C1 5914   4.334   1.828  17.375 -0.5699 -0.0032  0.8520
  396MPD2    C2 5915   4.420   1.901  17.297  0.0318 -0.0687  0.1003
  396MPD2    C3 5916   4.369   1.979  17.194  0.2885  0.2274 -0.1229
  396MPD2    C4 5917   4.240   1.958  17.152  0.0894 -0.2814 -0.2430
  396MPD2    C5 5918   4.158   1.879  17.218 -0.1142 -0.7221 -0.0537
  396MPD2     H 5919   4.525   1.908  17.319 -0.2316 -0.2268  1.4453
  396MPD2    H1 5920   4.200   2.011  17.066  1.8836  0.3407 -0.7076
  396MPD2    H2 5921   4.125   1.769  17.391 -0.5178  0.2636  0.3157
  396MPD2    H3 5922   4.052   1.872  17.196 -0.2613 -2.5007  1.2559
  396MPD2     N 5923   4.461   2.052  17.114  0.2976  0.4399 -0.4010
  396MPD2    H5 5924   4.560   2.053  17.138  0.9551 -0.0416 -3.1707
  396MPD2    N1 5925   4.372   1.765  17.498  0.0095  0.3408  0.1724
  396MPD2    H7 5926   4.304   1.705  17.544 -0.8569 -1.0161 -2.8979
  397TMC3    C1 5927   4.504   1.661  17.662 -0.6734 -0.2840 -0.6269
  397TMC3    C2 5928   4.590   1.556  17.644  0.0908 -0.3083  0.6423
  397TMC3    C3 5929   4.558   1.425  17.660  0.1680  0.2416  0.8841
  397TMC3    C4 5930   4.390   1.633   0.019 -0.1480 -1.0658  0.2931
  397TMC3    C5 5931   4.363   1.499   0.050 -0.0948  0.9813 -0.7209
  397TMC3    C6 5932   4.434   1.394   0.007  0.0805 -0.3497  0.5686
  397TMC3     C 5933   4.496   1.746  17.542 -0.1665 -0.4196  0.6405
  397TMC3     O 5934   4.602   1.784  17.498  0.4070  0.3918 -0.5470
  397TMC3     H 5935   4.671   1.594  17.583 -1.1684 -0.8830 -1.3629
  397TMC3    H1 5936   4.333   1.717   0.059  0.4471 -0.7371  0.4482
  397TMC3    H2 5937   4.395   1.294   0.018  2.2669 -1.1681  0.9767
  397TMC3    C7 5938   4.224   1.472   0.089 -0.5382 -0.1206 -0.1817
  397TMC3    C8 5939   4.589   1.358  17.538  0.6921  0.2895 -0.0630
  397TMC3    O1 5940   4.154   1.385   0.028  0.5562  0.0689 -0.0425
  397TMC3    O2 5941   4.669   1.413  17.463 -0.1223 -0.5985 -0.1758
  398MPD2     C 5942   2.533   2.131   0.320  0.2954 -0.5377 -0.2600
  398MPD2    C1 5943   2.670   2.116   0.321 -0.2060 -0.5157 -0.4506
  398MPD2    C2 5944   2.746   2.226   0.278  0.1154  0.1502  0.3858
  398MPD2    C3 5945   2.687   2.351   0.245  0.1326  0.2078  0.0605
  398MPD2    C4 5946   2.549   2.363   0.260 -0.1901 -0.4738 -0.8147
  398MPD2    C5 5947   2.476   2.253   0.295 -0.0619 -0.2975 -1.1809
  398MPD2     H 5948   2.854   2.223   0.282  0.1843 -1.2044 -2.7223
  398MPD2    H1 5949   2.494   2.455   0.249 -0.2583 -0.6797 -2.2084
  398MPD2    H2 5950   2.457   2.055   0.333  0.6499 -0.9764 -0.7337
  398MPD2    H3 5951   2.369   2.269   0.295  0.0043  0.1479 -1.0569
  398MPD2     N 5952   2.768   2.466   0.230 -0.1062  0.0302  0.6629
  398MPD2    H5 5953   2.865   2.447   0.207 -0.9431 -0.4665 -2.4140
  398MPD2    N1 5954   2.736   2.001   0.363  0.1477  0.6711 -0.2898
  398MPD2    H7 5955   2.836   1.992   0.347 -0.1013 -1.2807 -0.7949
  399TMC3    C1 5956   2.769   1.797   0.476  0.1284  0.5899  0.2590
  399TMC3    C2 5957   2.878   1.765   0.405 -0.2639  0.9307  0.0461
  399TMC3    C3 5958   2.966   1.673   0.444 -0.4774 -0.4303 -0.1703
  399TMC3    C4 5959   2.741   1.724   0.592 -0.1327 -0.2875 -0.2947
  399TMC3    C5 5960   2.822   1.623   0.626  0.6372 -0.7159 -0.5374
  399TMC3    C6 5961   2.942   1.597   0.555  0.6073  0.0319 -0.2139
  399TMC3     C 5962   2.671   1.900   0.430 -0.0720 -0.6410 -0.2226
  399TMC3     O 5963   2.553   1.900   0.470 -0.4733 -0.1167  0.6304
  399TMC3     H 5964   2.895   1.818   0.312 -1.0272  0.7873 -0.1696
  399TMC3    H1 5965   2.645   1.738   0.641 -1.2135  1.4180 -2.8576
  399TMC3    H2 5966   3.005   1.512   0.581  1.3312  0.0838 -1.8280
  399TMC3    C7 5967   2.794   1.541   0.734  0.4037  0.0176 -0.1208
  399TMC3    C8 5968   3.057   1.624   0.334  0.1638 -0.5446  0.0904
  399TMC3    O1 5969   2.840   1.427   0.743 -0.2573  0.1876  0.8447
  399TMC3    O2 5970   3.035   1.666   0.221  0.2515 -0.2962 -0.5511
  400TMC3    C1 5971   0.907   0.782  17.121  0.2073  0.3453 -0.1395
  400TMC3    C2 5972   0.809   0.696  17.147 -0.4061  0.2216  0.1386
  400TMC3    C3 5973   0.698   0.696  17.076 -0.2946 -0.5249 -0.1286
  400TMC3    C4 5974   0.902   0.868  17.017  0.2619  1.0003 -0.3110
  400TMC3    C5 5975   0.791   0.865  16.941  0.1740  0.5210 -0.1480
  400TMC3    C6 5976   0.678   0.787  16.974 -0.2606 -0.3747  0.3026
  400TMC3     C 5977   1.033   0.747  17.189  0.6556  0.0002  0.0542
  400TMC3     O 5978   1.043   0.640  17.244  0.3101 -0.2466 -0.2794
  400TMC3     H 5979   0.819   0.622  17.225  2.8640  0.4934 -0.0187
  400TMC3    H1 5980   0.990   0.914  16.974  1.0710 -1.8681 -1.7533
  400TMC3    H2 5981   0.595   0.797  16.905 -0.4540 -0.8669  0.4637
  400TMC3    C7 5982   0.763   0.985  16.863 -0.0003  0.5887  0.0951
  400TMC3    C8 5983   0.606   0.584  17.085  0.5811  0.6228  1.0286
  400TMC3    O1 5984   0.663   0.982  16.789  0.3431  0.1384  0.3747
  400TMC3    O2 5985   0.611   0.510  17.183  0.1187  0.3595  0.7012
  401MPD2     C 5986   4.175   0.107   1.365  0.0943  0.2304  0.7948
  401MPD2    C1 5987   4.285   0.029   1.351  0.0596  0.0415 -0.1306
  401MPD2    C2 5988   4.261   4.624   1.311 -0.7734 -0.6758  0.5512
  401MPD2    C3 5989   4.132   4.571   1.293  0.3016  0.4531 -0.0065
  401MPD2    C4 5990   4.027   4.649   1.313  0.3200 -0.5689 -0.0746
  401MPD2    C5 5991   4.052   0.055   1.341 -0.2419 -0.4578 -0.0913
  401MPD2     H 5992   4.343   4.558   1.284 -0.7486 -0.0960 -0.7970
  401MPD2    H1 5993   3.925   4.622   1.291  0.5583 -1.2220 -0.3657
  401MPD2    H2 5994   4.185   0.212   1.392  0.6554  0.3888 -0.0380
  401MPD2    H3 5995   3.968   0.124   1.349  0.5809  0.5461 -0.0795
  401MPD2     N 5996   4.126   4.437   1.248  0.2681 -0.7083  0.5084
  401MPD2    H5 5997   4.217   4.398   1.223  0.3517 -1.3836  1.8622
  401MPD2    N1 5998   4.420   0.073   1.363 -0.6480  0.4699 -0.3364
  401MPD2    H7 5999   4.491   0.001   1.359 -0.8038  0.4913 -3.4162
  402TMC3    C1 6000   4.048   4.235   1.202 -0.0436 -0.3711  0.4197
  402TMC3    C2 6001   4.041   4.139   1.297  0.6765  0.4376 -0.0548
  402TMC3    C3 6002   4.127   4.035   1.293 -0.4317  0.1991  0.4434
  402TMC3    C4 6003   4.149   4.240   1.106  0.3949  0.0626  0.1620
  402TMC3    C5 6004   4.244   4.143   1.111  0.2562 -0.1937 -0.2773
  402TMC3    C6 6005   4.233   4.044   1.212  0.5936 -0.5681 -0.3013
  402TMC3     C 6006   4.014   4.359   1.243  0.0447 -0.2659 -0.0339
  402TMC3     O 6007   3.907   4.376   1.307 -0.2283  0.5114  0.5150
  402TMC3     H 6008   3.986   4.154   1.389 -0.2593  0.1537 -0.5666
  402TMC3    H1 6009   4.159   4.321   1.036  1.2600 -0.4608 -0.3298
  402TMC3    H2 6010   4.298   3.958   1.204  3.1105  1.6438 -3.5760
  402TMC3    C7 6011   4.359   4.146   1.022 -0.5264  0.7356 -0.4086
  402TMC3    C8 6012   4.135   3.946   1.406  0.2334 -0.4692 -0.9424
  402TMC3    O1 6013   4.342   4.221   0.926 -0.0805 -0.5170 -0.3432
  402TMC3    O2 6014   4.246   3.912   1.435  0.4125  0.3537 -0.4501
  403MPD2     C 6015   3.010   2.396  13.663 -0.7661 -0.0288 -0.1177
  403MPD2    C1 6016   2.919   2.456  13.747 -0.2190 -0.5109  0.2226
  403MPD2    C2 6017   2.976   2.508  13.863  0.2479  0.1878 -0.0841
  403MPD2    C3 6018   3.112   2.503  13.888 -0.2738 -0.0607 -0.2370
  403MPD2    C4 6019   3.195   2.439  13.803  0.0599  0.6075 -0.8367
  403MPD2    C5 6020   3.145   2.386  13.691 -1.0696  0.1586 -0.2755
  403MPD2     H 6021   2.916   2.553  13.941 -1.2744  0.0557 -1.1891
  403MPD2    H1 6022   3.302   2.436  13.823 -0.0748  3.4454  0.2918
  403MPD2    H2 6023   2.975   2.352  13.571  1.3335 -2.7230  0.3549
  403MPD2    H3 6024   3.211   2.330  13.625 -0.3515 -1.3560  1.7403
  403MPD2     N 6025   3.169   2.532  14.017  0.5151  0.2622 -0.3025
  403MPD2    H5 6026   3.263   2.503  14.042  1.2079  1.9540 -0.9212
  403MPD2    N1 6027   2.779   2.444  13.726  0.2545 -0.2832 -0.2135
  403MPD2    H7 6028   2.754   2.367  13.665  0.6857  0.8097 -1.7804
  404TMC3    C1 6029   2.556   2.442  13.790 -0.2434 -0.3147 -0.8862
  404TMC3    C2 6030   2.512   2.380  13.904  0.1902  0.0200 -0.0517
  404TMC3    C3 6031   2.434   2.266  13.901 -0.0276  0.4676  0.1263
  404TMC3    C4 6032   2.537   2.381  13.666  0.7577 -0.4643 -0.7966
  404TMC3    C5 6033   2.469   2.261  13.666 -0.5580  0.2596  0.2272
  404TMC3    C6 6034   2.421   2.208  13.783 -0.3779 -0.0381 -0.0701
  404TMC3     C 6035   2.682   2.504  13.808 -0.0110 -0.5251 -0.0847
  404TMC3     O 6036   2.701   2.589  13.892 -0.2576 -0.8577 -0.1941
  404TMC3     H 6037   2.540   2.424  13.999 -0.2918  1.1891 -0.4419
  404TMC3    H1 6038   2.574   2.424  13.574  0.2445 -1.1172 -1.3135
  404TMC3    H2 6039   2.379   2.109  13.774  0.9441 -0.7951  2.2812
  404TMC3    C7 6040   2.471   2.156  13.556 -0.1439 -0.1633  0.3314
  404TMC3    C8 6041   2.462   2.171  14.002 -0.1393  0.2117 -0.0232
  404TMC3    O1 6042   2.481   2.042  13.592 -0.4761 -0.1308 -0.5258
  404TMC3    O2 6043   2.541   2.081  13.973 -0.0084 -0.0794 -0.7329
  405MPD2     C 6044   3.011   3.126  15.375  0.0205  0.0719 -0.2441
  405MPD2    C1 6045   3.019   3.039  15.267  0.5911 -0.6917 -0.3354
  405MPD2    C2 6046   3.066   3.085  15.145 -0.4346  0.3964 -0.1132
  405MPD2    C3 6047   3.083   3.219  15.120  0.0186  0.4087 -0.2991
  405MPD2    C4 6048   3.055   3.308  15.223  0.4607 -0.0889 -0.7108
  405MPD2    C5 6049   3.025   3.257  15.349  0.5837 -0.3743  0.1436
  405MPD2     H 6050   3.089   3.011  15.069 -2.0019  1.5139 -1.6868
  405MPD2    H1 6051   3.048   3.414  15.204  1.4824 -0.1483 -1.3978
  405MPD2    H2 6052   2.981   3.104  15.477 -0.9337  1.0261 -0.3119
  405MPD2    H3 6053   3.021   3.322  15.435 -1.7423 -1.1163  0.6072
  405MPD2     N 6054   3.120   3.258  14.992 -0.4502 -0.3832  0.0054
  405MPD2    H5 6055   3.145   3.179  14.933  1.8683  1.1868 -1.1714
  405MPD2    N1 6056   2.981   2.907  15.273  0.0655  0.5883 -0.4168
  405MPD2    H7 6057   3.026   2.860  15.195  0.6723 -0.5571  0.6444
  406TMC3    C1 6058   3.060   3.518  14.610 -0.2006 -0.0286  0.3992
  406TMC3    C2 6059   3.037   3.406  14.529 -0.2749 -0.0193  0.1758
  406TMC3    C3 6060   3.056   3.282  14.587  0.0410  0.1772  0.5913
  406TMC3    C4 6061   3.099   3.504  14.741  0.2043 -0.8544  0.5568
  406TMC3    C5 6062   3.117   3.383  14.795 -0.1936  0.8443 -0.0561
  406TMC3    C6 6063   3.092   3.272  14.722  0.3446 -0.5372 -0.2664
  406TMC3     C 6064   2.990   3.641  14.582 -0.4077  0.1984 -0.0438
  406TMC3     O 6065   2.999   3.683  14.468  0.2635  0.4587  0.1968
  406TMC3     H 6066   2.994   3.416  14.431 -0.8919 -0.7661  0.3696
  406TMC3    H1 6067   3.108   3.599  14.794 -0.2955 -0.9979  0.9039
  406TMC3    H2 6068   3.134   3.179  14.759 -0.3817 -0.5605  0.5033
  406TMC3    C7 6069   3.128   3.385  14.941  0.1096  0.0310 -0.7172
  406TMC3    C8 6070   2.975   3.171  14.533 -0.0154  0.0866  0.3208
  406TMC3    O1 6071   3.119   3.492  14.995 -0.0219 -0.5586 -0.0438
  406TMC3    O2 6072   2.965   3.153  14.414  0.2673 -0.0039  0.1286
  407MPD2     C 6073   0.254   4.523   9.673  0.2555 -0.7894  0.1091
  407MPD2    C1 6074   0.352   4.618   9.671  0.7843 -0.0594 -0.4450
  407MPD2    C2 6075   0.341   0.014   9.740 -0.4414 -0.1910  0.4299
  407MPD2    C3 6076   0.224   0.039   9.800  0.3585 -0.4872  0.1118
  407MPD2    C4 6077   0.123   4.674   9.791  0.4727  0.0352 -0.3188
  407MPD2    C5 6078   0.143   4.555   9.731 -0.1113 -0.0107  0.2341
  407MPD2     H 6079   0.418   0.090   9.726  0.2611 -0.8840  0.5314
  407MPD2    H1 6080   0.021   4.682   9.826  0.6726  3.2424 -0.4664
  407MPD2    H2 6081   0.255   4.430   9.617 -3.5772 -0.0082 -1.2408
  407MPD2    H3 6082   0.068   4.477   9.729 -0.2629  0.1318  0.3750
  407MPD2     N 6083   0.203   0.153   9.889  0.7923  0.2352 -0.1888
  407MPD2    H5 6084   0.117   0.152   9.942  1.3130 -1.7165  0.6366
  407MPD2    N1 6085   0.480   4.602   9.611 -0.4621  0.9386  0.3129
  407MPD2    H7 6086   0.530   4.690   9.599  0.2771  0.0975 -2.5513
  408TMC3    C1 6087   0.657   4.506   9.500  0.0148 -0.2334 -0.7027
  408TMC3    C2 6088   0.762   4.439   9.549  0.4776  0.1729  0.4129
  408TMC3    C3 6089   0.888   4.471   9.510  0.7829 -0.1292 -0.4700
  408TMC3    C4 6090   0.677   4.627   9.444 -0.4662 -0.6925  0.8465
  408TMC3    C5 6091   0.804   4.667   9.414 -0.2236  0.1956 -0.3651
  408TMC3    C6 6092   0.911   4.595   9.447  0.2517  0.5834 -0.5037
  408TMC3     C 6093   0.536   4.487   9.564  0.0547  0.1531 -0.1876
  408TMC3     O 6094   0.505   4.373   9.595 -0.2537 -0.4067 -0.6734
  408TMC3     H 6095   0.738   4.346   9.600 -0.8524 -0.9568 -2.2473
  408TMC3    H1 6096   0.586   4.670   9.406 -0.1067  0.7164  1.5355
  408TMC3    H2 6097   1.002   4.623   9.394  1.6052 -2.1837  0.3520
  408TMC3    C7 6098   0.833   0.079   9.366  0.2998  0.1694 -0.5425
  408TMC3    C8 6099   0.988   4.408   9.586  0.3536 -0.4775  0.2050
  408TMC3    O1 6100   0.948   0.121   9.377  0.4587  0.0210 -0.6165
  408TMC3    O2 6101   0.956   4.322   9.670 -0.0667  0.4472  0.7878
  409MPD2     C 6102   4.725   0.408  17.345  0.2766 -0.2957  0.1341
  409MPD2    C1 6103   0.126   0.445  17.388 -0.1398 -0.0454 -0.6299
  409MPD2    C2 6104   0.181   0.563  17.356 -0.4160  0.0768 -0.2697
  409MPD2    C3 6105   0.121   0.655  17.283 -0.4310 -0.0214 -0.3572
  409MPD2    C4 6106   4.720   0.621  17.230 -0.1140  1.4338 -0.4863
  409MPD2    C5 6107   4.659   0.502  17.268  0.1555 -0.0298  0.5139
  409MPD2     H 6108   0.274   0.581  17.408 -0.3044 -1.5031  0.0818
  409MPD2    H1 6109   4.656   0.692  17.179 -2.9862  0.1385  1.3026
  409MPD2    H2 6110   4.671   0.318  17.372  1.6081 -0.8313  0.9886
  409MPD2    H3 6111   4.560   0.481  17.230  0.3827 -0.5936  0.2302
  409MPD2     N 6112   0.174   0.781  17.250 -0.4741  0.7716 -0.2376
  409MPD2    H5 6113   0.105   0.843  17.209 -1.8434 -0.4828  0.1546
  409MPD2    N1 6114   0.207   0.359  17.464  0.2032  0.9909 -0.3021
  409MPD2    H7 6115   0.303   0.386  17.482  0.6548  0.4366 -1.9039
  410TMC3    C1 6116   0.329   0.961  17.229  0.0443  0.4085  0.5404
  410TMC3    C2 6117   0.437   1.015  17.285  0.1181 -0.2728 -0.0641
  410TMC3    C3 6118   0.516   1.105  17.216 -0.0175  0.4844  0.2134
  410TMC3    C4 6119   0.306   0.992  17.097  0.2973  0.0412  0.0580
  410TMC3    C5 6120   0.383   1.090  17.031 -0.8359 -1.3891  0.0248
  410TMC3    C6 6121   0.499   1.136  17.083  0.0530  0.3791  0.2345
  410TMC3     C 6122   0.304   0.818  17.270 -0.2992 -0.6888  0.0325
  410TMC3     O 6123   0.401   0.758  17.311  0.1990 -0.2035 -0.4995
  410TMC3     H 6124   0.441   1.004  17.393  0.8505 -3.0131 -0.3609
  410TMC3    H1 6125   0.224   0.943  17.046  0.0787 -1.0372  1.4290
  410TMC3    H2 6126   0.564   1.205  17.031  0.2060 -2.3266 -3.1469
  410TMC3    C7 6127   0.316   1.146  16.919  0.0932  0.4160 -0.4953
  410TMC3    C8 6128   0.655   1.096  17.258  0.6560 -0.5148  0.7416
  410TMC3    O1 6129   0.237   1.066  16.865 -0.0364  0.1558  0.4880
  410TMC3    O2 6130   0.736   1.172  17.205  0.2854 -0.3941  0.7837
  411MPD2     C 6131   0.670   2.083  14.775  0.6877  0.5257  0.8840
  411MPD2    C1 6132   0.567   2.020  14.839 -0.7957  0.2868 -0.5350
  411MPD2    C2 6133   0.505   1.911  14.782  0.1926  0.7816 -0.0991
  411MPD2    C3 6134   0.550   1.860  14.662 -0.3254 -0.0823  0.1966
  411MPD2    C4 6135   0.663   1.919  14.600  0.8613 -0.9228  0.3682
  411MPD2    C5 6136   0.712   2.036  14.654  0.1427  0.6458 -0.3733
  411MPD2     H 6137   0.422   1.862  14.830  2.3857 -0.2768  2.5841
  411MPD2    H1 6138   0.697   1.879  14.505 -2.3083  1.6163 -1.8452
  411MPD2    H2 6139   0.731   2.164  14.813 -0.4008  1.2385  1.0788
  411MPD2    H3 6140   0.802   2.082  14.613  0.0214 -0.0185 -1.3905
  411MPD2     N 6141   0.496   1.742  14.602 -0.0325 -0.4909 -0.2531
  411MPD2    H5 6142   0.533   1.719  14.510 -1.0064 -0.2976 -0.6936
  411MPD2    N1 6143   0.523   2.064  14.962 -0.8569 -0.4604  0.4164
  411MPD2    H7 6144   0.453   2.009  15.011 -0.5168 -1.0540  0.2289
  412TMC3    C1 6145   0.326   1.586  14.536 -0.6004  0.5251  0.2473
  412TMC3    C2 6146   0.235   1.495  14.585 -0.0021 -0.1908 -0.2573
  412TMC3    C3 6147   0.159   1.436  14.489 -0.2019  0.1688 -0.5768
  412TMC3    C4 6148   0.338   1.623  14.409  0.1981  0.8663 -0.1624
  412TMC3    C5 6149   0.245   1.573  14.321  0.0913 -0.0989  0.0451
  412TMC3    C6 6150   0.160   1.473  14.359  0.1210 -0.4413 -0.9219
  412TMC3     C 6151   0.397   1.661  14.651  0.0640  0.3501  0.2335
  412TMC3     O 6152   0.348   1.652  14.762 -0.3275 -0.2644 -0.6474
  412TMC3     H 6153   0.219   1.490  14.692  0.3357  2.4832 -0.0918
  412TMC3    H1 6154   0.393   1.713  14.384  1.7183  0.0821  0.3336
  412TMC3    H2 6155   0.090   1.425  14.291 -0.2581 -0.8184 -0.2800
  412TMC3    C7 6156   0.195   1.668  14.224  0.5102  0.5508 -0.6760
  412TMC3    C8 6157   0.021   1.431  14.524  0.3023 -0.0461 -0.2760
  412TMC3    O1 6158   0.264   1.751  14.171  0.2417 -0.2266  0.1360
  412TMC3    O2 6159   4.680   1.520  14.471  0.3226 -0.1672 -0.2093
  413MPD2     C 6160   2.031   4.291  15.996  0.2871  0.2631 -0.3620
  413MPD2    C1 6161   2.005   4.259  15.863 -0.2988 -0.1296  0.5378
  413MPD2    C2 6162   2.106   4.213  15.789  0.2194  0.2790  0.0044
  413MPD2    C3 6163   2.224   4.176  15.848 -0.0668 -0.3027  0.1041
  413MPD2    C4 6164   2.249   4.209  15.983  0.8023  0.1616 -0.2532
  413MPD2    C5 6165   2.150   4.261  16.059 -0.0715  0.1961 -0.3565
  413MPD2     H 6166   2.088   4.199  15.683 -0.0605 -1.1940  0.2445
  413MPD2    H1 6167   2.331   4.177  16.046  0.6645 -0.1748 -0.2443
  413MPD2    H2 6168   1.951   4.317  16.064  0.3144 -0.9864  0.1555
  413MPD2    H3 6169   2.165   4.276  16.166  0.7978  1.5744 -0.6773
  413MPD2     N 6170   2.313   4.103  15.765  0.1245 -0.1333  0.5094
  413MPD2    H5 6171   2.271   4.063  15.681  2.2633  2.9890 -2.0647
  413MPD2    N1 6172   1.876   4.273  15.825  0.5139  0.3100 -0.5721
  413MPD2    H7 6173   1.810   4.282  15.901  1.1227 -2.8388  0.3417
  414TMC3    C1 6174   2.469   3.949  15.739  0.0969  0.1329 -0.9448
  414TMC3    C2 6175   2.492   3.843  15.813  0.0363  0.6472 -0.2385
  414TMC3    C3 6176   2.545   3.734  15.756  0.3357  0.5482  0.2910
  414TMC3    C4 6177   2.506   3.951  15.607 -1.1062 -0.3880  0.1575
  414TMC3    C5 6178   2.556   3.841  15.554 -0.7083  0.1174  0.9127
  414TMC3    C6 6179   2.575   3.727  15.622  0.1034  0.2206 -0.0681
  414TMC3     C 6180   2.435   4.068  15.811  0.6061 -0.2954  0.2226
  414TMC3     O 6181   2.495   4.093  15.918  0.1503  0.2073  0.6660
  414TMC3     H 6182   2.472   3.853  15.919 -0.7169 -0.4565 -0.2749
  414TMC3    H1 6183   2.496   4.041  15.547  1.7645 -0.2726 -0.1623
  414TMC3    H2 6184   2.618   3.638  15.578 -1.3497 -0.1819 -0.6785
  414TMC3    C7 6185   2.644   3.864  15.434  0.2906 -0.1800 -0.1114
  414TMC3    C8 6186   2.597   3.634  15.844  0.2069  0.3357  0.3227
  414TMC3    O1 6187   2.686   3.978  15.413 -0.6053 -0.5569  0.1427
  414TMC3    O2 6188   2.596   3.516  15.806 -0.2980 -0.5311 -0.1775
  415TMC3    C1 6189   3.025   2.343  10.433 -0.5022 -0.2068  0.1147
  415TMC3    C2 6190   3.112   2.399  10.343 -0.4184  0.4712  0.1497
  415TMC3    C3 6191   3.195   2.322  10.279 -0.0074  0.1100 -0.0042
  415TMC3    C4 6192   3.011   2.209  10.455 -0.3529 -0.1381  0.5265
  415TMC3    C5 6193   3.105   2.130  10.390  0.2665  0.3661  0.4942
  415TMC3    C6 6194   3.201   2.188  10.308 -0.1500  0.0660  0.1357
  415TMC3     C 6195   2.934   2.427  10.510  0.2754 -0.8471 -0.2816
  415TMC3     O 6196   2.893   2.370  10.609  0.2360 -0.7537 -0.0822
  415TMC3     H 6197   3.119   2.506  10.323  1.9533  0.4086  0.6022
  415TMC3    H1 6198   2.936   2.172  10.524  0.3274 -2.1353  0.1992
  415TMC3    H2 6199   3.268   2.123  10.253  0.3030  0.0107  0.7540
  415TMC3    C7 6200   3.084   1.984  10.388 -0.0057  0.1578  0.1161
  415TMC3    C8 6201   3.295   2.370  10.178  0.3650 -0.4722  0.2555
  415TMC3    O1 6202   3.144   1.926  10.299 -0.0748 -0.4478  0.1396
  415TMC3    O2 6203   3.380   2.292  10.137 -0.8796  0.0918  0.5107
  416MPD2     C 6204   4.534   1.057  12.046  0.5322 -0.6182 -0.0733
  416MPD2    C1 6205   4.476   1.100  11.933 -0.3252  0.1792 -0.6937
  416MPD2    C2 6206   4.422   1.014  11.833  0.8765 -0.3546  0.0127
  416MPD2    C3 6207   4.443   0.882  11.856 -0.1866 -0.5518  0.1104
  416MPD2    C4 6208   4.512   0.839  11.971  0.5416 -0.1396  0.1439
  416MPD2    C5 6209   4.564   0.921  12.063  0.2340  0.4004 -0.0802
  416MPD2     H 6210   4.363   1.055  11.751  0.8254 -1.6142 -0.5802
  416MPD2    H1 6211   4.509   0.733  11.996 -0.7759 -0.0357  0.4094
  416MPD2    H2 6212   4.565   1.125  12.123 -0.1860 -0.5241  0.1336
  416MPD2    H3 6213   4.612   0.892  12.156 -1.7041  0.6033  1.0132
  416MPD2     N 6214   4.400   0.782  11.768 -1.0263  0.0330 -0.1464
  416MPD2    H5 6215   4.396   0.689  11.807 -1.0995 -0.3749 -1.1352
  416MPD2    N1 6216   4.462   1.243  11.930 -0.2354  0.0480  0.5195
  416MPD2    H7 6217   4.490   1.286  12.017 -0.1165  1.3510 -0.1569
  417TMC3    C1 6218   4.370   1.448  11.852 -0.1871 -0.6490  0.6847
  417TMC3    C2 6219   4.368   1.501  11.977  0.3321 -0.7185  0.6330
  417TMC3    C3 6220   4.334   1.635  11.994 -0.5901  0.1130 -0.1003
  417TMC3    C4 6221   4.335   1.533  11.748  0.1308  0.1005 -0.1789
  417TMC3    C5 6222   4.281   1.654  11.776 -0.3232 -0.1239  0.4007
  417TMC3    C6 6223   4.277   1.707  11.899 -0.2858 -1.1302  0.5466
  417TMC3     C 6224   4.413   1.320  11.825 -0.8171 -0.3384 -0.9606
  417TMC3     O 6225   4.376   1.282  11.714 -0.3532 -0.1488  0.3006
  417TMC3     H 6226   4.383   1.434  12.062 -0.0993 -1.3557  0.2104
  417TMC3    H1 6227   4.328   1.496  11.646  0.0849  1.4567 -0.6783
  417TMC3    H2 6228   4.242   1.808  11.919 -0.4847 -1.1183  0.1364
  417TMC3    C7 6229   4.266   1.736  11.659  0.3283  0.2372  0.2820
  417TMC3    C8 6230   4.321   1.685  12.131 -0.2057 -0.3050  0.2582
  417TMC3    O1 6231   4.359   1.759  11.583  0.6789 -0.1208  0.0340
  417TMC3    O2 6232   4.234   1.770  12.148  0.2537 -0.2338  0.5701
  418TMC3    C1 6233   2.986   2.778   0.085 -0.3016  0.0328 -0.2189
  418TMC3    C2 6234   2.928   2.669   0.143  0.3582  0.9196 -0.2493
  418TMC3    C3 6235   2.831   2.693   0.229 -0.0408 -0.4459 -0.1907
  418TMC3    C4 6236   2.961   2.910   0.128 -0.3437 -0.2906 -0.0323
  418TMC3    C5 6237   2.866   2.927   0.225  0.0530  0.0179  0.1349
  418TMC3    C6 6238   2.796   2.819   0.264 -0.0938 -0.7619  0.1347
  418TMC3     C 6239   3.102   2.760   0.001  0.2210 -0.0968 -0.1150
  418TMC3     O 6240   3.132   2.861  17.635 -0.3699 -0.2381  0.7278
  418TMC3     H 6241   2.942   2.572   0.096  2.4415  1.2541 -0.3085
  418TMC3    H1 6242   3.022   2.990   0.088 -1.2605  1.0028  1.1406
  418TMC3    H2 6243   2.736   2.832   0.353  1.2376 -0.1942  0.9389
  418TMC3    C7 6244   2.886   3.030   0.321  0.2139  0.2729 -0.1837
  418TMC3    C8 6245   2.730   2.594   0.261 -0.1026  0.3960 -0.3023
  418TMC3    O1 6246   2.860   3.002   0.436  0.1856  0.2250  0.8978
  418TMC3    O2 6247   2.630   2.628   0.320  0.0752 -0.0596 -0.5136
  419MPD2     C 6248   2.012   1.001  12.927 -0.3556  0.5894 -0.4050
  419MPD2    C1 6249   1.961   1.107  12.864  0.0482 -0.3455 -0.2133
  419MPD2    C2 6250   1.873   1.184  12.932 -0.1134 -0.2072  0.3073
  419MPD2    C3 6251   1.859   1.181  13.068  0.1895  0.5287  0.3119
  419MPD2    C4 6252   1.919   1.073  13.129 -0.2315  0.0248  0.1687
  419MPD2    C5 6253   1.984   0.976  13.061  0.3402  0.3459  0.4325
  419MPD2     H 6254   1.826   1.263  12.874  0.3101 -2.2853 -2.8621
  419MPD2    H1 6255   1.904   1.053  13.235 -0.1066  2.4955  0.6538
  419MPD2    H2 6256   2.079   0.934  12.875  0.8021  0.4497  1.2617
  419MPD2    H3 6257   2.026   0.890  13.111  0.0822 -1.1060 -1.8311
  419MPD2     N 6258   1.787   1.287  13.132  0.1758  0.6709  0.2356
  419MPD2    H5 6259   1.759   1.364  13.072 -0.5337  1.1664  1.1978
  419MPD2    N1 6260   2.002   1.148  12.733 -0.2492 -0.0701  0.4636
  419MPD2    H7 6261   1.957   1.229  12.690  0.3666  0.4727  0.8531
  420TMC3    C1 6262   1.714   1.420  13.320  0.3741  0.6871  0.5277
  420TMC3    C2 6263   1.632   1.496  13.237 -0.3449  0.0054  0.0312
  420TMC3    C3 6264   1.577   1.604  13.300 -0.1270  0.0804  0.7632
  420TMC3    C4 6265   1.743   1.453  13.450  0.1831 -0.2578  1.1045
  420TMC3    C5 6266   1.681   1.564  13.508  0.5293  0.2203  0.0485
  420TMC3    C6 6267   1.591   1.631  13.433 -0.1678 -0.8519  0.4285
  420TMC3     C 6268   1.782   1.305  13.268  0.2556 -0.5060  0.2799
  420TMC3     O 6269   1.851   1.239  13.347  0.1875 -0.0856  0.5959
  420TMC3     H 6270   1.621   1.479  13.130  1.1920  2.2809 -0.4931
  420TMC3    H1 6271   1.806   1.390  13.512  1.0870 -1.0653 -0.6362
  420TMC3    H2 6272   1.518   1.692  13.486 -0.2070  0.1098 -0.7239
  420TMC3    C7 6273   1.680   1.569  13.657 -0.1407  0.5085 -0.0797
  420TMC3    C8 6274   1.487   1.691  13.222 -1.2418 -0.3509 -0.1927
  420TMC3    O1 6275   1.724   1.474  13.721  0.5072 -0.1489  0.2518
  420TMC3    O2 6276   1.451   1.802  13.270 -0.4327  0.1508  0.3000
  421TMC3    C1 6277   3.158   2.526  14.249 -0.6165 -0.7252 -0.7022
  421TMC3    C2 6278   3.145   2.600  14.352  0.2676 -0.3792 -0.1634
  421TMC3    C3 6279   3.205   2.567  14.467  0.0058 -0.3703 -0.2661
  421TMC3    C4 6280   3.190   2.394  14.262  0.0581  0.1267  0.0155
  421TMC3    C5 6281   3.229   2.353  14.388 -0.9865  0.0011  0.0520
  421TMC3    C6 6282   3.253   2.440  14.487 -0.1858  0.2478 -0.3351
  421TMC3     C 6283   3.101   2.576  14.126 -0.4635 -0.0109  0.3932
  421TMC3     O 6284   3.005   2.649  14.149 -0.7145 -0.4006  0.1653
  421TMC3     H 6285   3.117   2.704  14.339  1.2711  0.2196  2.3131
  421TMC3    H1 6286   3.184   2.316  14.187 -0.1698  1.3945 -1.2779
  421TMC3    H2 6287   3.277   2.408  14.588  0.1593  0.1178 -0.4575
  421TMC3    C7 6288   3.298   2.221  14.371 -0.2900  0.0425  0.5197
  421TMC3    C8 6289   3.239   2.663  14.573 -0.6585 -0.2806  0.3264
  421TMC3    O1 6290   3.239   2.129  14.318 -0.2450 -0.5288  0.4036
  421TMC3    O2 6291   3.271   2.613  14.683 -0.5329 -0.5400 -0.6639
  422TMC3    C1 6292   0.635   4.208  12.922  0.2116 -0.1312 -0.1822
  422TMC3    C2 6293   0.654   4.280  13.034 -0.1823  0.0601 -0.1776
  422TMC3    C3 6294   0.603   4.230  13.152 -0.4227  0.5467 -0.7288
  422TMC3    C4 6295   0.566   4.089  12.923  0.1592  0.4724 -0.2210
  422TMC3    C5 6296   0.504   4.054  13.040  0.1152 -0.4772  0.0769
  422TMC3    C6 6297   0.530   4.113  13.156  0.5014 -0.2717  1.0510
  422TMC3     C 6298   0.700   4.248  12.800  0.4949 -0.2187  0.9012
  422TMC3     O 6299   0.802   4.320  12.797 -0.5012 -0.1290  0.6610
  422TMC3     H 6300   0.707   4.375  13.031  0.3215 -0.2960 -2.3522
  422TMC3    H1 6301   0.534   4.039  12.832  0.7029  1.0600 -0.7342
  422TMC3    H2 6302   0.491   4.074  13.249  0.6355 -0.2046  1.1354
  422TMC3    C7 6303   0.394   3.955  13.017 -0.1500 -0.7390 -0.0109
  422TMC3    C8 6304   0.623   4.313  13.272  0.5901  0.4697  0.2768
  422TMC3    O1 6305   0.398   3.883  12.919 -0.4774  0.2089  0.2085
  422TMC3    O2 6306   0.658   4.430  13.249 -0.3438 -0.2190 -0.6675
  423MPD2     C 6307   2.051   0.743   0.805  0.4182  0.1696  0.3418
  423MPD2    C1 6308   1.999   0.637   0.875  0.0303  0.6837 -0.3313
  423MPD2    C2 6309   1.981   0.515   0.813 -0.4157 -0.0174  0.1530
  423MPD2    C3 6310   2.037   0.495   0.682 -0.1067 -0.2921 -0.1519
  423MPD2    C4 6311   2.109   0.599   0.628  0.7143  0.5546  0.7320
  423MPD2    C5 6312   2.121   0.718   0.693  0.2768  0.1279 -0.1678
  423MPD2     H 6313   1.934   0.430   0.861 -2.3774  0.7492 -0.3942
  423MPD2    H1 6314   2.172   0.591   0.540  1.6833  1.4648  1.3354
  423MPD2    H2 6315   2.078   0.841   0.844 -1.2577  0.5438  0.5391
  423MPD2    H3 6316   2.181   0.795   0.646  1.3999 -0.4638  0.2881
  423MPD2     N 6317   2.022   0.379   0.613  0.0854  0.5807  0.2203
  423MPD2    H5 6318   2.069   0.379   0.523  0.3818  1.0838  0.3734
  423MPD2    N1 6319   1.958   0.647   1.011  0.5204  0.0082  0.6235
  423MPD2    H7 6320   1.940   0.560   1.061 -0.0489 -0.1608  0.1160
  424TMC3    C1 6321   1.873   0.736   1.212 -0.6431 -0.3273 -0.0798
  424TMC3    C2 6322   1.894   0.618   1.273  0.0943  0.3834  0.2226
  424TMC3    C3 6323   1.815   0.593   1.386 -0.0877 -0.5369  0.7890
  424TMC3    C4 6324   1.779   0.822   1.250 -0.4659 -0.5718 -0.0473
  424TMC3    C5 6325   1.685   0.781   1.343  0.4101 -0.9502  0.1713
  424TMC3    C6 6326   1.709   0.673   1.429  0.9877 -0.3149  0.4091
  424TMC3     C 6327   1.943   0.765   1.088 -0.1398 -0.0933 -0.1359
  424TMC3     O 6328   1.950   0.884   1.046 -0.0152  0.5982 -0.0519
  424TMC3     H 6329   1.982   0.562   1.241 -1.8522 -2.7535  0.3126
  424TMC3    H1 6330   1.762   0.920   1.205  0.1344 -0.3228  0.2745
  424TMC3    H2 6331   1.648   0.643   1.514  1.7783 -0.5498  0.9005
  424TMC3    C7 6332   1.560   0.851   1.354  0.0015  0.0027 -0.5639
  424TMC3    C8 6333   1.859   0.491   1.478 -0.3263  0.0312  0.4326
  424TMC3    O1 6334   1.550   0.945   1.275 -0.4244  0.4243 -0.7600
  424TMC3    O2 6335   1.787   0.474   1.574 -0.5439  0.2126 -0.0625
  425MPD2     C 6336   1.266   4.465  17.567  0.0878  0.6275  0.4429
  425MPD2    C1 6337   1.250   4.356  17.656  0.2019 -0.1377 -0.6527
  425MPD2    C2 6338   1.152   4.357   0.051 -0.9566  0.1192  0.2838
  425MPD2    C3 6339   1.065   4.465   0.059 -0.4310 -0.0264  0.5462
  425MPD2    C4 6340   1.076   4.569  17.682  0.7998  0.6361 -0.6542
  425MPD2    C5 6341   1.173   4.570  17.585  0.2081 -0.4699  0.0962
  425MPD2     H 6342   1.130   4.283   0.127  1.1734  1.0019  1.7779
  425MPD2    H1 6343   1.014   4.659  17.683 -0.6475 -0.3681  2.6192
  425MPD2    H2 6344   1.330   4.470  17.481 -1.5623 -1.1077 -0.8705
  425MPD2    H3 6345   1.179   4.660  17.526  2.2207 -1.6305 -1.5183
  425MPD2     N 6346   0.958   4.462   0.146  0.0222 -0.2645 -0.4449
  425MPD2    H5 6347   0.952   4.370   0.189 -3.9122  1.0732  1.8542
  425MPD2    N1 6348   1.353   4.256  17.648  0.3130 -0.3799  0.7330
  425MPD2    H7 6349   1.427   4.266  17.579  0.7035  0.2851  1.2525
  426TMC3    C1 6350   1.453   4.047  17.671  0.4959  0.3344  0.0335
  426TMC3    C2 6351   1.456   4.031  17.530  0.4692  0.0502 -0.8930
  426TMC3    C3 6352   1.498   3.910  17.483  0.1996  0.7390 -0.1417
  426TMC3    C4 6353   1.491   3.942   0.053  0.4070 -0.3942 -0.4028
  426TMC3    C5 6354   1.521   3.824   0.001  0.4524  0.1381  0.1653
  426TMC3    C6 6355   1.525   3.804  17.569  0.0194  0.5926 -0.4201
  426TMC3     C 6356   1.353   4.139   0.021  0.0586  0.4408  0.2391
  426TMC3     O 6357   1.276   4.098   0.105  0.1518 -0.1784  0.3556
  426TMC3     H 6358   1.412   4.104  17.464  1.6620  0.3191 -1.4046
  426TMC3    H1 6359   1.476   3.960   0.159  0.4721  0.5564 -0.5627
  426TMC3    H2 6360   1.535   3.701  17.535 -1.0172  0.5030 -0.4589
  426TMC3    C7 6361   1.538   3.711   0.094 -0.3330  0.5764  0.2308
  426TMC3    C8 6362   1.473   3.867  17.349 -0.1529 -0.1697  0.1615
  426TMC3    O1 6363   1.617   3.625   0.067 -0.1034  0.5796  0.3630
  426TMC3    O2 6364   1.534   3.770  17.303  0.2184 -0.2868 -0.3061
  427MPD2     C 6365   4.047   1.045  14.718  0.3566 -0.4686 -0.3028
  427MPD2    C1 6366   4.093   1.044  14.850 -0.2275 -0.9524  0.5066
  427MPD2    C2 6367   4.045   1.138  14.937 -0.2178 -0.7606  0.4316
  427MPD2    C3 6368   3.969   1.251  14.896  0.6134 -0.0180  0.4381
  427MPD2    C4 6369   3.940   1.261  14.758  0.2056  0.4551  0.3486
  427MPD2    C5 6370   3.978   1.161  14.674  0.4331 -0.3105  1.0375
  427MPD2     H 6371   4.084   1.140  15.038 -2.2099  0.3314  1.1828
  427MPD2    H1 6372   3.884   1.340  14.709  1.8637  0.9428 -0.7661
  427MPD2    H2 6373   4.059   0.964  14.647  0.4267 -2.0730  1.5357
  427MPD2    H3 6374   3.934   1.160  14.575 -0.2318  0.7975  1.3166
  427MPD2     N 6375   3.921   1.358  14.983 -0.1597  0.1337  0.9040
  427MPD2    H5 6376   3.849   1.421  14.949 -0.5278  0.6983  2.7786
  427MPD2    N1 6377   4.186   0.946  14.895 -0.2234 -0.2608  0.5810
  427MPD2    H7 6378   4.221   0.941  14.990  0.1225 -1.6562  0.3760
  428TMC3    C1 6379   4.341   0.770  14.876 -0.5833 -0.3920 -0.3203
  428TMC3    C2 6380   4.347   0.632  14.901 -0.5712 -0.3091  0.8695
  428TMC3    C3 6381   4.439   0.589  14.988  0.2681  0.4152  0.0975
  428TMC3    C4 6382   4.427   0.854  14.933 -0.4339  0.2704 -0.1648
  428TMC3    C5 6383   4.525   0.800  15.009 -0.5439 -0.4017 -0.2057
  428TMC3    C6 6384   4.534   0.669  15.043  0.1843 -0.4326  0.4683
  428TMC3     C 6385   4.226   0.833  14.820  0.0581 -0.4028 -0.5037
  428TMC3     O 6386   4.167   0.786  14.722 -0.0791  0.0475  0.8766
  428TMC3     H 6387   4.281   0.566  14.846  0.1027  0.7198 -1.1845
  428TMC3    H1 6388   4.430   0.960  14.910  1.2287  0.8681  2.7573
  428TMC3    H2 6389   4.621   0.636  15.098  1.0385  0.8280 -0.1130
  428TMC3    C7 6390   4.620   0.876  15.082 -0.1187  0.6379  0.5675
  428TMC3    C8 6391   4.448   0.443  14.997 -0.2135 -1.0586  0.0328
  428TMC3    O1 6392   4.660   0.840  15.191  0.1070  0.1273  0.1445
  428TMC3    O2 6393   4.556   0.394  15.015  0.3255 -0.6613  0.4504
  429MPD2     C 6394   1.264   1.422   0.232 -0.4075  0.0731 -0.4056
  429MPD2    C1 6395   1.170   1.346   0.173 -0.4314 -0.4938  0.3228
  429MPD2    C2 6396   1.092   1.401   0.075 -0.1455  0.0399 -0.2483
  429MPD2    C3 6397   1.114   1.526   0.021  0.3470  0.2713  0.0057
  429MPD2    C4 6398   1.212   1.599   0.082  0.3363  0.7000 -0.2338
  429MPD2    C5 6399   1.287   1.546   0.183  0.5346  0.5574 -0.3175
  429MPD2     H 6400   1.015   1.338   0.031  0.6416 -0.6589 -0.6182
  429MPD2    H1 6401   1.235   1.701   0.053 -0.0485  0.6241 -0.8153
  429MPD2    H2 6402   1.335   1.392   0.309 -1.4053 -0.5131  0.2774
  429MPD2    H3 6403   1.354   1.611   0.237  2.5454 -0.8186 -1.1054
  429MPD2     N 6404   1.040   1.569  17.614 -0.5809  0.9504 -0.1512
  429MPD2    H5 6405   0.972   1.506  17.572  0.2473 -0.4004  0.5066
  429MPD2    N1 6406   1.132   1.220   0.226 -0.2545  0.4658 -0.2289
  429MPD2    H7 6407   1.068   1.161   0.174  0.1608  0.6573 -0.9562
  430TMC3    C1 6408   0.993   1.711  17.431 -0.3326  0.6738  1.0449
  430TMC3    C2 6409   0.949   1.840  17.402  0.3581  0.1414 -0.4328
  430TMC3    C3 6410   0.952   1.878  17.275  0.3047 -0.0686  0.5136
  430TMC3    C4 6411   1.011   1.623  17.333 -0.1844 -0.5537  0.2854
  430TMC3    C5 6412   0.997   1.663  17.201  0.5164  0.1974 -0.5312
  430TMC3    C6 6413   0.963   1.795  17.169 -0.0228 -0.2666 -0.0259
  430TMC3     C 6414   1.043   1.696  17.561  0.6645 -0.2130  0.5287
  430TMC3     O 6415   1.092   1.797  17.617  0.6786 -0.4562 -0.2909
  430TMC3     H 6416   0.929   1.911  17.481  2.3397  2.3264 -1.9097
  430TMC3    H1 6417   1.037   1.521  17.359 -1.7285 -0.7100  1.2432
  430TMC3    H2 6418   0.964   1.825  17.064 -0.7678 -0.2756 -0.0391
  430TMC3    C7 6419   0.982   1.547  17.109 -0.3243 -0.1696 -0.0592
  430TMC3    C8 6420   0.885   1.997  17.247 -0.3774  0.4520  0.1403
  430TMC3    O1 6421   1.019   1.436  17.158  0.3869 -0.0644 -0.4038
  430TMC3    O2 6422   0.931   2.062  17.151  0.0661 -0.0035  0.1590
  431MPD2     C 6423   1.794   1.882  12.689  0.1622 -0.4092  0.0551
  431MPD2    C1 6424   1.915   1.888  12.624 -0.0165  0.1623  1.2748
  431MPD2    C2 6425   1.985   1.782  12.577 -0.5138 -0.2474 -0.3261
  431MPD2    C3 6426   1.922   1.656  12.580 -1.1081  0.5539  0.1471
  431MPD2    C4 6427   1.801   1.644  12.636 -0.1945 -0.8317  0.3988
  431MPD2    C5 6428   1.739   1.762  12.680 -0.7784 -0.0715  0.2160
  431MPD2     H 6429   2.086   1.791  12.537 -0.2371 -2.7756 -0.1737
  431MPD2    H1 6430   1.746   1.551  12.628 -0.1703 -1.0739  2.9507
  431MPD2    H2 6431   1.738   1.970  12.717  0.2901 -0.3365  0.0810
  431MPD2    H3 6432   1.640   1.742  12.719 -0.7499 -0.0588  0.2955
  431MPD2     N 6433   1.984   1.542  12.534 -0.5953  0.1646 -0.3801
  431MPD2    H5 6434   1.931   1.460  12.563 -0.5112  0.4348  0.5515
  431MPD2    N1 6435   1.975   2.014  12.632  0.4003  0.4895 -0.3813
  431MPD2    H7 6436   1.920   2.079  12.688  0.3445  0.4855 -0.4314
  432TMC3    C1 6437   2.147   1.399  12.467  0.9073  0.1860 -0.0534
  432TMC3    C2 6438   2.223   1.359  12.364 -0.2593 -0.3846  0.1185
  432TMC3    C3 6439   2.269   1.231  12.364  0.0075  0.6277  0.1439
  432TMC3    C4 6440   2.114   1.321  12.571 -0.7593  0.3041  0.7405
  432TMC3    C5 6441   2.147   1.186  12.555  0.7445 -0.7825 -0.0540
  432TMC3    C6 6442   2.221   1.140  12.453 -0.2538  0.2053 -0.1624
  432TMC3     C 6443   2.106   1.533  12.470 -0.0729 -0.1007  0.4831
  432TMC3     O 6444   2.158   1.621  12.398  0.0528 -0.0942 -0.2369
  432TMC3     H 6445   2.236   1.428  12.281  0.0848 -0.2460  0.2901
  432TMC3    H1 6446   2.084   1.363  12.667 -2.0445  1.8474 -0.3433
  432TMC3    H2 6447   2.237   1.035  12.433 -0.5883 -0.3008  2.2541
  432TMC3    C7 6448   2.098   1.091  12.655 -0.9410 -0.1469  0.4615
  432TMC3    C8 6449   2.344   1.166  12.256  0.7376 -0.6381 -1.0452
  432TMC3    O1 6450   2.169   0.994  12.684 -0.1545 -0.3785  0.5222
  432TMC3    O2 6451   2.309   1.051  12.228 -0.4067 -0.2039 -0.1375
  433MPD2     C 6452   0.438   0.756  11.104 -0.0143  0.3111 -0.0614
  433MPD2    C1 6453   0.351   0.682  11.191  0.1610 -0.2722 -0.8704
  433MPD2    C2 6454   0.379   0.694  11.327  0.8879 -0.2921  0.2908
  433MPD2    C3 6455   0.478   0.780  11.370 -0.4640 -0.5919  0.5419
  433MPD2    C4 6456   0.554   0.854  11.283  0.2249  0.0596 -0.0050
  433MPD2    C5 6457   0.540   0.832  11.151  0.2090  0.6203  0.2084
  433MPD2     H 6458   0.322   0.634  11.398 -1.2568  1.6882  0.2312
  433MPD2    H1 6459   0.636   0.917  11.315  1.2143 -0.7179 -0.9849
  433MPD2    H2 6460   0.432   0.753  10.996 -2.2781 -0.1850  0.0818
  433MPD2    H3 6461   0.605   0.881  11.079  1.8192  0.2983  1.4481
  433MPD2     N 6462   0.507   0.782  11.509 -0.3446  0.2405  0.7297
  433MPD2    H5 6463   0.450   0.717  11.563 -0.7035  1.4294  1.8004
  433MPD2    N1 6464   0.254   0.592  11.131  0.6903  0.2080  0.1764
  433MPD2    H7 6465   0.250   0.595  11.029  1.3553 -3.7255  0.0597
  434TMC3    C1 6466   0.125   0.404  11.097  0.3054 -1.0416  0.3460
  434TMC3    C2 6467   0.136   0.277  11.152  0.9159 -0.1029  0.0711
  434TMC3    C3 6468   0.142   0.173  11.070 -0.1617  0.2082  0.4104
  434TMC3    C4 6469   0.109   0.423  10.964  0.6273 -0.0190  0.0933
  434TMC3    C5 6470   0.116   0.314  10.886  1.1277 -0.5789  0.8643
  434TMC3    C6 6471   0.142   0.188  10.934  0.1070 -0.1777  0.5219
  434TMC3     C 6472   0.177   0.502  11.195  0.1933  0.8381 -0.1970
  434TMC3     O 6473   0.180   0.476  11.315 -0.8960 -0.3020 -0.1403
  434TMC3     H 6474   0.151   0.258  11.258  2.3085  1.7840  0.1991
  434TMC3    H1 6475   0.083   0.521  10.925 -0.1005 -0.2728 -0.0590
  434TMC3    H2 6476   0.147   0.096  10.877  0.0261  2.1269 -3.2546
  434TMC3    C7 6477   0.083   0.334  10.750  0.7512 -0.2215  0.2467
  434TMC3    C8 6478   0.238   0.065  11.112 -0.4800  0.0466 -0.1153
  434TMC3    O1 6479   0.127   0.438  10.703  0.2037 -0.3798 -0.4591
  434TMC3    O2 6480   0.333   0.101  11.178 -0.0732  0.3280 -0.1575
  435MPD2     C 6481   2.335   0.408  15.829  0.8277  0.3985  0.0295
  435MPD2    C1 6482   2.320   0.305  15.920  0.4918 -0.4585  0.2320
  435MPD2    C2 6483   2.433   0.231  15.959 -0.0147  0.3943  0.0699
  435MPD2    C3 6484   2.559   0.258  15.913 -0.6108  0.1205 -0.3491
  435MPD2    C4 6485   2.573   0.358  15.816 -0.0287  0.0883 -0.2318
  435MPD2    C5 6486   2.462   0.429  15.777 -0.5911  0.5471  0.4773
  435MPD2     H 6487   2.422   0.153  16.034  1.3926 -0.4238 -0.5749
  435MPD2    H1 6488   2.668   0.391  15.775  0.4860  1.5628  2.1196
  435MPD2    H2 6489   2.254   0.468  15.792 -1.1764 -2.7311 -0.6426
  435MPD2    H3 6490   2.470   0.511  15.707  0.0812 -0.0090 -0.1000
  435MPD2     N 6491   2.668   0.189  15.968 -0.2214 -0.3096 -0.0208
  435MPD2    H5 6492   2.666   0.145  16.059 -1.0748 -1.8997 -0.8149
  435MPD2    N1 6493   2.201   0.280  15.990 -0.2315  0.2443  0.5113
  435MPD2    H7 6494   2.193   0.198  16.048 -0.9632  0.7477  1.1338
  436TMC3    C1 6495   1.856   0.204  16.212 -0.5323 -0.9600 -0.3748
  436TMC3    C2 6496   1.971   0.252  16.164 -0.1702 -0.2810  0.1600
  436TMC3    C3 6497   1.962   0.295  16.030 -0.1502 -0.0531 -0.1054
  436TMC3    C4 6498   1.738   0.196  16.144  0.3827  0.2457 -0.2986
  436TMC3    C5 6499   1.739   0.230  16.012 -0.6196 -0.3312 -0.2228
  436TMC3    C6 6500   1.849   0.292  15.955 -0.6809  0.2846 -0.1088
  436TMC3     C 6501   1.859   0.181  16.352  0.1376  0.4188  0.7780
  436TMC3     O 6502   1.967   0.155  16.403 -0.1466 -0.0417 -0.3978
  436TMC3     H 6503   2.064   0.245  16.220  1.0321 -1.0817 -1.9391
  436TMC3    H1 6504   1.653   0.151  16.194 -0.7572  1.9275 -0.7232
  436TMC3    H2 6505   1.858   0.325  15.852  0.0281 -1.8285 -0.7307
  436TMC3    C7 6506   1.611   0.259  15.955 -0.0401 -0.7365  0.9630
  436TMC3    C8 6507   2.085   0.349  15.971  0.2746 -0.7871 -0.2020
  436TMC3    O1 6508   1.510   0.199  15.997 -0.4644  0.4910  1.0129
  436TMC3    O2 6509   2.057   0.437  15.891  0.3597 -0.3319  0.1535
  437TMC3    C1 6510   1.333   2.984  12.991  0.7739  0.3086 -0.4903
  437TMC3    C2 6511   1.262   3.103  13.024 -0.4226 -0.7841 -0.0366
  437TMC3    C3 6512   1.290   3.216  12.960  0.2454 -0.2795 -0.3746
  437TMC3    C4 6513   1.440   2.987  12.903 -0.2012 -0.6414  0.6170
  437TMC3    C5 6514   1.453   3.105  12.834 -0.9179  0.1553 -0.1607
  437TMC3    C6 6515   1.393   3.224  12.866  0.1861  0.3841  0.3995
  437TMC3     C 6516   1.326   2.859  13.065 -0.3779  0.3465 -0.3876
  437TMC3     O 6517   1.423   2.793  13.052  0.6594 -0.5988  0.0183
  437TMC3     H 6518   1.188   3.104  13.102  2.3320 -2.9078  2.6049
  437TMC3    H1 6519   1.485   2.895  12.867 -0.0146 -0.5506  0.6174
  437TMC3    H2 6520   1.419   3.316  12.815  2.7368  0.0190  1.0199
  437TMC3    C7 6521   1.560   3.120  12.748  0.6370 -1.0704  0.4148
  437TMC3    C8 6522   1.224   3.332  13.011  0.2862  0.0105  0.4738
  437TMC3    O1 6523   1.546   3.174  12.636 -0.3495  0.1174  0.1665
  437TMC3    O2 6524   1.169   3.319  13.119  0.1965  0.4598  0.3597
  438MPD2     C 6525   3.249   2.808  16.915 -0.0481  0.0997  0.4826
  438MPD2    C1 6526   3.238   2.941  16.871 -0.1212 -0.2716 -0.1809
  438MPD2    C2 6527   3.136   3.019  16.917 -0.1010 -0.1632 -0.2855
  438MPD2    C3 6528   3.049   2.983  17.012  0.2101  1.1587  0.2234
  438MPD2    C4 6529   3.049   2.848  17.053  0.3576  0.6044  0.3114
  438MPD2    C5 6530   3.150   2.771  17.004  0.8125  0.3532  0.5696
  438MPD2     H 6531   3.113   3.115  16.873  3.9011  1.9115  2.1588
  438MPD2    H1 6532   2.985   2.801  17.126  2.8697  0.1194  2.2255
  438MPD2    H2 6533   3.326   2.739  16.882 -1.6288 -1.5202  0.1846
  438MPD2    H3 6534   3.164   2.672  17.046  1.5439  1.2295  2.3898
  438MPD2     N 6535   2.943   3.072  17.047 -0.0080  0.3272 -0.1795
  438MPD2    H5 6536   2.883   3.036  17.121 -0.2793  0.7465 -0.1928
  438MPD2    N1 6537   3.340   3.011  16.792 -0.5615  0.0284  0.0033
  438MPD2    H7 6538   3.315   3.105  16.762 -0.0611  0.4385  0.8748
  439TMC3    C1 6539   3.558   3.063  16.707  0.2235  0.9033 -0.0029
  439TMC3    C2 6540   3.514   3.157  16.613  0.4695  0.1457  0.8373
  439TMC3    C3 6541   3.613   3.245  16.565 -0.7344 -0.4329 -0.5989
  439TMC3    C4 6542   3.688   3.054  16.754 -0.2503 -0.0974  0.1738
  439TMC3    C5 6543   3.780   3.144  16.706  0.4268  0.5797 -0.2015
  439TMC3    C6 6544   3.746   3.236  16.611  0.1919  0.0586 -0.3345
  439TMC3     C 6545   3.468   2.967  16.773  0.2358 -0.1044  0.3155
  439TMC3     O 6546   3.523   2.874  16.829 -0.3461 -0.3120 -0.1092
  439TMC3     H 6547   3.415   3.174  16.574  0.5740 -1.1442  0.0125
  439TMC3    H1 6548   3.721   2.973  16.818 -1.0031  0.4231  1.2260
  439TMC3    H2 6549   3.823   3.305  16.578  1.4763 -0.6004  1.2713
  439TMC3    C7 6550   3.920   3.106  16.705 -0.1077  0.2090 -0.0839
  439TMC3    C8 6551   3.608   3.255  16.415  0.2361 -0.3117 -0.1460
  439TMC3    O1 6552   3.990   3.135  16.609  0.6065 -0.2539  0.4059
  439TMC3    O2 6553   3.502   3.290  16.362  0.2887 -0.0695  0.3909
  440MPD2     C 6554   2.393   3.114  15.541 -0.0714 -0.3800  0.1279
  440MPD2    C1 6555   2.458   3.214  15.619 -0.6897  0.3076  0.7581
  440MPD2    C2 6556   2.569   3.177  15.689 -0.3012  0.1036  0.4054
  440MPD2    C3 6557   2.617   3.051  15.687 -0.6101  0.7138 -0.0394
  440MPD2    C4 6558   2.534   2.949  15.627  0.4159 -0.1237  0.4369
  440MPD2    C5 6559   2.428   2.981  15.559 -0.2215 -0.0655  0.5217
  440MPD2     H 6560   2.627   3.250  15.745 -2.7301  0.9176  1.8497
  440MPD2    H1 6561   2.552   2.842  15.635 -0.0037 -0.1652  0.8239
  440MPD2    H2 6562   2.305   3.140  15.485  0.8032 -0.2440 -1.1783
  440MPD2    H3 6563   2.369   2.898  15.522 -0.4832  0.2984  0.1290
  440MPD2     N 6564   2.733   3.008  15.754  0.6469 -0.1109  0.1143
  440MPD2    H5 6565   2.757   2.909  15.750  0.7413 -0.0306 -1.5473
  440MPD2    N1 6566   2.412   3.348  15.630 -0.3626 -0.1170 -1.2862
  440MPD2    H7 6567   2.465   3.414  15.686 -1.0466 -1.1723  0.5776
  441TMC3    C1 6568   2.949   3.034  15.839  0.4465  0.7445 -0.4077
  441TMC3    C2 6569   3.019   3.128  15.913  0.1629 -0.2890  0.8922
  441TMC3    C3 6570   3.045   3.100  16.046 -0.4660 -0.9422  0.1600
  441TMC3    C4 6571   2.934   2.910  15.891 -0.7405  0.1484  0.8817
  441TMC3    C5 6572   2.977   2.882  16.016 -0.1911  0.1483  0.1268
  441TMC3    C6 6573   3.019   2.982  16.103 -0.0982  0.3262 -0.4033
  441TMC3     C 6574   2.843   3.092  15.764 -0.1949 -0.2123 -0.3037
  441TMC3     O 6575   2.841   3.214  15.762  0.7018 -0.7402 -0.2883
  441TMC3     H 6576   3.051   3.221  15.865  0.9424 -1.3096 -0.5754
  441TMC3    H1 6577   2.885   2.826  15.844 -1.5809  0.1898  1.6773
  441TMC3    H2 6578   3.038   2.962  16.208 -1.8619 -0.9638 -0.3315
  441TMC3    C7 6579   2.877   2.796  16.070  0.3279 -0.0348 -0.0052
  441TMC3    C8 6580   3.029   3.218  16.124 -0.1044  0.3325 -0.1675
  441TMC3    O1 6581   2.769   2.825  16.019 -0.4217 -0.0237 -0.4425
  441TMC3    O2 6582   3.075   3.217  16.238 -0.6309  0.1977  0.3473
  442MPD2     C 6583   1.070   3.525  17.229  0.2989  0.1129  0.3832
  442MPD2    C1 6584   0.938   3.524  17.240 -0.0599  0.5917  0.0190
  442MPD2    C2 6585   0.857   3.433  17.173  0.0595  0.6050  0.6345
  442MPD2    C3 6586   0.919   3.332  17.105  0.1149  0.1674 -0.0457
  442MPD2    C4 6587   1.054   3.325  17.096 -0.3125 -0.0306  0.2069
  442MPD2    C5 6588   1.124   3.429  17.153 -0.6046  0.3401 -0.2601
  442MPD2     H 6589   0.753   3.463  17.165 -0.5959 -2.1709 -0.9184
  442MPD2    H1 6590   1.110   3.250  17.041 -1.5993 -1.5877  1.0194
  442MPD2    H2 6591   1.140   3.594  17.275  1.0141 -0.2794 -0.1270
  442MPD2    H3 6592   1.232   3.420  17.148 -0.4162  1.4846  1.6510
  442MPD2     N 6593   0.842   3.250  17.018 -0.2626 -0.3992  0.4565
  442MPD2    H5 6594   0.888   3.191  16.949 -0.4032 -0.3581  0.3275
  442MPD2    N1 6595   0.870   3.622  17.317 -0.4980  0.1660  0.2709
  442MPD2    H7 6596   0.770   3.606  17.320 -0.3335 -0.8301  0.3093
  443TMC3    C1 6597   0.811   3.810  17.430  0.0354 -0.3814  0.3445
  443TMC3    C2 6598   0.806   3.940  17.392 -0.1347 -0.1485  0.6348
  443TMC3    C3 6599   0.682   4.008  17.390 -0.8703  0.6213 -0.5561
  443TMC3    C4 6600   0.707   3.754  17.492  0.1661 -0.1631 -0.1012
  443TMC3    C5 6601   0.593   3.830  17.510  0.0836 -1.1247  0.6032
  443TMC3    C6 6602   0.571   3.953  17.458 -0.3604  0.2632  0.3580
  443TMC3     C 6603   0.921   3.733  17.382  0.2431 -0.0431 -0.5576
  443TMC3     O 6604   1.032   3.779  17.379 -0.1837  0.1525 -0.6265
  443TMC3     H 6605   0.894   3.971  17.337 -1.1730 -1.2259 -1.6194
  443TMC3    H1 6606   0.712   3.649  17.516  2.0824 -0.1180 -0.3117
  443TMC3    H2 6607   0.474   4.002  17.466 -0.5619  0.1196 -1.2583
  443TMC3    C7 6608   0.473   3.754  17.555 -0.2165  0.4746 -0.9974
  443TMC3    C8 6609   0.645   4.032  17.255 -0.0686 -0.2196 -0.1273
  443TMC3    O1 6610   0.451   3.641  17.509  0.0786 -0.0943 -0.3358
  443TMC3    O2 6611   0.544   3.969  17.216  0.2450  0.1592  0.3127
  444MPD2     C 6612   1.023   3.372  17.608  0.0456  0.1262 -0.1497
  444MPD2    C1 6613   0.913   3.299  17.562  0.1799  0.5158 -0.0869
  444MPD2    C2 6614   0.938   3.206  17.469 -0.3805  0.3727 -0.2097
  444MPD2    C3 6615   1.068   3.184  17.423 -0.2082  0.2552  0.5029
  444MPD2    C4 6616   1.176   3.256  17.472  0.6112 -0.1674  0.3410
  444MPD2    C5 6617   1.145   3.347  17.559  0.0641  0.6713  0.2009
  444MPD2     H 6618   0.854   3.149  17.429  0.4678 -2.2189  1.6847
  444MPD2    H1 6619   1.281   3.244  17.446  0.5150 -2.6688  1.1098
  444MPD2    H2 6620   1.009   3.459  17.672  0.0271 -0.2133  0.3117
  444MPD2    H3 6621   1.220   3.409  17.606  0.2691  1.9548 -1.7893
  444MPD2     N 6622   1.081   3.080  17.321 -0.2269  0.6510  0.2843
  444MPD2    H5 6623   0.995   3.032  17.298 -0.6468  1.4012  0.2722
  444MPD2    N1 6624   0.782   3.310  17.614  0.2722 -0.5516 -0.5687
  444MPD2    H7 6625   0.707   3.263  17.564  1.6409 -2.1821 -1.0770
  445TMC3    C1 6626   1.179   2.966  17.140 -0.9528 -0.7297 -0.7090
  445TMC3    C2 6627   1.053   2.956  17.088  0.1453 -0.6188  0.3842
  445TMC3    C3 6628   1.030   2.864  16.988 -0.0839 -0.3896 -0.3365
  445TMC3    C4 6629   1.274   2.886  17.085  0.1440  0.0675  0.2648
  445TMC3    C5 6630   1.247   2.786  17.002  0.2318 -0.5308 -0.6665
  445TMC3    C6 6631   1.131   2.790  16.934  0.4328  0.2076  0.1573
  445TMC3     C 6632   1.198   3.039  17.262  0.8095  0.0843  0.0391
  445TMC3     O 6633   1.309   3.048  17.304 -0.5618  0.1512 -0.1681
  445TMC3     H 6634   0.980   3.033  17.108  0.4729 -0.4006  0.7518
  445TMC3    H1 6635   1.369   2.886  17.137 -0.6010 -0.1245  1.6186
  445TMC3    H2 6636   1.135   2.737  16.840  0.4668 -0.3317  0.4615
  445TMC3    C7 6637   1.355   2.710  16.935 -0.0530 -0.0274  0.8165
  445TMC3    C8 6638   0.893   2.844  16.939  0.0045  0.3341 -0.4639
  445TMC3    O1 6639   1.458   2.773  16.915  0.9171  1.0959 -0.0433
  445TMC3    O2 6640   0.810   2.931  16.964 -0.2246  0.1053 -0.0637
  446MPD2     C 6641   0.425   4.640  11.680  0.2742  0.0715 -0.0905
  446MPD2    C1 6642   0.369   4.652  11.557  0.3132  0.5368 -0.5936
  446MPD2    C2 6643   0.391   0.033  11.479 -0.4229  0.1804 -0.3334
  446MPD2    C3 6644   0.465   0.133  11.524 -0.2203  0.2540 -0.1146
  446MPD2    C4 6645   0.528   0.126  11.645 -0.2425 -0.1767  0.1434
  446MPD2    C5 6646   0.512   0.012  11.720 -0.4959  0.3895 -0.8821
  446MPD2     H 6647   0.332   0.035  11.388 -0.9000  0.7041 -0.0178
  446MPD2    H1 6648   0.596   0.203  11.680  0.1009 -0.6673  0.5538
  446MPD2    H2 6649   0.404   4.556  11.746  3.5748  0.2659  1.2313
  446MPD2    H3 6650   0.563   0.002  11.815  2.0845 -0.9837 -2.3967
  446MPD2     N 6651   0.500   0.230  11.430 -0.2542  0.7377  0.2815
  446MPD2    H5 6652   0.475   0.207  11.334  2.5476 -0.1007 -0.2508
  446MPD2    N1 6653   0.288   4.557  11.500  0.0203 -0.1827 -0.0351
  446MPD2    H7 6654   0.248   4.576  11.408 -0.9886 -1.1003  0.2237
  447TMC3    C1 6655   0.591   0.418  11.329  0.1854  0.7667  0.2902
  447TMC3    C2 6656   0.537   0.375  11.210  0.4956 -0.3923 -0.4097
  447TMC3    C3 6657   0.588   0.430  11.094  0.1139  0.1054 -0.1475
  447TMC3    C4 6658   0.696   0.505  11.342  0.0812 -0.0554  1.3168
  447TMC3    C5 6659   0.750   0.556  11.224 -0.1690  0.2988 -0.1609
  447TMC3    C6 6660   0.694   0.516  11.100  0.4203  0.6179  0.4658
  447TMC3     C 6661   0.561   0.352  11.454 -0.4158 -0.5899  0.0806
  447TMC3     O 6662   0.581   0.411  11.558 -0.1884 -0.0912 -0.6030
  447TMC3     H 6663   0.448   0.314  11.203  0.9963 -1.1389 -0.2139
  447TMC3    H1 6664   0.731   0.532  11.441 -2.9676  2.7264  1.6259
  447TMC3    H2 6665   0.725   0.562  11.007  1.1058  3.3286  2.0530
  447TMC3    C7 6666   0.873   0.626  11.222  0.4629  0.2344 -0.4257
  447TMC3    C8 6667   0.537   0.392  10.959  0.3454  0.4055 -0.2795
  447TMC3    O1 6668   0.932   0.604  11.118  0.5021 -0.5936  0.5758
  447TMC3    O2 6669   0.556   0.477  10.873 -0.2874 -0.2242 -0.3132
  448TMC3    C1 6670   3.264   4.565  17.234  0.3253  0.1914  0.7952
  448TMC3    C2 6671   3.250   4.499  17.113  0.5421  0.1242 -0.3449
  448TMC3    C3 6672   3.337   4.387  17.091  0.0896 -0.1646  0.0235
  448TMC3    C4 6673   3.363   4.535  17.316 -0.2321  0.0502 -0.4124
  448TMC3    C5 6674   3.451   4.436  17.289 -0.4983  0.1414  0.3996
  448TMC3    C6 6675   3.443   4.355  17.181  0.1156  0.0859 -0.1426
  448TMC3     C 6676   3.175   4.679  17.262  0.0042  0.3513  0.0287
  448TMC3     O 6677   3.123   0.010  17.170 -0.4365 -0.0929 -0.3971
  448TMC3     H 6678   3.164   4.508  17.048 -0.4619  2.0649  1.2658
  448TMC3    H1 6679   3.382   4.608  17.394 -0.4988 -0.9428  0.5738
  448TMC3    H2 6680   3.517   4.281  17.156  0.1958  0.5700 -1.3097
  448TMC3    C7 6681   3.559   4.413  17.384  1.0356 -0.4129  0.3908
  448TMC3    C8 6682   3.336   4.315  16.968  0.0139  0.1349 -0.4812
  448TMC3    O1 6683   3.663   4.374  17.338 -0.4783 -0.4935  0.1036
  448TMC3    O2 6684   3.402   4.209  16.965 -0.1725  0.0684  0.0252
  449MPD2     C 6685   0.403   2.811  14.145  0.1142 -0.1275  0.0740
  449MPD2    C1 6686   0.325   2.828  14.036 -0.3092  0.1454 -0.5711
  449MPD2    C2 6687   0.199   2.780  14.039  0.4159  0.6608  0.0130
  449MPD2    C3 6688   0.142   2.714  14.151 -0.2263 -0.6727 -0.5375
  449MPD2    C4 6689   0.227   2.703  14.260  0.3501  0.0471  0.8529
  449MPD2    C5 6690   0.357   2.750  14.257  0.7790  0.3131 -0.4795
  449MPD2     H 6691   0.145   2.792  13.946 -1.3930 -1.0769  0.8307
  449MPD2    H1 6692   0.193   2.667  14.357 -1.2100  1.2335  0.7373
  449MPD2    H2 6693   0.511   2.824  14.148  0.0543  0.5027 -0.3351
  449MPD2    H3 6694   0.412   2.755  14.351 -1.0995  0.3628  0.6168
  449MPD2     N 6695   0.009   2.673  14.157  0.5660 -0.8223  0.5060
  449MPD2    H5 6696   4.680   2.716  14.082 -1.4952 -1.3585  1.7125
  449MPD2    N1 6697   0.366   2.889  13.921 -0.0860  0.1097 -0.2558
  449MPD2    H7 6698   0.289   2.911  13.858 -0.6659 -0.8648  0.1054
  450TMC3    C1 6699   0.469   2.990  13.750 -0.4784 -0.6392  0.4484
  450TMC3    C2 6700   0.510   3.119  13.728 -0.2104 -0.0695  0.0190
  450TMC3    C3 6701   0.429   3.192  13.648  0.2754 -0.2264 -0.2510
  450TMC3    C4 6702   0.349   2.943  13.696  0.3547  0.4575 -0.3238
  450TMC3    C5 6703   0.272   3.021  13.612  0.4072  0.3417 -0.4628
  450TMC3    C6 6704   0.318   3.147  13.582 -0.4853 -0.2487 -0.2473
  450TMC3     C 6705   0.484   2.945  13.886  0.9864  0.2103 -0.3428
  450TMC3     O 6706   0.592   2.955  13.948 -0.2262  0.4222  0.1236
  450TMC3     H 6707   0.591   3.160  13.787 -0.2419 -0.9537  0.6852
  450TMC3    H1 6708   0.324   2.838  13.696  1.3505  0.2163 -0.4622
  450TMC3    H2 6709   0.254   3.202  13.515 -1.9379 -0.5870  0.8650
  450TMC3    C7 6710   0.130   3.001  13.657 -0.5532  0.1417 -0.1933
  450TMC3    C8 6711   0.494   3.299  13.572 -0.2895  0.2095 -0.5083
  450TMC3    O1 6712   0.123   2.912  13.736 -0.3846  0.0405 -0.6373
  450TMC3    O2 6713   0.427   3.356  13.486  0.1710 -0.1005  0.0286
  451MPD2     C 6714   1.261   1.415   1.141  0.2793 -0.2853  0.3322
  451MPD2    C1 6715   1.273   1.464   1.271  0.2861  0.2108  0.3089
  451MPD2    C2 6716   1.364   1.408   1.358  0.0889  0.6117  0.4403
  451MPD2    C3 6717   1.446   1.304   1.316  0.6886  0.0437  0.4659
  451MPD2    C4 6718   1.438   1.260   1.185  0.0672 -0.7223 -0.5638
  451MPD2    C5 6719   1.342   1.320   1.099  0.7862  0.0968 -0.1846
  451MPD2     H 6720   1.368   1.442   1.461 -0.7687 -1.0982  1.0354
  451MPD2    H1 6721   1.501   1.179   1.151 -1.2622 -1.6606 -0.8373
  451MPD2    H2 6722   1.189   1.465   1.078  0.1157 -0.0350  0.7241
  451MPD2    H3 6723   1.322   1.279   1.001 -0.3773  1.1637 -0.3980
  451MPD2     N 6724   1.531   1.230   1.404 -0.0504 -0.3316  0.2936
  451MPD2    H5 6725   1.585   1.155   1.361 -0.2601  0.4875 -1.4309
  451MPD2    N1 6726   1.201   1.577   1.302 -0.5119 -0.0819 -0.4831
  451MPD2    H7 6727   1.137   1.611   1.231  0.4355 -0.3549 -1.4606
  452TMC3    C1 6728   1.608   1.137   1.608 -0.2322  0.0872 -0.4685
  452TMC3    C2 6729   1.571   1.120   1.741  0.4106 -0.4638 -0.3721
  452TMC3    C3 6730   1.657   1.049   1.812 -0.9195  0.0098  0.1512
  452TMC3    C4 6731   1.721   1.079   1.554  0.5454 -0.3926 -0.1324
  452TMC3    C5 6732   1.794   1.000   1.637  0.4349  0.4561  0.2009
  452TMC3    C6 6733   1.762   0.977   1.767  0.2815  0.2517  0.0293
  452TMC3     C 6734   1.540   1.243   1.541 -0.4018  0.5098  1.0137
  452TMC3     O 6735   1.487   1.330   1.610 -0.2408  0.6325  0.0792
  452TMC3     H 6736   1.473   1.151   1.777 -0.1494 -0.3941 -1.9607
  452TMC3    H1 6737   1.754   1.102   1.453  3.1060 -0.0476  0.7846
  452TMC3    H2 6738   1.817   0.917   1.839 -0.6351 -1.1163 -0.4080
  452TMC3    C7 6739   1.927   0.962   1.590  0.4535  0.8411 -0.2472
  452TMC3    C8 6740   1.649   1.066   1.957 -0.1738  0.2092  0.5314
  452TMC3    O1 6741   1.969   1.022   1.492 -0.4064  0.7378  0.5189
  452TMC3    O2 6742   1.542   1.064   2.017  0.1387  0.1872 -0.0177
  453TMC3    C1 6743   2.792   3.299  12.270 -0.5786  0.1397 -1.2914
  453TMC3    C2 6744   2.804   3.162  12.281 -0.7658 -0.3231 -0.4228
  453TMC3    C3 6745   2.802   3.084  12.169  0.7181  0.4490  0.6151
  453TMC3    C4 6746   2.759   3.357  12.142  0.1553  0.6006 -0.7772
  453TMC3    C5 6747   2.750   3.269  12.039  0.1955  0.6918 -0.2676
  453TMC3    C6 6748   2.784   3.137  12.045  0.4290 -0.0854 -0.0782
  453TMC3     C 6749   2.893   3.381  12.340  0.1507 -0.1696  0.0425
  453TMC3     O 6750   2.873   3.501  12.336  0.2662  0.5136 -0.1029
  453TMC3     H 6751   2.843   3.111  12.369 -0.5086 -2.4872 -1.7967
  453TMC3    H1 6752   2.747   3.464  12.128  3.4412  1.0726 -0.1175
  453TMC3    H2 6753   2.773   3.072  11.959  2.4532  0.1807 -0.5310
  453TMC3    C7 6754   2.773   3.332  11.910  0.4178 -0.5244  0.2245
  453TMC3    C8 6755   2.775   2.941  12.186 -0.2987 -1.1289  0.1788
  453TMC3    O1 6756   2.745   3.448  11.898 -0.1236  0.2000  0.1736
  453TMC3    O2 6757   2.705   2.899  12.277  0.1247 -0.1410 -0.2217
  454MPD2     C 6758   1.639   2.792  16.526 -0.1574  0.7087 -0.1054
  454MPD2    C1 6759   1.578   2.904  16.467  0.2304  0.3316 -0.2536
  454MPD2    C2 6760   1.570   3.019  16.538 -0.1300  0.1029 -0.0244
  454MPD2    C3 6761   1.628   3.036  16.659 -0.3622 -0.7571  0.2708
  454MPD2    C4 6762   1.696   2.922  16.716 -0.1268  0.0544  0.1469
  454MPD2    C5 6763   1.696   2.807  16.653  0.6530 -0.6904 -0.1149
  454MPD2     H 6764   1.515   3.102  16.495  0.2438 -1.2683 -3.1580
  454MPD2    H1 6765   1.732   2.929  16.819 -0.8546 -2.0682  0.5286
  454MPD2    H2 6766   1.639   2.694  16.479  0.5623 -0.0295  1.3936
  454MPD2    H3 6767   1.747   2.725  16.703  1.7583  0.1438  0.1279
  454MPD2     N 6768   1.618   3.153  16.733  0.6573 -0.4556 -0.4134
  454MPD2    H5 6769   1.652   3.156  16.829 -0.9905 -0.5148  0.1788
  454MPD2    N1 6770   1.518   2.898  16.341 -0.3278  0.0976  0.0295
  454MPD2    H7 6771   1.493   2.985  16.296 -1.2644  0.9316  2.1594
  455TMC3    C1 6772   1.458   3.301  16.811  0.5101  0.6387  0.3499
  455TMC3    C2 6773   1.412   3.429  16.793  0.9588 -0.5184 -0.8205
  455TMC3    C3 6774   1.277   3.448  16.787 -0.6866  0.2713 -0.4389
  455TMC3    C4 6775   1.374   3.198  16.843 -0.1385 -0.3473 -0.4967
  455TMC3    C5 6776   1.238   3.216  16.808  0.1280  0.1118 -0.8480
  455TMC3    C6 6777   1.188   3.342  16.785  0.0221  0.0120  0.1757
  455TMC3     C 6778   1.544   3.264  16.698  0.1578 -0.0768  0.2286
  455TMC3     O 6779   1.512   3.306  16.589  0.0560  0.0493 -0.4292
  455TMC3     H 6780   1.479   3.511  16.774  0.0505  1.1599  3.2520
  455TMC3    H1 6781   1.403   3.097  16.870  0.8725 -0.3147 -1.4617
  455TMC3    H2 6782   1.081   3.350  16.768 -0.0998 -1.0237  0.4826
  455TMC3    C7 6783   1.160   3.102  16.762 -0.4758 -0.1665 -0.5120
  455TMC3    C8 6784   1.227   3.580  16.808 -0.3330  1.1765  0.0779
  455TMC3    O1 6785   1.039   3.115  16.757 -0.0445  0.2844 -0.1221
  455TMC3    O2 6786   1.122   3.605  16.751 -1.1284  0.6711 -0.2977
  456MPD2     C 6787   3.931   3.560  15.934  0.4851  0.0246 -0.3837
  456MPD2    C1 6788   3.952   3.491  16.046 -1.2998  0.0582 -0.2600
  456MPD2    C2 6789   3.863   3.506  16.148 -0.7558  0.1965  0.2948
  456MPD2    C3 6790   3.752   3.586  16.144 -0.3438  1.0174  0.4841
  456MPD2    C4 6791   3.730   3.648  16.026 -1.5533  0.4722  0.0150
  456MPD2    C5 6792   3.817   3.632  15.921  0.7298 -0.2122 -0.1033
  456MPD2     H 6793   3.871   3.457  16.245 -1.2647 -1.0265 -0.2817
  456MPD2    H1 6794   3.645   3.710  16.000 -1.0489 -0.3664 -3.6338
  456MPD2    H2 6795   4.007   3.561  15.858  1.0199  1.2289  0.1751
  456MPD2    H3 6796   3.800   3.687  15.829 -1.9226  1.2626  1.2912
  456MPD2     N 6797   3.672   3.600  16.260 -0.6708 -0.4672 -0.1572
  456MPD2    H5 6798   3.696   3.552  16.346  2.1836 -1.0880 -1.2975
  456MPD2    N1 6799   4.049   3.386  16.051  0.6469  0.1333 -0.2012
  456MPD2    H7 6800   4.099   3.374  15.964 -0.2632  0.9744 -0.8284
  457TMC3    C1 6801   3.538   3.705  16.419  0.2404  0.2623  0.2489
  457TMC3    C2 6802   3.438   3.795  16.450 -0.4043 -0.4120 -0.6952
  457TMC3    C3 6803   3.395   3.805  16.580 -0.5510  0.3085 -0.0651
  457TMC3    C4 6804   3.601   3.637  16.520 -0.3990 -0.7709  0.1820
  457TMC3    C5 6805   3.566   3.670  16.646 -0.0403  0.2796  0.3500
  457TMC3    C6 6806   3.462   3.749  16.687  0.6198 -0.0346  0.2331
  457TMC3     C 6807   3.569   3.686  16.281 -0.5770 -0.2763 -0.2752
  457TMC3     O 6808   3.501   3.751  16.201 -0.3550 -0.0459  0.0111
  457TMC3     H 6809   3.375   3.845  16.377  1.1959  2.8656  0.1759
  457TMC3    H1 6810   3.691   3.582  16.492 -0.9074 -0.8224 -1.3295
  457TMC3    H2 6811   3.447   3.799  16.782  0.0953 -1.3298  0.8303
  457TMC3    C7 6812   3.659   3.651  16.756  0.1270 -0.2470  0.0644
  457TMC3    C8 6813   3.315   3.924  16.611  0.0498  0.7068 -0.6332
  457TMC3    O1 6814   3.624   3.712  16.858  0.1324  0.2161 -0.0278
  457TMC3    O2 6815   3.264   3.914  16.725 -0.3147  0.1494 -0.2354
  458MPD2     C 6816   2.065   3.041  12.670 -0.0420  0.2242  0.0905
  458MPD2    C1 6817   2.033   2.988  12.791  0.6574  0.9048 -0.3025
  458MPD2    C2 6818   1.896   2.983  12.828 -0.3787 -0.5856 -0.9134
  458MPD2    C3 6819   1.808   3.053  12.753 -0.2616 -0.1585 -0.9957
  458MPD2    C4 6820   1.843   3.128  12.648  0.1199 -0.6524  0.2667
  458MPD2    C5 6821   1.971   3.123  12.605  0.1819 -0.4804  0.5140
  458MPD2     H 6822   1.862   2.924  12.913  0.5383  0.7520  0.3813
  458MPD2    H1 6823   1.776   3.194  12.594  0.6420 -0.8637 -0.6338
  458MPD2    H2 6824   2.165   3.053  12.628  0.3648 -0.7003  0.8102
  458MPD2    H3 6825   1.994   3.177  12.514  0.2517 -0.2881  0.6479
  458MPD2     N 6826   1.674   3.060  12.799 -0.1445 -0.1505  0.2534
  458MPD2    H5 6827   1.669   3.010  12.887 -0.9468  0.9132  0.8015
  458MPD2    N1 6828   2.141   2.930  12.864  0.1666  0.4544  0.1451
  458MPD2    H7 6829   2.227   2.921  12.812 -1.1548  1.9184 -2.3091
  459TMC3    C1 6830   2.236   2.772  13.035 -0.0573 -0.2005 -0.3472
  459TMC3    C2 6831   2.347   2.750  12.956  0.2609 -0.3023 -0.0725
  459TMC3    C3 6832   2.443   2.676  13.013 -0.1055 -0.1112  0.0659
  459TMC3    C4 6833   2.227   2.733  13.169 -0.2461 -1.1561  0.1181
  459TMC3    C5 6834   2.333   2.660  13.218 -0.3465 -0.3909  0.3063
  459TMC3    C6 6835   2.440   2.626  13.138  0.8584 -0.1682 -0.0069
  459TMC3     C 6836   2.120   2.851  12.978 -0.0831  0.2861 -0.5417
  459TMC3     O 6837   2.020   2.849  13.050 -0.0213  0.5511 -0.3643
  459TMC3     H 6838   2.346   2.787  12.854 -0.7905  0.2799  0.1401
  459TMC3    H1 6839   2.130   2.746  13.215 -0.2551  0.9124 -0.4779
  459TMC3    H2 6840   2.531   2.584  13.179  0.5695 -1.0830 -0.3062
  459TMC3    C7 6841   2.307   2.575  13.328 -0.7335 -0.3549 -0.2893
  459TMC3    C8 6842   2.535   2.610  12.917 -0.2368 -0.1014 -0.4718
  459TMC3    O1 6843   2.373   2.472  13.344 -0.6885 -0.2242 -0.8225
  459TMC3    O2 6844   2.562   2.667  12.813  0.5123 -0.0436 -0.4957
  460MPD2     C 6845   0.450   0.054  10.839 -0.1596  0.2437 -0.4355
  460MPD2    C1 6846   0.462   0.193  10.832 -0.2901  0.6070  0.7293
  460MPD2    C2 6847   0.439   0.255  10.713  0.1147 -0.5847 -0.2110
  460MPD2    C3 6848   0.398   0.181  10.605 -0.3573 -0.7153  0.7295
  460MPD2    C4 6849   0.384   0.045  10.610  0.3053  0.4385 -0.3746
  460MPD2    C5 6850   0.405   4.711  10.728  0.3834 -0.0669  0.5715
  460MPD2     H 6851   0.451   0.363  10.703 -0.4248 -0.7150 -2.0677
  460MPD2    H1 6852   0.366   4.715  10.518  1.2593 -0.2925 -0.1148
  460MPD2    H2 6853   0.472   0.000  10.931 -1.3592  0.6105  0.0651
  460MPD2    H3 6854   0.407   4.603  10.740 -0.0148 -0.1400 -0.0238
  460MPD2     N 6855   0.390   0.246  10.475  0.5333  0.5088 -0.2668
  460MPD2    H5 6856   0.393   0.347  10.481  0.7634  0.5036 -0.2892
  460MPD2    N1 6857   0.495   0.262  10.945  0.5394  0.1639 -0.3276
  460MPD2    H7 6858   0.498   0.203  11.027  0.8473 -0.5494 -0.8546
  461TMC3    C1 6859   0.346   0.290  10.260 -0.3091  0.1776  0.1701
  461TMC3    C2 6860   0.305   0.245  10.141 -0.5044 -0.3426  0.8375
  461TMC3    C3 6861   0.289   0.325  10.032 -0.3537 -0.4359 -0.2723
  461TMC3    C4 6862   0.389   0.421  10.280 -0.8472 -0.2249 -0.0823
  461TMC3    C5 6863   0.381   0.493  10.166  0.3651  0.6587 -0.0705
  461TMC3    C6 6864   0.328   0.452  10.046 -0.3136 -0.1259 -0.7378
  461TMC3     C 6865   0.370   0.188  10.354 -0.0475  0.3978 -0.0507
  461TMC3     O 6866   0.394   0.074  10.319 -0.0839  0.1524 -0.0467
  461TMC3     H 6867   0.269   0.143  10.141  1.1625 -0.9217  1.1598
  461TMC3    H1 6868   0.426   0.455  10.376 -0.6213  0.3551 -0.3733
  461TMC3    H2 6869   0.337   0.513   9.957  0.8887 -0.2477 -0.7013
  461TMC3    C7 6870   0.477   0.604  10.146  0.1941  0.1360  0.4549
  461TMC3    C8 6871   0.295   0.258   9.901 -0.4028  0.0270 -0.4205
  461TMC3    O1 6872   0.433   0.699  10.079 -0.0307 -0.2992  0.0644
  461TMC3    O2 6873   0.371   0.303   9.812  0.0474  0.3954  0.0682
  462TMC3    C1 6874   1.410   1.584   0.594 -0.2603 -0.2370 -0.5828
  462TMC3    C2 6875   1.518   1.495   0.592  0.0369 -0.7182  1.1390
  462TMC3    C3 6876   1.481   1.365   0.619 -0.2679  0.3897 -0.9050
  462TMC3    C4 6877   1.276   1.550   0.606 -0.1968  0.3670  0.3135
  462TMC3    C5 6878   1.248   1.415   0.643 -0.1948 -0.2742  0.0907
  462TMC3    C6 6879   1.357   1.327   0.664  0.2019  0.7467 -0.1302
  462TMC3     C 6880   1.426   1.716   0.528 -0.7439 -0.1486 -0.2367
  462TMC3     O 6881   1.324   1.761   0.470 -0.0696 -0.1072 -0.4400
  462TMC3     H 6882   1.615   1.526   0.555  0.7906 -2.7755  1.4014
  462TMC3    H1 6883   1.189   1.609   0.580 -0.6433 -0.3134  0.2408
  462TMC3    H2 6884   1.338   1.220   0.668  0.2138  0.7823  0.7541
  462TMC3    C7 6885   1.120   1.346   0.622 -0.0108 -0.4500  0.3206
  462TMC3    C8 6886   1.586   1.269   0.613  0.4392  0.4389 -0.0531
  462TMC3    O1 6887   1.086   1.255   0.703  0.0014  0.0625 -0.4786
  462TMC3    O2 6888   1.678   1.274   0.690 -0.3113 -0.0229  0.2400
  463MPD2     C 6889   1.805   0.424   2.438  0.3159 -0.7489  0.6524
  463MPD2    C1 6890   1.744   0.452   2.319 -0.1073 -0.4848 -0.2056
  463MPD2    C2 6891   1.823   0.522   2.222 -0.2381  0.9689 -0.7565
  463MPD2    C3 6892   1.955   0.553   2.243 -0.5112 -0.0308 -0.5851
  463MPD2    C4 6893   2.013   0.498   2.359 -0.9741 -0.0932  0.1520
  463MPD2    C5 6894   1.937   0.447   2.454 -0.2596 -0.5059  0.1002
  463MPD2     H 6895   1.762   0.559   2.140 -1.0200  0.7549 -0.2746
  463MPD2    H1 6896   2.119   0.500   2.379 -0.6932  0.8740 -1.4077
  463MPD2    H2 6897   1.760   0.366   2.518 -1.6589 -1.1919 -0.7573
  463MPD2    H3 6898   1.971   0.410   2.550  1.0778 -1.7473 -0.8486
  463MPD2     N 6899   2.039   0.633   2.166  0.2578  0.3984  0.5539
  463MPD2    H5 6900   2.129   0.652   2.208  0.4754  1.3540 -0.3600
  463MPD2    N1 6901   1.608   0.408   2.293 -0.0563 -0.1251 -0.3975
  463MPD2    H7 6902   1.577   0.419   2.198 -1.2992 -0.8898 -0.0724
  464TMC3    C1 6903   1.412   0.269   2.315 -0.0119 -0.0183 -1.0373
  464TMC3    C2 6904   1.367   0.315   2.196  0.2882  0.9963 -0.0605
  464TMC3    C3 6905   1.260   0.249   2.143 -0.3621 -0.1633  0.3314
  464TMC3    C4 6906   1.371   0.149   2.364 -0.0862  0.3600  0.3036
  464TMC3    C5 6907   1.278   0.078   2.289 -0.5262  0.0789 -0.4473
  464TMC3    C6 6908   1.213   0.126   2.183  0.6630 -0.3347  0.1628
  464TMC3     C 6909   1.536   0.318   2.379 -1.1529 -0.0253  0.1985
  464TMC3     O 6910   1.552   0.284   2.494  0.3381  0.1507  1.2229
  464TMC3     H 6911   1.385   0.417   2.164 -0.2945  1.1412  0.0793
  464TMC3    H1 6912   1.425   0.109   2.449 -1.4349 -0.5384  0.7366
  464TMC3    H2 6913   1.129   0.068   2.146  1.3910 -0.9329 -0.5250
  464TMC3    C7 6914   1.218   4.692   2.354 -0.5380  0.0993  0.3976
  464TMC3    C8 6915   1.183   0.318   2.034  0.5040 -0.3135 -0.2463
  464TMC3    O1 6916   1.248   4.680   2.475 -0.6583 -0.0942  0.2653
  464TMC3    O2 6917   1.247   0.400   1.969  0.1875  0.2051  0.5704
  465MPD2     C 6918   3.536   3.444  17.094  0.3241  0.6056 -0.3537
  465MPD2    C1 6919   3.445   3.545  17.097 -0.2854 -0.1332 -0.6265
  465MPD2    C2 6920   3.352   3.561  16.994 -0.0726 -0.5129 -0.5111
  465MPD2    C3 6921   3.347   3.471  16.891 -0.0040  0.5346 -0.6794
  465MPD2    C4 6922   3.437   3.370  16.889 -0.5357  0.0752  0.0759
  465MPD2    C5 6923   3.531   3.360  16.990 -0.4604  0.9546 -0.3123
  465MPD2     H 6924   3.270   3.633  16.998  0.2821 -0.1200 -0.3296
  465MPD2    H1 6925   3.429   3.292  16.815  1.5162 -0.8428  0.8222
  465MPD2    H2 6926   3.610   3.425  17.171  0.6686  0.6555 -0.6735
  465MPD2    H3 6927   3.604   3.280  16.992  0.0061  1.4204  1.3673
  465MPD2     N 6928   3.234   3.483  16.806 -0.2254  0.8389  0.2237
  465MPD2    H5 6929   3.179   3.563  16.834  2.2293  1.3325  3.6708
  465MPD2    N1 6930   3.442   3.649  17.194 -0.6013 -0.2498 -0.9779
  465MPD2    H7 6931   3.361   3.711  17.200 -0.4009 -0.0041 -0.8094
  466TMC3    C1 6932   2.843   3.371  16.611 -0.5042 -0.2173  0.1936
  466TMC3    C2 6933   2.826   3.503  16.571  0.8887 -0.2780 -0.0158
  466TMC3    C3 6934   2.923   3.591  16.595  0.4499  0.1135 -0.6909
  466TMC3    C4 6935   2.964   3.340  16.663 -0.6654 -0.8715  0.2264
  466TMC3    C5 6936   3.061   3.430  16.676 -0.4930  1.0111 -0.5610
  466TMC3    C6 6937   3.039   3.558  16.656 -0.0408 -0.7522 -0.2276
  466TMC3     C 6938   2.728   3.303  16.670  0.5241  0.4626 -0.2098
  466TMC3     O 6939   2.744   3.232  16.770  0.2300 -0.1349  0.1241
  466TMC3     H 6940   2.730   3.529  16.529  1.3057  2.4370  0.7092
  466TMC3    H1 6941   2.978   3.236  16.693  0.0960 -0.9070 -0.2404
  466TMC3    H2 6942   3.118   3.632  16.665 -0.2010 -0.5221 -0.6910
  466TMC3    C7 6943   3.187   3.384  16.724 -0.1244  0.1215  0.5063
  466TMC3    C8 6944   2.867   3.713  16.639 -0.3588 -0.6194  0.5170
  466TMC3    O1 6945   3.231   3.276  16.697 -0.1338  0.3145  0.3941
  466TMC3    O2 6946   2.934   3.771  16.725  0.0509 -0.2228  0.2545
  467TMC3    C1 6947   4.075   2.219  13.762  0.8722 -0.7910  0.0223
  467TMC3    C2 6948   4.027   2.342  13.761 -0.6314 -0.3189 -0.2697
  467TMC3    C3 6949   3.893   2.363  13.795 -0.4125  0.3511  0.0846
  467TMC3    C4 6950   3.995   2.104  13.788  0.2675 -0.1799 -0.2507
  467TMC3    C5 6951   3.859   2.127  13.822 -0.1445  0.1307 -0.1859
  467TMC3    C6 6952   3.809   2.253  13.825  0.0970 -0.1599  0.9613
  467TMC3     C 6953   4.208   2.198  13.721  0.0867  0.1616  0.0302
  467TMC3     O 6954   4.282   2.293  13.719 -0.2160  0.8168  0.0134
  467TMC3     H 6955   4.096   2.422  13.736  0.5565 -1.4477 -0.6177
  467TMC3    H1 6956   4.035   2.004  13.798 -1.8077 -1.0071 -0.2104
  467TMC3    H2 6957   3.704   2.276  13.831  0.2687  1.1060 -0.9575
  467TMC3    C7 6958   3.776   2.012  13.842  0.1456 -0.3537 -0.1625
  467TMC3    C8 6959   3.832   2.489  13.803  0.2477 -0.5714 -0.4347
  467TMC3    O1 6960   3.823   1.901  13.825 -0.0322  0.0899 -0.0245
  467TMC3    O2 6961   3.726   2.501  13.862  0.1616 -0.1988  0.4950
  468MPD2     C 6962   2.570   0.138  11.161  0.2508  0.5742  0.4393
  468MPD2    C1 6963   2.687   0.077  11.212 -0.2839  0.4543  0.4093
  468MPD2    C2 6964   2.691   4.665  11.220 -1.0566 -0.5090  0.2181
  468MPD2    C3 6965   2.586   4.584  11.180 -0.4933 -0.4145 -0.5165
  468MPD2    C4 6966   2.466   4.643  11.146  0.0863  0.1207 -0.1232
  468MPD2    C5 6967   2.457   0.059  11.125  1.1088  0.3845  0.0079
  468MPD2     H 6968   2.784   4.624  11.259 -0.1877 -0.9222 -2.3129
  468MPD2    H1 6969   2.373   4.589  11.130 -0.2256  0.5868  0.0994
  468MPD2    H2 6970   2.557   0.244  11.148  0.2312  0.5899  0.5815
  468MPD2    H3 6971   2.361   0.104  11.105  0.8202 -0.0362  0.4387
  468MPD2     N 6972   2.594   4.441  11.179  0.3437  0.1690  0.3676
  468MPD2    H5 6973   2.508   4.390  11.164  0.7276 -0.3555 -0.0316
  468MPD2    N1 6974   2.787   0.149  11.282 -0.0158 -0.2102  0.4328
  468MPD2    H7 6975   2.870   0.095  11.303 -0.0178 -1.0246 -1.7102
  469TMC3    C1 6976   2.894   0.323  11.407  0.8055 -0.1861  0.8221
  469TMC3    C2 6977   2.915   0.224  11.500  0.1451 -0.6358  0.4513
  469TMC3    C3 6978   2.984   0.267  11.614  0.4556  0.3723  0.0301
  469TMC3    C4 6979   2.924   0.448  11.425  0.9211 -0.3631  0.2118
  469TMC3    C5 6980   2.996   0.486  11.534  0.2558  0.1169 -0.0272
  469TMC3    C6 6981   3.020   0.397  11.632 -0.5698  0.0341  0.3983
  469TMC3     C 6982   2.786   0.285  11.315 -0.0831  1.3343  0.4255
  469TMC3     O 6983   2.709   0.380  11.281 -0.0999 -0.1344 -0.2647
  469TMC3     H 6984   2.885   0.120  11.494 -0.5280 -0.4151  0.0013
  469TMC3    H1 6985   2.917   0.510  11.336  4.3574 -0.7120 -0.3085
  469TMC3    H2 6986   3.097   0.420  11.705 -1.0172  3.5130 -0.2508
  469TMC3    C7 6987   3.036   0.616  11.546  0.5067 -0.3521 -0.3588
  469TMC3    C8 6988   3.075   0.163  11.656  0.4614 -0.3308 -0.7030
  469TMC3    O1 6989   3.042   0.684  11.445 -0.4375  0.1005 -0.0600
  469TMC3    O2 6990   3.114   0.083  11.569  0.3187  0.1805  0.4064
  470TMC3    C1 6991   4.164   1.648   1.271 -0.1769 -0.0261  0.4473
  470TMC3    C2 6992   4.282   1.702   1.314  0.3861  0.3774 -0.6559
  470TMC3    C3 6993   4.296   1.747   1.443 -0.3175  0.4014 -0.1501
  470TMC3    C4 6994   4.055   1.650   1.353  0.5837 -0.2304  0.3537
  470TMC3    C5 6995   4.070   1.701   1.476 -0.4886 -0.2928  0.3574
  470TMC3    C6 6996   4.187   1.754   1.522 -0.5283  0.1794 -0.3972
  470TMC3     C 6997   4.155   1.574   1.152 -0.1741  0.3310 -0.5030
  470TMC3     O 6998   4.260   1.545   1.102 -0.4401 -0.1358 -0.2594
  470TMC3     H 6999   4.369   1.693   1.250  0.9167 -0.8025  0.2319
  470TMC3    H1 7000   3.971   1.588   1.325  0.4706  0.3053 -0.4636
  470TMC3    H2 7001   4.197   1.798   1.621  1.1125  1.9591 -1.3587
  470TMC3    C7 7002   3.962   1.686   1.578  0.4881 -0.9452 -0.6310
  470TMC3    C8 7003   4.415   1.829   1.477  0.4069 -0.2602 -0.3107
  470TMC3    O1 7004   3.998   1.701   1.696  0.7285 -0.0594  0.0727
  470TMC3    O2 7005   4.401   1.910   1.570 -0.1555 -0.5457 -0.0032
  471MPD2     C 7006   0.414   2.106  17.098  0.1572  0.9394 -0.4781
  471MPD2    C1 7007   0.535   2.105  17.032 -0.4166  0.0242 -0.2273
  471MPD2    C2 7008   0.652   2.094  17.104  0.1174  0.0006 -0.0160
  471MPD2    C3 7009   0.644   2.058  17.241 -0.2614 -0.3495 -0.1939
  471MPD2    C4 7010   0.522   2.053  17.307  0.1033  0.4670 -0.2354
  471MPD2    C5 7011   0.410   2.079  17.231  0.1566  0.4346  0.2338
  471MPD2     H 7012   0.748   2.105  17.055  1.5698 -2.7585  2.1989
  471MPD2    H1 7013   0.525   2.038  17.414  1.5175  1.5334 -0.1178
  471MPD2    H2 7014   0.320   2.115  17.045 -1.8628 -0.0617  2.9225
  471MPD2    H3 7015   0.313   2.080  17.279 -0.0472 -1.2085 -0.1419
  471MPD2     N 7016   0.758   2.011  17.307 -0.0960 -0.4209  0.2332
  471MPD2    H5 7017   0.752   1.977  17.402 -0.6310 -0.1464  0.2963
  471MPD2    N1 7018   0.542   2.117  16.893 -0.1312  0.0820 -0.3848
  471MPD2    H7 7019   0.630   2.102  16.846 -0.3377 -2.4037 -0.0137
  472TMC3    C1 7020   0.482   2.085  16.667 -0.1459  0.4564 -0.1191
  472TMC3    C2 7021   0.388   2.111  16.573 -0.7103 -0.0698  0.2978
  472TMC3    C3 7022   0.342   2.014  16.486  0.0155  0.2562  0.3120
  472TMC3    C4 7023   0.521   1.957  16.682 -0.0868 -0.2252  0.1885
  472TMC3    C5 7024   0.484   1.858  16.592  0.8460 -0.6948  0.2334
  472TMC3    C6 7025   0.401   1.889  16.488 -0.2172 -0.0127 -0.2683
  472TMC3     C 7026   0.444   2.137  16.800  0.1638  0.2815 -0.5342
  472TMC3     O 7027   0.327   2.163  16.823  0.2761  0.3558 -0.2130
  472TMC3     H 7028   0.338   2.207  16.574 -1.0432 -0.2463  0.4631
  472TMC3    H1 7029   0.575   1.928  16.771  0.8330  0.2361 -0.2268
  472TMC3    H2 7030   0.368   1.817  16.414  0.3280  0.6953 -1.2089
  472TMC3    C7 7031   0.450   1.729  16.659 -0.6722 -0.3509  0.5974
  472TMC3    C8 7032   0.190   1.992  16.486 -0.0930 -0.0599 -0.3718
  472TMC3    O1 7033   0.482   1.716  16.777 -0.7646 -0.5517 -0.3723
  472TMC3    O2 7034   0.160   1.877  16.520  0.5604  0.1187 -0.0941
  473MPD2     C 7035   0.330   4.475  14.308  0.4756 -0.6103 -0.3965
  473MPD2    C1 7036   0.369   4.546  14.197 -0.0325 -0.5684 -0.1752
  473MPD2    C2 7037   0.492   4.612  14.207  0.4859  0.5345 -0.4042
  473MPD2    C3 7038   0.569   4.617  14.329 -0.2077 -0.1443 -0.2283
  473MPD2    C4 7039   0.520   4.545  14.430  0.1895 -0.4664 -0.4959
  473MPD2    C5 7040   0.397   4.479  14.422 -0.5036  0.3004  0.1984
  473MPD2     H 7041   0.526   4.677  14.128  0.7636 -0.7247 -1.3310
  473MPD2    H1 7042   0.572   4.544  14.525 -1.5224  0.2144  0.4484
  473MPD2    H2 7043   0.238   4.418  14.304  0.7205 -0.8993 -1.9529
  473MPD2    H3 7044   0.357   4.424  14.507 -1.2125  0.9653  0.2885
  473MPD2     N 7045   0.691   4.684  14.346 -1.1584 -0.6504 -0.0589
  473MPD2    H5 7046   0.730   4.694  14.439  0.4242  0.2202 -0.8126
  473MPD2    N1 7047   0.290   4.561  14.080  1.0154 -0.1680 -0.3289
  473MPD2    H7 7048   0.333   4.608  14.000 -2.3121  1.6162 -1.1166
  474TMC3    C1 7049   0.901   0.048  14.299  0.4361  0.2160  0.5320
  474TMC3    C2 7050   0.972   0.139  14.227  0.7694  0.6616  0.2095
  474TMC3    C3 7051   1.110   0.140  14.260  0.1801  0.2943  0.3205
  474TMC3    C4 7052   0.950   4.694  14.399  0.0960 -0.2349 -0.6549
  474TMC3    C5 7053   1.086   4.691  14.412  0.2052 -0.0031  0.1531
  474TMC3    C6 7054   1.166   0.055  14.351 -0.0776  0.1076 -0.6860
  474TMC3     C 7055   0.777   0.003  14.249  0.0404 -0.5929  0.3215
  474TMC3     O 7056   0.781   4.718  14.129 -0.1575  0.1510  0.1397
  474TMC3     H 7057   0.932   0.196  14.144 -0.9546 -2.1388 -0.8890
  474TMC3    H1 7058   0.892   4.639  14.472 -0.5454  1.6168  0.2312
  474TMC3    H2 7059   1.274   0.058  14.363 -0.0096  1.3323 -1.5857
  474TMC3    C7 7060   1.145   4.659  14.538 -0.1203 -0.2941  0.7335
  474TMC3    C8 7061   1.188   0.244  14.190  0.0525  0.3387  0.5112
  474TMC3    O1 7062   1.247   4.599  14.532 -0.4160 -0.0562  0.3897
  474TMC3    O2 7063   1.300   0.217  14.144  0.4471  0.4282  0.5751
  475MPD2     C 7064   3.477   2.341  10.988 -0.3701 -0.0252  0.5540
  475MPD2    C1 7065   3.518   2.458  10.925 -0.2268 -0.2109 -0.3102
  475MPD2    C2 7066   3.442   2.573  10.926 -0.3811  0.0137  0.4092
  475MPD2    C3 7067   3.312   2.561  10.972  0.0097 -0.8906 -0.0016
  475MPD2    C4 7068   3.265   2.440  11.030 -0.1301 -0.4963  0.1174
  475MPD2    C5 7069   3.355   2.342  11.040  0.6066 -0.0230 -0.7541
  475MPD2     H 7070   3.467   2.663  10.872  3.4936 -0.6057  1.1644
  475MPD2    H1 7071   3.167   2.432  11.075 -0.6083  0.7440 -0.6955
  475MPD2    H2 7072   3.549   2.272  11.030 -0.7166 -0.2948  0.7023
  475MPD2    H3 7073   3.324   2.262  11.105 -0.0537  0.8333 -0.0239
  475MPD2     N 7074   3.228   2.676  10.952 -0.1081 -0.3096  0.0186
  475MPD2    H5 7075   3.259   2.754  10.895 -0.5129 -0.2514 -0.1224
  475MPD2    N1 7076   3.647   2.459  10.877  0.3376  0.7445  0.5362
  475MPD2    H7 7077   3.682   2.363  10.874  1.7181  1.3568 -2.5685
  476TMC3    C1 7078   3.845   2.511  10.768  0.4324 -0.1804  0.2948
  476TMC3    C2 7079   3.862   2.382  10.732 -0.6759 -0.5578 -0.1492
  476TMC3    C3 7080   3.963   2.344  10.646  0.4735 -0.4908 -0.2972
  476TMC3    C4 7081   3.941   2.602  10.736  0.6536  0.2103  0.3039
  476TMC3    C5 7082   4.052   2.551  10.670  0.5769  0.2930 -0.3085
  476TMC3    C6 7083   4.062   2.428  10.610  0.0063 -0.0260  0.0060
  476TMC3     C 7084   3.727   2.562  10.839 -0.0418 -0.0479 -0.7088
  476TMC3     O 7085   3.719   2.685  10.856 -0.3689 -0.1600 -0.1001
  476TMC3     H 7086   3.793   2.305  10.764 -0.9979  0.0678  0.6666
  476TMC3    H1 7087   3.935   2.701  10.781 -0.6834  0.0519  0.4729
  476TMC3    H2 7088   4.148   2.389  10.557  1.1065  0.4017  1.4713
  476TMC3    C7 7089   4.172   2.628  10.639 -0.1399 -0.4820 -0.0067
  476TMC3    C8 7090   4.000   2.205  10.643 -0.1390  0.5190  0.1501
  476TMC3    O1 7091   4.255   2.569  10.571  0.1723 -0.2542 -0.4769
  476TMC3    O2 7092   3.989   2.153  10.756 -0.4038 -0.6128 -0.2180
  477MPD2     C 7093   0.800   3.834  11.728  0.0671 -0.4728 -1.2976
  477MPD2    C1 7094   0.857   3.954  11.767  0.3105 -0.3867  0.1150
  477MPD2    C2 7095   0.919   3.954  11.893  0.4681  0.1616  0.6283
  477MPD2    C3 7096   0.913   3.846  11.972 -0.4196 -0.2807  0.0262
  477MPD2    C4 7097   0.859   3.723  11.932  0.3991 -0.3335  0.4633
  477MPD2    C5 7098   0.799   3.718  11.802 -0.0930 -0.5926 -0.3909
  477MPD2     H 7099   0.966   4.044  11.930  0.9828  0.7127 -1.3807
  477MPD2    H1 7100   0.855   3.632  11.991  0.1921 -0.5014  0.1883
  477MPD2    H2 7101   0.740   3.813  11.640 -2.4147 -0.1100  0.2843
  477MPD2    H3 7102   0.757   3.629  11.756  1.8481 -0.5015 -2.3325
  477MPD2     N 7103   0.982   3.861  12.092  0.1859  0.1448  0.7164
  477MPD2    H5 7104   1.037   3.946  12.107 -0.8697  1.2450 -1.6391
  477MPD2    N1 7105   0.842   4.068  11.682  0.2532 -0.1970 -0.0186
  477MPD2    H7 7106   0.791   4.062  11.595 -0.8572  1.4257  0.5239
  478TMC3    C1 7107   0.851   4.303  11.625 -0.2065 -0.1972  0.0864
  478TMC3    C2 7108   0.840   4.428  11.676  0.0666 -0.1839 -0.3273
  478TMC3    C3 7109   0.775   4.517  11.606 -0.0004  0.2373  0.3531
  478TMC3    C4 7110   0.788   4.264  11.508 -0.2197  0.7657  1.0904
  478TMC3    C5 7111   0.725   4.364  11.439  0.6912  0.2305  0.1133
  478TMC3    C6 7112   0.712   4.489  11.487  0.1233  0.5664 -0.0217
  478TMC3     C 7113   0.906   4.190  11.707  0.4509 -0.3200 -0.0485
  478TMC3     O 7114   0.994   4.217  11.789 -0.3147 -0.1740 -0.0302
  478TMC3     H 7115   0.875   4.449  11.776 -3.0434  2.1250  0.2753
  478TMC3    H1 7116   0.791   4.164  11.466  0.8836  0.9310  0.7831
  478TMC3    H2 7117   0.670   4.569  11.427 -0.7561  0.4201  0.4042
  478TMC3    C7 7118   0.636   4.319  11.337 -0.2418  0.5279 -0.0679
  478TMC3    C8 7119   0.806   4.655  11.637  0.6139  0.0987 -0.1463
  478TMC3    O1 7120   0.612   4.200  11.325  1.0657 -0.3692  0.0329
  478TMC3    O2 7121   0.823   4.672  11.755  0.7047  0.1486  0.2938
  479MPD2     C 7122   0.089   1.164  14.965 -0.3649 -0.6857 -0.2194
  479MPD2    C1 7123   0.016   1.088  15.058 -0.6908 -0.3711 -0.1974
  479MPD2    C2 7124   4.725   1.130  15.186  0.7593  0.5124 -0.0324
  479MPD2    C3 7125   0.074   1.239  15.227  0.2107  0.6759 -0.0431
  479MPD2    C4 7126   0.137   1.322  15.136  0.6691  0.7429  0.3075
  479MPD2    C5 7127   0.150   1.274  15.004 -0.3295 -0.3296  0.1143
  479MPD2     H 7128   4.672   1.069  15.258 -1.0548  0.5796 -1.3053
  479MPD2    H1 7129   0.210   1.397  15.166  4.5001 -2.9121  0.1031
  479MPD2    H2 7130   0.105   1.127  14.864  1.3382  3.0923 -1.3383
  479MPD2    H3 7131   0.209   1.325  14.928  0.2192  1.4645  1.7236
  479MPD2     N 7132   0.084   1.274  15.364  0.1876 -0.4399  0.4003
  479MPD2    H5 7133   0.143   1.354  15.383 -0.2665  0.7544 -3.2412
  479MPD2    N1 7134   4.672   0.974  15.006 -0.1551  0.7931 -0.9032
  479MPD2    H7 7135   4.673   0.965  14.905 -0.4604  1.5103 -0.9690
  480TMC3    C1 7136   0.097   1.172  15.821 -0.1981 -0.2251  0.0462
  480TMC3    C2 7137   0.155   1.291  15.847 -0.0086  0.1261 -0.5837
  480TMC3    C3 7138   0.197   1.370  15.743 -0.0621 -0.0092 -0.2821
  480TMC3    C4 7139   0.071   1.132  15.696 -0.3237 -0.0776  0.2388
  480TMC3    C5 7140   0.098   1.218  15.592  0.7969  0.4931 -0.1972
  480TMC3    C6 7141   0.171   1.333  15.617  0.0823 -0.0325 -0.2002
  480TMC3     C 7142   0.052   1.083  15.924 -0.3021 -0.2031 -0.0099
  480TMC3     O 7143   0.019   0.970  15.885  0.1969 -0.2695 -0.3511
  480TMC3     H 7144   0.197   1.311  15.945 -0.9473  1.2168 -0.4147
  480TMC3    H1 7145   0.030   1.033  15.681  1.9718 -0.7457 -1.5762
  480TMC3    H2 7146   0.188   1.410  15.542  0.8760  0.2487  0.2567
  480TMC3    C7 7147   0.039   1.191  15.464 -0.0082 -0.1198  0.0632
  480TMC3    C8 7148   0.205   1.514  15.783  0.3016 -0.3525  0.1360
  480TMC3    O1 7149   4.691   1.091  15.467  0.3374  0.6806  0.2079
  480TMC3    O2 7150   0.191   1.526  15.904  0.3180 -0.1459  0.9420
  481MPD2     C 7151   1.848   1.421  14.904  0.1791 -0.0339  0.2446
  481MPD2    C1 7152   1.719   1.368  14.886 -0.0991  0.6242  0.2058
  481MPD2    C2 7153   1.654   1.319  15.007  0.4675  0.5681 -0.9423
  481MPD2    C3 7154   1.714   1.331  15.132  0.0631 -0.4530  0.3146
  481MPD2    C4 7155   1.847   1.368  15.137 -0.2455  0.4361 -0.6226
  481MPD2    C5 7156   1.912   1.407  15.025 -0.7449  0.1494 -0.2084
  481MPD2     H 7157   1.564   1.259  14.998 -0.2849  1.6988 -0.9189
  481MPD2    H1 7158   1.889   1.372  15.237  0.2756  1.5059 -0.8976
  481MPD2    H2 7159   1.904   1.457  14.818 -0.0916  0.1390  0.1376
  481MPD2    H3 7160   2.017   1.430  15.035 -0.6616 -0.1216 -0.4473
  481MPD2     N 7161   1.651   1.274  15.250 -0.1923  0.5870 -0.1486
  481MPD2    H5 7162   1.719   1.243  15.319 -0.4547 -0.0715 -0.1826
  481MPD2    N1 7163   1.665   1.373  14.754  0.3371  0.4033 -0.4544
  481MPD2    H7 7164   1.720   1.423  14.685  1.9462 -0.0861  0.4733
  482TMC3    C1 7165   1.526   1.321  14.566 -0.1967  0.0348 -0.8418
  482TMC3    C2 7166   1.478   1.208  14.500  0.4108 -0.3224  0.0170
  482TMC3    C3 7167   1.449   1.225  14.369 -0.0868  0.3245  0.8489
  482TMC3    C4 7168   1.554   1.440  14.509  0.5530  0.2102 -0.6050
  482TMC3    C5 7169   1.537   1.443  14.377 -0.8144 -0.1645 -0.5345
  482TMC3    C6 7170   1.484   1.338  14.304 -0.3705 -0.3951 -0.1842
  482TMC3     C 7171   1.564   1.292  14.707  0.9897  0.3806 -0.0136
  482TMC3     O 7172   1.521   1.188  14.761 -0.8242  0.3688  0.4945
  482TMC3     H 7173   1.468   1.118  14.560 -3.3304 -0.2834 -0.5231
  482TMC3    H1 7174   1.598   1.527  14.558 -1.2026  0.2172  0.9329
  482TMC3    H2 7175   1.458   1.344  14.199  1.8358 -1.2791 -0.8004
  482TMC3    C7 7176   1.552   1.571  14.308  0.7544 -0.2423  0.1596
  482TMC3    C8 7177   1.404   1.099  14.302  0.1467  0.4615  0.7404
  482TMC3    O1 7178   1.553   1.676  14.373  0.3506 -0.1879  0.5920
  482TMC3    O2 7179   1.395   0.997  14.370 -0.4834  0.6433  0.0027
  483TMC3    C1 7180   4.591   0.235   1.406 -0.8383  0.0089  0.7528
  483TMC3    C2 7181   4.668   0.309   1.322 -0.5966 -0.5726 -0.0466
  483TMC3    C3 7182   0.080   0.316   1.345 -0.0427  0.0220 -0.1048
  483TMC3    C4 7183   4.647   0.136   1.484  0.0497  0.8781  0.0338
  483TMC3    C5 7184   0.059   0.134   1.494 -0.2258 -0.4034 -1.0296
  483TMC3    C6 7185   0.142   0.228   1.430 -0.0353 -0.0685  0.0080
  483TMC3     C 7186   4.460   0.209   1.352 -0.4350 -0.3011  0.3072
  483TMC3     O 7187   4.399   0.310   1.320 -0.7634  0.1126  0.4260
  483TMC3     H 7188   4.621   0.383   1.258  0.7417 -0.2978 -0.6982
  483TMC3    H1 7189   4.585   0.073   1.547  1.5869 -0.6901 -0.0354
  483TMC3    H2 7190   0.249   0.223   1.447 -0.1916 -0.3132  0.8867
  483TMC3    C7 7191   0.123   0.028   1.572  0.0381 -0.3827 -0.2105
  483TMC3    C8 7192   0.162   0.399   1.266 -0.3506 -0.0914 -0.1345
  483TMC3    O1 7193   0.220   4.702   1.517  0.2047 -1.2197 -0.1548
  483TMC3    O2 7194   0.151   0.421   1.144 -0.1849 -0.8419 -0.3873
  484MPD2     C 7195   2.680   2.281  12.963  0.1855 -0.4698 -0.1683
  484MPD2    C1 7196   2.673   2.406  12.903  0.6797  0.1674  0.3758
  484MPD2    C2 7197   2.754   2.431  12.792  0.1118 -0.3819 -0.9687
  484MPD2    C3 7198   2.844   2.335  12.745 -0.0042  0.2567  0.3962
  484MPD2    C4 7199   2.858   2.219  12.806 -0.5333  0.4136  0.6425
  484MPD2    C5 7200   2.774   2.190  12.915  0.2532  0.1673  0.6892
  484MPD2     H 7201   2.726   2.518  12.734  1.5100  1.3122  0.9141
  484MPD2    H1 7202   2.926   2.142  12.773 -0.5755  0.2291  0.9847
  484MPD2    H2 7203   2.624   2.256  13.053  0.8015 -1.0352  0.0616
  484MPD2    H3 7204   2.788   2.094  12.964  0.4092  1.2058  2.6730
  484MPD2     N 7205   2.930   2.366  12.632  0.3028 -0.3624  0.4474
  484MPD2    H5 7206   3.000   2.298  12.603  0.1878 -1.0624  1.7723
  484MPD2    N1 7207   2.578   2.491  12.962  0.4883 -0.0737  0.0617
  484MPD2    H7 7208   2.525   2.473  13.046  0.1571  1.0605  0.1003
  485TMC3    C1 7209   3.063   2.515  12.513 -0.2799  0.9580 -0.4670
  485TMC3    C2 7210   3.172   2.443  12.555 -1.1159  0.2469 -0.5429
  485TMC3    C3 7211   3.298   2.489  12.530  0.5850  0.2824 -0.6434
  485TMC3    C4 7212   3.085   2.630  12.440 -0.2539 -0.4668 -0.6698
  485TMC3    C5 7213   3.215   2.665  12.405 -0.1023 -0.0312  0.6810
  485TMC3    C6 7214   3.321   2.598  12.448 -0.6215 -1.0464 -0.3401
  485TMC3     C 7215   2.928   2.485  12.563 -0.0612 -0.1723  0.3017
  485TMC3     O 7216   2.850   2.577  12.555  0.4533 -0.3882 -0.5741
  485TMC3     H 7217   3.162   2.343  12.596  0.0608  0.1609 -0.4556
  485TMC3    H1 7218   2.998   2.668  12.388  1.2223 -0.2902 -2.9999
  485TMC3    H2 7219   3.423   2.633  12.434  0.0493 -2.2857  1.3123
  485TMC3    C7 7220   3.229   2.696  12.266 -0.0655  0.1777 -0.3445
  485TMC3    C8 7221   3.385   2.381  12.484 -0.0689 -0.4664  0.1572
  485TMC3    O1 7222   3.157   2.784  12.227 -0.2195 -0.4440 -0.2715
  485TMC3    O2 7223   3.418   2.394  12.369 -0.2129  0.1877 -0.4967
  486MPD2     C 7224   4.181   1.951  13.314  0.2297  0.3260  0.1241
  486MPD2    C1 7225   4.229   1.920  13.188 -0.4473  0.4672  0.5812
  486MPD2    C2 7226   4.215   2.012  13.085 -0.2231 -0.1105  0.4523
  486MPD2    C3 7227   4.164   2.136  13.107 -0.5297  0.3290  0.2870
  486MPD2    C4 7228   4.117   2.163  13.236  0.0601  0.4692  0.4001
  486MPD2    C5 7229   4.121   2.069  13.339 -0.3952 -0.0840 -0.1139
  486MPD2     H 7230   4.238   1.983  12.982 -2.1922 -1.8490  0.4888
  486MPD2    H1 7231   4.078   2.258  13.271  0.4119  0.2614  1.3702
  486MPD2    H2 7232   4.180   1.878  13.394  2.0788 -0.8828 -0.9220
  486MPD2    H3 7233   4.086   2.081  13.440  0.0199  0.9828 -0.0963
  486MPD2     N 7234   4.160   2.233  13.002 -0.2090 -0.6685 -0.1031
  486MPD2    H5 7235   4.196   2.208  12.910 -0.0875  0.4287 -0.3550
  486MPD2    N1 7236   4.295   1.801  13.171  0.1584 -0.5664 -0.1966
  486MPD2    H7 7237   4.302   1.734  13.247  2.1173  0.3210  0.4089
  487TMC3    C1 7238   4.410   1.634  13.064  0.4869  0.0960 -0.7966
  487TMC3    C2 7239   4.380   1.528  12.978  0.0995  0.3020  0.0500
  487TMC3    C3 7240   4.412   1.405  13.032 -0.5775  0.5547  0.8535
  487TMC3    C4 7241   4.463   1.617  13.191 -0.3190 -0.2214 -0.0796
  487TMC3    C5 7242   4.496   1.494  13.238 -0.2580  0.8255  0.1745
  487TMC3    C6 7243   4.479   1.384  13.154  0.3650  0.6530  0.3963
  487TMC3     C 7244   4.338   1.749  13.051 -0.6444  0.0169 -0.1517
  487TMC3     O 7245   4.296   1.765  12.937  0.1644  0.0565  0.3612
  487TMC3     H 7246   4.307   1.540  12.899  1.2642 -1.4300 -1.2820
  487TMC3    H1 7247   4.497   1.704  13.246  0.5132 -0.1266 -0.7464
  487TMC3    H2 7248   4.474   1.288  13.203  2.1729  0.3516  0.0103
  487TMC3    C7 7249   4.480   1.467  13.379  0.9551 -0.0718 -0.3812
  487TMC3    C8 7250   4.313   1.301  13.004 -0.5899 -0.3325 -0.1190
  487TMC3    O1 7251   4.420   1.557  13.436  0.2140  0.0702 -0.2465
  487TMC3    O2 7252   4.204   1.352  13.027  0.5995  0.2320  0.0196
  488MPD2     C 7253   0.034   3.354  16.682  0.1213  0.0836  0.1966
  488MPD2    C1 7254   0.123   3.385  16.786  0.6274  0.0291  0.0923
  488MPD2    C2 7255   0.084   3.367  16.915  0.0631 -0.2746 -0.3843
  488MPD2    C3 7256   4.687   3.319  16.953  0.0037 -0.1803  0.2668
  488MPD2    C4 7257   4.600   3.285  16.853 -0.1430  0.6857  0.4563
  488MPD2    C5 7258   4.637   3.309  16.720 -0.3000 -0.7690 -0.5413
  488MPD2     H 7259   0.153   3.382  16.997 -0.0327 -1.8694 -0.0008
  488MPD2    H1 7260   4.502   3.242  16.870  1.7319 -2.7385  2.5838
  488MPD2    H2 7261   0.054   3.365  16.576 -0.4118  0.2413  0.1160
  488MPD2    H3 7262   4.573   3.282  16.636 -1.8093  0.2476  0.2875
  488MPD2     N 7263   4.662   3.310  17.093  0.2330 -0.9368 -0.0972
  488MPD2    H5 7264   0.003   3.350  17.159  0.1659 -0.3232 -0.4073
  488MPD2    N1 7265   0.265   3.416  16.757  1.1509 -0.1128 -0.3749
  488MPD2    H7 7266   0.320   3.447  16.837  1.4185  0.2473 -0.7013
  489TMC3    C1 7267   4.540   3.274  17.294 -0.9400  0.6565 -0.0223
  489TMC3    C2 7268   4.650   3.328  17.355 -0.5381  0.3044  0.2993
  489TMC3    C3 7269   4.637   3.390  17.473 -0.2125 -0.0943 -0.7412
  489TMC3    C4 7270   4.413   3.285  17.341 -0.0220  0.9800  0.0790
  489TMC3    C5 7271   4.399   3.341  17.467  0.3537 -0.5864 -0.1847
  489TMC3    C6 7272   4.509   3.402  17.530 -0.6284  0.1622  0.1507
  489TMC3     C 7273   4.546   3.260  17.146 -0.1335 -0.1397  0.2998
  489TMC3     O 7274   4.448   3.212  17.093  0.3369 -0.1974  0.1907
  489TMC3     H 7275   0.024   3.312  17.317 -0.7416  1.0686 -0.5782
  489TMC3    H1 7276   4.331   3.242  17.284 -0.0337  0.2949  0.6148
  489TMC3    H2 7277   4.490   3.453  17.623  0.8826  3.5818 -1.4070
  489TMC3    C7 7278   4.265   3.352  17.537 -0.0513 -0.4586 -0.0462
  489TMC3    C8 7279   0.021   3.474  17.502 -0.4460 -0.6469  0.5471
  489TMC3    O1 7280   4.259   3.384  17.659  0.3391 -0.4722  0.2713
  489TMC3    O2 7281   0.103   3.496  17.416  0.5615  1.2052  0.2374
  490MPD2     C 7282   0.916   2.855  17.629  0.1727 -0.5991  0.4431
  490MPD2    C1 7283   0.867   2.960   0.001 -0.1643 -0.0373 -0.6377
  490MPD2    C2 7284   0.953   3.046   0.069 -0.9294  0.0658  0.1684
  490MPD2    C3 7285   1.087   3.040   0.049  0.3098  0.2557 -0.0467
  490MPD2    C4 7286   1.133   2.947  17.665 -0.5692  0.6076  0.0890
  490MPD2    C5 7287   1.048   2.857  17.605 -0.6265  0.3000 -0.6762
  490MPD2     H 7288   0.903   3.109   0.142 -0.5033 -1.2184  1.5623
  490MPD2    H1 7289   1.238   2.936  17.643 -0.9346  0.1079 -1.4038
  490MPD2    H2 7290   0.855   2.780  17.581 -0.5796 -0.3234  0.9589
  490MPD2    H3 7291   1.087   2.784  17.535  0.0067  0.6610 -0.7004
  490MPD2     N 7292   1.175   3.127   0.116  0.7235 -0.4346 -0.4806
  490MPD2    H5 7293   1.273   3.123   0.090  1.0184  1.0401  0.4062
  490MPD2    N1 7294   0.723   2.968   0.016  0.2168 -0.1254 -0.6559
  490MPD2    H7 7295   0.691   3.028   0.092  1.8374  1.0389 -0.9002
  491TMC3    C1 7296   0.494   2.962  17.645 -1.2080  0.6564 -0.6951
  491TMC3    C2 7297   0.436   2.962   0.062 -0.0577 -0.4575 -0.5319
  491TMC3    C3 7298   0.311   2.908   0.074 -0.3621  0.9517 -0.1361
  491TMC3    C4 7299   0.434   2.898  17.538 -0.1860  0.0698  0.2715
  491TMC3    C5 7300   0.307   2.838  17.553 -1.0039  0.2365  0.5131
  491TMC3    C6 7301   0.245   2.848  17.669 -0.0550  0.0169 -0.1817
  491TMC3     C 7302   0.632   2.919  17.630 -0.4243 -0.3384  0.3218
  491TMC3     O 7303   0.650   2.841  17.539  0.1233  0.3073  0.0318
  491TMC3     H 7304   0.492   3.006   0.144 -0.1004 -0.2639 -0.6074
  491TMC3    H1 7305   0.465   2.934  17.441 -1.5900  0.2337 -0.1141
  491TMC3    H2 7306   0.154   2.791  17.682  0.3306 -0.0467  2.1671
  491TMC3    C7 7307   0.286   2.716  17.472 -0.1391 -0.4941 -0.2846
  491TMC3    C8 7308   0.231   2.962   0.182 -0.0887  0.2949 -0.3667
  491TMC3    O1 7309   0.188   2.645  17.496  0.2603 -0.8022  0.7259
  491TMC3    O2 7310   0.287   3.047   0.246 -0.8524  0.6124  0.0238
  492MPD2     C 7311   1.351   3.250  11.912 -0.6950  0.5865 -1.0448
  492MPD2    C1 7312   1.241   3.207  11.838 -0.1610  0.5020  0.0581
  492MPD2    C2 7313   1.151   3.127  11.904  0.0882 -0.5900 -0.7298
  492MPD2    C3 7314   1.162   3.106  12.039 -0.5153  0.5381 -0.0286
  492MPD2    C4 7315   1.270   3.143  12.105 -0.8250 -0.1009 -0.1135
  492MPD2    C5 7316   1.361   3.219  12.045 -0.1549  0.3205  0.3068
  492MPD2     H 7317   1.064   3.095  11.848  0.8762 -1.5879 -1.4097
  492MPD2    H1 7318   1.273   3.120  12.211 -0.1702 -0.7630 -0.2761
  492MPD2    H2 7319   1.429   3.306  11.861  0.0361 -1.2943 -1.9768
  492MPD2    H3 7320   1.455   3.239  12.096  0.5206 -0.1272 -0.7603
  492MPD2     N 7321   1.061   3.045  12.117 -0.2806 -0.0291  0.3340
  492MPD2    H5 7322   1.073   3.051  12.218  0.1382  2.9844  0.0967
  492MPD2    N1 7323   1.245   3.239  11.701 -0.3637  0.3151 -0.7440
  492MPD2    H7 7324   1.327   3.289  11.668  0.9037  0.9654  3.3642
  493TMC3    C1 7325   1.188   3.261  11.477 -0.6741  0.7652  0.8145
  493TMC3    C2 7326   1.228   3.397  11.481  0.3908 -0.2807  0.0528
  493TMC3    C3 7327   1.275   3.448  11.363  0.4920 -0.2268  0.9932
  493TMC3    C4 7328   1.175   3.190  11.363 -0.0530  0.5642  0.4016
  493TMC3    C5 7329   1.217   3.243  11.246 -0.2838  0.5690 -0.2572
  493TMC3    C6 7330   1.275   3.369  11.248 -0.1312 -0.1971 -0.4571
  493TMC3     C 7331   1.163   3.196  11.606 -0.2780  0.4923  0.6787
  493TMC3     O 7332   1.086   3.102  11.607 -0.0542  0.0822 -0.1703
  493TMC3     H 7333   1.230   3.456  11.571 -1.5630 -0.6491  0.3449
  493TMC3    H1 7334   1.133   3.090  11.367  1.4865 -0.2105 -2.7666
  493TMC3    H2 7335   1.311   3.406  11.153 -0.6119  0.6063 -0.3302
  493TMC3    C7 7336   1.241   3.150  11.134  0.2250  0.6085  0.3609
  493TMC3    C8 7337   1.308   3.587  11.360 -0.7154 -0.6803  0.0967
  493TMC3    O1 7338   1.205   3.031  11.150  0.5672 -0.1687 -0.3934
  493TMC3    O2 7339   1.337   3.641  11.466  0.0751  0.1038 -0.2175
  494TMC3    C1 7340   1.665   0.081   0.991  0.0954  0.3767  0.4088
  494TMC3    C2 7341   1.650   4.711   1.092  0.0399  0.0980  0.1559
  494TMC3    C3 7342   1.648   4.576   1.049  1.2369 -0.8381 -0.4405
  494TMC3    C4 7343   1.669   0.045   0.856 -1.2007 -0.0601 -0.0099
  494TMC3    C5 7344   1.662   4.637   0.823  0.3095 -0.1399  0.0990
  494TMC3    C6 7345   1.662   4.539   0.917  0.2212 -0.1131  0.3618
  494TMC3     C 7346   1.643   0.213   1.045  0.4482 -0.5904 -0.4461
  494TMC3     O 7347   1.592   0.221   1.157  0.1778 -0.7336  0.0214
  494TMC3     H 7348   1.645   0.007   1.198  0.8031  0.5076  0.1045
  494TMC3    H1 7349   1.665   0.119   0.777 -0.3073  1.5495  1.4438
  494TMC3    H2 7350   1.680   4.435   0.891  0.3175  0.0791 -0.3261
  494TMC3    C7 7351   1.646   4.605   0.677 -0.5506  0.4236  0.9260
  494TMC3    C8 7352   1.601   4.480   1.141  0.0426 -0.0006  0.0673
  494TMC3    O1 7353   1.644   4.706   0.606 -0.4485  0.1401  0.1780
  494TMC3    O2 7354   1.541   4.518   1.242  1.0471  0.1828  0.6429
  495TMC3    C1 7355   0.436   2.210  15.102  0.6573 -0.1899 -0.2871
  495TMC3    C2 7356   0.324   2.212  15.021 -0.6705 -0.4084 -0.1341
  495TMC3    C3 7357   0.210   2.163  15.076 -0.3323  0.3096  0.1426
  495TMC3    C4 7358   0.431   2.144  15.220  0.8971  0.0840  0.6331
  495TMC3    C5 7359   0.314   2.121  15.279  0.0942  0.3522 -0.4300
  495TMC3    C6 7360   0.194   2.137  15.213  0.7095  0.1820  0.1220
  495TMC3     C 7361   0.553   2.186  15.024 -0.5875 -0.0233 -0.6126
  495TMC3     O 7362   0.613   2.283  14.984  1.1214 -0.8053  0.5728
  495TMC3     H 7363   0.336   2.259  14.924  1.9167 -0.2258  0.2788
  495TMC3    H1 7364   0.529   2.132  15.265  1.0961  0.8769  0.4118
  495TMC3    H2 7365   0.107   2.093  15.260  0.5607  1.1772  0.7595
  495TMC3    C7 7366   0.317   2.022  15.391  0.4802 -0.4378 -0.1276
  495TMC3    C8 7367   0.124   2.079  14.996 -0.0910 -0.4538 -0.4654
  495TMC3    O1 7368   0.417   1.952  15.399  0.4298 -0.4015 -0.6166
  495TMC3    O2 7369   0.058   1.994  15.058  0.2557  0.0238 -0.8197
  496MPD2     C 7370   2.533   1.744  15.540  0.1148  0.6550 -0.2852
  496MPD2    C1 7371   2.537   1.609  15.574 -0.4424 -0.1404 -0.1439
  496MPD2    C2 7372   2.478   1.564  15.695 -0.2732  0.1109  0.2395
  496MPD2    C3 7373   2.427   1.657  15.787  0.2502 -0.4028  0.8399
  496MPD2    C4 7374   2.427   1.790  15.752  0.1385 -0.4413  1.4346
  496MPD2    C5 7375   2.474   1.833  15.628  0.0277  0.4436 -0.0661
  496MPD2     H 7376   2.478   1.464  15.735  1.2696 -0.1120 -0.3119
  496MPD2    H1 7377   2.377   1.857  15.822 -2.6544 -1.1560  0.1368
  496MPD2    H2 7378   2.566   1.783  15.444  1.3707  1.7463  0.5878
  496MPD2    H3 7379   2.470   1.940  15.610  2.4567  0.3373 -1.2437
  496MPD2     N 7380   2.357   1.609  15.905  0.3763 -0.1015 -0.2033
  496MPD2    H5 7381   2.339   1.510  15.895 -3.2263  0.6562 -1.2546
  496MPD2    N1 7382   2.609   1.526  15.481 -0.2434  0.1305 -0.3028
  496MPD2    H7 7383   2.666   1.573  15.411  0.1841  0.6307  0.3779
  497TMC3    C1 7384   2.254   1.625  16.126 -0.0792  0.2298 -0.6620
  497TMC3    C2 7385   2.142   1.542  16.098 -0.1494  0.4045  0.0864
  497TMC3    C3 7386   2.057   1.518  16.200  0.3001 -0.3512  0.5200
  497TMC3    C4 7387   2.268   1.696  16.242 -0.5889  0.3003  0.0547
  497TMC3    C5 7388   2.174   1.671  16.334  0.5522  0.0202 -0.4067
  497TMC3    C6 7389   2.071   1.587  16.321  0.1992  0.2742  0.8440
  497TMC3     C 7390   2.332   1.687  16.019  0.1134  0.0026 -0.5121
  497TMC3     O 7391   2.386   1.794  16.044  0.0302 -0.3509 -0.4458
  497TMC3     H 7392   2.147   1.479  16.010  1.1745  0.4393  0.1415
  497TMC3    H1 7393   2.346   1.769  16.258 -0.3231  0.0723 -0.1792
  497TMC3    H2 7394   2.001   1.572  16.403  1.6516 -0.6856  1.9053
  497TMC3    C7 7395   2.185   1.731  16.468 -0.0222 -0.0345  0.5396
  497TMC3    C8 7396   1.950   1.417  16.185 -0.8791 -0.3347  0.1236
  497TMC3    O1 7397   2.090   1.719  16.547 -0.1629  0.2101  0.1794
  497TMC3    O2 7398   1.917   1.386  16.072 -0.5780  0.1875  0.0209
  498MPD2     C 7399   3.608   2.704   9.973 -0.4883 -0.0255 -0.4901
  498MPD2    C1 7400   3.523   2.775  10.057 -0.8853  0.0524 -0.1680
  498MPD2    C2 7401   3.422   2.709  10.127 -0.0770  0.6652 -0.2787
  498MPD2    C3 7402   3.403   2.574  10.108 -0.2904  0.6375  0.0272
  498MPD2    C4 7403   3.486   2.513  10.010  0.0980 -0.1421 -0.4325
  498MPD2    C5 7404   3.584   2.577   9.942  0.5049  0.1251  1.0136
  498MPD2     H 7405   3.361   2.769  10.194  0.3784  0.8855 -0.0633
  498MPD2    H1 7406   3.474   2.415   9.966 -0.7231 -0.2140 -0.0632
  498MPD2    H2 7407   3.693   2.742   9.916 -0.3531 -0.7101 -0.7405
  498MPD2    H3 7408   3.647   2.520   9.875 -4.0738 -2.6598 -0.9371
  498MPD2     N 7409   3.291   2.504  10.163  0.2229 -0.2702 -0.8212
  498MPD2    H5 7410   3.223   2.557  10.216 -0.4621 -1.7884 -0.1767
  498MPD2    N1 7411   3.547   2.909  10.082 -0.0702 -0.9814  0.0757
  498MPD2    H7 7412   3.477   2.957  10.138  0.4544 -0.6166  0.4149
  499TMC3    C1 7413   3.668   3.104  10.115 -0.7552 -0.4871  0.2093
  499TMC3    C2 7414   3.793   3.147  10.158  0.5839 -0.2987 -0.4141
  499TMC3    C3 7415   3.795   3.271  10.213  0.1116 -0.2853  0.5504
  499TMC3    C4 7416   3.556   3.175  10.124 -0.1824  0.4936 -0.7829
  499TMC3    C5 7417   3.567   3.301  10.182  0.2553  0.2798 -0.2285
  499TMC3    C6 7418   3.683   3.354  10.218 -0.7841 -0.4829 -0.2931
  499TMC3     C 7419   3.666   2.965  10.060 -0.0123  0.6508  0.5742
  499TMC3     O 7420   3.771   2.924  10.010  0.1391  0.2625 -0.0984
  499TMC3     H 7421   3.886   3.092  10.151  0.6115 -0.3690  0.5037
  499TMC3    H1 7422   3.462   3.140  10.083 -0.8270  1.2599  0.0422
  499TMC3    H2 7423   3.694   3.455  10.256  0.2419 -0.4218 -0.7492
  499TMC3    C7 7424   3.457   3.395  10.169 -0.0513  0.5874 -0.6201
  499TMC3    C8 7425   3.923   3.328  10.176 -0.1075 -0.0238  0.3686
  499TMC3    O1 7426   3.488   3.499  10.113  0.1667  1.1098  0.3677
  499TMC3    O2 7427   3.979   3.399  10.257 -0.7459  0.2877  0.1013
  500MPD2     C 7428   4.718   4.069   9.830  0.0338  0.3106  0.0592
  500MPD2    C1 7429   4.678   4.037   9.953  0.4856  0.1685 -0.8705
  500MPD2    C2 7430   4.567   3.952   9.972  0.0836  0.0451 -0.1339
  500MPD2    C3 7431   4.495   3.901   9.866 -0.3224 -0.0318 -0.0888
  500MPD2    C4 7432   4.538   3.930   9.731  0.3190  0.6221  0.2949
  500MPD2    C5 7433   4.646   4.013   9.722  0.1990 -0.0275  0.3714
  500MPD2     H 7434   4.541   3.931  10.075 -2.1546  0.8722 -0.5277
  500MPD2    H1 7435   4.491   3.875   9.651  1.5583  1.6554 -1.1392
  500MPD2    H2 7436   0.079   4.127   9.803 -0.5784  1.3241  0.2197
  500MPD2    H3 7437   4.687   4.044   9.627  1.2488 -0.9316  0.5208
  500MPD2     N 7438   4.374   3.831   9.891  0.1285 -0.6413 -0.1929
  500MPD2    H5 7439   4.320   3.799   9.812 -0.1023  0.7256 -0.5842
  500MPD2    N1 7440   0.017   4.087  10.069 -0.0708 -0.1473 -0.8056
  500MPD2    H7 7441   4.723   4.055  10.163  0.9417  1.0398 -0.1815
  501TMC3    C1 7442   0.143   4.218  10.204  0.3336  0.5352 -0.0207
  501TMC3    C2 7443   0.156   4.347  10.234 -1.1091 -0.3208  0.6310
  501TMC3    C3 7444   0.184   4.381  10.366  0.5727 -0.0399 -0.1500
  501TMC3    C4 7445   0.183   4.115  10.293  0.4850  0.6447  0.3372
  501TMC3    C5 7446   0.240   4.153  10.414 -0.9645  0.2399 -0.8297
  501TMC3    C6 7447   0.214   4.277  10.458 -0.1217 -0.2351 -0.1564
  501TMC3     C 7448   0.098   4.195  10.066 -0.1845  0.5718 -0.8194
  501TMC3     O 7449   0.118   4.275   9.978 -0.1120 -0.3396 -0.4813
  501TMC3     H 7450   0.131   4.417  10.155 -0.5626  1.1442  1.7453
  501TMC3    H1 7451   0.187   4.016  10.251 -0.9264  1.2725 -1.2897
  501TMC3    H2 7452   0.249   4.306  10.556  0.3626 -0.6988 -0.1956
  501TMC3    C7 7453   0.285   4.049  10.508 -0.4953  0.3112 -0.2329
  501TMC3    C8 7454   0.152   4.513  10.429  0.8577  0.2624 -0.6910
  501TMC3    O1 7455   0.255   3.933  10.480  0.0465  0.4061  0.4959
  501TMC3    O2 7456   0.162   4.515  10.551 -0.5209  0.2373 -0.2367
  502TMC3    C1 7457   4.494   2.678  15.085 -0.2571 -0.3934  0.0007
  502TMC3    C2 7458   4.451   2.788  15.021 -0.1521  0.4000 -0.2202
  502TMC3    C3 7459   4.316   2.803  15.026  0.1282  0.6259 -0.4304
  502TMC3    C4 7460   4.422   2.582  15.147  0.0845 -0.0833  0.4825
  502TMC3    C5 7461   4.289   2.599  15.140 -0.7935  0.0852  0.7150
  502TMC3    C6 7462   4.230   2.710  15.078  0.0238  0.6724 -0.3001
  502TMC3     C 7463   4.604   2.704  15.174 -0.5126  0.2302 -0.5584
  502TMC3     O 7464   4.689   2.786  15.134  0.3286  0.0647  0.1345
  502TMC3     H 7465   4.526   2.854  14.981  0.6088 -0.9983 -1.1166
  502TMC3    H1 7466   4.482   2.501  15.187  0.1942 -0.3082 -0.1443
  502TMC3    H2 7467   4.123   2.727  15.073  0.0228  0.3043 -1.6639
  502TMC3    C7 7468   4.222   2.508  15.226 -0.9995  0.1900 -0.4926
  502TMC3    C8 7469   4.272   2.936  15.008 -0.0952  0.3028 -0.5751
  502TMC3    O1 7470   4.297   2.417  15.268  0.6285  0.6629 -0.1322
  502TMC3    O2 7471   4.359   3.012  14.967  0.1167  0.1796  0.3981
  503MPD2     C 7472   1.885   3.313  17.385 -0.4615  0.4314 -0.0121
  503MPD2    C1 7473   1.911   3.334  17.521  0.4344 -0.4193  0.2377
  503MPD2    C2 7474   1.951   3.236  17.603  1.0593  0.3141 -0.2484
  503MPD2    C3 7475   1.976   3.115  17.544 -0.2427  0.3195  0.0683
  503MPD2    C4 7476   1.950   3.094  17.412  0.4178  0.1130  0.6767
  503MPD2    C5 7477   1.900   3.189  17.338  0.2800  0.0751  0.5064
  503MPD2     H 7478   1.967   3.258   0.003 -1.2058  0.3236  0.0969
  503MPD2    H1 7479   1.965   3.000  17.361 -0.7680  0.1710  0.2263
  503MPD2    H2 7480   1.868   3.390  17.311 -1.2895  0.6306  0.3810
  503MPD2    H3 7481   1.874   3.175  17.233  1.8915 -1.6837  0.3492
  503MPD2     N 7482   2.013   3.003  17.628 -0.3002 -0.4963 -0.8782
  503MPD2    H5 7483   2.042   3.012   0.020  0.0478  1.0111 -1.1301
  503MPD2    N1 7484   1.914   3.465  17.572  0.3192 -0.1371  0.7318
  503MPD2    H7 7485   1.961   3.476  17.661  2.4141 -1.4668 -0.2175
  504TMC3    C1 7486   2.131   2.790  17.635 -0.3951 -0.2771  0.0559
  504TMC3    C2 7487   2.162   2.790   0.060  0.8358  0.5882 -0.3877
  504TMC3    C3 7488   2.245   2.697   0.110  0.3574  0.2051 -0.8226
  504TMC3    C4 7489   2.177   2.701  17.550  0.3820  0.5080  0.5690
  504TMC3    C5 7490   2.261   2.609  17.605  0.0994  0.5649 -1.1396
  504TMC3    C6 7491   2.297   2.606   0.031  0.4673 -0.1618 -0.0165
  504TMC3     C 7492   2.022   2.870  17.582 -0.4994 -0.0001  0.1217
  504TMC3     O 7493   1.963   2.824  17.488 -0.4450 -0.1267  0.0875
  504TMC3     H 7494   2.109   2.860   0.123 -0.7967 -0.4725 -0.5936
  504TMC3    H1 7495   2.151   2.706  17.445  2.8104 -0.9582 -0.1091
  504TMC3    H2 7496   2.372   2.534   0.062 -0.8795 -2.1496 -1.3427
  504TMC3    C7 7497   2.343   2.542  17.500 -0.6820  0.1899  0.1001
  504TMC3    C8 7498   2.218   2.655   0.248 -0.4635  0.2946  0.0552
  504TMC3    O1 7499   2.337   2.599  17.392  0.0366  0.1924  0.0400
  504TMC3    O2 7500   2.207   2.529   0.259  0.0543 -0.1859  0.5408
  505MPD2     C 7501   2.085   1.881  10.630  0.2423 -0.4058  0.1799
  505MPD2    C1 7502   2.154   1.887  10.748 -0.5229 -0.0504  0.1926
  505MPD2    C2 7503   2.159   2.007  10.824 -0.9106 -0.2754 -0.7661
  505MPD2    C3 7504   2.115   2.122  10.761  0.6756  0.0850 -0.2950
  505MPD2    C4 7505   2.046   2.118  10.645  0.4078 -0.9654 -0.7663
  505MPD2    C5 7506   2.032   1.999  10.577 -0.1639 -0.0029  0.1149
  505MPD2     H 7507   2.214   2.008  10.917 -0.5183 -0.0476 -0.9970
  505MPD2    H1 7508   1.999   2.206  10.602 -0.5143 -1.4248 -0.7132
  505MPD2    H2 7509   2.065   1.787  10.579  1.6327  0.1252 -1.3689
  505MPD2    H3 7510   1.968   1.993  10.490 -0.4996 -1.1948  0.4580
  505MPD2     N 7511   2.143   2.240  10.830 -0.0409 -0.1307 -0.2493
  505MPD2    H5 7512   2.187   2.237  10.922  0.3605  1.0260 -0.4004
  505MPD2    N1 7513   2.219   1.763  10.776  0.1480  0.6805  0.0575
  505MPD2    H7 7514   2.208   1.692  10.705  0.4036  0.0590  0.6449
  506TMC3    C1 7515   2.323   1.601  10.912 -0.6166 -0.0567 -0.1246
  506TMC3    C2 7516   2.391   1.569  10.799 -0.6743 -0.1884 -0.0753
  506TMC3    C3 7517   2.523   1.549  10.813  0.0430  0.1250 -0.0861
  506TMC3    C4 7518   2.385   1.603  11.032  0.0076 -0.4194 -0.7390
  506TMC3    C5 7519   2.522   1.574  11.043 -0.4748 -0.1482 -0.2017
  506TMC3    C6 7520   2.593   1.550  10.932 -0.4301 -0.5598  0.3819
  506TMC3     C 7521   2.257   1.727  10.902 -0.1128  0.6826  0.3527
  506TMC3     O 7522   2.253   1.787  11.011 -0.0288 -0.5984  0.3395
  506TMC3     H 7523   2.340   1.569  10.704  2.7052  0.1323 -1.8775
  506TMC3    H1 7524   2.322   1.611  11.120  1.9089 -0.5731  0.6406
  506TMC3    H2 7525   2.701   1.540  10.937 -0.6571 -3.6765 -1.0384
  506TMC3    C7 7526   2.592   1.659  11.138 -0.4314  0.0444 -0.5249
  506TMC3    C8 7527   2.595   1.546  10.690  0.1121 -0.4378 -0.6744
  506TMC3    O1 7528   2.704   1.627  11.169  0.4271  0.2131 -0.3607
  506TMC3    O2 7529   2.537   1.495  10.593 -0.1667 -0.5924  0.1063
  507TMC3    C1 7530   2.595   2.655  15.279  0.0194  0.0621 -0.3509
  507TMC3    C2 7531   2.630   2.606  15.155  0.1527  0.1981 -0.3131
  507TMC3    C3 7532   2.749   2.629  15.099 -0.6170  0.4330  0.2686
  507TMC3    C4 7533   2.693   2.720  15.352 -0.1048  0.3600  0.1925
  507TMC3    C5 7534   2.813   2.750  15.291 -0.2203 -0.3206  0.1397
  507TMC3    C6 7535   2.849   2.707  15.164 -0.9733 -0.7502  0.6088
  507TMC3     C 7536   2.482   2.600  15.352  0.3324  0.8236 -0.3640
  507TMC3     O 7537   2.376   2.587  15.290  0.2204 -0.1459 -0.1858
  507TMC3     H 7538   2.561   2.546  15.097  1.3328 -1.0379 -0.4358
  507TMC3    H1 7539   2.662   2.765  15.445  0.6633 -0.7703  1.0094
  507TMC3    H2 7540   2.944   2.720  15.112 -0.6769 -1.9014  0.8455
  507TMC3    C7 7541   2.891   2.858  15.353  0.3626  0.4731 -0.2678
  507TMC3    C8 7542   2.758   2.628  14.957  0.0399  0.1722 -0.8902
  507TMC3    O1 7543   2.839   2.913  15.449 -0.1283  0.1027 -0.3030
  507TMC3    O2 7544   2.709   2.537  14.893 -0.4309  0.2841  0.1470
  508MPD2     C 7545   3.706   0.618  15.920  0.3811 -0.0009 -0.4117
  508MPD2    C1 7546   3.723   0.674  16.050 -0.1627  0.0559 -0.1132
  508MPD2    C2 7547   3.809   0.781  16.057  0.4420 -0.6389  0.4030
  508MPD2    C3 7548   3.874   0.833  15.943 -0.0038  0.2238  0.1418
  508MPD2    C4 7549   3.843   0.781  15.821 -0.6136  0.1523  0.4324
  508MPD2    C5 7550   3.769   0.663  15.814  0.2682  0.0428 -0.2873
  508MPD2     H 7551   3.833   0.819  16.156 -0.8952  0.7095  0.2169
  508MPD2    H1 7552   3.882   0.809  15.724 -0.4862  0.9265  0.7056
  508MPD2    H2 7553   3.661   0.519  15.907  0.7696 -0.1383 -0.6983
  508MPD2    H3 7554   3.761   0.617  15.716 -0.4478  0.2756 -0.3433
  508MPD2     N 7555   3.957   0.941  15.969 -0.1804 -0.6636 -0.0204
  508MPD2    H5 7556   3.972   0.957  16.068  0.0040 -2.5434  0.2597
  508MPD2    N1 7557   3.664   0.611  16.162 -0.0156 -0.4043 -1.0025
  508MPD2    H7 7558   3.611   0.526  16.142  1.1267 -1.6998  1.5894
  509TMC3    C1 7559   4.214   1.261  16.074 -0.2283  0.9736 -0.5008
  509TMC3    C2 7560   4.349   1.229  16.041 -0.7799  0.6637  0.0523
  509TMC3    C3 7561   4.369   1.129  15.948  0.4021 -0.1604 -0.0613
  509TMC3    C4 7562   4.109   1.187  16.027  0.0656  0.1112 -0.1520
  509TMC3    C5 7563   4.137   1.090  15.936  0.1422 -0.2170 -0.6364
  509TMC3    C6 7564   4.265   1.065  15.896 -0.3000  0.0399 -0.0306
  509TMC3     C 7565   4.188   1.405  16.062 -0.1644 -0.1947  0.6577
  509TMC3     O 7566   4.284   1.473  16.086 -0.2342  0.3047  0.1837
  509TMC3     H 7567   4.429   1.268  16.102  0.9210 -1.0232 -1.0923
  509TMC3    H1 7568   4.011   1.210  16.065 -0.4891  0.3038 -1.6784
  509TMC3    H2 7569   4.276   0.993  15.815  1.8151  1.4091 -0.9624
  509TMC3    C7 7570   4.036   1.005  15.877 -0.0071 -0.2564 -0.3034
  509TMC3    C8 7571   4.464   1.174  15.842 -0.5903  0.4044 -0.0947
  509TMC3    O1 7572   4.023   1.015  15.756  0.0364 -0.0756 -0.0809
  509TMC3    O2 7573   4.477   1.119  15.734 -0.0669 -0.0228 -0.7431
  510MPD2     C 7574   1.530   2.521  14.943  0.1511 -0.3249  0.1574
  510MPD2    C1 7575   1.554   2.409  15.022  0.1360  0.4848  0.0571
  510MPD2    C2 7576   1.686   2.362  15.013  0.1687  0.2061  0.4254
  510MPD2    C3 7577   1.784   2.428  14.941 -0.0849  0.4090 -0.6958
  510MPD2    C4 7578   1.749   2.538  14.859 -0.0572  0.0785 -0.0227
  510MPD2    C5 7579   1.618   2.574  14.851  0.1413  1.1040 -0.2132
  510MPD2     H 7580   1.718   2.289  15.086  1.9349  0.3739 -0.1638
  510MPD2    H1 7581   1.811   2.598  14.793 -0.8086  1.4973  0.5808
  510MPD2    H2 7582   1.427   2.554  14.933 -0.2457 -1.3659  0.8017
  510MPD2    H3 7583   1.578   2.650  14.785 -2.8692 -0.0777  0.2586
  510MPD2     N 7584   1.914   2.383  14.950 -0.3739  0.0044 -0.1553
  510MPD2    H5 7585   1.930   2.303  15.010 -0.2417  1.3170  1.5666
  510MPD2    N1 7586   1.466   2.351  15.118  0.3091  0.2227 -0.0708
  510MPD2    H7 7587   1.500   2.265  15.160  0.8362  0.3659 -0.2035
  511TMC3    C1 7588   1.277   2.338  15.261  0.6849  0.4846 -0.6292
  511TMC3    C2 7589   1.174   2.397  15.326  0.2036 -0.3644  0.6772
  511TMC3    C3 7590   1.075   2.313  15.362  0.1683 -0.3576  0.3839
  511TMC3    C4 7591   1.297   2.205  15.259  0.1451 -0.7151  0.7739
  511TMC3    C5 7592   1.198   2.122  15.304 -0.5192  0.4747  0.5368
  511TMC3    C6 7593   1.084   2.176  15.360  0.0294 -0.0950 -0.7131
  511TMC3     C 7594   1.355   2.419  15.168  0.5935 -0.2734 -0.5401
  511TMC3     O 7595   1.319   2.536  15.142  0.4530 -0.1597  0.8357
  511TMC3     H 7596   1.159   2.504  15.316 -1.9650 -0.8459 -1.2398
  511TMC3    H1 7597   1.369   2.154  15.195  1.3938  0.8729  0.9261
  511TMC3    H2 7598   0.995   2.116  15.372  0.2470 -0.4417 -0.8130
  511TMC3    C7 7599   1.216   1.980  15.276 -0.1603  0.4425 -0.3658
  511TMC3    C8 7600   0.958   2.380  15.421  0.4184  0.5709  0.8345
  511TMC3    O1 7601   1.269   1.949  15.174  0.0314 -0.3767  0.2512
  511TMC3    O2 7602   0.958   2.498  15.436 -0.1641 -0.4256  0.2918
  512TMC3    C1 7603   0.388   1.354  13.945 -0.4013  0.4569 -0.3152
  512TMC3    C2 7604   0.447   1.386  13.824 -0.1157  0.8349  0.1674
  512TMC3    C3 7605   0.568   1.340  13.800  0.1441 -0.4010  0.4772
  512TMC3    C4 7606   0.457   1.255  14.021  0.0736 -0.4000 -0.2382
  512TMC3    C5 7607   0.572   1.199  13.985 -0.7654  0.0703  0.5153
  512TMC3    C6 7608   0.639   1.251  13.875  0.2963  0.7153  0.5258
  512TMC3     C 7609   0.242   1.380  13.956  0.3328  0.3189 -0.4559
  512TMC3     O 7610   0.189   1.460  13.883  0.1651  0.0464 -0.1632
  512TMC3     H 7611   0.398   1.436  13.742  2.0193  1.5052 -0.7058
  512TMC3    H1 7612   0.422   1.221  14.118  0.3576  0.2640  0.1020
  512TMC3    H2 7613   0.733   1.210  13.841 -0.3032  0.7684 -1.2157
  512TMC3    C7 7614   0.641   1.107  14.076 -0.5157 -0.4508 -0.6179
  512TMC3    C8 7615   0.632   1.412  13.693  0.2028  0.3731 -0.3952
  512TMC3    O1 7616   0.670   1.152  14.185  0.0612 -0.1795  0.5249
  512TMC3    O2 7617   0.563   1.456  13.605 -0.3338  0.3520 -0.2379
  513MPD2     C 7618   3.098   0.896  13.263 -0.1913 -0.4323  0.2849
  513MPD2    C1 7619   3.124   1.032  13.252 -0.1501 -1.1198  0.7839
  513MPD2    C2 7620   3.055   1.121  13.333 -0.0840  0.4705 -0.4064
  513MPD2    C3 7621   2.969   1.078  13.430 -0.6102  0.2036  0.0586
  513MPD2    C4 7622   2.951   0.944  13.450  0.2664 -0.2664 -0.6222
  513MPD2    C5 7623   3.004   0.860  13.364 -0.5346 -0.4055  0.3287
  513MPD2     H 7624   3.069   1.228  13.322  1.0324  0.2815 -0.7909
  513MPD2    H1 7625   2.887   0.898  13.525 -0.3578 -0.0078 -0.9891
  513MPD2    H2 7626   3.157   0.829  13.201 -2.1187 -0.4508 -1.5436
  513MPD2    H3 7627   2.980   0.755  13.377  0.4156 -0.2760  3.1077
  513MPD2     N 7628   2.910   1.182  13.508  0.0174 -0.5833 -0.7876
  513MPD2    H5 7629   2.932   1.279  13.487 -0.8209 -0.1894  0.1295
  513MPD2    N1 7630   3.224   1.077  13.155 -0.2585  0.0285  0.3268
  513MPD2    H7 7631   3.266   1.009  13.093  0.8582  1.9917 -1.0998
  514TMC3    C1 7632   3.406   1.216  13.086  0.6226 -0.4416  0.1297
  514TMC3    C2 7633   3.374   1.241  12.956  0.8237  0.0874 -0.0137
  514TMC3    C3 7634   3.418   1.355  12.889  0.3484 -0.1468  0.1029
  514TMC3    C4 7635   3.497   1.298  13.151 -0.2101  0.5558 -0.2669
  514TMC3    C5 7636   3.548   1.400  13.082  0.7513  0.2832  1.1253
  514TMC3    C6 7637   3.513   1.430  12.954 -0.4196 -0.5720 -0.1916
  514TMC3     C 7638   3.293   1.199  13.170  0.7336  1.2473 -0.0295
  514TMC3     O 7639   3.271   1.295  13.244 -0.2517  0.3746 -0.2420
  514TMC3     H 7640   3.312   1.169  12.904 -1.3412 -0.3578  3.2023
  514TMC3    H1 7641   3.507   1.291  13.259 -0.5371 -0.0768 -0.2748
  514TMC3    H2 7642   3.557   1.521  12.915  0.8216 -0.3619  1.6776
  514TMC3    C7 7643   3.548   1.521  13.165  0.6897 -0.1931  0.4454
  514TMC3    C8 7644   3.317   1.437  12.824  0.3381 -0.4782  0.2438
  514TMC3    O1 7645   3.624   1.616  13.136  0.0069 -0.2218 -0.1426
  514TMC3    O2 7646   3.298   1.547  12.884  0.1150  0.3730  0.0320
  515MPD2     C 7647   0.719   3.586  14.460  0.4979  0.6986 -0.7343
  515MPD2    C1 7648   0.637   3.522  14.548  0.1210  0.1212 -0.0293
  515MPD2    C2 7649   0.655   3.543  14.688  0.0282 -0.3152  0.3321
  515MPD2    C3 7650   0.762   3.618  14.734  0.0263 -0.6936 -0.0571
  515MPD2    C4 7651   0.842   3.682  14.641 -0.0278 -0.1706  0.6392
  515MPD2    C5 7652   0.831   3.655  14.506 -0.3519 -0.2334  0.5895
  515MPD2     H 7653   0.591   3.489  14.756  0.0165  0.2128  0.7391
  515MPD2    H1 7654   0.927   3.736  14.681 -0.1816 -0.5125  1.4340
  515MPD2    H2 7655   0.711   3.575  14.352  0.0284 -2.0993 -0.3939
  515MPD2    H3 7656   0.906   3.701  14.443 -0.8937  0.0030  0.1148
  515MPD2     N 7657   0.805   3.631  14.875  0.6164  0.5257 -0.0653
  515MPD2    H5 7658   0.884   3.694  14.888 -0.0057  0.8832  1.8798
  515MPD2    N1 7659   0.527   3.443  14.508  0.4375 -0.5469 -0.2201
  515MPD2    H7 7660   0.458   3.404  14.571  2.2421  0.9266  2.6281
  516TMC3    C1 7661   0.406   3.299  14.370  0.0610 -0.1078  0.1713
  516TMC3    C2 7662   0.356   3.282  14.244  0.0276 -0.5826  0.6590
  516TMC3    C3 7663   0.287   3.161  14.223 -0.3411  0.0677 -0.2284
  516TMC3    C4 7664   0.408   3.198  14.468  0.2966  0.3283  0.4219
  516TMC3    C5 7665   0.342   3.083  14.435 -0.0323 -0.3824  0.4015
  516TMC3    C6 7666   0.279   3.059  14.314  0.0386 -0.4460  0.1832
  516TMC3     C 7667   0.507   3.395  14.380 -0.0828 -0.1012  0.2750
  516TMC3     O 7668   0.576   3.401  14.277  1.0301 -0.0996  0.2816
  516TMC3     H 7669   0.355   3.365  14.174 -0.4910 -0.4535  0.8216
  516TMC3    H1 7670   0.454   3.213  14.565  2.4415  1.1943 -0.7366
  516TMC3    H2 7671   0.208   2.978  14.301 -1.8205  1.4606 -1.3226
  516TMC3    C7 7672   0.300   3.007  14.555  0.5889 -0.0536 -0.2848
  516TMC3    C8 7673   0.180   3.159  14.120  0.4634 -0.8398 -0.5447
  516TMC3    O1 7674   0.352   3.028  14.664 -0.0454 -0.6744 -0.0768
  516TMC3    O2 7675   0.078   3.100  14.147 -0.0911 -0.4346 -0.3730
  517MPD2     C 7676   0.262   0.145   0.269  0.7447 -0.2176 -0.1789
  517MPD2    C1 7677   0.384   0.153   0.340 -0.3907  0.4655  0.3710
  517MPD2    C2 7678   0.431   0.273   0.385  0.1901 -0.1693  0.7324
  517MPD2    C3 7679   0.353   0.389   0.373 -0.7002 -0.4893 -0.1759
  517MPD2    C4 7680   0.231   0.380   0.315 -0.4127 -0.0043  0.8912
  517MPD2    C5 7681   0.187   0.258   0.257 -0.1177 -0.3317 -0.4019
  517MPD2     H 7682   0.528   0.277   0.434  1.1753 -0.3394 -1.1705
  517MPD2    H1 7683   0.168   0.465   0.292  0.9002  1.3950  2.5344
  517MPD2    H2 7684   0.226   0.060   0.212 -1.2209  1.2987 -1.1762
  517MPD2    H3 7685   0.097   0.261   0.196  0.3567 -0.9658 -1.1228
  517MPD2     N 7686   0.384   0.512   0.436  0.0956  0.1541  0.5175
  517MPD2    H5 7687   0.338   0.597   0.403  0.5856  0.1205 -0.2444
  517MPD2    N1 7688   0.465   0.039   0.350  0.0204 -0.2528 -0.4799
  517MPD2    H7 7689   0.558   0.050   0.389 -1.1610  2.6270  1.5348
  518TMC3    C1 7690   0.534   4.546   0.326  0.2701 -0.4788  0.2309
  518TMC3    C2 7691   0.506   4.418   0.343 -1.0593  0.1001 -0.5477
  518TMC3    C3 7692   0.602   4.328   0.312  0.5543 -0.4126  0.0220
  518TMC3    C4 7693   0.652   4.598   0.274 -0.1154 -0.4558  0.6129
  518TMC3    C5 7694   0.738   4.503   0.230 -0.2818  0.3840  0.6355
  518TMC3    C6 7695   0.721   4.370   0.246 -1.0196  0.0356 -0.1291
  518TMC3     C 7696   0.422   4.635   0.330  0.3236  0.4216  0.2170
  518TMC3     O 7697   0.313   4.586   0.299 -0.5022 -0.2151 -0.2206
  518TMC3     H 7698   0.412   4.394   0.391 -1.4053 -2.1187 -2.3015
  518TMC3    H1 7699   0.666   4.702   0.247 -0.0707 -0.7011 -0.2955
  518TMC3    H2 7700   0.788   4.290   0.218 -1.2466 -0.0106 -0.5292
  518TMC3    C7 7701   0.864   4.562   0.176 -0.5259  0.2470 -0.1274
  518TMC3    C8 7702   0.581   4.190   0.309  0.0391  0.5582  0.1109
  518TMC3    O1 7703   0.887   4.680   0.170 -0.9997  0.1305  0.2379
  518TMC3    O2 7704   0.601   4.133   0.204  0.0685 -0.7503  0.4003
  519MPD2     C 7705   1.913   3.123  14.993  0.0627  0.4930 -0.9480
  519MPD2    C1 7706   1.900   3.141  14.859  0.7033  0.0946 -0.3953
  519MPD2    C2 7707   1.932   3.034  14.778  0.5164  0.1353  0.4298
  519MPD2    C3 7708   1.969   2.909  14.831 -0.2155  0.5322 -0.1795
  519MPD2    C4 7709   1.976   2.894  14.967  0.3377  0.3454  0.1686
  519MPD2    C5 7710   1.954   2.998  15.051 -0.4936  0.6945 -0.3093
  519MPD2     H 7711   1.911   3.045  14.672 -0.1061 -0.2003  0.5240
  519MPD2    H1 7712   2.001   2.802  15.017 -2.7414 -0.0491  0.9696
  519MPD2    H2 7713   1.878   3.199  15.061 -1.7656 -0.0952 -1.2354
  519MPD2    H3 7714   1.945   2.994  15.159 -1.9740  1.8995 -0.3922
  519MPD2     N 7715   1.979   2.795  14.745  0.0140  0.6639 -0.0203
  519MPD2    H5 7716   2.009   2.708  14.788 -1.4366  0.4600  0.6073
  519MPD2    N1 7717   1.841   3.258  14.809  0.7367 -0.3488  0.3935
  519MPD2    H7 7718   1.812   3.333  14.872 -0.6157  0.6704 -1.4565
  520TMC3    C1 7719   1.990   2.689  14.535 -0.0173  0.5603 -0.2603
  520TMC3    C2 7720   1.927   2.683  14.418  0.0558 -0.0891  0.1984
  520TMC3    C3 7721   2.005   2.630  14.319 -0.1306  0.2852 -0.5191
  520TMC3    C4 7722   2.121   2.667  14.561  0.0718 -0.7043 -0.3477
  520TMC3    C5 7723   2.194   2.630  14.458 -0.5757 -0.5569  0.0291
  520TMC3    C6 7724   2.143   2.611  14.331  0.6590  1.3260 -0.2629
  520TMC3     C 7725   1.932   2.792  14.618 -0.8630 -0.1579 -0.0786
  520TMC3     O 7726   1.845   2.859  14.569  0.7956  0.0940 -0.3231
  520TMC3     H 7727   1.820   2.695  14.405  0.4848  2.6109 -0.8429
  520TMC3    H1 7728   2.163   2.682  14.659 -0.8653 -1.5755  0.1822
  520TMC3    H2 7729   2.208   2.578  14.251  1.5973 -1.8577  1.7909
  520TMC3    C7 7730   2.334   2.588  14.473 -0.0089 -0.0207 -0.1455
  520TMC3    C8 7731   1.967   2.633  14.180 -0.7659  0.8936 -0.3607
  520TMC3    O1 7732   2.363   2.559  14.587 -0.2923 -0.6717 -0.0804
  520TMC3    O2 7733   2.024   2.560  14.102 -0.2641  0.3926  0.1269
  521MPD2     C 7734   2.305   0.955  17.276  0.6775 -0.4694  0.6955
  521MPD2    C1 7735   2.365   1.006  17.390  0.3173 -0.1549  0.8220
  521MPD2    C2 7736   2.485   1.072  17.369 -0.2337 -0.3478  0.5442
  521MPD2    C3 7737   2.540   1.077  17.243  0.4174 -0.2635  0.4559
  521MPD2    C4 7738   2.470   1.034  17.132  0.0825 -0.5741 -0.1927
  521MPD2    C5 7739   2.350   0.976  17.152  0.0738 -0.8949  0.6825
  521MPD2     H 7740   2.543   1.119  17.448  0.8558 -0.0319 -0.4379
  521MPD2    H1 7741   2.504   1.039  17.029 -0.1179 -0.5851 -0.2587
  521MPD2    H2 7742   2.212   0.903  17.293  0.0142  0.0525 -1.3358
  521MPD2    H3 7743   2.298   0.929  17.070 -0.1337 -0.0428  0.3283
  521MPD2     N 7744   2.663   1.149  17.229  0.5914 -0.1148  0.6738
  521MPD2    H5 7745   2.714   1.171  17.313 -1.5726  0.0405  1.9426
  521MPD2    N1 7746   2.300   0.987  17.512  0.0343  0.4609 -0.4978
  521MPD2    H7 7747   2.207   0.947  17.506  0.1839 -0.2596  1.9157
  522TMC3    C1 7748   2.843   1.261  17.124 -0.7073 -0.4294 -0.1420
  522TMC3    C2 7749   2.934   1.170  17.167 -0.3806  0.8309  0.1460
  522TMC3    C3 7750   3.047   1.147  17.092 -0.1832  0.1411  0.5929
  522TMC3    C4 7751   2.878   1.333  17.010  0.3843  0.0673  0.6849
  522TMC3    C5 7752   2.996   1.315  16.942 -0.2610  0.8767  0.1681
  522TMC3    C6 7753   3.084   1.214  16.980  0.4818 -0.6320  1.2099
  522TMC3     C 7754   2.709   1.205  17.113  0.2287 -0.3480 -0.4645
  522TMC3     O 7755   2.651   1.233  17.010  0.1809 -0.2230  0.4952
  522TMC3     H 7756   2.907   1.106  17.251 -0.1089 -0.4956 -0.7753
  522TMC3    H1 7757   2.810   1.413  16.983 -1.9863 -1.6346  1.6089
  522TMC3    H2 7758   3.179   1.204  16.930  0.6287 -1.4614  1.6588
  522TMC3    C7 7759   2.967   1.325  16.802  0.1349 -0.2015 -0.2580
  522TMC3    C8 7760   3.136   1.048  17.147  0.7868  0.7252  0.3342
  522TMC3    O1 7761   3.059   1.345  16.726 -0.5405 -0.1739  0.2865
  522TMC3    O2 7762   3.130   1.031  17.266  0.2742  0.0886  0.1553
  523MPD2     C 7763   0.821   0.641  10.268 -0.5942 -0.5860  0.0761
  523MPD2    C1 7764   0.698   0.679  10.233  0.0869  0.2600  0.2173
  523MPD2    C2 7765   0.674   0.815  10.221  0.1885 -0.4015 -0.2426
  523MPD2    C3 7766   0.782   0.915  10.237  0.0774  0.8662 -0.0700
  523MPD2    C4 7767   0.896   0.867  10.273  0.0537  0.3282  0.3154
  523MPD2    C5 7768   0.919   0.733  10.277  0.2757 -0.2713  0.2344
  523MPD2     H 7769   0.571   0.839  10.200  1.4171  2.2823 -3.2469
  523MPD2    H1 7770   0.980   0.935  10.286  2.0583 -2.3856  1.7298
  523MPD2    H2 7771   0.841   0.539  10.300 -2.7659 -1.7737 -2.3764
  523MPD2    H3 7772   1.009   0.692  10.322 -0.1423  1.3495  2.5748
  523MPD2     N 7773   0.758   1.049  10.241  1.0140 -0.6642 -0.2330
  523MPD2    H5 7774   0.842   1.105  10.254 -1.5820  2.9933  0.9361
  523MPD2    N1 7775   0.598   0.584  10.220  0.2150  0.0402  0.2607
  523MPD2    H7 7776   0.623   0.488  10.238 -4.0199 -1.2853 -0.8436
  524TMC3    C1 7777   0.621   1.253  10.267  0.5078 -0.3122 -0.2112
  524TMC3    C2 7778   0.733   1.327  10.277 -0.0823 -0.7078 -0.2878
  524TMC3    C3 7779   0.718   1.465  10.278 -0.1661 -0.0673 -0.8449
  524TMC3    C4 7780   0.500   1.307  10.276 -0.2370 -0.2474  0.0426
  524TMC3    C5 7781   0.489   1.444  10.298  0.1354 -0.5956 -0.5996
  524TMC3    C6 7782   0.597   1.528  10.296  0.2893  0.4255 -0.6504
  524TMC3     C 7783   0.628   1.108  10.235  0.0933  0.7326  0.5987
  524TMC3     O 7784   0.518   1.054  10.228 -0.2322 -0.0621 -0.6004
  524TMC3     H 7785   0.819   1.288  10.223  1.3941  2.0018  0.1014
  524TMC3    H1 7786   0.416   1.239  10.268  0.1427 -0.6658 -0.3619
  524TMC3    H2 7787   0.584   1.636  10.304 -0.2692  0.0757  2.9957
  524TMC3    C7 7788   0.353   1.481  10.338 -0.3890 -0.2047 -0.7158
  524TMC3    C8 7789   0.834   1.550  10.281 -0.4368  0.0322 -0.3830
  524TMC3    O1 7790   0.276   1.389  10.366  0.1903  0.7981  0.2066
  524TMC3    O2 7791   0.811   1.668  10.311 -0.0269  0.0881 -0.1999
  525MPD2     C 7792   4.229   2.332  14.904 -0.0055  0.3404  0.1265
  525MPD2    C1 7793   4.091   2.355  14.913 -0.0906  0.4336 -0.4206
  525MPD2    C2 7794   4.040   2.465  14.838  0.0832 -0.2965 -0.7848
  525MPD2    C3 7795   4.124   2.538  14.750 -0.3762 -0.2930  0.3751
  525MPD2    C4 7796   4.257   2.512  14.754  0.1647 -0.0247 -0.9489
  525MPD2    C5 7797   4.303   2.412  14.826 -0.1951 -0.1385 -0.5062
  525MPD2     H 7798   3.937   2.494  14.856  0.1238  0.3851 -1.6284
  525MPD2    H1 7799   4.331   2.569  14.699  0.4069  0.3357 -0.2432
  525MPD2    H2 7800   4.271   2.244  14.952  2.0315  0.3561 -1.5942
  525MPD2    H3 7801   4.407   2.381  14.824  0.5056  2.1442  0.6959
  525MPD2     N 7802   4.077   2.647  14.669  0.2302 -0.4877  0.3319
  525MPD2    H5 7803   4.149   2.702  14.623  0.8728  0.6109  2.6362
  525MPD2    N1 7804   4.019   2.265  14.992  0.1920 -0.8190 -0.0288
  525MPD2    H7 7805   4.066   2.187  15.036 -0.6907  0.2600  2.8714
  526TMC3    C1 7806   3.841   2.167  15.106 -0.1493 -0.3030  0.1035
  526TMC3    C2 7807   3.715   2.185  15.150  0.3282  0.9133 -0.1254
  526TMC3    C3 7808   3.670   2.121  15.260  0.3792 -0.4168 -0.5151
  526TMC3    C4 7809   3.925   2.094  15.185  0.3841 -0.2563 -0.1526
  526TMC3    C5 7810   3.880   2.025  15.299  0.1181  0.1590 -0.1994
  526TMC3    C6 7811   3.752   2.046  15.347 -0.0519  0.2059  0.0127
  526TMC3     C 7812   3.884   2.268  15.009 -0.2973 -0.0243 -1.2723
  526TMC3     O 7813   3.805   2.341  14.956 -0.1791 -0.7216 -0.5366
  526TMC3     H 7814   3.644   2.229  15.081 -0.7124 -1.4587 -0.5699
  526TMC3    H1 7815   4.030   2.098  15.158  0.3141 -1.4810 -0.6198
  526TMC3    H2 7816   3.718   1.982  15.428  0.1796 -0.6575 -0.5650
  526TMC3    C7 7817   3.967   1.927  15.357 -0.0566 -0.0828  0.1274
  526TMC3    C8 7818   3.529   2.136  15.285 -0.5964 -1.0477 -0.3654
  526TMC3    O1 7819   3.923   1.887  15.464 -0.2999  0.5540  0.2064
  526TMC3    O2 7820   3.465   2.185  15.196  0.2347  0.2753  0.1593
  527MPD2     C 7821   1.076   0.938   1.492 -0.1539 -0.2217  0.4327
  527MPD2    C1 7822   1.132   0.847   1.582 -1.3083  0.6902  0.6787
  527MPD2    C2 7823   1.261   0.810   1.565  0.2335 -0.5974 -0.3449
  527MPD2    C3 7824   1.345   0.877   1.478  0.0757  0.4664 -0.3513
  527MPD2    C4 7825   1.289   0.969   1.392 -0.6725  0.1752 -0.0287
  527MPD2    C5 7826   1.152   1.002   1.402  0.3561  0.0639 -0.1024
  527MPD2     H 7827   1.301   0.725   1.620  1.7242  2.0287  2.6367
  527MPD2    H1 7828   1.350   1.032   1.327  1.2669  0.4338  2.0521
  527MPD2    H2 7829   0.972   0.966   1.495  0.9817  3.8271  1.3593
  527MPD2    H3 7830   1.098   1.075   1.342 -0.6127  0.3095  1.0760
  527MPD2     N 7831   1.481   0.821   1.463  0.1793 -0.0763  0.1024
  527MPD2    H5 7832   1.504   0.754   1.536 -0.2297 -1.1825 -0.7807
  527MPD2    N1 7833   1.057   0.783   1.684 -0.1854 -0.4553  0.6404
  527MPD2    H7 7834   1.103   0.722   1.751  0.4223  0.3346  0.9502
  528TMC3    C1 7835   0.889   0.701   1.821  0.0169  0.6652  0.2220
  528TMC3    C2 7836   0.958   0.688   1.936  0.1701  0.2520 -0.0289
  528TMC3    C3 7837   0.904   0.602   2.025 -0.4935 -0.0091  0.1248
  528TMC3    C4 7838   0.778   0.635   1.780 -0.6621 -0.9469 -0.0801
  528TMC3    C5 7839   0.714   0.560   1.880 -0.6538 -0.0629 -0.8033
  528TMC3    C6 7840   0.775   0.546   2.001 -0.8052  0.2329  0.5142
  528TMC3     C 7841   0.927   0.798   1.716  0.0509  0.1030 -0.1018
  528TMC3     O 7842   0.831   0.847   1.653 -0.4507  0.1613 -0.1998
  528TMC3     H 7843   1.046   0.748   1.958  1.3434 -1.1163 -0.9497
  528TMC3    H1 7844   0.735   0.641   1.680  0.4103  1.0910 -0.4141
  528TMC3    H2 7845   0.723   0.499   2.083 -1.3803 -0.0645 -0.0208
  528TMC3    C7 7846   0.585   0.502   1.837  0.1749  0.0580 -0.6540
  528TMC3    C8 7847   0.967   0.570   2.148  0.3802  0.3239 -0.2840
  528TMC3    O1 7848   0.543   0.544   1.730 -0.1588  0.0053 -0.1771
  528TMC3    O2 7849   1.030   0.663   2.193 -0.3678  0.5045  0.3752
  529MPD2     C 7850   4.039   3.806   1.039 -0.1426  0.5075  0.4773
  529MPD2    C1 7851   3.900   3.804   1.066 -0.3757  0.2662 -0.5492
  529MPD2    C2 7852   3.806   3.859   0.992  0.0260  0.5973 -0.5354
  529MPD2    C3 7853   3.850   3.910   0.867 -0.0652  0.2428  0.4690
  529MPD2    C4 7854   3.985   3.921   0.843  0.1833  0.0619  0.3437
  529MPD2    C5 7855   4.078   3.869   0.932  1.0384  0.2279 -0.3553
  529MPD2     H 7856   3.702   3.851   1.019 -0.1931 -1.1519 -1.8566
  529MPD2    H1 7857   4.022   3.960   0.749 -1.7565  0.1334 -0.3961
  529MPD2    H2 7858   4.111   3.738   1.084  2.4890  1.7788 -1.7783
  529MPD2    H3 7859   4.183   3.875   0.909  1.3046  3.5989  1.8641
  529MPD2     N 7860   3.764   3.975   0.777 -0.5321 -0.3696 -0.3081
  529MPD2    H5 7861   3.791   3.997   0.681  1.0894 -1.0223 -0.0011
  529MPD2    N1 7862   3.849   3.736   1.178  0.0301 -0.0891 -0.4471
  529MPD2    H7 7863   3.748   3.741   1.188 -0.0293  1.1933 -1.7909
  530TMC3    C1 7864   3.848   3.621   1.387 -0.1900  0.0259  0.0784
  530TMC3    C2 7865   3.912   3.550   1.480  0.1499 -0.7114 -0.9869
  530TMC3    C3 7866   3.843   3.494   1.580 -0.8744 -0.3567 -0.5978
  530TMC3    C4 7867   3.719   3.654   1.400 -0.2441  0.3844  0.0285
  530TMC3    C5 7868   3.651   3.600   1.505 -0.2311  0.4228 -0.4977
  530TMC3    C6 7869   3.708   3.514   1.598 -0.0423  0.0735  0.1719
  530TMC3     C 7870   3.926   3.667   1.275  0.5211  0.1826  0.5931
  530TMC3     O 7871   4.043   3.630   1.264  0.0005  0.1929 -0.2595
  530TMC3     H 7872   4.019   3.536   1.470  0.1674 -1.3501  0.0160
  530TMC3    H1 7873   3.656   3.704   1.328  0.0870 -1.8775 -1.8122
  530TMC3    H2 7874   3.651   3.466   1.677 -0.9503  2.2014  0.8037
  530TMC3    C7 7875   3.513   3.647   1.520  0.0290  0.1183 -0.4176
  530TMC3    C8 7876   3.922   3.437   1.685 -0.1748 -0.0249  0.4032
  530TMC3    O1 7877   3.462   3.717   1.434  0.2578  0.1373  0.0993
  530TMC3    O2 7878   4.015   3.373   1.636 -0.3932 -0.0528 -0.3646
  531MPD2     C 7879   3.288   1.781  13.529  1.2518 -0.3404  0.2720
  531MPD2    C1 7880   3.223   1.666  13.497  0.1009 -0.3785  0.0803
  531MPD2    C2 7881   3.275   1.582  13.405 -0.1844 -0.1259 -0.3882
  531MPD2    C3 7882   3.389   1.613  13.339  0.6052 -0.4901  0.3305
  531MPD2    C4 7883   3.455   1.738  13.364 -0.2589  0.1261  0.7198
  531MPD2    C5 7884   3.405   1.821  13.461  0.6676 -0.4287  0.5669
  531MPD2     H 7885   3.228   1.488  13.378 -0.6087 -0.3538  1.1396
  531MPD2    H1 7886   3.555   1.754  13.327 -0.4816  1.6397  0.8039
  531MPD2    H2 7887   3.262   1.848  13.609  4.0149  1.0144  0.0237
  531MPD2    H3 7888   3.455   1.911  13.497 -0.8250  0.4599  0.4386
  531MPD2     N 7889   3.438   1.514  13.250 -0.3602  0.0563  0.2422
  531MPD2    H5 7890   3.382   1.430  13.241 -1.1822  0.5065  1.2225
  531MPD2    N1 7891   3.100   1.635  13.566 -0.1704  0.1764 -0.6280
  531MPD2    H7 7892   3.083   1.693  13.647  2.3475 -0.7640  0.5544
  532TMC3    C1 7893   2.942   1.485  13.650  0.2067  0.1834  0.1392
  532TMC3    C2 7894   2.841   1.395  13.620  0.8477 -0.2766  0.5277
  532TMC3    C3 7895   2.823   1.287  13.702  0.4230  0.1849  0.1788
  532TMC3    C4 7896   3.024   1.478  13.762  0.8176  0.0123 -0.0577
  532TMC3    C5 7897   3.007   1.365  13.840  0.3003 -0.1731  0.5681
  532TMC3    C6 7898   2.911   1.268  13.812  0.0309 -0.6012 -0.1501
  532TMC3     C 7899   3.018   1.529  13.532 -0.1432  0.1476  0.8561
  532TMC3     O 7900   3.006   1.456  13.437 -0.5802 -1.8041  0.4927
  532TMC3     H 7901   2.781   1.417  13.532 -0.3943 -2.4473  0.8169
  532TMC3    H1 7902   3.108   1.541  13.789 -0.6121  2.1330 -0.5827
  532TMC3    H2 7903   2.926   1.172  13.861  1.4594  0.5489  1.6393
  532TMC3    C7 7904   3.099   1.340  13.947  0.3918 -0.0760 -0.1774
  532TMC3    C8 7905   2.832   1.166  13.623 -0.1621 -0.1971  0.1110
  532TMC3    O1 7906   3.156   1.435  14.001 -0.5337  0.0187  0.2156
  532TMC3    O2 7907   2.817   1.056  13.679  0.0414  0.0125 -0.5790
  533TMC3    C1 7908   3.941   2.836  14.629  0.2288  0.1550  0.2030
  533TMC3    C2 7909   4.048   2.910  14.644 -0.2832  0.1531  0.1751
  533TMC3    C3 7910   4.030   3.032  14.698 -1.0320  0.5292  0.4020
  533TMC3    C4 7911   3.813   2.891  14.662  0.3231  0.1379  0.3990
  533TMC3    C5 7912   3.801   2.999  14.739  0.1439 -0.2988  0.3312
  533TMC3    C6 7913   3.909   3.072  14.756  0.3584 -0.0812  0.0297
  533TMC3     C 7914   3.948   2.693  14.666  0.7227 -0.2215 -0.2195
  533TMC3     O 7915   3.852   2.637  14.723  0.2004 -0.3156 -0.1562
  533TMC3     H 7916   4.142   2.881  14.599 -0.3846  0.8647 -0.4945
  533TMC3    H1 7917   3.731   2.820  14.663  0.6430 -0.2226  1.3301
  533TMC3    H2 7918   3.908   3.154  14.827 -1.7545 -0.2387  0.1622
  533TMC3    C7 7919   3.713   2.987  14.854 -0.0490  0.2970  0.2449
  533TMC3    C8 7920   4.141   3.125  14.715 -0.7593 -0.8219  0.4317
  533TMC3    O1 7921   3.667   2.877  14.884  0.2099  0.4703  0.4155
  533TMC3    O2 7922   4.104   3.238  14.747  0.2178  0.4453  0.1082
  534MPD2     C 7923   1.090   4.441   2.437 -0.0702 -0.1328 -0.6051
  534MPD2    C1 7924   1.090   4.487   2.304  0.0166  0.0660 -0.5434
  534MPD2    C2 7925   1.020   4.413   2.210 -0.4632  0.0908 -0.4038
  534MPD2    C3 7926   0.933   4.309   2.248  0.5908  0.5589  0.2239
  534MPD2    C4 7927   0.932   4.275   2.380  0.3090  0.9547 -0.0196
  534MPD2    C5 7928   1.009   4.340   2.474  0.7888  0.2696 -0.3249
  534MPD2     H 7929   1.029   4.439   2.105 -0.3290  0.9051 -0.1841
  534MPD2    H1 7930   0.859   4.201   2.409  0.8386  0.0352 -1.0489
  534MPD2    H2 7931   1.148   4.478   2.521  0.3381 -0.6081 -0.6764
  534MPD2    H3 7932   0.992   4.307   2.576  1.4719  1.6609  0.2429
  534MPD2     N 7933   0.844   4.237   2.159 -0.3348 -0.7843 -0.2239
  534MPD2    H5 7934   0.800   4.157   2.204 -1.6554  1.2352  2.1069
  534MPD2    N1 7935   1.163   4.603   2.271  0.5588  0.3810 -0.9069
  534MPD2    H7 7936   1.160   4.630   2.174 -0.5883  1.6593 -0.5227
  535TMC3    C1 7937   0.787   4.137   1.951 -0.3186 -0.5541 -0.9048
  535TMC3    C2 7938   0.694   4.069   2.024 -0.5180 -0.4131 -0.3649
  535TMC3    C3 7939   0.652   3.946   1.972  0.3143 -0.4546  0.8747
  535TMC3    C4 7940   0.839   4.092   1.835  0.1643 -0.1959 -0.2676
  535TMC3    C5 7941   0.813   3.964   1.799 -0.0408 -0.0574  0.0941
  535TMC3    C6 7942   0.716   3.889   1.863 -0.6256 -0.0459  0.2226
  535TMC3     C 7943   0.848   4.243   2.022 -0.0334 -0.4362 -0.0938
  535TMC3     O 7944   0.916   4.314   1.952  0.4157 -0.1759  0.1551
  535TMC3     H 7945   0.641   4.105   2.112  1.8739 -0.7267  1.2039
  535TMC3    H1 7946   0.911   4.151   1.780 -0.3151 -0.0243 -0.7134
  535TMC3    H2 7947   0.678   3.796   1.821 -1.6508  0.7817 -0.6885
  535TMC3    C7 7948   0.878   3.905   1.684 -0.1953  0.3897  0.3400
  535TMC3    C8 7949   0.534   3.877   2.029  0.3296 -0.2206 -0.3741
  535TMC3    O1 7950   0.883   3.781   1.681  0.3075  0.6930  0.2081
  535TMC3    O2 7951   0.495   3.795   1.953 -0.0802 -0.2582  0.0282
  536MPD2     C 7952   0.191   2.588  16.501 -0.2313 -0.1952 -0.1473
  536MPD2    C1 7953   0.062   2.554  16.534  0.2307 -0.4759 -0.0061
  536MPD2    C2 7954   4.689   2.594  16.450  0.0275 -0.0563 -0.6360
  536MPD2    C3 7955   4.710   2.666  16.338 -0.1500 -0.6235 -0.4617
  536MPD2    C4 7956   0.112   2.704  16.307  0.6649  0.4268 -0.1851
  536MPD2    C5 7957   0.216   2.662  16.387  0.0317  0.0729  0.5929
  536MPD2     H 7958   4.588   2.558  16.459  0.5495 -1.2872  0.2744
  536MPD2    H1 7959   0.142   2.766  16.223 -1.7664 -0.8414 -1.9867
  536MPD2    H2 7960   0.276   2.559  16.562 -1.0615 -1.3548  0.4513
  536MPD2    H3 7961   0.320   2.676  16.363 -0.1513 -0.2621 -0.4461
  536MPD2     N 7962   4.610   2.706  16.250 -0.3838  0.4444 -0.2196
  536MPD2    H5 7963   4.635   2.764  16.171 -1.0877  1.1854  0.1114
  536MPD2    N1 7964   0.049   2.475  16.651 -0.0542 -0.4137  0.4170
  536MPD2    H7 7965   0.134   2.458  16.703 -0.8987 -4.2827  0.5425
  537TMC3    C1 7966   4.665   2.323  16.800  0.2551  0.1185  0.1734
  537TMC3    C2 7967   0.052   2.319  16.878  0.1353 -0.9922 -0.2827
  537TMC3    C3 7968   0.050   2.266  17.001  0.3618 -0.6232 -0.5007
  537TMC3    C4 7969   4.555   2.253  16.833  0.1780  0.1840 -0.2323
  537TMC3    C5 7970   4.552   2.201  16.959  0.0050  0.5883  0.1829
  537TMC3    C6 7971   4.664   2.207  17.044 -0.4151 -0.3081  0.5410
  537TMC3     C 7972   4.656   2.414  16.688 -0.3145  0.5199  0.1687
  537TMC3     O 7973   4.545   2.457  16.661  0.9242  0.6134 -0.3319
  537TMC3     H 7974   0.143   2.366  16.843  0.2529 -0.1457  1.1472
  537TMC3    H1 7975   4.465   2.242  16.774  1.3409 -2.7518 -1.4609
  537TMC3    H2 7976   4.654   2.194  17.151 -0.6052  1.7286  0.7707
  537TMC3    C7 7977   4.433   2.121  17.002  0.0543 -0.2789  0.1321
  537TMC3    C8 7978   0.135   2.331  17.103 -0.8718  0.0620  0.1187
  537TMC3    O1 7979   4.334   2.127  16.934 -0.3288 -0.4585 -0.3000
  537TMC3    O2 7980   0.098   2.338  17.216 -0.4245  0.3645 -0.0732
  538TMC3    C1 7981   1.128   0.967  11.145 -1.3492  0.2169 -0.4810
  538TMC3    C2 7982   1.213   0.905  11.057 -0.3000  0.2168  0.4731
  538TMC3    C3 7983   1.164   0.862  10.945 -0.0200 -0.8536 -0.6374
  538TMC3    C4 7984   0.995   0.993  11.115  0.0935  0.6946 -0.5591
  538TMC3    C5 7985   0.951   0.944  10.996 -0.0967  0.1155 -0.5415
  538TMC3    C6 7986   1.037   0.875  10.913 -0.3731 -0.0923  0.0056
  538TMC3     C 7987   1.170   1.022  11.273  0.7150  0.7890  0.6435
  538TMC3     O 7988   1.092   1.074  11.347  1.0410  0.0176 -0.2432
  538TMC3     H 7989   1.318   0.888  11.079 -0.2859 -0.3470 -0.0356
  538TMC3    H1 7990   0.933   1.052  11.181  0.4415  0.7234 -0.2606
  538TMC3    H2 7991   1.000   0.850  10.814  1.3667 -0.3221 -0.5722
  538TMC3    C7 7992   0.823   0.992  10.940  0.3070  0.2136 -0.7094
  538TMC3    C8 7993   1.230   0.760  10.878 -0.0163  0.2925  0.8159
  538TMC3    O1 7994   0.767   1.071  11.011 -0.3867 -0.0056  0.5142
  538TMC3    O2 7995   1.163   0.679  10.815 -0.1460 -0.1754  0.6099
  539MPD2     C 7996   0.992   0.166  11.449  0.8414  0.1961  0.5615
  539MPD2    C1 7997   0.908   0.129  11.547  0.7326  0.0435  0.2586
  539MPD2    C2 7998   0.867   0.228  11.639 -0.4382 -0.5447  0.4478
  539MPD2    C3 7999   0.927   0.357  11.638  0.1785 -0.8639  0.8261
  539MPD2    C4 8000   1.012   0.389  11.537 -0.6603  0.5233 -0.6722
  539MPD2    C5 8001   1.032   0.296  11.437 -0.3502 -0.4379  0.4497
  539MPD2     H 8002   0.796   0.201  11.716 -0.2408 -1.4694  0.3036
  539MPD2    H1 8003   1.065   0.482  11.524  1.6894 -0.3849  2.3935
  539MPD2    H2 8004   1.018   0.117  11.356  0.8199 -0.4712  0.9091
  539MPD2    H3 8005   1.087   0.317  11.346  1.1499  2.8054  2.1287
  539MPD2     N 8006   0.885   0.460  11.721 -0.9360 -0.8419  0.0432
  539MPD2    H5 8007   0.916   0.553  11.694  1.2874 -1.1540  1.4860
  539MPD2    N1 8008   0.851   0.004  11.530  0.9283  0.0959  0.0590
  539MPD2    H7 8009   0.871   4.681  11.443  1.1564 -1.8222  1.1787
  540TMC3    C1 8010   0.723   0.579  11.824 -0.2655 -0.1941  0.6874
  540TMC3    C2 8011   0.734   0.674  11.725 -0.3604  0.2288  0.3283
  540TMC3    C3 8012   0.646   0.778  11.706  1.1038  0.3294 -0.4399
  540TMC3    C4 8013   0.628   0.594  11.922 -0.1753 -0.8965 -0.7887
  540TMC3    C5 8014   0.552   0.708  11.916  0.2180 -0.6143 -0.3728
  540TMC3    C6 8015   0.550   0.794  11.801  0.3197  0.4116  0.6480
  540TMC3     C 8016   0.785   0.445  11.815 -0.0500 -0.1369  0.6955
  540TMC3     O 8017   0.744   0.352  11.876  0.3767  0.4828 -0.1746
  540TMC3     H 8018   0.793   0.651  11.637  0.5916  1.6773  0.5856
  540TMC3    H1 8019   0.623   0.530  12.009  1.7597 -1.0188 -0.7633
  540TMC3    H2 8020   0.473   0.870  11.786 -1.7278 -1.7730  0.1147
  540TMC3    C7 8021   0.474   0.734  12.035 -0.8488  0.2731 -0.0692
  540TMC3    C8 8022   0.624   0.826  11.567 -0.0024 -0.4931 -0.1324
  540TMC3    O1 8023   0.427   0.639  12.097  0.1325  0.7409 -0.5795
  540TMC3    O2 8024   0.723   0.864  11.508  0.0770  0.1888 -0.0443
  541MPD2     C 8025   3.738   1.712  13.536 -0.4156 -0.3307  0.2796
  541MPD2    C1 8026   3.801   1.624  13.451 -0.2825 -0.3137  0.0096
  541MPD2    C2 8027   3.859   1.671  13.326 -0.2598  0.3298 -0.1986
  541MPD2    C3 8028   3.853   1.803  13.297 -0.6689  0.2027  0.7859
  541MPD2    C4 8029   3.788   1.888  13.387 -0.9072 -0.6390 -0.0460
  541MPD2    C5 8030   3.733   1.842  13.505 -0.3828 -0.6982  0.1183
  541MPD2     H 8031   3.900   1.593  13.262 -1.0532 -1.3446  1.3136
  541MPD2    H1 8032   3.778   1.992  13.356  0.5685 -0.6480 -0.5406
  541MPD2    H2 8033   3.704   1.688  13.636  1.6880 -2.6362  0.4389
  541MPD2    H3 8034   3.697   1.913  13.578 -1.8718 -0.3254 -0.9723
  541MPD2     N 8035   3.880   1.849  13.169  0.8643  0.4672  0.3752
  541MPD2    H5 8036   3.854   1.946  13.155 -0.7404  0.1556  1.1543
  541MPD2    N1 8037   3.814   1.489  13.493  0.1983  0.7470  0.5709
  541MPD2    H7 8038   3.878   1.436  13.434  0.3400  0.4132  1.0286
  542TMC3    C1 8039   3.953   1.843  12.939  0.4460 -0.0937 -0.3031
  542TMC3    C2 8040   4.019   1.785  12.834 -0.1936 -0.8464 -0.0833
  542TMC3    C3 8041   4.031   1.866  12.720  0.2449 -0.6385  0.3642
  542TMC3    C4 8042   3.894   1.964  12.933 -0.3975  0.1648  0.1509
  542TMC3    C5 8043   3.916   2.039  12.819  0.1436  0.2037  0.3308
  542TMC3    C6 8044   3.977   1.987  12.710  0.3113  0.1092 -0.2849
  542TMC3     C 8045   3.947   1.778  13.068 -0.5183  0.0129 -1.0583
  542TMC3     O 8046   3.998   1.668  13.072 -0.6112  0.5520  0.1627
  542TMC3     H 8047   4.058   1.685  12.850 -2.0621 -0.9980  3.7295
  542TMC3    H1 8048   3.842   2.009  13.016  0.5382  0.5629  0.5215
  542TMC3    H2 8049   3.990   2.039  12.616 -2.5626 -1.6888 -1.6797
  542TMC3    C7 8050   3.864   2.174  12.816 -0.0083  0.3081 -0.0577
  542TMC3    C8 8051   4.102   1.813  12.611  0.0389 -0.6381  0.2642
  542TMC3    O1 8052   3.797   2.206  12.910 -0.1105 -0.1905 -0.6026
  542TMC3    O2 8053   4.070   1.840  12.498  0.2599 -0.2644  0.5938
  543TMC3    C1 8054   2.829   3.250  17.138 -0.4476 -0.0062  0.1510
  543TMC3    C2 8055   2.740   3.154  17.182  0.4047 -0.4601  0.3163
  543TMC3    C3 8056   2.713   3.143  17.314  0.7007  0.3580 -0.0723
  543TMC3    C4 8057   2.858   3.359  17.217 -0.5095 -0.1386  0.2570
  543TMC3    C5 8058   2.817   3.357  17.347  0.0093  0.2574  0.2957
  543TMC3    C6 8059   2.752   3.248  17.391 -0.6500 -0.2889 -0.0471
  543TMC3     C 8060   2.936   3.210  17.046 -0.2929  0.2983 -0.1959
  543TMC3     O 8061   3.026   3.292  17.030  0.1298 -0.2074  0.5363
  543TMC3     H 8062   2.718   3.077  17.110 -1.7284  0.0262  0.4350
  543TMC3    H1 8063   2.924   3.438  17.182  0.5957 -0.1389  2.3589
  543TMC3    H2 8064   2.747   3.229  17.498  0.2395  1.2550  0.2752
  543TMC3    C7 8065   2.891   3.431  17.452  0.1323 -0.4612 -0.9391
  543TMC3    C8 8066   2.753   3.009  17.362  0.5901  0.4458 -0.3487
  543TMC3    O1 8067   2.833   3.460  17.558 -0.1034 -0.5385 -0.0537
  543TMC3    O2 8068   2.801   2.951  17.265 -0.1662 -0.0306  0.5358
  544MPD2     C 8069   2.733   2.567  17.601 -0.9786  0.0779  0.1310
  544MPD2    C1 8070   2.830   2.620  17.517  0.0395 -0.0388  0.1046
  544MPD2    C2 8071   2.813   2.750  17.475 -0.4959  0.3169 -0.1788
  544MPD2    C3 8072   2.711   2.834  17.523 -0.1328  0.4128  0.3317
  544MPD2    C4 8073   2.632   2.786  17.622 -0.3920 -0.2847 -0.5226
  544MPD2    C5 8074   2.635   2.652  17.658  0.5150  0.2735 -0.1815
  544MPD2     H 8075   2.886   2.799  17.412 -1.2213  1.2034 -0.3360
  544MPD2    H1 8076   2.551   2.848  17.659  0.0356  0.5876 -1.0459
  544MPD2    H2 8077   2.719   2.466  17.639  3.0238 -0.7380 -0.5063
  544MPD2    H3 8078   2.562   2.609   0.020  1.4768 -0.7731  0.1950
  544MPD2     N 8079   2.694   2.969  17.480  0.1670  0.0090  0.3374
  544MPD2    H5 8080   2.621   3.025  17.523 -0.7071  0.3709 -1.6007
  544MPD2    N1 8081   2.940   2.535  17.487 -0.2001  0.3540 -0.2140
  544MPD2    H7 8082   2.940   2.441  17.524 -0.4428 -0.5426 -2.5015
  545TMC3    C1 8083   3.146   2.481  17.388  0.2617  0.0233 -0.2774
  545TMC3    C2 8084   3.236   2.509  17.284  0.4671  0.0970  0.3633
  545TMC3    C3 8085   3.346   2.434  17.274 -0.2331 -0.1084  0.4927
  545TMC3    C4 8086   3.170   2.388  17.480  0.2975  0.2240 -0.2803
  545TMC3    C5 8087   3.292   2.318  17.472 -0.4036 -0.4433  0.0902
  545TMC3    C6 8088   3.376   2.335  17.366 -0.6053 -0.0950  0.7955
  545TMC3     C 8089   3.032   2.566  17.392 -0.2307  0.8764 -0.4914
  545TMC3     O 8090   3.035   2.662  17.312  0.6414  0.0860  0.0595
  545TMC3     H 8091   3.214   2.576  17.201 -0.2247 -0.4367  0.1153
  545TMC3    H1 8092   3.112   2.359  17.567 -0.7507 -1.1598 -1.4423
  545TMC3    H2 8093   3.466   2.275  17.362 -0.0192  0.6593  2.6455
  545TMC3    C7 8094   3.293   2.196  17.558  0.3195  0.1588 -0.3157
  545TMC3    C8 8095   3.453   2.492  17.196  0.3300  0.7850  0.5445
  545TMC3    O1 8096   3.187   2.149  17.595 -0.4429  0.0112  0.1554
  545TMC3    O2 8097   3.413   2.575  17.113 -0.2861 -0.4743  0.0120
  546MPD2     C 8098   0.151   3.060  17.168  0.2608  0.6159  0.4305
  546MPD2    C1 8099   0.104   3.038  17.297 -0.0129 -0.2756  0.4143
  546MPD2    C2 8100   0.164   3.102  17.405 -0.6785 -0.1850 -0.9791
  546MPD2    C3 8101   0.273   3.189  17.385 -0.1541  0.1638  0.0672
  546MPD2    C4 8102   0.309   3.217  17.252 -0.1730 -0.3934  0.1179
  546MPD2    C5 8103   0.252   3.153  17.146 -0.0355  0.3448  0.2677
  546MPD2     H 8104   0.140   3.077  17.507  0.1665  2.0328 -0.2470
  546MPD2    H1 8105   0.380   3.296  17.230  0.6748 -0.8632  1.1728
  546MPD2    H2 8106   0.104   3.009  17.085  0.5053 -1.4964  1.6035
  546MPD2    H3 8107   0.279   3.167  17.042 -3.6017 -0.1294 -0.7005
  546MPD2     N 8108   0.333   3.254  17.494  0.4893 -0.3495 -0.3552
  546MPD2    H5 8109   0.418   3.303  17.470  0.9253 -0.3805  1.1259
  546MPD2    N1 8110   4.716   2.953  17.309 -0.1282  0.1184 -0.1917
  546MPD2    H7 8111   4.688   2.905  17.225 -0.5186 -0.9083  0.5161
  547TMC3    C1 8112   4.530   2.847  17.417 -0.0596  0.1393 -0.1821
  547TMC3    C2 8113   4.453   2.868  17.311  0.4932  0.0836  0.0833
  547TMC3    C3 8114   4.319   2.840  17.331 -1.2298 -0.6195  0.2239
  547TMC3    C4 8115   4.488   2.781  17.531  0.9907 -0.4660 -0.0367
  547TMC3    C5 8116   4.356   2.758  17.549 -0.4259  0.2113  0.7690
  547TMC3    C6 8117   4.265   2.802  17.453 -0.5402 -0.3636 -0.7754
  547TMC3     C 8118   4.658   2.914  17.429 -0.3303 -0.1145 -0.3961
  547TMC3     O 8119   4.694   2.945  17.541 -0.9381 -0.4374  0.0342
  547TMC3     H 8120   4.497   2.917  17.225  2.4017  0.3322  1.1960
  547TMC3    H1 8121   4.558   2.763  17.612  1.4112 -0.8486 -0.4760
  547TMC3    H2 8122   4.158   2.795  17.469 -0.2848  0.2530  1.3051
  547TMC3    C7 8123   4.315   2.748  17.688  0.8391  0.2743  0.0698
  547TMC3    C8 8124   4.232   2.879  17.225 -0.7193 -0.1428 -0.6993
  547TMC3    O1 8125   4.203   2.796   0.005  0.1458  0.2565 -0.1053
  547TMC3    O2 8126   4.115   2.897  17.247 -0.0919  0.1047 -0.3151
  548MPD2     C 8127   4.631   3.667  12.289  0.4377 -0.6971  0.1829
  548MPD2    C1 8128   4.672   3.617  12.410  0.7393  0.4308 -0.8404
  548MPD2    C2 8129   0.063   3.542  12.426 -0.3334  0.5468 -0.7990
  548MPD2    C3 8130   0.139   3.533  12.312 -0.7539  0.5321 -0.0805
  548MPD2    C4 8131   0.100   3.580  12.187 -0.4196 -0.2021  0.8198
  548MPD2    C5 8132   4.704   3.647  12.170  0.2590  0.6625 -0.0458
  548MPD2     H 8133   0.102   3.502  12.519 -3.7579 -1.8173 -0.4049
  548MPD2    H1 8134   0.154   3.572  12.094 -2.5660  0.7956 -0.5201
  548MPD2    H2 8135   4.538   3.723  12.294  1.4487  0.9139  1.0287
  548MPD2    H3 8136   4.675   3.688  12.074  0.6758  0.4515 -0.2582
  548MPD2     N 8137   0.244   3.435  12.330  0.2144 -0.2288  0.3631
  548MPD2    H5 8138   0.248   3.395  12.424  2.8191 -0.7469  0.0190
  548MPD2    N1 8139   4.576   3.622  12.511 -0.6427 -0.0889 -0.3551
  548MPD2    H7 8140   4.491   3.673  12.489 -0.6533 -0.2823 -0.7522
  549TMC3    C1 8141   4.455   3.559  12.703 -0.0881  0.1907  0.1728
  549TMC3    C2 8142   4.407   3.685  12.719 -0.2412  0.4184  0.1183
  549TMC3    C3 8143   4.317   3.702  12.814 -0.4110  0.3782 -0.9159
  549TMC3    C4 8144   4.445   3.459  12.792  0.4845 -0.8502  0.3242
  549TMC3    C5 8145   4.356   3.488  12.896 -0.4007  0.0757  0.5042
  549TMC3    C6 8146   4.289   3.605  12.906 -0.3640 -0.3303 -0.0597
  549TMC3     C 8147   4.568   3.534  12.614 -0.3319 -0.4710  0.0176
  549TMC3     O 8148   4.643   3.438  12.634 -0.4182 -0.6992  0.1018
  549TMC3     H 8149   4.416   3.760  12.642  1.5659  0.0003 -0.0680
  549TMC3    H1 8150   4.492   3.361  12.788 -2.0864 -2.0762 -0.0680
  549TMC3    H2 8151   4.218   3.627  12.985 -0.2970  0.7780 -0.3176
  549TMC3    C7 8152   4.333   3.386  12.995 -0.2195  1.8332 -0.9161
  549TMC3    C8 8153   4.206   3.775  12.758  0.0636  0.5101 -0.2029
  549TMC3    O1 8154   4.282   3.425  13.100 -0.2123 -0.7401  0.2764
  549TMC3    O2 8155   4.107   3.710  12.725 -0.2081  0.4659 -0.1341
  550TMC3    C1 8156   4.136   0.970  12.085 -0.2035  0.3409 -0.5652
  550TMC3    C2 8157   4.130   1.061  12.192 -0.6422  0.2540 -0.5962
  550TMC3    C3 8158   4.120   1.189  12.155 -0.4842  0.0202 -0.6111
  550TMC3    C4 8159   4.134   1.012  11.954  0.2786 -0.0680  0.5372
  550TMC3    C5 8160   4.131   1.138  11.923  0.2801  0.1525 -0.0875
  550TMC3    C6 8161   4.113   1.232  12.022  0.0824 -0.3695  0.3806
  550TMC3     C 8162   4.068   0.843  12.112  0.1107 -0.4545  0.5756
  550TMC3     O 8163   4.079   0.787  12.223  0.0181 -0.0117 -0.6220
  550TMC3     H 8164   4.126   1.034  12.297 -1.5522 -0.9313 -0.9337
  550TMC3    H1 8165   4.154   0.935  11.881  3.4755  1.1328  0.1786
  550TMC3    H2 8166   4.095   1.336  12.000 -1.0981 -1.0610 -1.9474
  550TMC3    C7 8167   4.052   1.155  11.802 -0.5469 -0.1284 -0.1640
  550TMC3    C8 8168   4.060   1.283  12.247 -1.2807  0.1882  0.1317
  550TMC3    O1 8169   4.070   1.076  11.708  0.3370 -0.0759  0.6822
  550TMC3    O2 8170   3.991   1.372  12.196  0.8586  0.2830  0.2374
  551TMC3    C1 8171   0.923   4.022  13.603 -0.1091  0.4247 -0.3637
  551TMC3    C2 8172   1.033   4.046  13.528 -0.0502  0.6493 -0.2654
  551TMC3    C3 8173   1.123   4.141  13.575 -0.4143 -0.3939 -0.4409
  551TMC3    C4 8174   0.905   4.074  13.728 -0.5789  0.3819  1.0481
  551TMC3    C5 8175   0.997   4.164  13.774 -0.2002 -1.1793  0.0863
  551TMC3    C6 8176   1.106   4.203  13.698 -0.1177 -0.3858  0.7665
  551TMC3     C 8177   0.818   3.950  13.532  0.0920  0.0852 -0.4894
  551TMC3     O 8178   0.863   3.875  13.447 -0.0527  0.2149  0.2633
  551TMC3     H 8179   1.047   4.008  13.428 -1.6345 -1.7193  0.4163
  551TMC3    H1 8180   0.823   4.036  13.788 -1.4177 -0.0564 -0.3651
  551TMC3    H2 8181   1.177   4.273  13.741  0.0500 -0.5118  0.6951
  551TMC3    C7 8182   1.003   4.175  13.912 -0.0884 -0.7061  0.6282
  551TMC3    C8 8183   1.231   4.188  13.495  0.0333 -0.5134  0.6944
  551TMC3    O1 8184   1.107   4.203  13.969  0.1318 -0.0400 -0.4880
  551TMC3    O2 8185   1.283   4.109  13.411  0.0581  0.0120  0.3124
  552MPD2     C 8186   2.866   1.288  14.201 -0.4844 -0.2648  0.4573
  552MPD2    C1 8187   2.926   1.179  14.262 -0.6596  0.1328 -0.2930
  552MPD2    C2 8188   3.016   1.197  14.371 -0.2798  0.3929 -0.4463
  552MPD2    C3 8189   3.051   1.321  14.410  0.5427  0.2279  0.1899
  552MPD2    C4 8190   2.995   1.429  14.336 -0.9172  0.4324  0.1171
  552MPD2    C5 8191   2.908   1.409  14.242 -0.0194 -0.1316  0.1573
  552MPD2     H 8192   3.048   1.108  14.425 -2.4218 -1.1217 -1.6692
  552MPD2    H1 8193   3.026   1.530  14.360 -0.3338  0.5127 -0.9799
  552MPD2    H2 8194   2.801   1.287  14.115 -0.1963  0.1496  0.2367
  552MPD2    H3 8195   2.861   1.491  14.190  1.0418  0.4648  0.1455
  552MPD2     N 8196   3.136   1.336  14.520 -0.1328 -0.4330 -0.3890
  552MPD2    H5 8197   3.159   1.250  14.568  2.0612  0.4975  0.2320
  552MPD2    N1 8198   2.907   1.046  14.224 -0.4932 -0.1089  0.4960
  552MPD2    H7 8199   2.968   0.977  14.267  1.3829  0.4991 -1.1433
  553TMC3    C1 8200   2.842   0.874  14.070 -0.4707 -0.2595  0.2577
  553TMC3    C2 8201   2.833   0.851  13.937 -0.1118 -0.5460  0.4173
  553TMC3    C3 8202   2.840   0.722  13.887 -0.1392 -0.7484 -0.1460
  553TMC3    C4 8203   2.881   0.782  14.164  0.0499  0.2749 -0.7121
  553TMC3    C5 8204   2.888   0.653  14.109  0.8341 -0.1211  0.3971
  553TMC3    C6 8205   2.855   0.618  13.971  0.0322 -0.4177  0.5619
  553TMC3     C 8206   2.829   1.010  14.114 -0.7196 -0.3868  0.0400
  553TMC3     O 8207   2.751   1.075  14.047 -0.1775 -0.0426  0.1005
  553TMC3     H 8208   2.830   0.929  13.862  1.8179  0.5109  1.4467
  553TMC3    H1 8209   2.895   0.794  14.270  0.8640  0.6795 -0.8646
  553TMC3    H2 8210   2.860   0.518  13.931  2.9673 -0.7716  1.8086
  553TMC3    C7 8211   2.970   0.534  14.164 -0.0482  0.1660  0.3916
  553TMC3    C8 8212   2.961   0.725  13.803  0.2262 -0.5086 -0.4422
  553TMC3    O1 8213   2.943   0.422  14.121  0.5546  1.2875  0.3817
  553TMC3    O2 8214   3.049   0.799  13.839 -0.3912  0.8125  0.2559
  554TMC3    C1 8215   4.524   0.313  12.123 -0.2453 -0.8985 -0.1003
  554TMC3    C2 8216   4.439   0.205  12.081 -0.4824  0.2324 -1.1077
  554TMC3    C3 8217   4.427   0.207  11.943  0.3319  0.0828 -0.3929
  554TMC3    C4 8218   4.583   0.406  12.044 -0.0411 -0.0971 -0.5121
  554TMC3    C5 8219   4.559   0.400  11.911  0.0028  0.0151 -0.1676
  554TMC3    C6 8220   4.469   0.313  11.859 -0.0282  0.7234 -0.5222
  554TMC3     C 8221   4.571   0.314  12.261  0.2739 -0.1854  0.8306
  554TMC3     O 8222   4.684   0.351  12.288 -0.3244  0.8640  0.0713
  554TMC3     H 8223   4.387   0.134  12.144  0.9559  0.6416  0.5443
  554TMC3    H1 8224   4.636   0.491  12.085  0.1345 -0.9969  1.1335
  554TMC3    H2 8225   4.458   0.316  11.751 -2.1521  0.9750 -0.2995
  554TMC3    C7 8226   4.592   0.509  11.829  0.5711 -0.2714  0.6630
  554TMC3    C8 8227   4.333   0.098  11.896 -0.3472  0.3184 -0.6669
  554TMC3    O1 8228   4.510   0.531  11.744  0.1472 -0.3138 -0.6102
  554TMC3    O2 8229   4.272   0.030  11.976  0.4797  0.1998 -0.4837
  555TMC3    C1 8230   3.768   4.395  15.042  0.3736 -0.4371 -0.2167
  555TMC3    C2 8231   3.797   4.487  15.137  0.6541 -0.5809  0.8385
  555TMC3    C3 8232   3.863   4.446  15.248 -0.2297 -0.7756 -0.8612
  555TMC3    C4 8233   3.809   4.264  15.054 -0.0597  0.0651 -0.2055
  555TMC3    C5 8234   3.861   4.228  15.181  0.3214 -0.1551  0.4421
  555TMC3    C6 8235   3.891   4.315  15.275  0.2174  0.1606  0.5439
  555TMC3     C 8236   3.766   4.449  14.912 -0.4170 -0.3473 -0.1790
  555TMC3     O 8237   3.851   4.410  14.832 -0.5795 -0.0820 -0.5317
  555TMC3     H 8238   3.783   4.592  15.115 -0.8486 -1.2562 -1.4290
  555TMC3    H1 8239   3.801   4.191  14.975 -0.5989 -0.2963  0.1763
  555TMC3    H2 8240   3.941   4.276  15.363 -0.6376 -1.4560  0.3223
  555TMC3    C7 8241   3.843   4.093  15.232 -0.2138  0.4208  0.0196
  555TMC3    C8 8242   3.907   4.551  15.334 -0.1178 -0.6240  0.2826
  555TMC3    O1 8243   3.811   4.085  15.350 -0.2160 -0.0357 -0.5883
  555TMC3    O2 8244   3.852   4.659  15.325  0.3459  0.3070  0.4362
  556MPD2     C 8245   2.604   1.248  11.073  0.7466  0.8000  0.3626
  556MPD2    C1 8246   2.503   1.194  11.150  0.3359  0.5545  0.0474
  556MPD2    C2 8247   2.408   1.132  11.068 -0.1263 -0.3718 -0.4954
  556MPD2    C3 8248   2.401   1.128  10.933  0.6411  0.1804  0.0508
  556MPD2    C4 8249   2.511   1.173  10.870 -0.4055  0.0436  0.1469
  556MPD2    C5 8250   2.615   1.227  10.938 -0.1112 -0.2718  1.3019
  556MPD2     H 8251   2.328   1.077  11.117 -1.0040  1.6245  0.3114
  556MPD2    H1 8252   2.514   1.167  10.762 -1.1425 -0.8869  0.1814
  556MPD2    H2 8253   2.679   1.317  11.112  0.0358  0.1051  2.9544
  556MPD2    H3 8254   2.693   1.273  10.878 -0.0881 -0.4283  1.2135
  556MPD2     N 8255   2.290   1.072  10.872  0.0122  0.2183 -0.1677
  556MPD2    H5 8256   2.212   1.033  10.925  1.8946 -0.3734  2.1698
  556MPD2    N1 8257   2.497   1.208  11.293 -0.6154 -0.4824  0.3021
  556MPD2    H7 8258   2.416   1.165  11.338 -0.9499  0.2596  0.3996
  557TMC3    C1 8259   2.159   0.988  10.684 -0.6354 -0.5284  0.1629
  557TMC3    C2 8260   2.165   0.958  10.550  0.4703  0.6845 -0.5108
  557TMC3    C3 8261   2.085   0.859  10.508  0.1478 -0.1016 -0.0444
  557TMC3    C4 8262   2.086   0.914  10.777 -0.4250 -0.3888  0.5450
  557TMC3    C5 8263   2.002   0.825  10.722 -0.2762 -0.0247 -0.6951
  557TMC3    C6 8264   2.004   0.790  10.588 -0.1293 -1.1112 -0.1414
  557TMC3     C 8265   2.266   1.070  10.738 -0.9785 -0.0125  0.3870
  557TMC3     O 8266   2.328   1.130  10.651  0.1154  0.3088  0.4517
  557TMC3     H 8267   2.245   1.004  10.493  1.4077  1.0932  1.1233
  557TMC3    H1 8268   2.076   0.957  10.876 -1.0856 -1.6760  1.0268
  557TMC3    H2 8269   1.928   0.724  10.549 -0.0911 -2.5732  2.2624
  557TMC3    C7 8270   1.883   0.783  10.795  0.0673  0.3408  0.2554
  557TMC3    C8 8271   2.115   0.829  10.366  0.3504 -0.0225  0.0116
  557TMC3    O1 8272   1.854   0.832  10.904 -0.2326 -0.2635  0.0425
  557TMC3    O2 8273   2.176   0.921  10.308  0.6179  0.0483  0.2928
  558TMC3    C1 8274   4.176   3.773   9.995  0.0013  0.0898  0.2242
  558TMC3    C2 8275   4.112   3.738  10.106  0.9357  0.2548 -0.4061
  558TMC3    C3 8276   3.972   3.742  10.096 -0.2951  0.3899  0.3737
  558TMC3    C4 8277   4.113   3.828   9.890  0.8304  0.5184  0.3777
  558TMC3    C5 8278   3.977   3.833   9.889  0.7322 -0.2654 -0.5430
  558TMC3    C6 8279   3.901   3.778   9.989 -0.2171 -0.2364 -0.2051
  558TMC3     C 8280   4.310   3.821  10.014  0.0948 -0.2068 -0.2864
  558TMC3     O 8281   4.352   3.840  10.128  0.1389 -0.1333  0.3856
  558TMC3     H 8282   4.173   3.742  10.196  1.6105 -4.8104 -0.6418
  558TMC3    H1 8283   4.164   3.870   9.804  0.1780 -0.7547 -0.6288
  558TMC3    H2 8284   3.793   3.772   9.993 -0.3818  2.9457  0.6260
  558TMC3    C7 8285   3.915   3.902   9.774 -0.1461 -0.6733  0.7431
  558TMC3    C8 8286   3.899   3.737  10.221  0.2553  0.2337  0.2919
  558TMC3    O1 8287   3.989   3.968   9.697  0.6560 -0.3328 -0.0872
  558TMC3    O2 8288   3.785   3.783  10.219 -0.2657  0.1142 -0.1154
  559MPD2     C 8289   4.298   4.387  10.844 -0.4766 -0.3313  0.1648
  559MPD2    C1 8290   4.232   4.345  10.961  0.6449 -0.4059  0.3776
  559MPD2    C2 8291   4.296   4.346  11.082  0.3701 -0.2801  0.3550
  559MPD2    C3 8292   4.422   4.393  11.091 -0.1072 -0.0602  0.1366
  559MPD2    C4 8293   4.493   4.420  10.977  0.0415 -0.8337 -0.3547
  559MPD2    C5 8294   4.431   4.418  10.861 -0.4084 -0.5066 -0.0608
  559MPD2     H 8295   4.252   4.321  11.178 -0.8822 -0.1970 -0.1866
  559MPD2    H1 8296   4.597   4.449  10.975 -0.4049  1.0161  2.2190
  559MPD2    H2 8297   4.245   4.390  10.749 -1.3394  2.5205  0.7262
  559MPD2    H3 8298   4.479   4.451  10.769 -0.8825  2.7892  0.8573
  559MPD2     N 8299   4.487   4.391  11.218  0.2786  0.1958 -0.1595
  559MPD2    H5 8300   4.443   4.340  11.294  0.9161 -0.0553  0.0391
  559MPD2    N1 8301   4.092   4.297  10.954  0.1333  0.0505  0.1668
  559MPD2    H7 8302   4.056   4.295  10.859  1.2392 -1.4720 -0.2165
  560TMC3    C1 8303   4.679   4.376  11.361 -1.2426  0.1256  0.3933
  560TMC3    C2 8304   4.655   4.245  11.391 -0.1775 -0.1402 -0.7294
  560TMC3    C3 8305   0.026   4.172  11.456  0.2658 -0.3617 -0.0831
  560TMC3    C4 8306   0.067   4.439  11.403 -0.3133 -0.0856  0.2543
  560TMC3    C5 8307   0.159   4.366  11.473  0.2318  0.0349 -0.5970
  560TMC3    C6 8308   0.142   4.230  11.497  0.0305 -0.2566 -0.4244
  560TMC3     C 8309   4.616   4.435  11.241 -0.0359 -0.7843  0.7427
  560TMC3     O 8310   4.668   4.527  11.176 -0.3653  0.0552 -0.1158
  560TMC3     H 8311   4.570   4.191  11.353 -0.6947 -1.8722  2.8550
  560TMC3    H1 8312   0.080   4.547  11.402 -0.3868 -0.0816 -1.1753
  560TMC3    H2 8313   0.216   4.166  11.544  1.1285  0.5383 -1.0501
  560TMC3    C7 8314   0.264   4.435  11.548  0.5884 -0.4949 -0.2028
  560TMC3    C8 8315   0.004   4.030  11.444  0.2384  0.5324 -0.6678
  560TMC3    O1 8316   0.336   4.370  11.622 -0.7873 -0.7435  0.5240
  560TMC3    O2 8317   4.615   3.989  11.451 -0.2389 -0.1189 -0.1195
  561TMC3    C1 8318   2.059   3.471  11.840  0.1147  0.3664 -0.4448
  561TMC3    C2 8319   2.023   3.477  11.969  0.5479  0.9030 -0.5608
  561TMC3    C3 8320   1.909   3.546  11.998 -0.0014  0.4202 -0.9481
  561TMC3    C4 8321   2.015   3.554  11.746  1.0748  0.9359 -0.2869
  561TMC3    C5 8322   1.911   3.637  11.782  0.4654  0.6647 -0.2239
  561TMC3    C6 8323   1.848   3.621  11.901 -0.5413  0.6279  0.3692
  561TMC3     C 8324   2.169   3.380  11.809  0.6412  0.4591 -0.1363
  561TMC3     O 8325   2.200   3.317  11.909  0.0889  0.1900 -0.7886
  561TMC3     H 8326   2.068   3.416  12.046 -2.2204 -0.6087 -0.1165
  561TMC3    H1 8327   2.054   3.562  11.646  0.3732 -1.8340 -0.7806
  561TMC3    H2 8328   1.757   3.678  11.916 -0.1922  1.5509 -1.0170
  561TMC3    C7 8329   1.907   3.772  11.714  0.1430 -0.5235 -0.1451
  561TMC3    C8 8330   1.914   3.608  12.124  0.0437 -0.2237 -0.1112
  561TMC3    O1 8331   1.814   3.843  11.743  0.0675 -0.4795  0.0756
  561TMC3    O2 8332   2.023   3.627  12.182  0.4296 -1.0450 -0.0189
  562TMC3    C1 8333   3.377   0.132  16.456 -0.7300 -1.0557 -0.0828
  562TMC3    C2 8334   3.256   0.202  16.429 -0.4752  0.7375  0.2715
  562TMC3    C3 8335   3.266   0.280  16.323  0.3267 -0.0673 -0.1099
  562TMC3    C4 8336   3.489   0.137  16.373 -0.0891 -0.0369 -0.1765
  562TMC3    C5 8337   3.479   0.208  16.256  0.3278 -0.1867  0.6373
  562TMC3    C6 8338   3.369   0.278  16.232  0.4668 -0.4708 -0.7164
  562TMC3     C 8339   3.400   0.083  16.597 -0.3860 -1.4792  0.5330
  562TMC3     O 8340   3.332   0.133  16.681 -0.6436  0.0048 -0.1715
  562TMC3     H 8341   3.174   0.194  16.500  0.2889 -0.9037  0.9748
  562TMC3    H1 8342   3.568   0.068  16.399 -1.8160 -2.4828 -1.4911
  562TMC3    H2 8343   3.361   0.337  16.142  0.6926  1.2290  0.3669
  562TMC3    C7 8344   3.608   0.244  16.194 -0.2639 -0.7416 -0.1648
  562TMC3    C8 8345   3.135   0.343  16.290 -0.6401  0.3310 -0.3966
  562TMC3    O1 8346   3.612   0.340  16.118 -0.0785  0.5622  0.5164
  562TMC3    O2 8347   3.056   0.358  16.382 -0.0301 -0.1064 -0.3701
  563MPD2     C 8348   0.634   0.946  16.021 -0.1019 -0.1910 -0.0216
  563MPD2    C1 8349   0.698   1.053  16.082 -0.3899 -0.0342 -0.1887
  563MPD2    C2 8350   0.828   1.035  16.127 -0.2942 -0.0722  0.5943
  563MPD2    C3 8351   0.891   0.913  16.110  0.9228  0.2758 -0.7145
  563MPD2    C4 8352   0.820   0.802  16.068 -0.2836  0.1733 -0.1592
  563MPD2    C5 8353   0.695   0.822  16.018 -0.2940  0.2149  0.1727
  563MPD2     H 8354   0.875   1.105  16.195 -0.4117  0.9086 -0.3373
  563MPD2    H1 8355   0.856   0.700  16.058  0.0132  0.3519 -0.9170
  563MPD2    H2 8356   0.530   0.950  15.993 -0.1109 -2.0209 -0.2683
  563MPD2    H3 8357   0.646   0.739  15.968  0.8130  0.2730 -1.0110
  563MPD2     N 8358   1.013   0.902  16.172 -0.1632 -0.0393 -0.2711
  563MPD2    H5 8359   1.051   0.990  16.206  1.4090 -0.0038 -2.0994
  563MPD2    N1 8360   0.629   1.168  16.124 -0.5727  0.3025  0.0938
  563MPD2    H7 8361   0.672   1.239  16.183  0.2671  1.5984 -2.0859
  564TMC3    C1 8362   0.455   1.232  16.252  0.1069  0.2084  0.7906
  564TMC3    C2 8363   0.345   1.162  16.278 -0.1904 -0.6800  0.3007
  564TMC3    C3 8364   0.329   1.085  16.394 -0.2106 -0.4423  0.2189
  564TMC3    C4 8365   0.558   1.228  16.338 -0.2177  0.0364  0.1612
  564TMC3    C5 8366   0.551   1.150  16.451 -0.0419  0.1879  1.0278
  564TMC3    C6 8367   0.438   1.077  16.472 -0.5271  0.3145 -0.5817
  564TMC3     C 8368   0.495   1.186  16.120 -0.0043  0.0558 -0.1469
  564TMC3     O 8369   0.408   1.135  16.050 -0.1531 -0.2421  0.3008
  564TMC3     H 8370   0.266   1.183  16.207 -1.1695  0.6710  1.8050
  564TMC3    H1 8371   0.653   1.279  16.325  1.0498 -2.8659 -2.0129
  564TMC3    H2 8372   0.428   1.026  16.567 -2.3755 -0.4933 -1.2111
  564TMC3    C7 8373   0.661   1.065  16.469 -0.2778 -0.3304 -0.0624
  564TMC3    C8 8374   0.294   0.942  16.366  0.1286  0.0195 -0.3701
  564TMC3    O1 8375   0.773   1.111  16.463 -1.0236  0.0762 -0.2146
  564TMC3    O2 8376   0.324   0.863  16.450  0.7399  0.1078  0.6712
  565TMC3    C1 8377   1.851   3.368   9.998 -0.1301 -0.0422  0.0038
  565TMC3    C2 8378   1.919   3.253   9.977 -0.5269 -0.2001 -0.8598
  565TMC3    C3 8379   1.862   3.134  10.018 -0.0512  0.0119 -0.2092
  565TMC3    C4 8380   1.723   3.368  10.050 -0.5047  0.8968 -0.0054
  565TMC3    C5 8381   1.669   3.249  10.091  0.5440 -0.2833  0.9700
  565TMC3    C6 8382   1.734   3.127  10.073 -0.7801 -0.4788  0.3037
  565TMC3     C 8383   1.931   3.495  10.001 -0.8502 -1.0093  0.2271
  565TMC3     O 8384   2.022   3.501  10.079 -0.3613 -0.0095 -0.0555
  565TMC3     H 8385   2.017   3.251   9.931  0.2499 -0.1120  0.7788
  565TMC3    H1 8386   1.690   3.467  10.079  0.8741  1.1921  0.5681
  565TMC3    H2 8387   1.680   3.037  10.098 -0.7185 -1.0050 -1.4600
  565TMC3    C7 8388   1.555   3.257  10.177 -0.8338  0.2155  0.2449
  565TMC3    C8 8389   1.917   3.006   9.987  0.1852  0.2611  0.1059
  565TMC3    O1 8390   1.464   3.173  10.171 -0.5510  0.0347 -0.2545
  565TMC3    O2 8391   1.857   2.906  10.017 -0.0979  0.1952  0.3027
  566MPD2     C 8392   3.309   4.702  14.445  0.6322 -0.0797 -0.4327
  566MPD2    C1 8393   3.378   4.586  14.446 -0.3702  1.3113 -0.2777
  566MPD2    C2 8394   3.307   4.465  14.463  0.9200 -0.2469  0.0196
  566MPD2    C3 8395   3.165   4.464  14.474  0.2232 -0.0519 -0.4073
  566MPD2    C4 8396   3.105   4.582  14.456  0.1195  0.2726  0.1033
  566MPD2    C5 8397   3.170   4.699  14.446  0.6996  0.3890 -0.2196
  566MPD2     H 8398   3.355   4.369  14.457  1.6953  0.2268 -1.4948
  566MPD2    H1 8399   2.997   4.585  14.461  0.0631 -0.4244 -0.6495
  566MPD2    H2 8400   3.355   0.074  14.450  1.0095 -0.4899  4.7442
  566MPD2    H3 8401   3.116   0.066  14.459  1.2419  0.7246 -0.3505
  566MPD2     N 8402   3.081   4.350  14.479 -0.3839  0.0082  0.1876
  566MPD2    H5 8403   2.982   4.366  14.497 -0.2269 -2.2406  2.9370
  566MPD2    N1 8404   3.518   4.591  14.441 -0.3501 -0.0116  0.5764
  566MPD2    H7 8405   3.561   4.677  14.406  1.2298 -1.5354 -1.2517
  567TMC3    C1 8406   3.716   4.485  14.387  0.1989  0.1087  0.3364
  567TMC3    C2 8407   3.687   4.502  14.254  0.4185 -0.1165  0.5691
  567TMC3    C3 8408   3.710   4.393  14.173 -0.5113  0.2807 -0.2704
  567TMC3    C4 8409   3.791   4.384  14.428 -0.1408  0.0109  0.1886
  567TMC3    C5 8410   3.799   4.274  14.344 -0.4386 -0.6341  1.2779
  567TMC3    C6 8411   3.772   4.277  14.214 -0.1717 -0.3297  0.7437
  567TMC3     C 8412   3.601   4.491  14.475  0.1077 -0.8815 -0.5030
  567TMC3     O 8413   3.577   4.408  14.562  0.5173 -0.3352  0.0238
  567TMC3     H 8414   3.630   4.588  14.222  1.0491 -0.1309 -0.5772
  567TMC3    H1 8415   3.822   4.375  14.532  1.4494  0.4198 -0.2456
  567TMC3    H2 8416   3.770   4.188  14.153  1.6919  0.3186 -0.2736
  567TMC3    C7 8417   3.769   4.145  14.400  0.1197 -0.1486  0.2641
  567TMC3    C8 8418   3.638   4.399  14.046  0.0266 -0.2512 -0.0594
  567TMC3    O1 8419   3.798   4.041  14.340 -0.7328 -0.2354  0.1663
  567TMC3    O2 8420   3.566   4.496  14.023  0.2331  0.2180  0.2345
  568MPD2     C 8421   1.020   4.509  16.522 -0.2098 -0.5216 -0.6487
  568MPD2    C1 8422   0.954   4.541  16.636 -0.0869 -0.8090  0.2908
  568MPD2    C2 8423   0.819   4.585  16.630 -0.1787  0.2124 -0.7500
  568MPD2    C3 8424   0.749   4.600  16.508 -0.3021  0.5706  0.2733
  568MPD2    C4 8425   0.824   4.566  16.399 -0.8075  0.5409  0.7303
  568MPD2    C5 8426   0.951   4.519  16.407 -0.1020  0.0847  0.4176
  568MPD2     H 8427   0.770   4.624  16.719  0.5025  0.5565 -0.5307
  568MPD2    H1 8428   0.777   4.570  16.301  2.0963  0.5795 -0.6421
  568MPD2    H2 8429   1.117   4.463  16.537  0.2151  0.1508 -1.3398
  568MPD2    H3 8430   0.996   4.489  16.313  1.9863  1.3611  1.0368
  568MPD2     N 8431   0.617   4.655  16.495 -0.2865 -0.2437  0.2268
  568MPD2    H5 8432   0.581   4.694  16.582 -1.0297 -1.6455  0.5452
  568MPD2    N1 8433   1.021   4.522  16.760 -0.0555  0.4018 -0.2013
  568MPD2    H7 8434   1.120   4.500  16.757 -0.5206 -1.4813 -2.0634
  569TMC3    C1 8435   0.431   0.042  16.381  0.1238 -0.0721 -0.2007
  569TMC3    C2 8436   0.367   0.045  16.492  0.7747 -0.0510 -0.1966
  569TMC3    C3 8437   0.252   0.114  16.503  0.3944 -0.4487 -0.3972
  569TMC3    C4 8438   0.395   0.117  16.278  0.2532 -0.2387  0.2800
  569TMC3    C5 8439   0.293   0.201  16.292 -0.4568 -0.1777  0.3857
  569TMC3    C6 8440   0.220   0.206  16.405  0.5965  0.6879 -0.1392
  569TMC3     C 8441   0.553   4.688  16.370  0.1953 -0.2728  0.1294
  569TMC3     O 8442   0.590   4.660  16.255  0.1503  0.1154 -0.6272
  569TMC3     H 8443   0.388   4.705  16.576 -0.7208 -2.0408 -1.3854
  569TMC3    H1 8444   0.453   0.105  16.187 -0.8679 -3.0328 -0.0740
  569TMC3    H2 8445   0.125   0.257  16.418  0.2464 -0.0475  0.1875
  569TMC3    C7 8446   0.311   0.317  16.200 -0.6435  0.1563 -0.2927
  569TMC3    C8 8447   0.214   0.152  16.634  0.6621  0.1251  0.1759
  569TMC3    O1 8448   0.364   0.286  16.095  0.3436  0.2362 -0.3928
  569TMC3    O2 8449   0.114   0.102  16.686  0.3488 -0.6005  0.4150
  570TMC3    C1 8450   0.453   3.474  16.628  0.4963 -0.3662  0.7638
  570TMC3    C2 8451   0.520   3.448  16.505 -0.2571 -0.2724 -0.2834
  570TMC3    C3 8452   0.628   3.531  16.483 -0.0890  0.4696  0.0202
  570TMC3    C4 8453   0.495   3.557  16.724  0.1260  0.0100 -0.1383
  570TMC3    C5 8454   0.600   3.638  16.695 -0.0114 -0.2881 -0.3600
  570TMC3    C6 8455   0.671   3.622  16.579 -0.4256  0.9372  0.1408
  570TMC3     C 8456   0.321   3.416  16.636 -0.7535 -0.1895 -0.0122
  570TMC3     O 8457   0.276   3.365  16.535  0.1062 -0.4814 -0.3062
  570TMC3     H 8458   0.483   3.376  16.432  0.6958  1.0729 -2.1136
  570TMC3    H1 8459   0.432   3.593  16.805 -0.1916  0.7240 -0.7019
  570TMC3    H2 8460   0.760   3.683  16.566 -0.3071  0.9897  1.1789
  570TMC3    C7 8461   0.637   3.736  16.799  0.3991 -0.4864 -0.1016
  570TMC3    C8 8462   0.696   3.537  16.353  0.4312 -0.6676 -0.3189
  570TMC3    O1 8463   0.601   3.704  16.913 -0.0214  0.3236 -0.3179
  570TMC3    O2 8464   0.772   3.629  16.345  0.4872  0.0630  0.0214
  571MPD2     C 8465   2.327   0.885   1.012  0.1946 -0.3328  0.4160
  571MPD2    C1 8466   2.394   0.804   0.923  0.4990  0.0561 -0.3269
  571MPD2    C2 8467   2.457   0.866   0.814  0.4046  0.0736 -0.1134
  571MPD2    C3 8468   2.447   1.001   0.786 -0.3680  0.0214 -1.1531
  571MPD2    C4 8469   2.374   1.076   0.872  0.3592  0.0458  1.3985
  571MPD2    C5 8470   2.320   1.022   0.980 -0.5938  0.6746 -0.4324
  571MPD2     H 8471   2.515   0.807   0.744 -1.1170  0.2205 -1.5119
  571MPD2    H1 8472   2.375   1.183   0.854 -2.2077 -0.3593 -1.1916
  571MPD2    H2 8473   2.273   0.843   1.096 -1.0537  1.2626  0.4186
  571MPD2    H3 8474   2.269   1.081   1.055  0.3322  0.8593  0.0565
  571MPD2     N 8475   2.503   1.069   0.675  0.1858 -0.5364 -0.3855
  571MPD2    H5 8476   2.490   1.170   0.678  0.2320 -0.5523  0.5417
  571MPD2    N1 8477   2.397   0.665   0.937  0.6537 -0.1832  0.0822
  571MPD2    H7 8478   2.353   0.639   1.024  1.6833  0.1249  0.6886
  572TMC3    C1 8479   2.647   1.113   0.489 -0.0251 -0.0518 -0.2027
  572TMC3    C2 8480   2.768   1.081   0.439  0.0715 -0.0060 -0.4343
  572TMC3    C3 8481   2.846   1.172   0.378 -0.9438 -0.2413 -0.0730
  572TMC3    C4 8482   2.593   1.240   0.475  0.2421  0.0154 -0.7917
  572TMC3    C5 8483   2.673   1.335   0.416 -0.0007 -0.0957  0.4938
  572TMC3    C6 8484   2.793   1.302   0.369  0.3672  0.1861  0.4478
  572TMC3     C 8485   2.586   1.012   0.580  0.0327  0.0769 -0.0153
  572TMC3     O 8486   2.608   0.894   0.557  0.1151 -0.2143 -0.2400
  572TMC3     H 8487   2.800   0.978   0.448 -1.5064 -0.4773 -0.0691
  572TMC3    H1 8488   2.490   1.257   0.506  0.4816  0.4087 -0.2105
  572TMC3    H2 8489   2.861   1.382   0.346  0.2990  0.0844 -0.1125
  572TMC3    C7 8490   2.614   1.458   0.377 -0.2232  0.6321  0.2673
  572TMC3    C8 8491   2.984   1.165   0.417 -0.3804 -0.6347 -0.0203
  572TMC3    O1 8492   2.526   1.498   0.450  0.0116 -0.3040  0.2920
  572TMC3    O2 8493   3.067   1.194   0.333 -0.0197  0.4826 -0.1443
  573MPD2     C 8494   4.008   2.348   0.952  0.2153  0.0055 -0.1064
  573MPD2    C1 8495   3.909   2.349   0.865 -0.0287 -0.2387 -0.4223
  573MPD2    C2 8496   3.919   2.281   0.750 -0.7297 -0.3690  0.1667
  573MPD2    C3 8497   4.032   2.197   0.727 -0.4281 -0.0824 -0.2469
  573MPD2    C4 8498   4.133   2.197   0.820  0.2647  0.9718  0.1924
  573MPD2    C5 8499   4.123   2.279   0.928 -0.7444  0.0941 -0.3421
  573MPD2     H 8500   3.840   2.287   0.677 -0.9190  1.6282  0.5323
  573MPD2    H1 8501   4.223   2.137   0.813  0.3554  1.1191  0.0866
  573MPD2    H2 8502   4.002   2.414   1.038  2.5799 -1.3921  1.1126
  573MPD2    H3 8503   4.208   2.279   0.996  0.1392  1.8793 -1.4414
  573MPD2     N 8504   4.051   2.112   0.612  0.0124  0.1415  0.8827
  573MPD2    H5 8505   4.139   2.064   0.601 -0.9942 -1.2036 -1.1440
  573MPD2    N1 8506   3.798   2.422   0.901  0.1839  0.2377 -0.4189
  573MPD2    H7 8507   3.803   2.466   0.992 -1.2383  0.4277 -0.4402
  574TMC3    C1 8508   4.002   2.021   0.403  0.1561  0.0654  0.5159
  574TMC3    C2 8509   3.892   1.978   0.336 -0.4915 -0.1568 -0.2896
  574TMC3    C3 8510   3.928   1.939   0.209  0.5560  0.5470 -0.9121
  574TMC3    C4 8511   4.135   2.021   0.357 -0.4041  0.0695 -0.5974
  574TMC3    C5 8512   4.157   1.980   0.233 -0.3623  0.0511 -0.4310
  574TMC3    C6 8513   4.053   1.931   0.155 -1.3558  0.3687 -0.2864
  574TMC3     C 8514   3.959   2.104   0.516 -0.0398 -0.0294 -0.6333
  574TMC3     O 8515   3.838   2.118   0.525 -0.1626 -0.1659 -0.2892
  574TMC3     H 8516   3.788   1.981   0.366 -0.2628  0.1866  0.4686
  574TMC3    H1 8517   4.215   2.072   0.411  0.6316 -0.0024 -2.0457
  574TMC3    H2 8518   4.074   1.891   0.057  1.5784  2.6485 -0.6153
  574TMC3    C7 8519   4.290   1.975   0.179  0.1937 -0.7779 -0.4570
  574TMC3    C8 8520   3.823   1.916   0.111  0.5187  0.9550 -0.6632
  574TMC3    O1 8521   4.296   1.969   0.055  0.0418  0.0521 -0.5695
  574TMC3    O2 8522   3.851   1.935  17.696 -0.2100  0.3921 -0.5483
  575TMC3    C1 8523   2.315   2.113  10.082  0.1714 -0.7751 -0.1721
  575TMC3    C2 8524   2.190   2.077  10.117  0.2378  0.1682 -0.5806
  575TMC3    C3 8525   2.091   2.169  10.100  0.3661  0.5637 -0.2323
  575TMC3    C4 8526   2.337   2.239  10.029  0.4531  0.2909  0.1926
  575TMC3    C5 8527   2.232   2.322  10.006  0.4413  0.0778  0.2803
  575TMC3    C6 8528   2.105   2.287  10.031 -0.1858  0.2207  0.0384
  575TMC3     C 8529   2.410   2.002  10.075  0.3844  0.0106 -0.5449
  575TMC3     O 8530   2.356   1.894  10.086  0.0272  0.8782  0.2886
  575TMC3     H 8531   2.169   1.977  10.156  0.9956  0.6772  1.1484
  575TMC3    H1 8532   2.437   2.270  10.003  0.5866 -0.4687 -0.1951
  575TMC3    H2 8533   2.019   2.353  10.023 -0.8061 -0.4043  1.4462
  575TMC3    C7 8534   2.272   2.439   9.932  0.4303 -0.3659  0.2125
  575TMC3    C8 8535   1.957   2.145  10.167  0.3383 -0.0065  0.2094
  575TMC3    O1 8536   2.385   2.434   9.883 -0.0444  0.4720  0.0502
  575TMC3    O2 8537   1.936   2.033  10.200 -0.2394  0.0929  0.0864
  576MPD2     C 8538   0.875   3.893  12.967  0.0895 -0.2243 -0.3266
  576MPD2    C1 8539   0.927   3.986  12.884 -0.5836  0.3978 -0.5386
  576MPD2    C2 8540   0.979   4.107  12.938  0.1106  0.1620  0.2439
  576MPD2    C3 8541   0.971   4.128  13.077  0.0386 -0.3194  0.2604
  576MPD2    C4 8542   0.911   4.038  13.155 -0.0653 -0.3384 -0.5481
  576MPD2    C5 8543   0.876   3.916  13.099 -0.0158  0.5436  0.2032
  576MPD2     H 8544   1.035   4.183  12.885 -1.8692  1.2954 -0.1791
  576MPD2    H1 8545   0.885   4.055  13.258  0.7182  2.1156 -0.7597
  576MPD2    H2 8546   0.852   3.791  12.938 -3.8842  0.8446 -0.9692
  576MPD2    H3 8547   0.828   3.845  13.165 -0.8973  1.4812  0.5792
  576MPD2     N 8548   1.014   4.252  13.125 -0.0082 -0.3425 -0.5348
  576MPD2    H5 8549   1.050   4.318  13.057  2.0388 -3.0634 -2.0999
  576MPD2    N1 8550   0.958   3.964  12.751 -0.1570 -0.4966 -0.5368
  576MPD2    H7 8551   1.020   4.036  12.716 -0.0935 -0.8289 -1.1085
  577TMC3    C1 8552   1.007   3.855  12.554 -0.0214 -0.0545  0.5764
  577TMC3    C2 8553   1.128   3.924  12.551  0.0124 -0.4586  0.0957
  577TMC3    C3 8554   1.190   3.923  12.431 -0.3560 -0.1505  0.1167
  577TMC3    C4 8555   0.958   3.776  12.451 -0.0955 -0.3411  0.8467
  577TMC3    C5 8556   1.021   3.806  12.327 -0.7615  0.5410  0.4558
  577TMC3    C6 8557   1.142   3.875  12.319  1.1487  0.0895 -0.7157
  577TMC3     C 8558   0.920   3.864  12.663 -0.1646  0.0868  0.0856
  577TMC3     O 8559   0.830   3.781  12.677 -0.5701  0.3650 -0.5688
  577TMC3     H 8560   1.182   3.955  12.640 -0.3561  1.6402 -0.4027
  577TMC3    H1 8561   0.863   3.724  12.449 -0.7339  0.8251  0.9159
  577TMC3    H2 8562   1.193   3.902  12.227  1.5951  2.0174  0.1002
  577TMC3    C7 8563   0.943   3.782  12.204  0.4512  0.2164 -0.1141
  577TMC3    C8 8564   1.337   3.924  12.450  0.3997  0.0182  0.1812
  577TMC3    O1 8565   0.844   3.708  12.211 -0.2054 -0.0949 -0.0170
  577TMC3    O2 8566   1.379   3.991  12.541 -0.0353 -0.6251  0.4370
  578MPD2     C 8567   3.879   3.857   1.656 -1.1581  0.2943  0.5071
  578MPD2    C1 8568   4.003   3.869   1.600 -0.5271 -0.5598  0.5581
  578MPD2    C2 8569   4.103   3.797   1.655 -0.1034 -0.2984 -0.5580
  578MPD2    C3 8570   4.080   3.730   1.774  0.6827  0.6533 -1.1002
  578MPD2    C4 8571   3.964   3.751   1.849 -0.8114 -0.7295  0.1182
  578MPD2    C5 8572   3.856   3.805   1.784 -0.0989 -0.2305 -0.1035
  578MPD2     H 8573   4.198   3.780   1.605 -1.5896 -1.5272 -2.9816
  578MPD2    H1 8574   3.947   3.714   1.949 -1.2383  2.4092  1.1851
  578MPD2    H2 8575   3.793   3.907   1.612  1.8928  2.5007 -2.9740
  578MPD2    H3 8576   3.765   3.810   1.843 -1.6095  0.6417 -2.5020
  578MPD2     N 8577   4.205   3.685   1.824  0.2161 -0.8031 -0.1942
  578MPD2    H5 8578   4.284   3.682   1.761  0.2826 -1.2018 -0.0918
  578MPD2    N1 8579   4.018   3.927   1.472 -0.1995  0.4338 -0.6049
  578MPD2    H7 8580   3.937   3.953   1.417 -0.6109 -0.6491 -0.5253
  579TMC3    C1 8581   4.366   3.591   1.973 -0.1047 -0.5647  0.3300
  579TMC3    C2 8582   4.435   3.627   2.082 -0.1156  0.3246 -0.1797
  579TMC3    C3 8583   4.572   3.618   2.069 -0.1777  0.6903 -0.4063
  579TMC3    C4 8584   4.424   3.536   1.864 -0.8223  0.8427  0.1344
  579TMC3    C5 8585   4.556   3.511   1.861  0.0899  0.0321  0.0100
  579TMC3    C6 8586   4.636   3.564   1.961 -0.3150  0.1335  0.7022
  579TMC3     C 8587   4.227   3.643   1.957  0.1740  0.3664  0.2616
  579TMC3     O 8588   4.162   3.662   2.060 -0.2984 -0.5476  0.0666
  579TMC3     H 8589   4.393   3.691   2.159  0.3973  1.5758 -0.9509
  579TMC3    H1 8590   4.357   3.473   1.806 -1.5674  1.4122  0.3761
  579TMC3    H2 8591   0.018   3.549   1.960 -0.1421  1.3858  0.6860
  579TMC3    C7 8592   4.621   3.428   1.762 -0.8016  0.1252 -0.0840
  579TMC3    C8 8593   4.654   3.683   2.173 -0.1255  0.3838 -0.0182
  579TMC3    O1 8594   0.016   3.405   1.776  0.4917  0.0211  0.1245
  579TMC3    O2 8595   4.592   3.711   2.276 -0.2917 -0.1584  0.0636
  580TMC3    C1 8596   3.692   2.875  11.731  0.6703  0.9273 -0.5071
  580TMC3    C2 8597   3.788   2.870  11.631 -0.4461  0.0251  0.3790
  580TMC3    C3 8598   3.907   2.820  11.653  0.1477  0.6427  0.1019
  580TMC3    C4 8599   3.721   2.815  11.849 -0.1212 -0.0748  0.5064
  580TMC3    C5 8600   3.840   2.747  11.865 -0.3457  1.0821 -0.2412
  580TMC3    C6 8601   3.934   2.755  11.768 -1.0079 -0.4361  0.0153
  580TMC3     C 8602   3.628   3.008  11.747 -0.1931 -0.5292  0.0800
  580TMC3     O 8603   3.537   3.011  11.828 -0.0041 -0.2863  0.0232
  580TMC3     H 8604   3.763   2.910  11.534  1.3278  0.4038  0.0828
  580TMC3    H1 8605   3.647   2.810  11.929  1.7500  1.2127  2.3179
  580TMC3    H2 8606   4.035   2.721  11.787 -0.1891  0.6334 -2.4672
  580TMC3    C7 8607   3.871   2.671  11.981  0.5839 -0.2902 -0.2784
  580TMC3    C8 8608   4.004   2.921  11.614 -0.1836 -0.0657 -0.2136
  580TMC3    O1 8609   3.826   2.716  12.086 -0.2133  0.1186  0.3781
  580TMC3    O2 8610   3.971   2.995  11.521  0.4413 -0.2362  0.0879
  581MPD2     C 8611   1.968   2.411  15.362 -0.5579  0.2063  0.4210
  581MPD2    C1 8612   1.836   2.372  15.357  0.2053  0.5772  0.2615
  581MPD2    C2 8613   1.743   2.466  15.315 -0.5954  0.0188  0.3628
  581MPD2    C3 8614   1.771   2.600  15.279  0.0710 -0.3957 -0.2188
  581MPD2    C4 8615   1.904   2.635  15.284 -0.3933  0.0580  1.5701
  581MPD2    C5 8616   1.997   2.540  15.320 -0.6124 -0.6632 -0.1909
  581MPD2     H 8617   1.641   2.435  15.297 -0.3437  1.1956 -2.9645
  581MPD2    H1 8618   1.946   2.730  15.251 -0.9459 -0.6188 -1.0819
  581MPD2    H2 8619   2.041   2.347  15.410 -1.4663 -2.1431 -1.3923
  581MPD2    H3 8620   2.101   2.568  15.332 -0.9790  1.1252 -1.1886
  581MPD2     N 8621   1.669   2.695  15.234  0.2269 -0.4206 -0.1019
  581MPD2    H5 8622   1.580   2.652  15.208 -0.2339  0.4679  0.0337
  581MPD2    N1 8623   1.802   2.240  15.389 -1.0775  0.1620 -0.1871
  581MPD2    H7 8624   1.878   2.176  15.410  0.5378  1.8776 -0.8417
  582TMC3    C1 8625   1.681   2.041  15.427  0.3750  0.1105 -0.1945
  582TMC3    C2 8626   1.794   1.995  15.494  0.0801  0.7812 -0.2487
  582TMC3    C3 8627   1.754   1.924  15.611  0.0259  0.5300 -0.2845
  582TMC3    C4 8628   1.555   1.990  15.450 -0.1483 -0.2603 -0.3948
  582TMC3    C5 8629   1.522   1.910  15.555 -0.3715  0.0958 -0.4895
  582TMC3    C6 8630   1.628   1.882  15.637 -0.0106 -0.4460  0.1714
  582TMC3     C 8631   1.674   2.180  15.391  0.0054  0.5299  0.5706
  582TMC3     O 8632   1.561   2.228  15.365  0.1377  0.7451  0.2382
  582TMC3     H 8633   1.895   2.032  15.484 -0.1238  1.2806 -0.4607
  582TMC3    H1 8634   1.475   2.017  15.382 -1.4568 -0.7675  0.9153
  582TMC3    H2 8635   1.608   1.842  15.736  2.1056  1.9985  1.5972
  582TMC3    C7 8636   1.408   1.969  15.625 -0.1685 -0.1496 -0.0922
  582TMC3    C8 8637   1.826   1.959  15.728 -0.6561 -0.0066 -1.0883
  582TMC3    O1 8638   1.333   1.909  15.695  0.2260 -0.0764  0.8309
  582TMC3    O2 8639   1.757   1.977  15.823  0.8056  0.1735  0.0435
  583MPD2     C 8640   2.154   4.224  17.114 -0.0217 -0.3809  0.0493
  583MPD2    C1 8641   2.109   4.334  17.047  0.5148 -0.1801  0.1092
  583MPD2    C2 8642   2.038   4.427  17.120  0.2204  0.3477 -0.5722
  583MPD2    C3 8643   2.006   4.405  17.251 -0.1169  0.4546 -0.0113
  583MPD2    C4 8644   2.053   4.294  17.316 -0.7687 -0.2305 -0.0700
  583MPD2    C5 8645   2.132   4.206  17.245 -0.4418 -0.5192  0.1409
  583MPD2     H 8646   1.993   4.506  17.061 -0.2298 -0.0227 -0.7249
  583MPD2    H1 8647   2.036   4.274  17.421  0.9744  1.6798  0.5615
  583MPD2    H2 8648   2.206   4.145  17.060 -0.8029 -0.5145 -0.5005
  583MPD2    H3 8649   2.160   4.109  17.283  1.7286 -1.1324 -3.0110
  583MPD2     N 8650   1.934   4.496  17.326 -0.2183  0.0601  0.0594
  583MPD2    H5 8651   1.899   4.574  17.272  2.0413 -0.2597 -1.8306
  583MPD2    N1 8652   2.127   4.354  16.905  0.4509 -0.6359  0.6827
  583MPD2    H7 8653   2.078   4.433  16.865 -0.8524 -1.9400 -0.2848
  584TMC3    C1 8654   1.827   4.598  17.503 -0.7429  0.1109  0.0400
  584TMC3    C2 8655   1.832   0.001  17.451  0.0748  0.4299 -0.3825
  584TMC3    C3 8656   1.803   0.100  17.537 -0.1999  0.6195 -0.0608
  584TMC3    C4 8657   1.789   4.568  17.628  0.0185 -0.5898 -0.4853
  584TMC3    C5 8658   1.749   4.670   0.004  0.3319 -0.4143 -0.3853
  584TMC3    C6 8659   1.771   0.073  17.671 -0.3450  0.5327  0.0561
  584TMC3     C 8660   1.918   4.493  17.463  0.2803  0.2196  0.2111
  584TMC3     O 8661   1.985   4.433  17.550  0.2424  0.0072 -0.4204
  584TMC3     H 8662   1.851   0.022  17.347  1.2660  0.7600 -0.0964
  584TMC3    H1 8663   1.797   4.465  17.660  1.6509 -0.7361 -1.4239
  584TMC3    H2 8664   1.741   0.149   0.038 -1.6737  1.0007 -0.9993
  584TMC3    C7 8665   1.693   4.645   0.131 -0.0633  0.3071  0.2759
  584TMC3    C8 8666   1.788   0.234  17.488  0.0151  0.4950 -0.3686
  584TMC3    O1 8667   1.694   0.009   0.211  0.0443  0.0669 -0.0731
  584TMC3    O2 8668   1.777   0.251  17.369 -0.9544 -0.1632  0.1141
  585MPD2     C 8669   1.090   3.181   1.043  0.3626  0.3845  0.1509
  585MPD2    C1 8670   1.213   3.229   1.012 -0.0145 -0.8164 -0.3342
  585MPD2    C2 8671   1.268   3.237   0.884 -0.3607  0.0262 -0.1396
  585MPD2    C3 8672   1.201   3.172   0.781  0.0683  0.7157  0.0794
  585MPD2    C4 8673   1.081   3.113   0.815 -0.3909  0.2198 -0.2828
  585MPD2    C5 8674   1.020   3.139   0.936  0.0019  0.4363  1.0147
  585MPD2     H 8675   1.360   3.285   0.855 -1.4232  1.8740 -0.4293
  585MPD2    H1 8676   1.026   3.054   0.742  0.9085  0.4533 -1.4662
  585MPD2    H2 8677   1.056   3.181   1.147  1.7080 -2.2324  0.5784
  585MPD2    H3 8678   0.930   3.082   0.954  0.1485 -0.3718 -0.8326
  585MPD2     N 8679   1.243   3.167   0.648 -0.2624 -0.0958  0.4079
  585MPD2    H5 8680   1.170   3.147   0.580 -1.0465  0.2897  1.1431
  585MPD2    N1 8681   1.285   3.273   1.134 -0.4729  0.7058  0.3561
  585MPD2    H7 8682   1.226   3.277   1.216  1.5580 -3.3267  1.9962
  586TMC3    C1 8683   1.372   3.205   0.460  0.1217  0.2688  0.2020
  586TMC3    C2 8684   1.482   3.166   0.389 -0.8013  0.2753 -0.2194
  586TMC3    C3 8685   1.483   3.175   0.253 -0.1974  0.6005 -0.0403
  586TMC3    C4 8686   1.269   3.278   0.405  0.6973 -0.5035 -0.2099
  586TMC3    C5 8687   1.271   3.280   0.267 -0.0749  1.1900  0.0288
  586TMC3    C6 8688   1.378   3.239   0.201 -0.1927  0.7717  0.3629
  586TMC3     C 8689   1.371   3.197   0.605  0.6125  0.1580  0.5857
  586TMC3     O 8690   1.478   3.206   0.661 -0.1021 -0.2500 -0.2912
  586TMC3     H 8691   1.563   3.106   0.428 -0.8816 -0.0546 -0.5575
  586TMC3    H1 8692   1.174   3.286   0.457 -0.2000 -0.0996 -1.9282
  586TMC3    H2 8693   1.368   3.249   0.093  1.3204 -3.0526 -0.1148
  586TMC3    C7 8694   1.145   3.220   0.216  0.1445  0.0657 -0.1952
  586TMC3    C8 8695   1.506   3.046   0.193  0.5659 -0.6943  0.5691
  586TMC3    O1 8696   1.037   3.234   0.271 -0.1113  0.6150  0.4796
  586TMC3    O2 8697   1.434   2.953   0.219 -0.6560  0.4264  0.2146
  587TMC3    C1 8698   3.921   2.203  17.145 -0.4846 -0.4780  0.2535
  587TMC3    C2 8699   3.899   2.223  17.010  0.2583 -0.4704 -0.2561
  587TMC3    C3 8700   3.966   2.327  16.950 -0.1233  0.2918  0.2146
  587TMC3    C4 8701   4.022   2.264  17.205  0.4275 -0.1705 -0.1719
  587TMC3    C5 8702   4.096   2.351  17.135 -0.0705 -0.9384  0.6477
  587TMC3    C6 8703   4.070   2.390  17.010 -0.0578 -0.1808  0.7136
  587TMC3     C 8704   3.819   2.130  17.227  0.1266 -0.2532  0.0606
  587TMC3     O 8705   3.828   2.109  17.344 -0.0955 -0.0754  0.0928
  587TMC3     H 8706   3.826   2.168  16.952 -1.2321 -0.1459  1.3070
  587TMC3    H1 8707   4.028   2.255  17.313 -0.6177 -1.3284 -0.2140
  587TMC3    H2 8708   4.124   2.470  16.960  0.1317 -1.0635 -0.4990
  587TMC3    C7 8709   4.230   2.380  17.191  0.2098 -0.1878  0.8665
  587TMC3    C8 8710   3.899   2.382  16.832  0.0476 -0.8100  0.2016
  587TMC3    O1 8711   4.252   2.362  17.313  0.2432  0.1171 -0.3284
  587TMC3    O2 8712   3.970   2.449  16.756 -0.2579  0.5548  0.0220
  588TMC3    C1 8713   0.865   4.719   9.863  0.2892  0.2117 -0.3898
  588TMC3    C2 8714   0.826   4.591   9.870  0.0907  0.6085  0.9120
  588TMC3    C3 8715   0.917   4.500   9.924  0.3763 -0.1027 -0.0900
  588TMC3    C4 8716   0.989   0.036   9.897  0.4164 -0.0378  0.0243
  588TMC3    C5 8717   1.081   4.667   9.939 -0.3584 -0.3410  0.2658
  588TMC3    C6 8718   1.042   4.541   9.967  0.0184  0.3920 -0.1526
  588TMC3     C 8719   0.785   0.083   9.776 -0.2370  0.2103 -0.5517
  588TMC3     O 8720   0.664   0.062   9.753 -0.6226  0.1568  0.4527
  588TMC3     H 8721   0.730   4.560   9.831  1.0042  1.3210 -1.9589
  588TMC3    H1 8722   1.005   0.142   9.917  0.2830  0.0670 -0.4272
  588TMC3    H2 8723   1.123   4.474   9.996  0.2429  1.4832  1.7694
  588TMC3    C7 8724   1.211   4.707   9.959 -0.6641  0.0016  1.0178
  588TMC3    C8 8725   0.854   4.376   9.973 -0.2229  0.2725 -0.3143
  588TMC3    O1 8726   1.265   4.655  10.058  0.3881  0.0070 -0.7521
  588TMC3    O2 8727   0.759   4.333   9.910 -0.0884  0.1097  0.0594
  589TMC3    C1 8728   0.029   2.549   1.785 -0.3558  1.0668 -0.1026
  589TMC3    C2 8729   0.143   2.529   1.858  0.3192 -0.3123 -0.1224
  589TMC3    C3 8730   0.219   2.417   1.833  0.3284  0.1783  0.4617
  589TMC3    C4 8731   4.704   2.453   1.702  0.0032 -0.7036 -0.5047
  589TMC3    C5 8732   0.062   2.347   1.673 -0.0589 -0.6844  0.0331
  589TMC3    C6 8733   0.178   2.330   1.739 -0.0766 -0.7206  0.5490
  589TMC3     C 8734   4.647   2.643   1.838  0.0050 -0.2729 -0.1524
  589TMC3     O 8735   4.543   2.662   1.773  0.4096 -0.3096  0.6158
  589TMC3     H 8736   0.183   2.595   1.934  0.2462  1.4034 -1.5733
  589TMC3    H1 8737   4.620   2.467   1.636 -1.2904 -1.7652  0.9280
  589TMC3    H2 8738   0.221   2.231   1.734  0.5990 -0.2413 -3.1779
  589TMC3    C7 8739   0.009   2.236   1.598 -0.2561  0.4381  0.4140
  589TMC3    C8 8740   0.363   2.403   1.883 -1.3881 -0.5653 -0.7917
  589TMC3    O1 8741   4.612   2.225   1.584 -0.2776 -0.4912  0.2629
  589TMC3    O2 8742   0.400   2.468   1.982 -0.0500 -0.2742  0.5134
  590MPD2     C 8743   3.972   0.146  16.643  0.0323  0.5868  0.4004
  590MPD2    C1 8744   3.974   0.266  16.581 -0.4593 -0.1540  0.1882
  590MPD2    C2 8745   4.101   0.314  16.542 -0.8609 -0.1682 -0.3264
  590MPD2    C3 8746   4.218   0.236  16.563 -0.4895 -0.7457  0.0396
  590MPD2    C4 8747   4.207   0.107  16.623  0.6349 -0.1861  0.3504
  590MPD2    C5 8748   4.084   0.067  16.659  0.4126 -0.2172  0.0839
  590MPD2     H 8749   4.103   0.413  16.498  0.7877  0.2843  0.7566
  590MPD2    H1 8750   4.291   0.045  16.652 -0.9884 -1.2654  2.7375
  590MPD2    H2 8751   3.888   0.098  16.691  0.5705  0.0344  0.7780
  590MPD2    H3 8752   4.064   4.707  16.722 -0.0279 -2.1481 -2.6654
  590MPD2     N 8753   4.338   0.295  16.514  0.6489 -0.2540  0.0268
  590MPD2    H5 8754   4.330   0.392  16.487  1.0235 -0.2682 -0.1330
  590MPD2    N1 8755   3.863   0.339  16.553 -0.0912 -0.3617  0.2909
  590MPD2    H7 8756   3.881   0.426  16.504  1.5109 -0.4685  0.6921
  591TMC3    C1 8757   4.549   0.307  16.440  0.6427 -0.2471 -0.1219
  591TMC3    C2 8758   4.606   0.260  16.327 -0.2225 -0.0921 -0.2024
  591TMC3    C3 8759   4.657   0.348  16.238  0.6390 -0.4736  0.1232
  591TMC3    C4 8760   4.554   0.442  16.469 -0.4294  0.4417 -0.2097
  591TMC3    C5 8761   4.625   0.527  16.384  0.1479 -0.0262 -0.1987
  591TMC3    C6 8762   4.671   0.479  16.262 -0.0099 -0.2530  1.1255
  591TMC3     C 8763   4.459   0.226  16.510 -0.6460  0.2696  0.6289
  591TMC3     O 8764   4.480   0.107  16.528 -0.6903 -0.2450  0.6304
  591TMC3     H 8765   4.590   0.156  16.301  1.1372 -0.6796  1.3265
  591TMC3    H1 8766   4.501   0.480  16.556 -0.1528  1.3978 -0.4633
  591TMC3    H2 8767   4.720   0.546  16.192  1.4812 -1.8684  0.6469
  591TMC3    C7 8768   4.633   0.669  16.419 -0.1276 -0.2047  0.3897
  591TMC3    C8 8769   4.699   0.298  16.111 -1.0438 -0.0173 -0.3232
  591TMC3    O1 8770   4.592   0.697  16.528  0.0696  0.5092 -0.2467
  591TMC3    O2 8771   0.010   0.181  16.103  0.8560  0.3243  1.0074
  592MPD2     C 8772   0.454   2.888  11.393 -0.8871 -0.0370 -1.0752
  592MPD2    C1 8773   0.449   2.903  11.528 -0.6123 -0.2860 -0.2989
  592MPD2    C2 8774   0.371   2.818  11.601  0.3636  0.3738 -0.4798
  592MPD2    C3 8775   0.287   2.725  11.538 -0.1418 -0.0505  0.1702
  592MPD2    C4 8776   0.294   2.710  11.404 -0.7080 -0.0481 -0.3668
  592MPD2    C5 8777   0.373   2.793  11.330  0.7222  0.0777 -0.0365
  592MPD2     H 8778   0.375   2.821  11.709  2.4946 -0.1054 -0.5586
  592MPD2    H1 8779   0.244   2.637  11.342 -1.1666 -0.1879  0.1663
  592MPD2    H2 8780   0.520   2.955  11.340  0.4571  0.1401  0.8311
  592MPD2    H3 8781   0.372   2.776  11.223 -1.9313  0.3948 -0.0625
  592MPD2     N 8782   0.205   2.645  11.621  0.0089  0.2923  0.1656
  592MPD2    H5 8783   0.215   2.663  11.720  2.1777  0.5917 -0.1012
  592MPD2    N1 8784   0.549   2.982  11.589  0.1698  0.2899 -0.6205
  592MPD2    H7 8785   0.609   3.034  11.526  0.1545  0.1815 -0.7241
  593TMC3    C1 8786   0.629   3.133  11.743  0.0396  0.8885 -0.3129
  593TMC3    C2 8787   0.651   3.158  11.873 -0.4577  0.3296  0.0670
  593TMC3    C3 8788   0.748   3.250  11.907  0.6862 -0.4887 -0.5472
  593TMC3    C4 8789   0.707   3.192  11.645 -0.0119  0.6946  0.1905
  593TMC3    C5 8790   0.801   3.284  11.680 -0.3367 -0.6719  1.3021
  593TMC3    C6 8791   0.815   3.321  11.814  0.0492  0.7172 -0.0365
  593TMC3     C 8792   0.555   3.011  11.719 -0.1518 -0.2288 -0.3582
  593TMC3     O 8793   0.518   2.945  11.816  0.0675  0.4673  0.3692
  593TMC3     H 8794   0.600   3.101  11.951 -0.8720 -2.3065 -2.1331
  593TMC3    H1 8795   0.687   3.172  11.540 -1.8586  0.3204  0.6213
  593TMC3    H2 8796   0.880   3.403  11.842 -1.4929  1.7504  0.4973
  593TMC3    C7 8797   0.849   3.385  11.590  0.3163 -0.3373 -0.3199
  593TMC3    C8 8798   0.758   3.262  12.053  0.2860  0.3130 -0.1057
  593TMC3    O1 8799   0.912   3.476  11.637  0.1475 -0.0608 -0.5876
  593TMC3    O2 8800   0.680   3.201  12.121 -0.1279 -0.2492 -0.2520
  594MPD2     C 8801   3.820   1.740  14.509  0.1940  0.0984  0.3435
  594MPD2    C1 8802   3.817   1.646  14.613 -0.4012 -0.3687 -0.2965
  594MPD2    C2 8803   3.934   1.605  14.670 -0.2713 -0.3598  0.2103
  594MPD2    C3 8804   4.054   1.665  14.622  0.2706  0.6297  0.0332
  594MPD2    C4 8805   4.057   1.759  14.525  0.0821  0.0506  0.3723
  594MPD2    C5 8806   3.940   1.792  14.467  0.7046  0.1159  0.0888
  594MPD2     H 8807   3.939   1.530  14.749  0.2133 -0.2238  0.3144
  594MPD2    H1 8808   4.149   1.801  14.484  0.2610  0.5145  1.2587
  594MPD2    H2 8809   3.731   1.789  14.472  1.3077  0.4842 -1.8415
  594MPD2    H3 8810   3.935   1.864  14.386 -0.5360  0.5908  0.5821
  594MPD2     N 8811   4.177   1.622  14.671 -0.2048  0.1221 -0.1035
  594MPD2    H5 8812   4.264   1.649  14.624 -1.4891  0.2752 -2.3994
  594MPD2    N1 8813   3.686   1.602  14.645  0.6728  0.0880  0.3211
  594MPD2    H7 8814   3.607   1.644  14.597 -0.3190 -1.3430  0.7110
  595TMC3    C1 8815   4.547   1.522  14.843 -0.2618 -0.5435 -0.2637
  595TMC3    C2 8816   4.436   1.544  14.765  0.3337  0.6460  0.6535
  595TMC3    C3 8817   4.321   1.484  14.806 -0.2747 -0.1035 -1.6644
  595TMC3    C4 8818   4.540   1.435  14.946 -0.3376 -0.5407  0.4433
  595TMC3    C5 8819   4.429   1.368  14.980  0.1818  0.1816 -0.9697
  595TMC3    C6 8820   4.319   1.402  14.914  0.0851  0.0023  0.0173
  595TMC3     C 8821   4.655   1.615  14.840 -0.5655 -0.6126  0.1166
  595TMC3     O 8822   4.713   1.635  14.944 -0.2910 -0.5119  0.1055
  595TMC3     H 8823   4.426   1.621  14.689  0.0958 -0.9250 -0.8866
  595TMC3    H1 8824   4.622   1.430  15.018 -0.2793  4.9646  0.7214
  595TMC3    H2 8825   4.228   1.349  14.939  0.3647 -0.4390  0.0974
  595TMC3    C7 8826   4.411   1.397  15.124 -0.5257  0.5672 -0.5494
  595TMC3    C8 8827   4.197   1.557  14.793 -0.2535 -0.3781  0.5507
  595TMC3    O1 8828   4.499   1.393  15.209  0.1631  0.7177 -0.4908
  595TMC3    O2 8829   4.134   1.563  14.896 -0.4827  0.5533 -0.3231
  596MPD2     C 8830   3.001   4.238  17.106 -0.6115 -0.3645  0.5539
  596MPD2    C1 8831   2.940   4.336  17.031 -0.0680  0.1519 -0.0727
  596MPD2    C2 8832   2.943   4.316  16.895  0.0739  0.9544 -0.6110
  596MPD2    C3 8833   2.983   4.194  16.842  0.2107 -0.4428  0.5149
  596MPD2    C4 8834   3.036   4.092  16.923  0.2215 -0.0844  0.4652
  596MPD2    C5 8835   3.046   4.117  17.056 -0.2345  0.0257 -0.6290
  596MPD2     H 8836   2.895   4.397  16.842 -1.2940  2.5373  3.0385
  596MPD2    H1 8837   3.084   4.002  16.888 -0.4267 -0.7547  1.3135
  596MPD2    H2 8838   3.003   4.241  17.215  1.5813 -1.4054  0.5276
  596MPD2    H3 8839   3.090   4.045  17.124 -1.1092  0.8910  0.8593
  596MPD2     N 8840   2.973   4.161  16.702 -0.2164  0.2119  0.0558
  596MPD2    H5 8841   3.012   4.068  16.692  2.0687  1.0004  1.6171
  596MPD2    N1 8842   2.876   4.448  17.082  0.0042  0.1713  0.1795
  596MPD2    H7 8843   2.841   4.513  17.012 -1.7476 -1.4016 -0.4020
  597TMC3    C1 8844   2.790   4.594  17.232  0.9611  0.5080 -0.1351
  597TMC3    C2 8845   2.799   4.690  17.136  0.7136 -0.8177  0.3815
  597TMC3    C3 8846   2.710   0.068  17.143 -0.8765  0.1465 -1.2057
  597TMC3    C4 8847   2.690   4.601  17.333 -1.3482  0.4109 -0.4019
  597TMC3    C5 8848   2.603   4.705  17.324 -0.1552 -0.4237 -0.5968
  597TMC3    C6 8849   2.606   0.077  17.222  0.8956 -0.3730  0.0639
  597TMC3     C 8850   2.841   4.457  17.215  0.6443 -0.2801  0.9443
  597TMC3     O 8851   2.835   4.371  17.301 -0.2907 -0.0221 -0.6538
  597TMC3     H 8852   2.891   4.694  17.079  1.5136  0.0827  1.7159
  597TMC3    H1 8853   2.679   4.524  17.409  2.1220  0.6547  0.3525
  597TMC3    H2 8854   2.535   0.157  17.206  1.7938  0.3103 -0.4856
  597TMC3    C7 8855   2.508   0.007  17.436 -0.0208 -0.0244 -0.1830
  597TMC3    C8 8856   2.752   0.194  17.089  0.1754  0.5467  0.1875
  597TMC3    O1 8857   2.494   4.643  17.522  0.1398  0.2919  0.2993
  597TMC3    O2 8858   2.697   0.292  17.130 -0.3114  0.0471  0.5429
  598TMC3    C1 8859   0.975   1.191  15.784 -0.3049  0.4621  0.3592
  598TMC3    C2 8860   0.909   1.072  15.777  0.2596 -0.0624 -0.0632
  598TMC3    C3 8861   0.823   1.054  15.670  0.5253  0.5743 -0.0573
  598TMC3    C4 8862   0.967   1.277  15.679  0.2588  0.0035 -0.3344
  598TMC3    C5 8863   0.878   1.259  15.582 -0.4132 -0.4821 -0.5308
  598TMC3    C6 8864   0.819   1.141  15.562 -0.0750 -0.5765 -0.7563
  598TMC3     C 8865   1.104   1.199  15.843  0.7664 -0.2322 -0.2939
  598TMC3     O 8866   1.166   1.301  15.856  0.1751  0.4550  0.4943
  598TMC3     H 8867   0.902   1.009  15.865  1.1354  1.0366  0.7875
  598TMC3    H1 8868   1.026   1.368  15.690  0.7641 -0.3557 -0.0627
  598TMC3    H2 8869   0.760   1.120  15.473 -2.4658  3.4849 -0.0847
  598TMC3    C7 8870   0.892   1.346  15.465 -0.6753  0.2599  0.0301
  598TMC3    C8 8871   0.772   0.924  15.657  0.1018  0.1703  0.6236
  598TMC3    O1 8872   0.847   1.304  15.360  0.5624 -0.4321 -0.1126
  598TMC3    O2 8873   0.836   0.836  15.714  0.5730 -0.3089 -0.0372
  599MPD2     C 8874   1.205   3.352  16.283 -0.1601 -0.3042  0.0812
  599MPD2    C1 8875   1.145   3.226  16.277 -0.9831  0.1659  0.0197
  599MPD2    C2 8876   1.039   3.195  16.364  0.2266 -0.0882  0.2421
  599MPD2    C3 8877   0.990   3.291  16.450  0.5371 -0.1256 -0.8584
  599MPD2    C4 8878   1.058   3.409  16.463 -0.5469 -1.1193  0.0226
  599MPD2    C5 8879   1.162   3.440  16.379  0.0271 -0.2447  0.4046
  599MPD2     H 8880   0.986   3.101  16.364 -1.5758  0.9172 -0.2349
  599MPD2    H1 8881   1.025   3.485  16.533  4.2888  0.5567  0.4470
  599MPD2    H2 8882   1.279   3.387  16.212 -1.2926  0.0632 -0.9096
  599MPD2    H3 8883   1.192   3.544  16.387  1.3302 -0.5008 -1.3613
  599MPD2     N 8884   0.873   3.277  16.538 -0.0306  0.1743 -0.6282
  599MPD2    H5 8885   0.851   3.341  16.613 -0.2113 -1.4540  0.7182
  599MPD2    N1 8886   1.208   3.131  16.200 -0.2545 -0.1939 -0.1674
  599MPD2    H7 8887   1.286   3.156  16.139 -1.5875 -1.2727 -2.2810
  600TMC3    C1 8888   0.688   3.176  16.648 -0.1023 -0.1141 -0.2323
  600TMC3    C2 8889   0.562   3.125  16.633  0.9108  1.0420  0.4147
  600TMC3    C3 8890   0.483   3.118  16.744  0.3979  0.5461  0.1064
  600TMC3    C4 8891   0.744   3.205  16.770  0.1252 -0.3634  0.0570
  600TMC3    C5 8892   0.661   3.186  16.883  0.1890 -0.2211  0.1131
  600TMC3    C6 8893   0.535   3.140  16.868 -0.2761 -0.4392 -0.2260
  600TMC3     C 8894   0.784   3.169  16.539 -0.2636  0.7718 -0.1214
  600TMC3     O 8895   0.780   3.069  16.470 -0.9722  0.0268 -0.6881
  600TMC3     H 8896   0.528   3.102  16.533 -0.3965  1.0593  0.8543
  600TMC3    H1 8897   0.846   3.241  16.774 -0.7320  2.0134  0.2363
  600TMC3    H2 8898   0.476   3.131  16.958 -0.5690  2.2338 -0.1543
  600TMC3    C7 8899   0.705   3.247  17.012  0.5337 -0.1914  0.0004
  600TMC3    C8 8900   0.352   3.056  16.749  0.3711 -0.1315 -0.6315
  600TMC3    O1 8901   0.619   3.287  17.093 -0.3433 -0.3999 -0.0934
  600TMC3    O2 8902   0.327   2.987  16.845 -0.4449  0.0020 -0.3192
  601MPD2     C 8903   2.551   1.858   0.072 -0.6058 -0.4175 -0.2955
  601MPD2    C1 8904   2.457   1.793   0.153  0.5602  0.4685  0.6984
  601MPD2    C2 8905   2.494   1.681   0.223  0.0841  0.7624 -0.2870
  601MPD2    C3 8906   2.627   1.638   0.212  0.4992 -0.9413  0.4401
  601MPD2    C4 8907   2.716   1.703   0.130  0.4409 -0.2288  0.6019
  601MPD2    C5 8908   2.678   1.812   0.053 -0.5192  0.6192 -0.0450
  601MPD2     H 8909   2.418   1.630   0.281  1.1681 -2.7888 -1.9680
  601MPD2    H1 8910   2.820   1.675   0.127  0.8447  1.2919  0.4138
  601MPD2    H2 8911   2.533   1.959   0.039  1.0764  0.2635  0.8792
  601MPD2    H3 8912   2.752   1.862  17.696  0.0101  0.3609  0.3887
  601MPD2     N 8913   2.675   1.519   0.275  0.2517 -0.1646  0.0008
  601MPD2    H5 8914   2.761   1.478   0.238 -0.5831  0.0129 -2.1519
  601MPD2    N1 8915   2.318   1.814   0.154 -0.1100 -0.0582  0.1472
  601MPD2    H7 8916   2.262   1.757   0.216  1.1931  0.4633  1.8012
  602TMC3    C1 8917   2.104   1.899   0.098 -0.2345 -0.3625  0.3329
  602TMC3    C2 8918   2.029   2.010   0.091 -0.1033  0.2124  0.7562
  602TMC3    C3 8919   1.893   2.000   0.069  0.0488  0.5710 -0.1847
  602TMC3    C4 8920   2.054   1.766   0.086 -0.0329  0.5387  0.2862
  602TMC3    C5 8921   1.921   1.764   0.059  0.5646 -0.1769  0.0533
  602TMC3    C6 8922   1.846   1.877   0.049  0.5116  0.2458  0.8525
  602TMC3     C 8923   2.249   1.913   0.090  0.1282  0.4762 -0.3907
  602TMC3     O 8924   2.303   2.020   0.058  0.2073  0.4711  0.0128
  602TMC3     H 8925   2.076   2.107   0.090  0.2165  0.0523  0.2415
  602TMC3    H1 8926   2.117   1.684   0.052 -0.5426 -0.5944  2.0610
  602TMC3    H2 8927   1.738   1.867   0.048  0.5554 -0.1752  0.5587
  602TMC3    C7 8928   1.881   1.656  17.673 -0.2517  0.4080 -0.4743
  602TMC3    C8 8929   1.838   2.079  17.664 -0.3980 -0.2663  0.4293
  602TMC3    O1 8930   1.939   1.552  17.680 -0.0106  0.1362 -0.1208
  602TMC3    O2 8931   1.763   2.012  17.594  0.2581  0.2857  0.0617
  603TMC3    C1 8932   2.403   1.899  11.554 -0.3361 -0.4106  0.4458
  603TMC3    C2 8933   2.387   1.891  11.689  0.8657  0.3591  0.0373
  603TMC3    C3 8934   2.356   2.010  11.753  0.8095  0.7780 -0.8505
  603TMC3    C4 8935   2.391   2.018  11.480  0.3733  0.5881  0.4445
  603TMC3    C5 8936   2.376   2.133  11.558  0.1625  0.3349 -0.5652
  603TMC3    C6 8937   2.371   2.139  11.699 -0.8407 -0.2983 -0.3029
  603TMC3     C 8938   2.358   1.782  11.479 -0.3551 -0.5933 -0.0958
  603TMC3     O 8939   2.371   1.780  11.357 -0.1886  0.1979  0.5046
  603TMC3     H 8940   2.404   1.805  11.753  3.2808 -0.0032 -1.1011
  603TMC3    H1 8941   2.372   2.006  11.374  0.2435 -1.7454  0.7408
  603TMC3    H2 8942   2.337   2.232  11.745 -0.9170  0.1739 -1.3265
  603TMC3    C7 8943   2.270   2.226  11.508 -0.1186  0.1350 -0.6875
  603TMC3    C8 8944   2.308   1.996  11.890 -0.1021 -0.2675 -0.4813
  603TMC3    O1 8945   2.273   2.331  11.561 -0.7855  0.2762 -0.0955
  603TMC3    O2 8946   2.277   1.881  11.912 -0.0211 -0.3590 -0.0149
  604MPD2     C 8947   1.667   0.171  16.806 -0.3601  0.4984  0.1311
  604MPD2    C1 8948   1.575   0.224  16.725 -0.4128 -0.3121 -0.1906
  604MPD2    C2 8949   1.601   0.208  16.591  0.0394 -0.4679 -0.2595
  604MPD2    C3 8950   1.712   0.149  16.540  0.5809  0.0412 -0.2939
  604MPD2    C4 8951   1.797   0.086  16.630  0.5270 -0.7812  0.0181
  604MPD2    C5 8952   1.772   0.096  16.763  0.1817  0.2795  0.7304
  604MPD2     H 8953   1.533   0.257  16.522 -0.5757  0.1376  0.7612
  604MPD2    H1 8954   1.880   0.028  16.591  0.6020 -0.9240  0.3872
  604MPD2    H2 8955   1.660   0.182  16.913 -0.8131  0.0918  0.1427
  604MPD2    H3 8956   1.838   0.047  16.834  0.3450 -1.8899 -0.9423
  604MPD2     N 8957   1.737   0.178  16.407  0.0308 -0.5116  0.1181
  604MPD2    H5 8958   1.653   0.207  16.358  0.0147 -0.5198  0.1410
  604MPD2    N1 8959   1.468   0.299  16.778  0.6766  0.1690 -0.1454
  604MPD2    H7 8960   1.490   0.324  16.874  3.3541 -0.0504 -0.7062
  605TMC3    C1 8961   1.288   0.454  16.779 -0.3378  0.0849 -0.4662
  605TMC3    C2 8962   1.374   0.524  16.863  0.0320 -0.7770 -0.2497
  605TMC3    C3 8963   1.356   0.659  16.869  0.7013  0.4152 -0.0858
  605TMC3    C4 8964   1.197   0.521  16.705 -0.2877  0.2598  0.0966
  605TMC3    C5 8965   1.183   0.659  16.718  0.1479 -0.3807 -0.2769
  605TMC3    C6 8966   1.264   0.732  16.797  0.3818  0.4879  0.0080
  605TMC3     C 8967   1.360   0.349  16.709 -0.1486 -0.3981 -0.0480
  605TMC3     O 8968   1.323   0.320  16.594 -0.1546  0.2329 -0.8135
  605TMC3     H 8969   1.440   0.481  16.938 -0.3848  2.5766  2.0567
  605TMC3    H1 8970   1.122   0.460  16.655  0.2274  0.0607 -0.4337
  605TMC3    H2 8971   1.263   0.839  16.783 -1.0731  0.8091  2.5428
  605TMC3    C7 8972   1.064   0.726  16.670 -0.6969 -0.2234  0.6774
  605TMC3    C8 8973   1.486   0.717  16.884 -0.4894 -0.2041 -0.6440
  605TMC3    O1 8974   1.030   0.827  16.726  0.1579  0.3315 -1.0002
  605TMC3    O2 8975   1.579   0.641  16.855 -0.0265 -0.1072  0.1642
  606TMC3    C1 8976   2.730   3.400   0.814 -0.0388 -0.3286  0.3797
  606TMC3    C2 8977   2.836   3.483   0.770 -0.3670  0.0750  0.1969
  606TMC3    C3 8978   2.852   3.483   0.634 -0.3951 -1.5537  0.1061
  606TMC3    C4 8979   2.659   3.310   0.732  0.7495 -0.2066 -0.1562
  606TMC3    C5 8980   2.687   3.312   0.600  0.5688 -0.2504 -0.3992
  606TMC3    C6 8981   2.773   3.406   0.545 -0.3770 -0.6410  0.3950
  606TMC3     C 8982   2.687   3.413   0.946  0.7375  0.7182 -0.3449
  606TMC3     O 8983   2.570   3.379   0.973 -0.6499  0.3810 -0.0285
  606TMC3     H 8984   2.893   3.546   0.837 -1.6633 -1.4066  2.7192
  606TMC3    H1 8985   2.585   3.243   0.775  2.2253 -2.1185 -0.5908
  606TMC3    H2 8986   2.801   3.394   0.440 -0.4997  0.1241  0.2761
  606TMC3    C7 8987   2.623   3.213   0.518  0.1623 -0.2245 -0.1738
  606TMC3    C8 8988   2.924   3.594   0.585  0.1048  0.1330 -0.1243
  606TMC3    O1 8989   2.582   3.118   0.579  0.0170  0.0420 -0.8761
  606TMC3    O2 8990   2.975   3.671   0.665  0.6110 -0.2788  0.3391
  607MPD2     C 8991   0.431   2.443  12.182 -0.4089  0.8514  0.4985
  607MPD2    C1 8992   0.480   2.497  12.298 -0.4158 -0.1162 -0.3206
  607MPD2    C2 8993   0.483   2.415  12.414  0.5452  0.4799 -0.1235
  607MPD2    C3 8994   0.453   2.283  12.406  0.2872 -0.2032  0.0810
  607MPD2    C4 8995   0.394   2.238  12.292  0.3277  0.2112 -0.3656
  607MPD2    C5 8996   0.391   2.313  12.177 -0.5580 -0.6293  0.4993
  607MPD2     H 8997   0.526   2.452  12.507  2.9369  0.1812 -1.0931
  607MPD2    H1 8998   0.363   2.134  12.293  2.3426 -0.3986  0.0015
  607MPD2    H2 8999   0.424   2.500  12.090 -0.6688  0.9552  0.5836
  607MPD2    H3 9000   0.335   2.276  12.092 -0.0525 -0.5385  0.1257
  607MPD2     N 9001   0.478   2.208  12.522 -0.4091 -0.4824  0.6600
  607MPD2    H5 9002   0.511   2.262  12.601 -1.9144  1.4919 -0.0635
  607MPD2    N1 9003   0.533   2.628  12.314 -0.5721 -0.0481 -0.0220
  607MPD2    H7 9004   0.555   2.658  12.408 -0.1786 -0.1087 -0.0917
  608TMC3    C1 9005   0.657   2.826  12.247 -0.3080 -0.2109 -0.6415
  608TMC3    C2 9006   0.697   2.841  12.380 -0.8502 -0.2903  0.5440
  608TMC3    C3 9007   0.822   2.888  12.400 -0.3950  0.4108  0.7858
  608TMC3    C4 9008   0.741   2.876  12.145  0.2077  0.0133 -0.1625
  608TMC3    C5 9009   0.859   2.940  12.185  0.0954  0.3492  0.9533
  608TMC3    C6 9010   0.910   2.942  12.311  0.4371 -0.4826 -0.2463
  608TMC3     C 9011   0.569   2.714  12.212  0.4087  0.8647 -1.4210
  608TMC3     O 9012   0.564   2.687  12.091 -0.1311 -0.0699 -0.0440
  608TMC3     H 9013   0.647   2.800  12.468  0.3537  1.7249  2.1729
  608TMC3    H1 9014   0.716   2.872  12.040 -0.7061  2.2221 -0.0097
  608TMC3    H2 9015   1.008   2.972  12.347  0.1577  0.4364 -0.2476
  608TMC3    C7 9016   0.946   2.984  12.074  0.4889 -0.3986 -1.0224
  608TMC3    C8 9017   0.889   2.859  12.521 -0.3464  0.2834  0.0257
  608TMC3    O1 9018   0.915   2.948  11.960 -0.2841  0.5335 -0.7894
  608TMC3    O2 9019   0.987   2.924  12.557  0.3699 -0.0167 -0.0275
  609TMC3    C1 9020   3.680   1.350   9.201  0.9465  0.2452 -0.1793
  609TMC3    C2 9021   3.755   1.444   9.259  0.1117  0.3198  0.4873
  609TMC3    C3 9022   3.888   1.435   9.250  0.0416 -0.0497  0.2932
  609TMC3    C4 9023   3.738   1.240   9.146  0.3798 -0.5171 -0.0075
  609TMC3    C5 9024   3.874   1.234   9.143  0.0454  0.1062 -0.2597
  609TMC3    C6 9025   3.954   1.337   9.188  0.1451 -0.1205 -0.4259
  609TMC3     C 9026   3.542   1.366   9.212  0.2843  0.4114  0.2257
  609TMC3     O 9027   3.496   1.436   9.300 -0.0624  0.3684  0.4753
  609TMC3     H 9028   3.698   1.525   9.304 -0.5959  0.3772 -0.5274
  609TMC3    H1 9029   3.681   1.151   9.126  1.5146 -0.6868 -2.5522
  609TMC3    H2 9030   4.062   1.335   9.173  0.1347 -3.4257 -0.0776
  609TMC3    C7 9031   3.940   1.114   9.095 -1.2110 -0.5369 -0.2226
  609TMC3    C8 9032   3.956   1.551   9.296  0.7853  0.4366  1.2705
  609TMC3    O1 9033   4.062   1.119   9.101 -0.3744  0.4519 -0.5022
  609TMC3    O2 9034   3.890   1.636   9.349 -0.4020 -0.1173  0.1646
  610TMC3    C1 9035   1.209   2.371  12.697  0.4036 -0.0904 -0.5711
  610TMC3    C2 9036   1.291   2.475  12.729 -0.2747 -0.3089 -0.5052
  610TMC3    C3 9037   1.373   2.458  12.841  0.0584  0.5409  0.5939
  610TMC3    C4 9038   1.200   2.262  12.778 -0.1862 -0.4555 -0.7694
  610TMC3    C5 9039   1.274   2.253  12.893 -0.4851  0.1404 -0.0022
  610TMC3    C6 9040   1.365   2.353  12.926 -0.0329  0.5025 -0.1470
  610TMC3     C 9041   1.117   2.379  12.586 -0.0872 -0.4983 -0.2333
  610TMC3     O 9042   1.028   2.294  12.589 -0.3041  0.3440 -0.2525
  610TMC3     H 9043   1.293   2.566  12.670  0.6727  1.0484  1.6190
  610TMC3    H1 9044   1.130   2.184  12.754 -2.1398  0.5679  1.6123
  610TMC3    H2 9045   1.430   2.342  13.012 -0.5329 -1.9867 -0.0919
  610TMC3    C7 9046   1.303   2.123  12.948  0.1071  0.3603 -0.0744
  610TMC3    C8 9047   1.497   2.540  12.848 -0.4522  0.2852  0.3417
  610TMC3    O1 9048   1.356   2.123  13.060  0.4438  0.4850 -0.3837
  610TMC3    O2 9049   1.582   2.503  12.931  0.0675 -0.1011  0.2655
  611MPD2     C 9050   1.107   2.429  10.499 -0.4130  0.0668 -0.5767
  611MPD2    C1 9051   1.113   2.289  10.483 -0.0898 -0.0342 -0.4015
  611MPD2    C2 9052   1.232   2.224  10.509 -0.4584 -0.2024  0.2330
  611MPD2    C3 9053   1.347   2.301  10.535  0.1454 -0.2102 -0.7020
  611MPD2    C4 9054   1.342   2.443  10.540 -0.2374 -0.0482  0.4491
  611MPD2    C5 9055   1.218   2.509  10.520 -0.0869  0.8374  0.3233
  611MPD2     H 9056   1.228   2.117  10.526  0.0943 -0.4681 -1.3483
  611MPD2    H1 9057   1.427   2.505  10.567 -1.6138  0.8165  2.8428
  611MPD2    H2 9058   1.008   2.472  10.497 -0.4428  0.0240  0.0480
  611MPD2    H3 9059   1.218   2.617  10.517  3.3272  0.9071  2.4796
  611MPD2     N 9060   1.465   2.243  10.580  0.2572 -0.8570  0.1763
  611MPD2    H5 9061   1.533   2.305  10.623 -0.3861  0.2364 -0.3684
  611MPD2    N1 9062   0.991   2.225  10.464  0.3388 -0.1817 -0.2581
  611MPD2    H7 9063   0.908   2.283  10.453 -0.0270 -0.6733 -0.0488
  612TMC3    C1 9064   1.612   2.086  10.658  0.1600  1.0052  0.4590
  612TMC3    C2 9065   1.618   2.137  10.785 -0.0029 -0.1280  0.5368
  612TMC3    C3 9066   1.705   2.086  10.877 -0.2996 -0.6020 -0.7827
  612TMC3    C4 9067   1.683   1.980  10.617  0.4396  0.5408 -0.2586
  612TMC3    C5 9068   1.769   1.924  10.711  0.5000 -0.5337  0.3534
  612TMC3    C6 9069   1.777   1.973  10.841 -0.0218  0.2762  0.1029
  612TMC3     C 9070   1.497   2.114  10.572 -0.1403 -0.4510 -0.0598
  612TMC3     O 9071   1.447   2.025  10.505 -0.2267  0.2394 -0.3496
  612TMC3     H 9072   1.566   2.230  10.802  0.6055  0.1224  1.0267
  612TMC3    H1 9073   1.665   1.942  10.517  0.9634 -1.5318  0.4324
  612TMC3    H2 9074   1.857   1.933  10.903 -1.2687 -2.2499  0.1029
  612TMC3    C7 9075   1.803   1.788  10.674 -0.0644 -0.3095 -0.6052
  612TMC3    C8 9076   1.751   2.184  10.973  0.0268 -0.0705 -0.4913
  612TMC3    O1 9077   1.779   1.755  10.560 -0.1983  0.2052 -0.2242
  612TMC3    O2 9078   1.729   2.299  10.942 -0.3919  0.0356  0.6592
  613MPD2     C 9079   0.351   4.495  16.246  0.1603 -0.1130 -0.0277
  613MPD2    C1 9080   0.252   4.554  16.180  0.5322  0.4703  0.1314
  613MPD2    C2 9081   0.131   4.576  16.241 -0.2899 -0.4659  0.3928
  613MPD2    C3 9082   0.106   4.525  16.366  0.6541 -0.0104  0.3345
  613MPD2    C4 9083   0.209   4.459  16.432  0.2180  1.0578 -0.7589
  613MPD2    C5 9084   0.331   4.454  16.378 -0.0595 -0.1858  0.2398
  613MPD2     H 9085   0.062   4.635  16.182  0.3525 -0.4596 -0.3478
  613MPD2    H1 9086   0.198   4.420  16.533 -3.7479 -1.2530 -2.0922
  613MPD2    H2 9087   0.442   4.487  16.189 -0.1302 -1.8321 -0.2510
  613MPD2    H3 9088   0.416   4.423  16.437 -0.5368  0.4557  1.2523
  613MPD2     N 9089   4.702   4.522  16.429 -0.1660 -0.0398  0.0150
  613MPD2    H5 9090   4.710   4.478  16.520 -1.1992  0.7209  0.4749
  613MPD2    N1 9091   0.275   4.581  16.046  0.1394  0.2885 -0.2731
  613MPD2    H7 9092   0.374   4.598  16.027  0.4793  1.0490  2.2094
  614TMC3    C1 9093   0.057   4.543  15.941  0.7829  0.6200 -0.5304
  614TMC3    C2 9094   0.030   4.426  15.995  0.3227 -0.2893 -0.1456
  614TMC3    C3 9095   4.628   4.384  15.978 -0.8779 -0.4240 -0.0693
  614TMC3    C4 9096   4.697   4.616  15.867 -0.1750  0.0644  0.1084
  614TMC3    C5 9097   4.569   4.558  15.841  0.0447  0.6832 -0.1955
  614TMC3    C6 9098   4.533   4.441  15.911 -1.0371  0.7913  0.5064
  614TMC3     C 9099   0.187   4.609  15.946  0.5700  0.3455  0.7923
  614TMC3     O 9100   0.205   4.660  15.832  0.2105 -0.2881 -0.1432
  614TMC3     H 9101   0.105   4.379  16.058 -0.4219 -0.7172  0.4203
  614TMC3    H1 9102   4.717   4.719  15.839  1.0482 -0.0677  0.5247
  614TMC3    H2 9103   4.433   4.400  15.902 -0.5273 -0.3225 -0.1720
  614TMC3    C7 9104   4.471   4.644  15.793  0.0559 -0.5961  0.5771
  614TMC3    C8 9105   4.572   4.294  16.074 -0.9014  0.0594 -0.0777
  614TMC3    O1 9106   4.483   0.037  15.814  0.7547 -0.3359 -0.2237
  614TMC3    O2 9107   4.456   4.286  16.088  0.1948 -0.4034 -0.6329
  615MPD2     C 9108   3.553   1.022  16.849 -0.8406  0.1325  0.2560
  615MPD2    C1 9109   3.545   1.145  16.780 -0.2626  0.2249  0.2473
  615MPD2    C2 9110   3.584   1.148  16.645 -0.5390 -0.1364  0.4831
  615MPD2    C3 9111   3.614   1.030  16.579  0.1745 -0.0627  1.3006
  615MPD2    C4 9112   3.611   0.906  16.646  0.1315  0.4893 -0.0374
  615MPD2    C5 9113   3.583   0.911  16.780  0.5262  0.0588 -0.4113
  615MPD2     H 9114   3.577   1.242  16.591 -0.4724 -0.0939  0.5480
  615MPD2    H1 9115   3.620   0.811  16.596 -1.8374 -1.1391  2.6919
  615MPD2    H2 9116   3.553   1.018  16.957  1.1813 -0.2781  0.2476
  615MPD2    H3 9117   3.582   0.820  16.838 -2.5435  1.3116  1.4666
  615MPD2     N 9118   3.626   1.025  16.436 -0.2942 -0.4119  0.5517
  615MPD2    H5 9119   3.646   0.932  16.401  0.5019  0.2000 -0.5976
  615MPD2    N1 9120   3.492   1.261  16.832 -0.7788 -0.1477  0.6972
  615MPD2    H7 9121   3.481   1.337  16.766 -1.6016 -3.0000 -2.4963
  616TMC3    C1 9122   3.403   1.407  16.999  0.0676  0.0213  0.0706
  616TMC3    C2 9123   3.420   1.506  16.911  0.7717 -0.1687  0.4821
  616TMC3    C3 9124   3.344   1.616  16.928  0.2730 -1.0651 -0.2943
  616TMC3    C4 9125   3.324   1.412  17.107  0.2851  0.0689 -0.2168
  616TMC3    C5 9126   3.249   1.529  17.124 -0.4654  1.3326 -0.1577
  616TMC3    C6 9127   3.260   1.637  17.038  0.8185  0.0130  0.2816
  616TMC3     C 9128   3.462   1.279  16.964  0.5074 -0.3113 -0.1591
  616TMC3     O 9129   3.454   1.198  17.055 -0.2223  0.6332 -0.0335
  616TMC3     H 9130   3.487   1.506  16.826 -0.0901 -1.3463 -0.1847
  616TMC3    H1 9131   3.305   1.324  17.168 -1.0546 -0.0898 -0.8453
  616TMC3    H2 9132   3.220   1.734  17.066  2.0391  0.7495 -0.5615
  616TMC3    C7 9133   3.140   1.517  17.219 -0.4829  0.2028 -0.1569
  616TMC3    C8 9134   3.386   1.739  16.863 -0.2989 -0.5972 -0.2561
  616TMC3    O1 9135   3.132   1.412  17.279  0.4636 -0.0119  0.1089
  616TMC3    O2 9136   3.303   1.821  16.829 -0.8651 -0.1715 -0.3764
  617MPD2     C 9137   2.108   3.817  14.147  0.0504  0.3502 -0.8460
  617MPD2    C1 9138   2.098   3.786  14.284 -0.1742 -0.9669 -0.3846
  617MPD2    C2 9139   1.974   3.786  14.344  0.5525  0.3803 -0.0027
  617MPD2    C3 9140   1.867   3.830  14.264 -0.2891 -0.1295 -0.4766
  617MPD2    C4 9141   1.878   3.853  14.133  0.1187 -0.1634 -0.1954
  617MPD2    C5 9142   1.998   3.854  14.073  0.5374  0.5839  0.2095
  617MPD2     H 9143   1.952   3.759  14.446  1.6202  1.2584  0.4539
  617MPD2    H1 9144   1.790   3.880  14.075 -0.3720 -1.2082  0.0657
  617MPD2    H2 9145   2.203   3.810  14.095  1.0592 -0.2836  1.0788
  617MPD2    H3 9146   2.010   3.883  13.969  0.7773 -1.7668 -0.4121
  617MPD2     N 9147   1.741   3.839  14.314  0.1365 -0.9585  0.3136
  617MPD2    H5 9148   1.678   3.890  14.253 -0.2114 -0.1091  1.3847
  617MPD2    N1 9149   2.221   3.767  14.347 -0.4942  0.2432 -0.1325
  617MPD2    H7 9150   2.306   3.768  14.291 -0.2247  2.6579  0.2879
  618TMC3    C1 9151   2.362   3.716  14.521 -0.2133  0.0702  0.2487
  618TMC3    C2 9152   2.387   3.591  14.577 -0.2780 -0.4003  0.3812
  618TMC3    C3 9153   2.514   3.538  14.555  0.0921 -0.0051 -0.2541
  618TMC3    C4 9154   2.459   3.784  14.448 -0.6880  0.0207  0.6906
  618TMC3    C5 9155   2.584   3.726  14.421 -0.3803 -0.4106 -0.2805
  618TMC3    C6 9156   2.608   3.604  14.481  0.4304 -0.3921 -0.3173
  618TMC3     C 9157   2.229   3.741  14.483 -1.0269 -0.2335 -0.2579
  618TMC3     O 9158   2.138   3.701  14.553  0.1318 -0.2730  0.4727
  618TMC3     H 9159   2.310   3.545  14.638  0.6070 -1.8492  0.4028
  618TMC3    H1 9160   2.426   3.878  14.406 -2.7013 -0.0553  2.1482
  618TMC3    H2 9161   2.704   3.554  14.467  1.0224 -0.3438  3.5213
  618TMC3    C7 9162   2.623   3.745  14.279 -0.5354  0.4572 -0.2232
  618TMC3    C8 9163   2.530   3.399  14.561  0.7599  0.7539 -0.3345
  618TMC3    O1 9164   2.576   3.841  14.219  0.4025 -0.1173 -0.0737
  618TMC3    O2 9165   2.540   3.347  14.672 -0.0852  0.3316  0.5634
  619MPD2     C 9166   3.420   0.107  14.045  0.2429 -0.0622 -0.3231
  619MPD2    C1 9167   3.372   0.222  13.991 -0.5770  0.2008 -0.2596
  619MPD2    C2 9168   3.239   0.230  13.960 -0.1848 -0.2125 -0.4322
  619MPD2    C3 9169   3.147   0.132  13.981 -0.3270  0.5073  0.5820
  619MPD2    C4 9170   3.196   0.014  14.036 -0.1908  0.2101 -0.4815
  619MPD2    C5 9171   3.330   0.007  14.066 -0.0508 -0.1123 -0.1916
  619MPD2     H 9172   3.198   0.325  13.927  1.2947  1.6152  3.0161
  619MPD2    H1 9173   3.133   4.653  14.047 -1.3421  1.2371  0.9646
  619MPD2    H2 9174   3.519   0.081  14.080 -1.4555 -3.0371  2.2293
  619MPD2    H3 9175   3.382   4.638  14.074 -2.4262 -1.5572 -1.9986
  619MPD2     N 9176   3.012   0.143  13.934  1.2591  0.5190  0.3948
  619MPD2    H5 9177   2.948   0.067  13.953  0.0111  0.8027 -2.6553
  619MPD2    N1 9178   3.444   0.346  13.974  0.2726 -0.6008 -0.8969
  619MPD2    H7 9179   3.396   0.423  13.927  2.2165  0.8495 -0.5004
  620TMC3    C1 9180   3.613   0.495  13.974 -0.3501  0.4570  0.5518
  620TMC3    C2 9181   3.613   0.523  13.842  0.3016 -0.0202 -0.5752
  620TMC3    C3 9182   3.626   0.653  13.797  0.5158 -0.1666 -0.3568
  620TMC3    C4 9183   3.638   0.591  14.063  0.6237  0.3613 -0.2979
  620TMC3    C5 9184   3.649   0.719  14.027  0.0818  0.4818 -0.5808
  620TMC3    C6 9185   3.658   0.753  13.893 -0.3726  0.7601  0.8284
  620TMC3     C 9186   3.572   0.365  14.011 -0.1817  0.2322 -0.2735
  620TMC3     O 9187   3.646   0.297  14.082 -0.1397 -0.2116  0.0814
  620TMC3     H 9188   3.593   0.439  13.777 -1.0701  0.3861 -0.6754
  620TMC3    H1 9189   3.633   0.568  14.168 -1.2855  0.2321 -0.4157
  620TMC3    H2 9190   3.665   0.859  13.873 -1.4263  0.8330  0.8668
  620TMC3    C7 9191   3.573   0.810  14.113  0.0449 -0.3653 -0.1647
  620TMC3    C8 9192   3.511   0.695  13.723 -0.2743 -0.9884 -0.4930
  620TMC3    O1 9193   3.591   0.795  14.234 -0.7156 -0.3509 -0.6304
  620TMC3    O2 9194   3.457   0.801  13.748  0.3359  0.5228  0.3613
  621MPD2     C 9195   3.381   0.940  10.532 -0.3031 -0.4785 -0.7846
  621MPD2    C1 9196   3.470   0.866  10.454  0.6017  0.3170 -0.1035
  621MPD2    C2 9197   3.472   0.875  10.319 -0.5244 -0.3184 -0.4374
  621MPD2    C3 9198   3.408   0.983  10.263 -0.1316  0.4479  0.3484
  621MPD2    C4 9199   3.316   1.054  10.335 -0.0884  0.3270 -0.2692
  621MPD2    C5 9200   3.299   1.034  10.470  0.6498 -0.0371  0.4350
  621MPD2     H 9201   3.547   0.817  10.266 -1.6331 -2.4105  0.2688
  621MPD2    H1 9202   3.250   1.130  10.295 -1.8456  0.4892  2.8905
  621MPD2    H2 9203   3.361   0.926  10.638 -0.3987  1.4364 -0.5442
  621MPD2    H3 9204   3.232   1.101  10.523 -0.0006  1.2757 -2.0474
  621MPD2     N 9205   3.430   1.008  10.127  0.7043  0.8653 -0.7516
  621MPD2    H5 9206   3.418   1.106  10.104  0.5524  0.8876 -0.5753
  621MPD2    N1 9207   3.549   0.764  10.500  0.7987  0.0611 -0.1192
  621MPD2    H7 9208   3.606   0.714  10.433 -0.8992 -1.4301 -0.4375
  622TMC3    C1 9209   3.604   0.586  10.641 -0.2314  0.0208 -0.2889
  622TMC3    C2 9210   3.602   0.544  10.768  0.1518 -0.6140  0.3077
  622TMC3    C3 9211   3.575   0.416  10.803  0.7860  0.0761  0.0743
  622TMC3    C4 9212   3.579   0.491  10.544 -0.8785 -0.1549  0.4954
  622TMC3    C5 9213   3.549   0.363  10.580  0.0634  0.2142 -0.6090
  622TMC3    C6 9214   3.559   0.321  10.709 -0.2602 -0.1814  1.0177
  622TMC3     C 9215   3.540   0.712  10.629  0.4068 -0.1327  0.8482
  622TMC3     O 9216   3.486   0.752  10.730 -0.2072  0.5849 -0.6038
  622TMC3     H 9217   3.625   0.609  10.851  0.9756 -0.9835  0.3674
  622TMC3    H1 9218   3.568   0.525  10.442 -1.6437  0.8527  0.9013
  622TMC3    H2 9219   3.532   0.219  10.730 -0.3703 -0.4898 -0.6424
  622TMC3    C7 9220   3.450   0.290  10.505  0.7962  0.0339 -0.4513
  622TMC3    C8 9221   3.470   0.405  10.904 -0.0487  0.3781 -0.0818
  622TMC3    O1 9222   3.376   0.211  10.567  0.4375 -0.0452 -0.2540
  622TMC3    O2 9223   3.450   0.295  10.955  0.8970 -0.5421 -0.5540
  623MPD2     C 9224   1.721   0.617  16.121  0.4942  0.1436  0.6630
  623MPD2    C1 9225   1.680   0.626  16.252 -0.5173 -0.1519 -0.4419
  623MPD2    C2 9226   1.776   0.653  16.346 -0.1806 -0.0834 -0.0399
  623MPD2    C3 9227   1.912   0.656  16.316  0.8638  0.5016  0.4876
  623MPD2    C4 9228   1.953   0.641  16.187  0.0927  1.0793 -0.7816
  623MPD2    C5 9229   1.856   0.637  16.089  0.4526 -0.4245 -0.4928
  623MPD2     H 9230   1.732   0.681  16.441 -0.4107 -0.1988 -0.1129
  623MPD2    H1 9231   2.058   0.647  16.161  0.0319  0.6198 -1.1269
  623MPD2    H2 9232   1.647   0.597  16.045 -0.6303 -0.0456  1.8240
  623MPD2    H3 9233   1.889   0.639  15.986 -0.8128 -1.9301 -0.9304
  623MPD2     N 9234   2.000   0.688  16.418  0.0641 -0.0721 -0.3533
  623MPD2    H5 9235   1.955   0.710  16.506 -1.3053 -3.4680 -0.2333
  623MPD2    N1 9236   1.537   0.630  16.281 -0.0827 -0.2169  0.2378
  623MPD2    H7 9237   1.469   0.653  16.210  2.0562  0.7502 -1.5123
  624TMC3    C1 9238   2.302   0.928  16.640 -1.4401 -0.3951  0.1147
  624TMC3    C2 9239   2.218   0.907  16.744 -0.3379  0.5258 -0.4682
  624TMC3    C3 9240   2.117   0.812  16.753  0.1118  0.9033  0.9323
  624TMC3    C4 9241   2.288   0.844  16.534  0.4216  0.4285 -0.6158
  624TMC3    C5 9242   2.194   0.742  16.541 -0.1413 -0.2062 -0.0546
  624TMC3    C6 9243   2.106   0.725  16.647  0.6756 -0.7172  0.6546
  624TMC3     C 9244   2.430   0.979  16.672 -0.4094  0.1803  0.0404
  624TMC3     O 9245   2.456   0.999  16.789 -0.0671 -0.6462 -0.7550
  624TMC3     H 9246   2.232   0.971  16.830 -0.2064  1.8965 -1.5173
  624TMC3    H1 9247   2.343   0.861  16.442  3.3269 -0.5319  0.9301
  624TMC3    H2 9248   2.040   0.640  16.662  0.5477 -0.8993 -1.0073
  624TMC3    C7 9249   2.141   0.706  16.412  0.3202  0.2091 -0.1614
  624TMC3    C8 9250   2.017   0.810  16.858  0.3047 -0.3592 -0.5580
  624TMC3    O1 9251   2.216   0.692  16.312 -0.6737  0.0060 -0.0016
  624TMC3    O2 9252   1.958   0.702  16.865 -0.0211 -0.0675 -0.5270
  625MPD2     C 9253   2.694   3.155   1.397  0.7093 -0.5596 -0.1122
  625MPD2    C1 9254   2.683   3.132   1.257  0.8762  0.3621 -0.3450
  625MPD2    C2 9255   2.799   3.133   1.180 -0.2325 -0.2113 -0.5622
  625MPD2    C3 9256   2.921   3.167   1.235 -0.1874  0.1841  0.5293
  625MPD2    C4 9257   2.929   3.192   1.369  0.2844  0.5325  1.1592
  625MPD2    C5 9258   2.810   3.189   1.446 -0.5878  0.1056  0.9284
  625MPD2     H 9259   2.796   3.093   1.080 -0.2766 -1.8698  0.1012
  625MPD2    H1 9260   3.023   3.209   1.419  0.4265  1.4486  0.5918
  625MPD2    H2 9261   2.608   3.139   1.462  1.4046 -1.1168  0.6687
  625MPD2    H3 9262   2.818   3.198   1.553  1.6501 -0.9075  0.8402
  625MPD2     N 9263   3.029   3.179   1.143  0.2213  0.2380  0.5494
  625MPD2    H5 9264   3.011   3.149   1.047 -0.2739  2.3867 -0.0163
  625MPD2    N1 9265   2.563   3.110   1.192  0.2679 -0.1131  0.0995
  625MPD2    H7 9266   2.566   3.075   1.097 -0.2152  0.3827 -0.0941
  626TMC3    C1 9267   2.325   3.116   1.161 -0.0556  0.0333  0.0379
  626TMC3    C2 9268   2.337   3.050   1.041 -0.7600  0.0683 -0.1742
  626TMC3    C3 9269   2.223   3.015   0.976 -0.0292  0.6479  0.7504
  626TMC3    C4 9270   2.202   3.138   1.221 -0.4348 -0.3807  0.1952
  626TMC3    C5 9271   2.094   3.090   1.151 -0.0545 -0.1580 -0.0667
  626TMC3    C6 9272   2.094   3.047   1.020 -0.0578 -0.3497 -0.6603
  626TMC3     C 9273   2.442   3.159   1.233 -0.2986 -0.4263 -0.1170
  626TMC3     O 9274   2.424   3.215   1.341  0.3466 -0.1355 -0.2312
  626TMC3     H 9275   2.433   3.030   0.994 -1.3583  1.5740 -2.0355
  626TMC3    H1 9276   2.195   3.189   1.316  0.2287 -0.5867  0.3521
  626TMC3    H2 9277   2.014   3.009   0.958 -0.0278 -0.7565 -0.4545
  626TMC3    C7 9278   1.968   3.095   1.221  0.1876  0.5458 -0.7311
  626TMC3    C8 9279   2.234   2.963   0.837  0.1600  0.7912  0.1567
  626TMC3    O1 9280   1.965   3.129   1.337 -0.5536  0.0942  0.0555
  626TMC3    O2 9281   2.336   2.982   0.776  0.4475  0.0669  0.7400
  627MPD2     C 9282   1.510   2.855  14.534  0.6518  0.7966 -0.5196
  627MPD2    C1 9283   1.445   2.809  14.641 -0.1958 -0.2179 -0.6630
  627MPD2    C2 9284   1.348   2.710  14.623  0.2877  0.0092  0.6647
  627MPD2    C3 9285   1.323   2.651  14.496  0.2474  0.2984 -0.1615
  627MPD2    C4 9286   1.401   2.696  14.390 -0.9101  0.2309 -0.2316
  627MPD2    C5 9287   1.494   2.800  14.407 -0.6187 -0.3057 -0.7462
  627MPD2     H 9288   1.293   2.675  14.710 -1.5401  0.8481 -0.1347
  627MPD2    H1 9289   1.392   2.648  14.294  0.7002  0.4793 -0.5102
  627MPD2    H2 9290   1.588   2.928  14.550  1.0513  0.5485 -1.3029
  627MPD2    H3 9291   1.564   2.838  14.333  0.0493 -1.5372 -0.7472
  627MPD2     N 9292   1.232   2.542  14.493 -0.0784  0.0780 -0.4027
  627MPD2    H5 9293   1.173   2.523  14.574 -1.3858  0.1648 -1.3223
  627MPD2    N1 9294   1.466   2.860  14.774  0.5460  0.3440 -0.2499
  627MPD2    H7 9295   1.424   2.816  14.855  0.4479 -0.9076 -0.9859
  628TMC3    C1 9296   1.553   2.979  14.951  0.1593  0.0462  0.0778
  628TMC3    C2 9297   1.582   2.874  15.033  0.0791  0.0018 -0.2220
  628TMC3    C3 9298   1.600   2.909  15.164  0.2203 -0.5923 -0.4348
  628TMC3    C4 9299   1.515   3.103  14.999  0.2322 -0.1879  0.2808
  628TMC3    C5 9300   1.529   3.135  15.126 -0.3730 -0.1703  0.3888
  628TMC3    C6 9301   1.579   3.036  15.208 -0.3489 -0.5540 -0.2422
  628TMC3     C 9302   1.551   2.965  14.802 -0.7166 -0.8070  0.1143
  628TMC3     O 9303   1.593   3.055  14.733  0.1071  0.6685  0.8562
  628TMC3     H 9304   1.639   2.789  14.995  0.7764 -0.3379  1.5528
  628TMC3    H1 9305   1.505   3.173  14.917  1.1407 -0.1954  0.1626
  628TMC3    H2 9306   1.598   3.060  15.312 -1.3220  0.6530 -0.3347
  628TMC3    C7 9307   1.540   3.273  15.160  0.2600  0.4511  0.7068
  628TMC3    C8 9308   1.685   2.836  15.244  0.1241 -0.2275  0.6296
  628TMC3    O1 9309   1.599   3.280  15.266 -0.0389  0.6421  0.1509
  628TMC3    O2 9310   1.767   2.899  15.305 -0.1711 -0.0599  0.1409
  629MPD2     C 9311   3.810   2.008  16.731 -0.8101  0.3899 -0.3785
  629MPD2    C1 9312   3.851   1.893  16.800  0.3198 -0.7345  0.2418
  629MPD2    C2 9313   3.746   1.807  16.836  0.1044 -0.1620  0.1442
  629MPD2    C3 9314   3.612   1.842  16.817 -0.1633 -0.0093 -0.8646
  629MPD2    C4 9315   3.578   1.952  16.742 -0.2968 -0.9824 -0.0586
  629MPD2    C5 9316   3.679   2.037  16.706  0.0723  0.2017 -0.5891
  629MPD2     H 9317   3.761   1.719  16.898  3.0076  0.6667  0.6327
  629MPD2    H1 9318   3.476   1.980  16.717 -0.7804 -1.2092  1.6588
  629MPD2    H2 9319   3.892   2.068  16.695  0.6191 -0.5259  1.3763
  629MPD2    H3 9320   3.655   2.122  16.643 -0.1096  1.1217  0.7189
  629MPD2     N 9321   3.525   1.745  16.868  0.5587  0.3856 -0.9150
  629MPD2    H5 9322   3.561   1.668  16.924  2.7439  1.3718 -0.9522
  629MPD2    N1 9323   3.985   1.853  16.811 -0.3114  0.1451  0.4535
  629MPD2    H7 9324   4.061   1.908  16.772  0.5176 -2.7650 -2.0386
  630TMC3    C1 9325   4.179   1.727  16.888 -0.3136 -0.0733  0.1496
  630TMC3    C2 9326   4.264   1.799  16.811  0.2000  0.1674 -0.2729
  630TMC3    C3 9327   4.396   1.787  16.824 -0.2332  0.4411  0.5730
  630TMC3    C4 9328   4.220   1.620  16.966 -0.1348 -0.2245  0.8167
  630TMC3    C5 9329   4.355   1.613  16.978  0.3824 -0.6180 -0.1036
  630TMC3    C6 9330   4.441   1.695  16.917  0.2286 -0.0250 -0.1559
  630TMC3     C 9331   4.029   1.747  16.889 -0.1860 -0.1196  0.4368
  630TMC3     O 9332   3.973   1.678  16.975  0.8183  0.4832 -0.3899
  630TMC3     H 9333   4.226   1.857  16.727  0.7262 -0.6071 -1.0403
  630TMC3    H1 9334   4.149   1.565  17.027  1.1180 -1.1264  1.4530
  630TMC3    H2 9335   4.547   1.689  16.940  0.1948 -0.2591 -0.0626
  630TMC3    C7 9336   4.408   1.542  17.092  0.3550  0.0503  1.1294
  630TMC3    C8 9337   4.494   1.876  16.767  0.1354 -0.4048 -0.1651
  630TMC3    O1 9338   4.504   1.578  17.160 -0.2478 -0.0351  0.1846
  630TMC3    O2 9339   4.614   1.864  16.791  0.3028 -1.1019 -0.4049
  631MPD2     C 9340   2.942   0.956  15.765  0.2073  0.1168 -0.3596
  631MPD2    C1 9341   3.030   1.018  15.688 -0.7285 -0.1076  0.2702
  631MPD2    C2 9342   3.161   1.027  15.724 -0.6506  0.2212 -0.1240
  631MPD2    C3 9343   3.199   0.961  15.841  0.6439  0.0268 -0.3107
  631MPD2    C4 9344   3.105   0.898  15.921  0.1033  0.1177 -0.1991
  631MPD2    C5 9345   2.975   0.886  15.878  0.0930  0.3195 -0.0672
  631MPD2     H 9346   3.235   1.064  15.653  0.6256 -0.2128  0.9855
  631MPD2    H1 9347   3.132   0.864  16.020 -0.1156  3.6899  1.0868
  631MPD2    H2 9348   2.839   0.938  15.738  0.8202 -3.6120 -0.1859
  631MPD2    H3 9349   2.895   0.850  15.941 -0.3268 -0.9166 -1.3004
  631MPD2     N 9350   3.340   0.980  15.876  0.4279  0.3246  0.1980
  631MPD2    H5 9351   3.403   1.031  15.815 -1.3321 -1.4138 -3.0786
  631MPD2    N1 9352   2.970   1.084  15.576  0.0132  0.0127 -0.5079
  631MPD2    H7 9353   2.869   1.080  15.568  0.0210  0.1653 -0.6805
  632TMC3    C1 9354   2.919   1.244  15.406 -0.2352 -0.5758  0.1170
  632TMC3    C2 9355   2.798   1.259  15.467  0.5966 -0.0416 -0.3916
  632TMC3    C3 9356   2.706   1.328  15.398 -0.5682  0.3881  0.1709
  632TMC3    C4 9357   2.950   1.302  15.291  0.9283  0.9344  0.2686
  632TMC3    C5 9358   2.855   1.376  15.228  0.2666  0.3362  0.9027
  632TMC3    C6 9359   2.729   1.394  15.282  0.0671 -0.0242 -0.3830
  632TMC3     C 9360   3.024   1.169  15.486 -0.0357  0.1702  0.8250
  632TMC3     O 9361   3.143   1.198  15.475 -0.0005  0.0188 -0.0247
  632TMC3     H 9362   2.769   1.219  15.564  0.1336 -1.2340 -1.0205
  632TMC3    H1 9363   3.042   1.273  15.241  0.3670 -0.2613 -0.0780
  632TMC3    H2 9364   2.656   1.454  15.228  0.8232 -1.2799 -2.7904
  632TMC3    C7 9365   2.896   1.456  15.115 -0.0094 -1.0287  0.7507
  632TMC3    C8 9366   2.614   1.388  15.493 -0.4709  0.5039  0.2783
  632TMC3    O1 9367   2.810   1.476  15.033  0.0628 -0.7077  0.3688
  632TMC3    O2 9368   2.553   1.312  15.562 -0.4156  0.0336  0.1151
  633MPD2     C 9369   2.311   4.005  17.600 -0.4842 -0.0985 -0.3682
  633MPD2    C1 9370   2.347   3.961  17.475 -0.3333  0.2520 -0.4393
  633MPD2    C2 9371   2.316   3.835  17.435 -0.2069  0.4539  0.7795
  633MPD2    C3 9372   2.254   3.747  17.517  0.3323 -0.1251 -0.1681
  633MPD2    C4 9373   2.229   3.786  17.645  0.5365 -0.2591  0.4207
  633MPD2    C5 9374   2.253   3.918  17.686  0.4270 -0.2387  0.6647
  633MPD2     H 9375   2.336   3.813  17.330 -0.2531 -2.4358  1.3735
  633MPD2    H1 9376   2.187   3.721   0.016 -1.6971  0.5900 -0.0985
  633MPD2    H2 9377   2.333   4.105  17.636  0.2927  0.4377 -2.3394
  633MPD2    H3 9378   2.222   3.957   0.078 -2.2343  3.4784 -1.7014
  633MPD2     N 9379   2.221   3.617  17.485 -0.5069 -0.3368 -0.1118
  633MPD2    H5 9380   2.191   3.556  17.560 -0.8689  1.0175  0.8499
  633MPD2    N1 9381   2.414   4.040  17.385 -0.3685  0.9436 -0.3650
  633MPD2    H7 9382   2.446   4.003  17.296  3.0351  1.0886  0.7787
  634TMC3    C1 9383   2.527   4.226  17.289 -0.5071  0.3423 -0.2441
  634TMC3    C2 9384   2.607   4.141  17.213 -0.4527  0.4577 -0.1075
  634TMC3    C3 9385   2.624   4.172  17.081 -0.5798  0.8842 -0.3745
  634TMC3    C4 9386   2.480   4.338  17.233  0.1793  0.0729 -0.3393
  634TMC3    C5 9387   2.508   4.370  17.106  0.0179  0.0124  0.4253
  634TMC3    C6 9388   2.577   4.286  17.024  0.0023  0.1222 -0.3417
  634TMC3     C 9389   2.449   4.173  17.408  0.1149  0.6155 -0.2027
  634TMC3     O 9390   2.430   4.255  17.498  0.4762 -0.1144 -0.2563
  634TMC3     H 9391   2.639   4.043  17.246 -3.0406 -0.5044 -0.4138
  634TMC3    H1 9392   2.415   4.399  17.295 -0.8089 -0.5930 -0.7178
  634TMC3    H2 9393   2.591   4.314  16.921  0.1204 -1.7353 -0.8373
  634TMC3    C7 9394   2.453   4.487  17.029 -0.4848  0.2516 -0.3020
  634TMC3    C8 9395   2.645   4.066  16.990  0.3387  0.1115 -0.1482
  634TMC3    O1 9396   2.508   4.532  16.930  0.3670 -0.0602 -0.2678
  634TMC3    O2 9397   2.709   3.965  17.025 -0.8459  0.0061  0.8600
  635TMC3    C1 9398   2.377   0.445   0.853  0.1126 -0.4710 -0.1233
  635TMC3    C2 9399   2.417   0.347   0.768  0.6981  0.1360  0.0080
  635TMC3    C3 9400   2.351   0.228   0.765  0.3271 -0.6977  0.4726
  635TMC3    C4 9401   2.268   0.429   0.927  0.0123  0.4792 -0.7365
  635TMC3    C5 9402   2.212   0.306   0.923  0.4530  0.1649 -0.6137
  635TMC3    C6 9403   2.256   0.203   0.853 -0.0735  0.3461  0.1328
  635TMC3     C 9404   2.448   0.568   0.849 -0.4939  0.8806  0.2523
  635TMC3     O 9405   2.524   0.575   0.753  0.2698  0.1082  0.4847
  635TMC3     H 9406   2.507   0.362   0.709 -1.0124  0.8802 -2.4086
  635TMC3    H1 9407   2.218   0.516   0.969 -0.9095 -0.5589  0.3399
  635TMC3    H2 9408   2.192   0.116   0.846  0.3168  0.3308 -3.0892
  635TMC3    C7 9409   2.109   0.278   1.024  0.4500 -0.1587  0.7545
  635TMC3    C8 9410   2.363   0.151   0.644 -0.1461 -0.2841 -0.3109
  635TMC3    O1 9411   2.063   0.367   1.089  0.0181  0.6722  0.1718
  635TMC3    O2 9412   2.407   0.207   0.548 -0.1621 -0.1410 -0.5126
  636MPD2     C 9413   3.889   0.278  16.111  0.3549  0.6652  0.2154
  636MPD2    C1 9414   3.847   0.173  16.188  0.2757  0.6347 -0.2297
  636MPD2    C2 9415   3.930   0.073  16.226 -0.8086  0.4481 -0.9231
  636MPD2    C3 9416   4.054   0.059  16.183 -0.9100  0.1422  0.0641
  636MPD2    C4 9417   4.103   0.162  16.103  0.4798 -0.5364  0.0522
  636MPD2    C5 9418   4.022   0.265  16.074 -0.0601 -0.7689 -0.0717
  636MPD2     H 9419   3.873   0.002  16.285  0.8866 -0.3563 -0.2629
  636MPD2    H1 9420   4.209   0.163  16.079  1.1538 -0.2521  3.0648
  636MPD2    H2 9421   3.830   0.359  16.070  1.2173  1.1323 -0.0972
  636MPD2    H3 9422   4.053   0.340  16.002 -0.1750  0.7265  1.4296
  636MPD2     N 9423   4.147   4.687  16.234  0.2962  0.1029 -0.0750
  636MPD2    H5 9424   4.240   4.682  16.196  0.2374  0.0787 -0.2153
  636MPD2    N1 9425   3.713   0.165  16.235 -0.1772 -0.2169 -0.1504
  636MPD2    H7 9426   3.688   0.084  16.292 -0.5658 -0.7109 -1.0234
  637TMC3    C1 9427   4.234   4.515  16.374  0.1904  0.2520  0.2909
  637TMC3    C2 9428   4.349   4.584  16.376  0.7362 -0.0779  0.5529
  637TMC3    C3 9429   4.458   4.531  16.440 -0.2747 -0.3826  0.0717
  637TMC3    C4 9430   4.218   4.395  16.436  0.0596  0.5638 -0.6170
  637TMC3    C5 9431   4.334   4.339  16.491 -0.2460  0.2394 -0.3637
  637TMC3    C6 9432   4.451   4.410  16.504  0.3743  0.6198  0.1101
  637TMC3     C 9433   4.118   4.588  16.327 -0.2572 -0.9736 -0.0837
  637TMC3     O 9434   4.005   4.559  16.375  0.4595  0.4024  0.2094
  637TMC3     H 9435   4.364   4.677  16.323  1.6257  0.9047  2.5440
  637TMC3    H1 9436   4.120   4.349  16.443 -0.0618  0.6418 -1.8718
  637TMC3    H2 9437   4.538   4.360  16.547  0.3766  1.4880  1.1080
  637TMC3    C7 9438   4.317   4.211  16.556  0.5569  0.5343 -0.2213
  637TMC3    C8 9439   4.584   4.570  16.377 -0.1726 -0.2485  0.4010
  637TMC3    O1 9440   4.223   4.209  16.624  0.4595 -0.1927 -0.1818
  637TMC3    O2 9441   4.572   4.622  16.267  0.5769  0.0806 -0.5083
  638MPD2     C 9442   3.575   3.271  15.053  0.2669  0.4100 -0.0866
  638MPD2    C1 9443   3.612   3.138  15.030  0.3797  0.1085  0.1526
  638MPD2    C2 9444   3.560   3.031  15.105 -0.1591  0.0627 -0.3310
  638MPD2    C3 9445   3.474   3.057  15.207 -0.4068 -0.2116 -0.0300
  638MPD2    C4 9446   3.452   3.189  15.242 -0.9008  0.5355 -0.6123
  638MPD2    C5 9447   3.502   3.293  15.167  0.1875 -0.3686 -0.5272
  638MPD2     H 9448   3.579   2.927  15.081 -1.9995 -0.4867  0.5856
  638MPD2    H1 9449   3.392   3.229  15.322  0.3283 -2.8074  1.9671
  638MPD2    H2 9450   3.610   3.353  14.992  0.8300 -0.3171 -0.7482
  638MPD2    H3 9451   3.482   3.391  15.208 -2.1488 -1.1448  0.1813
  638MPD2     N 9452   3.431   2.955  15.292  0.5545  0.7669  0.3466
  638MPD2    H5 9453   3.465   2.862  15.271  1.0983  0.6596  1.6936
  638MPD2    N1 9454   3.687   3.112  14.916 -0.7948  0.2621  0.1978
  638MPD2    H7 9455   3.713   3.199  14.870  0.4904 -1.2887 -1.9739
  639TMC3    C1 9456   3.367   2.841  15.482  0.2932 -0.2026  0.4378
  639TMC3    C2 9457   3.253   2.818  15.557 -0.0929 -0.5687  0.2575
  639TMC3    C3 9458   3.245   2.700  15.620  0.2868  0.1912  0.1373
  639TMC3    C4 9459   3.470   2.751  15.480 -0.4910  0.3947  0.5918
  639TMC3    C5 9460   3.467   2.638  15.557 -0.4159 -0.5976 -0.0240
  639TMC3    C6 9461   3.348   2.607  15.619 -0.0957  0.0528  0.4841
  639TMC3     C 9462   3.364   2.964  15.411 -0.3634 -1.1164 -0.0413
  639TMC3     O 9463   3.320   3.066  15.460 -0.1043  0.4912 -0.0132
  639TMC3     H 9464   3.178   2.896  15.558 -2.1987 -2.5987  0.5181
  639TMC3    H1 9465   3.566   2.775  15.436 -0.8614 -1.8766 -1.4585
  639TMC3    H2 9466   3.328   2.515  15.672  2.1743 -0.8241 -0.2050
  639TMC3    C7 9467   3.572   2.533  15.569 -0.3580  0.1586 -0.0557
  639TMC3    C8 9468   3.113   2.644  15.596  0.2974 -1.0277 -0.0603
  639TMC3    O1 9469   3.558   2.438  15.646 -0.3226  0.1826 -0.0398
  639TMC3    O2 9470   3.022   2.708  15.633 -0.0156 -0.5010  0.2687
  640MPD2     C 9471   0.623   1.432   9.899 -0.0247 -0.2052 -0.5642
  640MPD2    C1 9472   0.507   1.357   9.907  0.4698  0.3438 -0.1781
  640MPD2    C2 9473   0.388   1.430   9.952  0.2714  0.4881  0.2891
  640MPD2    C3 9474   0.387   1.567   9.966  0.1660 -0.7841  0.2650
  640MPD2    C4 9475   0.505   1.634   9.934  0.2247  0.0750  0.1554
  640MPD2    C5 9476   0.626   1.566   9.916 -0.3953 -0.5165  0.2308
  640MPD2     H 9477   0.296   1.375   9.962 -0.7031  1.8180 -1.3647
  640MPD2    H1 9478   0.504   1.742   9.946  0.9138 -0.1380  2.1127
  640MPD2    H2 9479   0.719   1.386   9.879  1.5798  2.0596  1.9212
  640MPD2    H3 9480   0.720   1.617   9.900 -0.1036 -1.2604 -0.3728
  640MPD2     N 9481   0.272   1.641  10.010  0.2054 -0.3922  0.1713
  640MPD2    H5 9482   0.287   1.738  10.035 -0.6874 -0.6999  1.8817
  640MPD2    N1 9483   0.502   1.212   9.897  0.3236  0.7516 -0.2921
  640MPD2    H7 9484   0.413   1.164   9.904 -0.8615  2.9608 -0.3898
  641TMC3    C1 9485   0.593   0.987   9.849 -0.8054 -0.0781  0.2863
  641TMC3    C2 9486   0.465   0.948   9.803  0.5698 -0.7493  0.3960
  641TMC3    C3 9487   0.439   0.816   9.787  0.2931 -0.5666  0.5501
  641TMC3    C4 9488   0.688   0.896   9.867  0.6194 -0.0538  1.1284
  641TMC3    C5 9489   0.662   0.764   9.835  0.6541 -0.2243  0.1556
  641TMC3    C6 9490   0.538   0.725   9.786 -0.7042  0.2303  0.2605
  641TMC3     C 9491   0.620   1.127   9.900  0.4122  0.6056  0.1289
  641TMC3     O 9492   0.728   1.157   9.942 -0.0751 -0.4124 -0.3279
  641TMC3     H 9493   0.385   1.021   9.802  2.0198  0.8401  0.3251
  641TMC3    H1 9494   0.786   0.924   9.905  0.7272  0.5073  0.4448
  641TMC3    H2 9495   0.517   0.619   9.780 -1.1143  0.3313 -0.0478
  641TMC3    C7 9496   0.753   0.655   9.869 -0.0280 -0.4774 -0.4396
  641TMC3    C8 9497   0.302   0.764   9.773  0.0559 -0.3670  0.2209
  641TMC3    O1 9498   0.707   0.545   9.893  0.5499 -0.8544  0.4606
  641TMC3    O2 9499   0.289   0.653   9.728 -0.2427 -0.2278 -0.4028
  642TMC3    C1 9500   0.414   3.295  12.284  0.1233  0.3389 -0.0708
  642TMC3    C2 9501   0.463   3.318  12.411  0.2025  0.4012 -0.2944
  642TMC3    C3 9502   0.470   3.208  12.495 -0.3434  0.0312 -0.6715
  642TMC3    C4 9503   0.373   3.174  12.242 -0.0027 -0.9028  0.3741
  642TMC3    C5 9504   0.376   3.071  12.331  0.1031  0.2054  0.2947
  642TMC3    C6 9505   0.417   3.090  12.462  0.4558 -1.0116  0.4439
  642TMC3     C 9506   0.332   3.401  12.228 -0.6298 -0.0845  0.0523
  642TMC3     O 9507   0.332   3.414  12.107 -0.5739  0.2832 -0.0569
  642TMC3     H 9508   0.476   3.421  12.444  0.5065  0.3043 -0.1137
  642TMC3    H1 9509   0.323   3.162  12.147 -0.9794  0.2779  0.7430
  642TMC3    H2 9510   0.399   3.004  12.526  2.3361  0.0612  2.3997
  642TMC3    C7 9511   0.324   2.940  12.287  0.4091  0.2231 -1.4210
  642TMC3    C8 9512   0.550   3.211  12.619 -0.1504  0.4529 -0.3457
  642TMC3    O1 9513   0.332   2.925  12.165 -0.3020  0.2782 -0.4875
  642TMC3    O2 9514   0.547   3.113  12.688 -0.1403  0.1813  0.2896
  643TMC3    C1 9515   4.032   3.033   0.778  0.8075 -0.1868  0.9934
  643TMC3    C2 9516   3.920   3.107   0.749 -0.0480  0.1699  0.4945
  643TMC3    C3 9517   3.877   3.106   0.619  0.0971 -0.4992  0.9766
  643TMC3    C4 9518   4.086   2.946   0.691  0.3532  0.3874  0.3287
  643TMC3    C5 9519   4.031   2.937   0.567  0.2447 -0.2692  0.9899
  643TMC3    C6 9520   3.930   3.018   0.526 -0.2167  0.5044 -0.3761
  643TMC3     C 9521   4.082   3.051   0.913  0.5680 -0.3350  0.1466
  643TMC3     O 9522   4.011   3.109   0.996 -0.1552  0.1493  0.0385
  643TMC3     H 9523   3.884   3.188   0.812 -0.9965  0.8561 -0.9389
  643TMC3    H1 9524   4.156   2.871   0.725  0.1903  0.3033  0.4713
  643TMC3    H2 9525   3.888   3.025   0.426 -0.6072  2.2461 -0.0994
  643TMC3    C7 9526   4.095   2.861   0.458  0.0706  0.3441  0.5027
  643TMC3    C8 9527   3.794   3.215   0.569  0.5126  0.1400  0.6454
  643TMC3    O1 9528   4.041   2.881   0.350 -0.3320  0.1883 -0.6119
  643TMC3    O2 9529   3.688   3.236   0.627 -0.9712 -0.1649 -0.1112
  644MPD2     C 9530   4.404   2.850  10.279  0.1066  0.4321  0.3399
  644MPD2    C1 9531   4.384   2.718  10.260  0.0462 -0.1995 -0.3649
  644MPD2    C2 9532   4.257   2.673  10.245  0.0728 -0.5839 -0.0643
  644MPD2    C3 9533   4.148   2.751  10.252  0.1242  0.1466  0.7706
  644MPD2    C4 9534   4.164   2.888  10.265  0.7060  0.1765  0.1052
  644MPD2    C5 9535   4.295   2.933  10.278  0.8259 -0.4059  1.0279
  644MPD2     H 9536   4.239   2.569  10.218 -0.8822 -0.2010 -0.9051
  644MPD2    H1 9537   4.080   2.956  10.266  0.5317 -0.1026  3.9192
  644MPD2    H2 9538   4.501   2.895  10.297  0.2061 -0.1067  1.0972
  644MPD2    H3 9539   4.310   3.038  10.297 -2.3024  0.3803 -0.7003
  644MPD2     N 9540   4.027   2.684  10.232 -0.6454  0.1037 -0.3155
  644MPD2    H5 9541   4.029   2.583  10.223  0.8065  0.2308 -1.2853
  644MPD2    N1 9542   4.499   2.637  10.264 -0.1670 -0.3846  0.3404
  644MPD2    H7 9543   4.588   2.684  10.277 -1.1493  1.7120 -0.5073
  645TMC3    C1 9544   3.810   2.640  10.263  0.1708  0.1711  0.8281
  645TMC3    C2 9545   3.719   2.643  10.366 -0.8240 -0.2206  0.7359
  645TMC3    C3 9546   3.640   2.533  10.394 -0.5464 -0.2483 -0.0320
  645TMC3    C4 9547   3.828   2.525  10.181 -0.3160  0.2814 -0.1311
  645TMC3    C5 9548   3.743   2.417  10.212  0.1182  0.2042  0.7144
  645TMC3    C6 9549   3.649   2.418  10.316 -0.9768 -0.2980 -0.0902
  645TMC3     C 9550   3.913   2.740  10.274  0.1452 -0.0843  0.3191
  645TMC3     O 9551   3.891   2.840  10.341  0.6464 -0.3851  0.0960
  645TMC3     H 9552   3.721   2.727  10.434  0.7864  0.8902 -0.6898
  645TMC3    H1 9553   3.893   2.526  10.094 -2.4551 -1.7601 -1.7475
  645TMC3    H2 9554   3.592   2.335  10.356  1.4076 -0.8358  2.2050
  645TMC3    C7 9555   3.749   2.304  10.117  0.9099  0.8351  0.1768
  645TMC3    C8 9556   3.518   2.551  10.472  0.6154 -0.4015 -0.4348
  645TMC3    O1 9557   3.835   2.308  10.030  0.2312  0.6559 -0.4937
  645TMC3    O2 9558   3.448   2.453  10.488  0.1673  0.1915 -0.0569
  646MPD2     C 9559   3.723   1.934  14.824  0.0014  0.4284 -0.4375
  646MPD2    C1 9560   3.657   1.900  14.940 -0.9186  0.8439 -0.2884
  646MPD2    C2 9561   3.530   1.946  14.957  0.0777  0.0694 -0.4662
  646MPD2    C3 9562   3.472   2.039  14.861  0.0274  0.1035  0.1378
  646MPD2    C4 9563   3.547   2.071  14.748  0.2679  0.1137  0.5263
  646MPD2    C5 9564   3.676   2.028  14.737 -0.2470  0.8053 -0.5342
  646MPD2     H 9565   3.482   1.913  15.049  1.3555  1.3363  0.6564
  646MPD2    H1 9566   3.522   2.143  14.671 -1.0397  0.5399  1.3395
  646MPD2    H2 9567   3.813   1.874  14.813  1.5204  2.3829  1.1989
  646MPD2    H3 9568   3.736   2.050  14.649  1.1946 -0.1461  0.1911
  646MPD2     N 9569   3.341   2.085  14.883 -0.5527  0.0617 -0.3524
  646MPD2    H5 9570   3.289   2.044  14.960  0.6612  0.9916  0.9472
  646MPD2    N1 9571   3.716   1.804  15.033 -0.1111  0.4086 -0.0956
  646MPD2    H7 9572   3.801   1.766  14.993 -0.7617  1.3596 -2.3823
  647TMC3    C1 9573   3.759   1.671  15.214 -0.0834 -0.0938 -0.2720
  647TMC3    C2 9574   3.759   1.661  15.352  0.5124 -0.2322 -0.0985
  647TMC3    C3 9575   3.812   1.553  15.408 -0.1602  0.5417  0.3951
  647TMC3    C4 9576   3.817   1.582  15.133  0.0996  0.0857 -0.2821
  647TMC3    C5 9577   3.883   1.475  15.191 -0.0941  1.0282  0.1916
  647TMC3    C6 9578   3.876   1.467  15.331  0.8009 -0.4047 -0.2081
  647TMC3     C 9579   3.675   1.769  15.155 -0.4840 -0.3023 -0.4424
  647TMC3     O 9580   3.587   1.818  15.228 -0.0168  0.2131  0.0659
  647TMC3     H 9581   3.712   1.742  15.406  1.3831 -0.7160  1.3570
  647TMC3    H1 9582   3.816   1.579  15.025 -1.6497 -0.5807 -0.2435
  647TMC3    H2 9583   3.934   1.394  15.387 -1.2826  0.0119  2.5019
  647TMC3    C7 9584   3.958   1.376  15.115 -0.3213  0.0981 -1.0325
  647TMC3    C8 9585   3.828   1.539  15.554 -0.2081  0.0239 -0.1692
  647TMC3    O1 9586   4.045   1.318  15.181  0.1023  0.5531  0.2064
  647TMC3    O2 9587   3.838   1.424  15.589 -0.2275 -0.0562 -1.1311
  648TMC3    C1 9588   2.961   4.188  16.476 -0.6419 -0.1984 -0.5563
  648TMC3    C2 9589   3.011   4.063  16.463 -0.0063 -0.2365  0.8661
  648TMC3    C3 9590   3.026   4.012  16.340  0.4292 -0.2218 -0.2908
  648TMC3    C4 9591   2.933   4.264  16.364  0.4814 -0.1682 -0.0398
  648TMC3    C5 9592   2.954   4.208  16.243  0.2825  0.3572  0.3692
  648TMC3    C6 9593   3.012   4.082  16.224  0.2345 -0.6181  0.2254
  648TMC3     C 9594   2.928   4.244  16.605  0.6575  0.5850 -0.9442
  648TMC3     O 9595   2.886   4.362  16.611 -0.0054  0.4244 -0.5036
  648TMC3     H 9596   3.028   4.000  16.549 -1.3660 -1.0531  0.5448
  648TMC3    H1 9597   2.894   4.363  16.387 -0.9664 -0.7948  0.1633
  648TMC3    H2 9598   3.025   4.040  16.126 -0.6467 -3.7518  1.4531
  648TMC3    C7 9599   2.876   4.267  16.128 -0.5165  0.1230 -0.2379
  648TMC3    C8 9600   3.076   3.877  16.324  0.3303 -0.5440  0.1315
  648TMC3    O1 9601   2.876   4.197  16.029  0.0913 -0.2056 -0.0878
  648TMC3    O2 9602   3.063   3.807  16.422 -0.0518  0.2915 -0.3446
  649TMC3    C1 9603   2.146   0.612  13.009 -0.4979  0.3050  0.2529
  649TMC3    C2 9604   2.277   0.656  13.010  0.6654 -0.2422  0.1178
  649TMC3    C3 9605   2.361   0.633  13.116  0.0557  0.2883  0.6884
  649TMC3    C4 9606   2.103   0.532  13.109  0.0694  0.1035 -0.1150
  649TMC3    C5 9607   2.185   0.518  13.220  0.1937 -0.5856 -0.3757
  649TMC3    C6 9608   2.314   0.558  13.221 -0.3661  0.4837 -0.2276
  649TMC3     C 9609   2.064   0.609  12.895  0.4865 -0.4674 -0.7956
  649TMC3     O 9610   1.946   0.612  12.913  0.5574  0.0412 -0.4638
  649TMC3     H 9611   2.310   0.718  12.928 -0.2018  1.3172  0.9623
  649TMC3    H1 9612   2.008   0.480  13.098 -0.8564  1.5586  1.0550
  649TMC3    H2 9613   2.380   0.548  13.306 -0.7231 -0.3450 -0.0482
  649TMC3    C7 9614   2.131   0.427  13.318 -0.1695 -0.3298 -0.1917
  649TMC3    C8 9615   2.489   0.702  13.119 -0.2132  0.6153  0.0460
  649TMC3    O1 9616   2.010   0.423  13.326  0.7289  0.0453 -0.2429
  649TMC3    O2 9617   2.556   0.687  13.223  0.2238  0.3222 -0.5333
  650TMC3    C1 9618   4.140   2.449  12.898  0.4512 -0.7638 -0.1138
  650TMC3    C2 9619   4.101   2.575  12.916 -0.3754 -0.4519  1.1506
  650TMC3    C3 9620   4.075   2.653  12.808  0.1480 -0.8353  0.4235
  650TMC3    C4 9621   4.166   2.392  12.777  1.0064 -0.3640  0.9680
  650TMC3    C5 9622   4.128   2.473  12.667  0.7092 -0.1697 -0.4637
  650TMC3    C6 9623   4.079   2.599  12.686  0.4108  0.3075 -0.1049
  650TMC3     C 9624   4.135   2.367  13.022  0.2045  0.3988 -0.6163
  650TMC3     O 9625   4.109   2.424  13.128  0.1659 -0.2000 -0.1113
  650TMC3     H 9626   4.070   2.607  13.015  0.4204  0.9307  0.9479
  650TMC3    H1 9627   4.179   2.285  12.766  0.3048 -0.3664  0.1307
  650TMC3    H2 9628   4.059   2.668  12.605  0.7608 -0.7397 -1.0730
  650TMC3    C7 9629   4.120   2.412  12.534 -0.0208  0.2922  0.2987
  650TMC3    C8 9630   4.136   2.780  12.820  0.6915 -0.0363  0.0212
  650TMC3    O1 9631   4.140   2.292  12.534  0.0889  0.4054  0.2946
  650TMC3    O2 9632   4.133   2.849  12.724  0.4619  0.2434  0.2453
  651MPD2     C 9633   3.162   3.803  11.240 -0.2669  0.2511 -0.3517
  651MPD2    C1 9634   3.143   3.941  11.230  0.1285  0.7508  0.0860
  651MPD2    C2 9635   3.243   4.019  11.178 -0.0153  0.7375  1.1249
  651MPD2    C3 9636   3.368   3.966  11.152 -0.9591  0.7879 -0.0996
  651MPD2    C4 9637   3.386   3.832  11.166  0.6327  0.0127 -0.1959
  651MPD2    C5 9638   3.287   3.745  11.209 -0.5474 -0.2146  0.4295
  651MPD2     H 9639   3.224   4.121  11.147  0.1594 -0.3266 -2.4556
  651MPD2    H1 9640   3.480   3.785  11.141 -0.2825 -0.3531 -2.9908
  651MPD2    H2 9641   3.088   3.739  11.288  0.8243 -0.2734  0.6321
  651MPD2    H3 9642   3.302   3.638  11.203 -0.8660 -0.2537  0.2984
  651MPD2     N 9643   3.475   4.056  11.129  0.4612  0.2516  0.4012
  651MPD2    H5 9644   3.447   4.153  11.128  2.0619  0.7313  2.6814
  651MPD2    N1 9645   3.023   4.005  11.262  0.2067  0.4349  0.7073
  651MPD2    H7 9646   3.011   4.100  11.228  1.1482 -0.2180 -1.4757
  652TMC3    C1 9647   3.885   4.220  11.008  0.9286 -0.5191  0.1541
  652TMC3    C2 9648   3.815   4.134  11.088 -0.2167  0.2405  0.5348
  652TMC3    C3 9649   3.683   4.140  11.079 -0.1063 -0.1025 -0.0600
  652TMC3    C4 9650   3.836   4.301  10.918 -0.3950 -0.3117  0.2540
  652TMC3    C5 9651   3.696   4.322  10.929 -0.7223  0.0057  0.0977
  652TMC3    C6 9652   3.614   4.235  11.003  0.2041  0.9094  0.2377
  652TMC3     C 9653   4.017   4.244  11.050  0.2026 -0.1128  0.3257
  652TMC3     O 9654   4.046   4.211  11.162  0.0126  0.4075 -0.3402
  652TMC3     H 9655   3.865   4.076  11.164 -1.0575 -1.4665 -0.1851
  652TMC3    H1 9656   3.894   4.364  10.851 -2.8254  0.5725 -1.0317
  652TMC3    H2 9657   3.507   4.249  10.994  0.6446  0.9037 -5.2962
  652TMC3    C7 9658   3.624   4.386  10.814  0.7755  0.0674 -0.6002
  652TMC3    C8 9659   3.605   4.027  11.130  0.1449 -0.2457  0.0186
  652TMC3    O1 9660   3.507   4.352  10.798 -0.0044 -0.5721 -0.0550
  652TMC3    O2 9661   3.661   3.936  11.180 -0.1603 -0.4809 -0.5268
  653MPD2     C 9662   1.882   4.228   0.536 -0.2203  0.1973 -1.2778
  653MPD2    C1 9663   1.920   4.299   0.423 -0.6538 -0.1743  0.0371
  653MPD2    C2 9664   1.920   4.226   0.304  0.0226  0.3901  0.1289
  653MPD2    C3 9665   1.885   4.086   0.303  0.6633 -0.5702  0.0190
  653MPD2    C4 9666   1.838   4.024   0.423  0.3367  0.3613  0.0830
  653MPD2    C5 9667   1.838   4.099   0.536  0.0591 -0.2593  0.3485
  653MPD2     H 9668   1.940   4.286   0.216 -0.5339  1.0285  0.4447
  653MPD2    H1 9669   1.824   3.918   0.443  0.9903  0.2263 -0.1851
  653MPD2    H2 9670   1.874   4.275   0.633 -1.5718 -3.5691  0.4343
  653MPD2    H3 9671   1.796   4.062   0.629 -1.6654 -1.1092 -0.7686
  653MPD2     N 9672   1.909   4.023   0.182 -0.6110  0.1439  0.8226
  653MPD2    H5 9673   1.955   4.081   0.112  0.0357  1.1211  2.0516
  653MPD2    N1 9674   1.958   4.435   0.407  0.2547 -0.6276 -0.7460
  653MPD2    H7 9675   1.979   4.471   0.314  1.1957  0.9664  0.0779
  654TMC3    C1 9676   1.882   3.866   0.012 -0.1744 -0.3347 -0.5366
  654TMC3    C2 9677   1.884   3.968  17.619  0.4604 -0.1825 -0.1063
  654TMC3    C3 9678   1.899   3.937  17.489 -0.5122 -0.6274 -0.3369
  654TMC3    C4 9679   1.895   3.736  17.679 -0.5668  0.6342 -0.6010
  654TMC3    C5 9680   1.905   3.706  17.545 -0.0324 -0.0335 -0.6404
  654TMC3    C6 9681   1.905   3.802  17.450  0.1583 -0.0797 -0.1115
  654TMC3     C 9682   1.881   3.892   0.153 -0.2548  0.2777 -0.7727
  654TMC3     O 9683   1.837   3.802   0.222 -0.0106 -0.2726 -0.0560
  654TMC3     H 9684   1.875   4.070  17.652  0.9311 -0.2430  0.2110
  654TMC3    H1 9685   1.881   3.660   0.051 -0.1380  0.6792 -0.4795
  654TMC3    H2 9686   1.925   3.771  17.349 -0.6475 -1.8262  0.2683
  654TMC3    C7 9687   1.874   3.573  17.498 -0.3220 -0.5890 -0.2075
  654TMC3    C8 9688   1.821   4.022  17.404  0.2873 -0.4870 -0.6206
  654TMC3    O1 9689   1.796   3.579  17.405  0.3779 -0.0815 -0.1297
  654TMC3    O2 9690   1.754   4.103  17.465 -0.1237  0.4677  0.3539
  655MPD2     C 9691   3.468   4.651  15.742  0.6840  0.5321  0.1342
  655MPD2    C1 9692   3.338   4.636  15.699 -0.2656 -0.1008 -0.0327
  655MPD2    C2 9693   3.313   4.581  15.575 -0.4297 -0.2758 -0.0819
  655MPD2    C3 9694   3.413   4.514  15.505 -0.1866  0.0133 -0.0422
  655MPD2    C4 9695   3.546   4.519  15.554  0.7327 -0.0884  0.0038
  655MPD2    C5 9696   3.564   4.582  15.678  0.1683 -0.3899  0.5377
  655MPD2     H 9697   3.208   4.570  15.553 -0.4851  0.9941 -0.4567
  655MPD2    H1 9698   3.626   4.466  15.505  1.2960  1.7621 -1.0845
  655MPD2    H2 9699   3.489   4.703  15.835  0.6684 -1.9091  1.4858
  655MPD2    H3 9700   3.664   4.590  15.719  0.7159 -0.3098 -0.8293
  655MPD2     N 9701   3.390   4.432  15.393  0.1729 -0.6527  0.4038
  655MPD2    H5 9702   3.468   4.373  15.366  1.1811  1.7513 -1.9438
  655MPD2    N1 9703   3.232   4.687  15.777 -0.0414  0.2673 -0.8213
  655MPD2    H7 9704   3.140   4.677  15.737 -0.4523  1.1679 -0.1042
  656TMC3    C1 9705   3.098   0.018  15.965  0.0878  0.6757 -0.4163
  656TMC3    C2 9706   3.090   4.710  16.097 -0.3956 -0.1245  0.3076
  656TMC3    C3 9707   2.988   0.040  16.167  0.1403  0.7445  0.5025
  656TMC3    C4 9708   3.015   0.109  15.902 -0.5636 -0.0209  0.0878
  656TMC3    C5 9709   2.911   0.158  15.974  0.3127 -0.0865 -0.7226
  656TMC3    C6 9710   2.904   0.135  16.109 -0.2433 -0.7050  0.2243
  656TMC3     C 9711   3.232   0.006  15.908  0.5897  0.7572 -0.2384
  656TMC3     O 9712   3.323   0.017  15.991 -0.0585  1.0077  0.1293
  656TMC3     H 9713   3.150   4.630  16.140 -1.5909 -1.7626 -1.1129
  656TMC3    H1 9714   3.026   0.128  15.796 -1.6954 -1.1235 -0.2337
  656TMC3    H2 9715   2.822   0.182  16.163 -0.8038 -2.2896  0.7307
  656TMC3    C7 9716   2.792   0.205  15.903  0.8272 -0.0201  0.1857
  656TMC3    C8 9717   2.950   4.713  16.299 -0.6503  1.1614  0.5902
  656TMC3    O1 9718   2.808   0.213  15.784  0.0460 -0.2230 -0.2102
  656TMC3    O2 9719   2.955   4.592  16.322 -0.1402 -0.5584 -0.0803
  657TMC3    C1 9720   2.251   3.519  15.641  0.8274  0.2686  0.3489
  657TMC3    C2 9721   2.230   3.549  15.771 -0.0194 -0.0900  0.5491
  657TMC3    C3 9722   2.160   3.664  15.800 -0.0055 -0.0063  1.1286
  657TMC3    C4 9723   2.210   3.605  15.543  0.2328  0.1504  1.0906
  657TMC3    C5 9724   2.154   3.721  15.576  0.5493 -0.4421  0.2103
  657TMC3    C6 9725   2.124   3.749  15.711  0.0421  0.2649 -1.0811
  657TMC3     C 9726   2.291   3.393  15.581  0.6632  0.2920 -0.1495
  657TMC3     O 9727   2.209   3.346  15.505  0.4254  0.1811 -0.0256
  657TMC3     H 9728   2.253   3.483  15.854 -0.4389  0.5818  1.2051
  657TMC3    H1 9729   2.225   3.591  15.437 -0.9708  2.0967  0.6596
  657TMC3    H2 9730   2.071   3.841  15.735  1.2203  0.8086 -0.5035
  657TMC3    C7 9731   2.188   3.847  15.501 -0.0775  0.5653 -1.1511
  657TMC3    C8 9732   2.167   3.704  15.937 -0.2894  0.7958  0.3138
  657TMC3    O1 9733   2.141   3.948  15.543 -0.3703 -0.2494 -0.3486
  657TMC3    O2 9734   2.270   3.671  15.989  0.3443 -0.5682  0.0816
  658MPD2     C 9735   3.601   3.880  14.814  0.6368 -0.6524  0.6093
  658MPD2    C1 9736   3.579   4.010  14.825  0.3013  0.6787  0.2784
  658MPD2    C2 9737   3.615   4.095  14.724 -0.8343 -0.8299  0.2207
  658MPD2    C3 9738   3.686   4.061  14.621  0.2643  0.2121  0.9011
  658MPD2    C4 9739   3.723   3.926  14.616  1.4553  0.2833  0.2652
  658MPD2    C5 9740   3.678   3.836  14.713 -0.1733 -0.1867 -0.5044
  658MPD2     H 9741   3.584   4.199  14.716 -0.5983 -0.8906 -1.4906
  658MPD2    H1 9742   3.776   3.875  14.536  1.1483 -0.7959  0.7470
  658MPD2    H2 9743   3.579   3.815  14.898  1.3436  0.5479  1.7130
  658MPD2    H3 9744   3.724   3.738  14.719  2.0119  0.7532 -1.9604
  658MPD2     N 9745   3.718   4.158  14.525  0.6278  0.0811  0.4391
  658MPD2    H5 9746   3.680   4.249  14.545  1.4067  0.7601 -1.2199
  658MPD2    N1 9747   3.501   4.048  14.934 -0.3085  0.3896 -0.0985
  658MPD2    H7 9748   3.471   3.974  14.997 -0.3879  0.0838 -0.4937
  659TMC3    C1 9749   3.371   4.182  15.083  0.1717  0.1914  0.5087
  659TMC3    C2 9750   3.377   4.293  15.158 -0.2468 -0.3979  0.0324
  659TMC3    C3 9751   3.262   4.340  15.208  0.7605 -0.0807 -0.8264
  659TMC3    C4 9752   3.253   4.113  15.070  0.1649 -0.7795  0.6637
  659TMC3    C5 9753   3.143   4.160  15.132 -0.0252  0.2669 -0.0958
  659TMC3    C6 9754   3.142   4.274  15.197  0.1495 -0.1519  0.0185
  659TMC3     C 9755   3.463   4.170  14.965 -0.3291  0.0521  0.0451
  659TMC3     O 9756   3.509   4.274  14.917  0.0800  0.0966 -0.1125
  659TMC3     H 9757   3.470   4.349  15.164 -1.5439  1.5884  1.6497
  659TMC3    H1 9758   3.244   4.018  15.019 -0.0443  0.1962 -1.1486
  659TMC3    H2 9759   3.044   4.314  15.222  0.7576  1.2523  0.1440
  659TMC3    C7 9760   3.031   4.073  15.162 -0.5858  0.3730 -0.4840
  659TMC3    C8 9761   3.267   4.437  15.322 -0.0967  1.5540 -0.0570
  659TMC3    O1 9762   2.996   4.101  15.271  0.6472 -0.9251 -0.1336
  659TMC3    O2 9763   3.159   4.475  15.358 -0.4174  0.2292 -0.0313
  660MPD2     C 9764   1.957   3.320  12.949  0.0891 -0.0326 -0.8397
  660MPD2    C1 9765   1.821   3.354  12.937 -0.8445 -0.0719  0.1092
  660MPD2    C2 9766   1.730   3.306  13.033 -0.2073 -1.1884 -0.2601
  660MPD2    C3 9767   1.775   3.223  13.135  0.8225 -0.4747 -0.1987
  660MPD2    C4 9768   1.910   3.184  13.142 -0.0724 -0.6396 -0.1158
  660MPD2    C5 9769   1.998   3.238  13.049 -0.5742 -0.6578  0.1869
  660MPD2     H 9770   1.626   3.337  13.038  0.3709  0.5007  1.0640
  660MPD2    H1 9771   1.952   3.111  13.210  3.1203  2.0668  0.8165
  660MPD2    H2 9772   2.031   3.354  12.877  0.7579  1.4364  0.5471
  660MPD2    H3 9773   2.102   3.212  13.067 -0.5177  0.1120  0.9575
  660MPD2     N 9774   1.686   3.172  13.233  0.1406  0.4159  0.2238
  660MPD2    H5 9775   1.731   3.105  13.294 -0.4571 -0.5246 -0.3545
  660MPD2    N1 9776   1.783   3.431  12.821 -0.7061  0.1378  0.5844
  660MPD2    H7 9777   1.860   3.445  12.756 -1.3799  4.1222  0.6565
  661TMC3    C1 9778   1.623   3.513  12.659 -0.9160 -0.1242 -0.0624
  661TMC3    C2 9779   1.698   3.466  12.554 -0.9578  0.1657 -0.3557
  661TMC3    C3 9780   1.631   3.432  12.441 -0.4412 -0.1413 -0.5242
  661TMC3    C4 9781   1.485   3.545  12.645  0.8700  0.2719  0.3389
  661TMC3    C5 9782   1.429   3.519  12.516 -0.8285  0.1250  0.1005
  661TMC3    C6 9783   1.499   3.458  12.420 -0.0665  0.2682  0.3343
  661TMC3     C 9784   1.657   3.482  12.799  0.0294  0.6593 -0.0734
  661TMC3     O 9785   1.566   3.498  12.881  0.0937 -0.4667  0.7502
  661TMC3     H 9786   1.787   3.415  12.589 -2.3716 -1.5862  0.6943
  661TMC3    H1 9787   1.427   3.600  12.719 -1.1491 -0.4356 -0.7095
  661TMC3    H2 9788   1.451   3.424  12.329  0.1588  0.9190 -0.0292
  661TMC3    C7 9789   1.291   3.484  12.522  0.1631  0.2719  0.2088
  661TMC3    C8 9790   1.687   3.332  12.349  0.0090 -0.0449  0.8844
  661TMC3    O1 9791   1.246   3.474  12.633  0.1834  0.1601  0.5158
  661TMC3    O2 9792   1.609   3.256  12.297  0.1352 -0.6607  0.3268
  662MPD2     C 9793   1.549   2.888  17.400  0.4386  0.4977 -0.0755
  662MPD2    C1 9794   1.495   2.821  17.508  0.2583 -0.0849  0.0403
  662MPD2    C2 9795   1.507   2.878  17.636 -0.2660  0.1282 -0.5352
  662MPD2    C3 9796   1.561   3.003  17.654 -0.4204  0.2897 -1.1686
  662MPD2    C4 9797   1.608   3.069  17.543  0.4473 -0.1773 -0.4962
  662MPD2    C5 9798   1.607   3.009  17.422 -0.2557  0.3922  0.3553
  662MPD2     H 9799   1.458   2.810   0.000  0.8462 -0.8270 -0.6846
  662MPD2    H1 9800   1.651   3.168  17.546 -2.1272  0.9168  1.4335
  662MPD2    H2 9801   1.546   2.852  17.297  1.9715  1.7008 -0.5354
  662MPD2    H3 9802   1.663   3.064  17.348 -1.1408  0.5125 -0.2274
  662MPD2     N 9803   1.567   3.075   0.074  0.4702 -0.3339 -0.1821
  662MPD2    H5 9804   1.594   3.172   0.065 -1.7685  0.3316  0.2244
  662MPD2    N1 9805   1.416   2.703  17.496  0.1629 -0.6668  0.9140
  662MPD2    H7 9806   1.374   2.670  17.583  1.3833 -1.1241  1.3248
  663TMC3    C1 9807   1.301   2.520  17.387 -0.4075 -0.5386 -0.0782
  663TMC3    C2 9808   1.220   2.504  17.499  0.1009  0.0881 -0.2862
  663TMC3    C3 9809   1.129   2.402  17.502 -0.1802  0.3153  0.4507
  663TMC3    C4 9810   1.293   2.432  17.282  0.5382  0.2719  0.8538
  663TMC3    C5 9811   1.204   2.330  17.294  0.0869  0.4750 -0.1331
  663TMC3    C6 9812   1.124   2.307  17.401 -0.1027 -0.0542  0.3560
  663TMC3     C 9813   1.387   2.637  17.380  0.2835 -0.6494 -0.1394
  663TMC3     O 9814   1.409   2.666  17.264 -0.1022 -0.1050 -0.1353
  663TMC3     H 9815   1.209   2.586  17.569 -0.0650 -1.0159  0.9953
  663TMC3    H1 9816   1.344   2.452  17.189  0.7031  3.0286  1.5443
  663TMC3    H2 9817   1.037   2.243  17.387  0.0429 -0.1903  0.0931
  663TMC3    C7 9818   1.228   2.222  17.207  0.1325 -0.4651  0.5457
  663TMC3    C8 9819   0.997   2.439  17.538 -0.3181  0.0626 -0.5309
  663TMC3    O1 9820   1.257   2.249  17.091  0.4520 -0.3507  0.3911
  663TMC3    O2 9821   0.914   2.452  17.451  0.1486 -0.3704  0.5314
  664MPD2     C 9822   3.944   1.506   0.200  0.6845  0.3768 -0.6439
  664MPD2    C1 9823   4.062   1.550   0.263  0.0286  0.0457  0.0356
  664MPD2    C2 9824   4.055   1.612   0.387 -0.0045 -0.7420  0.5179
  664MPD2    C3 9825   3.927   1.646   0.435  0.1275  0.8048  0.9011
  664MPD2    C4 9826   3.814   1.620   0.362  0.3133  1.0546  0.0779
  664MPD2    C5 9827   3.821   1.546   0.243  0.2753  0.3977  0.9221
  664MPD2     H 9828   4.143   1.656   0.433  2.3776 -1.8728 -3.0303
  664MPD2    H1 9829   3.711   1.630   0.394  0.2242 -0.1985  0.2007
  664MPD2    H2 9830   3.956   1.445   0.112  0.1347  1.2316 -1.3077
  664MPD2    H3 9831   3.730   1.520   0.189 -0.5643 -1.8373  3.3974
  664MPD2     N 9832   3.930   1.701   0.559 -0.2782 -0.0951  0.0703
  664MPD2    H5 9833   4.021   1.712   0.602 -1.3460  0.3308  2.2294
  664MPD2    N1 9834   4.192   1.522   0.216 -0.0365 -0.5779  0.0604
  664MPD2    H7 9835   4.265   1.567   0.270 -0.3528  0.6506 -0.5246
  665TMC3    C1 9836   3.846   1.815   0.753  0.2558  0.1478 -0.2967
  665TMC3    C2 9837   3.753   1.901   0.802  0.0105  0.7167 -0.2618
  665TMC3    C3 9838   3.783   1.974   0.912 -0.2831 -0.0813 -0.6028
  665TMC3    C4 9839   3.975   1.819   0.805 -0.0290 -0.2535 -0.0527
  665TMC3    C5 9840   3.997   1.893   0.920  0.7191  0.1324 -0.0924
  665TMC3    C6 9841   3.904   1.975   0.972 -0.2814 -0.0900  0.4191
  665TMC3     C 9842   3.815   1.745   0.630  0.2084  0.4988 -0.8219
  665TMC3     O 9843   3.698   1.749   0.591 -0.0906 -0.6048 -0.6941
  665TMC3     H 9844   3.656   1.895   0.754 -1.3603 -0.8645  2.7566
  665TMC3    H1 9845   4.049   1.747   0.771  0.7073  1.5029 -2.1423
  665TMC3    H2 9846   3.912   2.056   1.044  0.4983  0.3264 -0.1405
  665TMC3    C7 9847   4.129   1.890   0.980  0.3789  0.8387  0.0996
  665TMC3    C8 9848   3.683   2.063   0.962  0.4429 -1.0738 -0.0921
  665TMC3    O1 9849   4.217   1.845   0.904  0.1398  0.1966 -0.0896
  665TMC3    O2 9850   3.712   2.134   1.059 -0.0441 -0.0301 -0.0785
  666TMC3    C1 9851   3.534   0.988   9.914 -0.2834  0.0453  0.2953
  666TMC3    C2 9852   3.581   0.905   9.814  0.7076  1.0545 -0.0996
  666TMC3    C3 9853   3.696   0.933   9.754 -0.1494 -1.1105  0.0939
  666TMC3    C4 9854   3.571   1.116   9.923  0.5782 -0.1266  0.0274
  666TMC3    C5 9855   3.684   1.147   9.848 -0.1588 -1.0701  0.6085
  666TMC3    C6 9856   3.751   1.057   9.766 -0.3216  0.8419  0.2480
  666TMC3     C 9857   3.484   0.921  10.036  0.1067 -0.1455 -0.2001
  666TMC3     O 9858   3.476   0.799  10.048 -0.5124  0.4712 -0.1928
  666TMC3     H 9859   3.553   0.802   9.834 -1.2733  1.5066 -0.5643
  666TMC3    H1 9860   3.525   1.186   9.991 -0.9833  2.1225 -3.3563
  666TMC3    H2 9861   3.852   1.080   9.734 -0.6099  1.2735 -0.3407
  666TMC3    C7 9862   3.740   1.278   9.887  0.5800 -0.6194 -0.2056
  666TMC3    C8 9863   3.777   0.823   9.746 -0.2397 -0.0916 -0.2331
  666TMC3    O1 9864   3.680   1.338   9.980  0.9019  0.6267  0.2421
  666TMC3    O2 9865   3.900   0.831   9.760  0.6314 -0.2850 -0.3083
  667MPD2     C 9866   0.718   1.363  14.742  0.3784  0.1755 -0.6833
  667MPD2    C1 9867   0.676   1.361  14.870 -0.0811  1.0204 -0.4598
  667MPD2    C2 9868   0.611   1.245  14.910  0.4400  0.1953  0.1999
  667MPD2    C3 9869   0.594   1.134  14.823  0.3833 -0.1050 -0.1433
  667MPD2    C4 9870   0.648   1.144  14.694 -0.4907  0.3715 -0.8546
  667MPD2    C5 9871   0.707   1.264  14.655 -0.7226  0.5402  0.2095
  667MPD2     H 9872   0.582   1.233  15.014  0.2952 -1.3101 -0.0226
  667MPD2    H1 9873   0.633   1.065  14.622  0.5899 -0.8804  0.3140
  667MPD2    H2 9874   0.744   1.458  14.696  2.2398  0.8894  1.8323
  667MPD2    H3 9875   0.742   1.269  14.552  1.0655 -0.6723  0.7655
  667MPD2     N 9876   0.506   1.021  14.843 -0.4593  0.0554 -0.0098
  667MPD2    H5 9877   0.492   0.958  14.765  3.3486 -0.9662  0.1100
  667MPD2    N1 9878   0.686   1.463  14.968 -0.0964 -0.4206 -0.3979
  667MPD2    H7 9879   0.660   1.439  15.063 -0.5357  0.6544 -0.2448
  668TMC3    C1 9880   0.750   1.679  15.059 -0.4627  0.1946 -0.4868
  668TMC3    C2 9881   0.798   1.806  15.047  0.6993 -0.3496  0.4981
  668TMC3    C3 9882   0.791   1.901  15.145  0.8546 -0.5987  0.5732
  668TMC3    C4 9883   0.699   1.638  15.186  0.0556 -0.1607  0.2855
  668TMC3    C5 9884   0.682   1.739  15.286  0.3716 -0.1789  0.0848
  668TMC3    C6 9885   0.732   1.872  15.268 -0.0254  0.4708  0.6768
  668TMC3     C 9886   0.743   1.588  14.949  0.1843 -0.4708 -0.3389
  668TMC3     O 9887   0.791   1.633  14.845  0.2273 -0.0063 -0.3674
  668TMC3     H 9888   0.806   1.831  14.942  0.1725  0.5638  0.6700
  668TMC3    H1 9889   0.673   1.535  15.208 -3.6239  1.5565  3.9352
  668TMC3    H2 9890   0.711   1.958  15.330  0.1422  1.3062 -0.4367
  668TMC3    C7 9891   0.644   1.710  15.425 -0.4832  0.1100  0.0899
  668TMC3    C8 9892   0.836   2.032  15.120 -0.3161  0.1844  0.2054
  668TMC3    O1 9893   0.680   1.782  15.520 -0.2379  0.1439  0.0659
  668TMC3    O2 9894   0.816   2.118  15.210 -1.1555  0.0561  0.5407
  669TMC3    C1 9895   3.354   1.337  14.870  0.3820  0.1326  0.5967
  669TMC3    C2 9896   3.270   1.344  14.762 -0.5311  0.2277 -0.5887
  669TMC3    C3 9897   3.310   1.420  14.657  0.1882 -0.1731  0.2777
  669TMC3    C4 9898   3.475   1.400  14.868  0.3142 -0.1899 -0.1274
  669TMC3    C5 9899   3.512   1.470  14.757  0.1456  0.8451  0.0340
  669TMC3    C6 9900   3.427   1.484  14.648  0.0923 -0.6846 -0.2138
  669TMC3     C 9901   3.329   1.224  14.963 -0.7787 -0.2127 -0.5846
  669TMC3     O 9902   3.212   1.206  14.995  0.4714 -0.3601  0.2285
  669TMC3     H 9903   3.167   1.312  14.763 -0.1845 -0.8887  1.8416
  669TMC3    H1 9904   3.543   1.394  14.952 -0.5584  1.2046  0.6939
  669TMC3    H2 9905   3.447   1.540  14.558  0.4903  2.8755  2.0889
  669TMC3    C7 9906   3.650   1.523  14.750  0.3754  0.2455 -0.1561
  669TMC3    C8 9907   3.220   1.445  14.540  0.9155 -0.0196 -0.0262
  669TMC3    O1 9908   3.725   1.492  14.842 -0.4628 -0.3027  0.1069
  669TMC3    O2 9909   3.243   1.537  14.467  0.5458  0.4645  0.1416
  670MPD2     C 9910   1.669   3.601  13.852 -0.5703 -0.4694  0.5277
  670MPD2    C1 9911   1.782   3.575  13.912  0.5632  0.1832 -0.8250
  670MPD2    C2 9912   1.787   3.543  14.044 -0.2297  0.4051  0.0385
  670MPD2    C3 9913   1.673   3.527  14.119 -0.4625  0.2907 -0.4564
  670MPD2    C4 9914   1.555   3.548  14.050 -0.3217 -0.7766  0.7553
  670MPD2    C5 9915   1.555   3.583  13.918  0.0765  0.3018  0.2988
  670MPD2     H 9916   1.883   3.530  14.094 -0.8342 -1.8869  0.6105
  670MPD2    H1 9917   1.457   3.524  14.091  0.5899 -1.4646  2.5434
  670MPD2    H2 9918   1.663   3.627  13.747 -0.5361 -0.3016  0.5670
  670MPD2    H3 9919   1.459   3.593  13.869  0.2144  1.3961  0.2547
  670MPD2     N 9920   1.680   3.494  14.254  0.2494  0.1648  0.7817
  670MPD2    H5 9921   1.774   3.518  14.284  0.5886  0.3085 -0.3879
  670MPD2    N1 9922   1.908   3.594  13.851  0.1694  0.3732 -0.3336
  670MPD2    H7 9923   1.990   3.592  13.912 -1.3028  0.5819  1.6579
  671TMC3    C1 9924   1.605   3.488  14.473 -0.1910  0.0158  0.7228
  671TMC3    C2 9925   1.729   3.448  14.525 -0.3092  0.2348  0.4164
  671TMC3    C3 9926   1.729   3.390  14.648  0.4569  0.2223 -0.4630
  671TMC3    C4 9927   1.490   3.487  14.553  0.1641  0.3609  0.5821
  671TMC3    C5 9928   1.495   3.435  14.679  0.2056 -0.5638 -0.1105
  671TMC3    C6 9929   1.618   3.394  14.734 -0.4387  0.5624 -0.0687
  671TMC3     C 9930   1.572   3.471  14.338 -0.2192 -0.3517 -0.0806
  671TMC3     O 9931   1.456   3.470  14.304  0.3409  0.1841 -0.7160
  671TMC3     H 9932   1.810   3.432  14.454 -0.8753 -0.8079 -0.0067
  671TMC3    H1 9933   1.394   3.528  14.524  0.6281 -0.3903 -1.9794
  671TMC3    H2 9934   1.613   3.331  14.822  2.7221  1.0165  0.4428
  671TMC3    C7 9935   1.377   3.348  14.707 -0.0636 -0.0070 -0.5108
  671TMC3    C8 9936   1.824   3.284  14.674  0.2938 -0.3748  0.1290
  671TMC3    O1 9937   1.350   3.316  14.821 -0.3100  0.0444  0.0118
  671TMC3    O2 9938   1.899   3.252  14.581 -0.5534  0.1114  0.4182
  672MPD2     C 9939   1.237   4.661   1.776 -0.2205  0.0762 -0.3469
  672MPD2    C1 9940   1.303   4.574   1.859  0.3877 -0.0526 -0.6179
  672MPD2    C2 9941   1.407   4.619   1.943 -0.2901 -0.4880 -0.3198
  672MPD2    C3 9942   1.447   0.024   1.936 -0.0207  0.2488  0.0970
  672MPD2    C4 9943   1.389   0.110   1.848  0.1161 -0.3110  0.1768
  672MPD2    C5 9944   1.281   0.066   1.767 -0.0891 -0.2314 -0.0780
  672MPD2     H 9945   1.461   4.548   2.004 -0.6922  0.7522  1.4870
  672MPD2    H1 9946   1.421   0.213   1.851  0.3983 -0.4018  0.2814
  672MPD2    H2 9947   1.156   4.637   1.708 -1.5065 -1.4847  1.7498
  672MPD2    H3 9948   1.229   0.133   1.699 -2.0908 -4.1401 -2.4059
  672MPD2     N 9949   1.542   0.084   2.021 -0.3408 -0.0318  0.4629
  672MPD2    H5 9950   1.570   0.178   1.997 -1.6731 -0.3166 -2.1313
  672MPD2    N1 9951   1.276   4.434   1.863  0.1316  0.3280 -0.0245
  672MPD2    H7 9952   1.329   4.383   1.933  2.5286 -0.9866 -2.7987
  673TMC3    C1 9953   1.212   4.222   1.781 -0.5450 -0.2333  0.8280
  673TMC3    C2 9954   1.220   4.175   1.907  0.4413 -0.5172 -0.5625
  673TMC3    C3 9955   1.289   4.060   1.920  0.3323 -0.5239  0.1657
  673TMC3    C4 9956   1.267   4.155   1.673  0.1377 -0.5821  0.3162
  673TMC3    C5 9957   1.346   4.050   1.697 -0.7045 -0.5703  0.0977
  673TMC3    C6 9958   1.365   4.006   1.814  0.4775  0.1266  0.9016
  673TMC3     C 9959   1.210   4.362   1.765  0.5040  0.0682 -0.1345
  673TMC3     O 9960   1.159   4.404   1.661 -0.1465  0.1276 -0.4085
  673TMC3     H 9961   1.166   4.226   1.985  0.0038  1.1317 -1.9522
  673TMC3    H1 9962   1.233   4.180   1.573  1.7744  0.0988 -0.0770
  673TMC3    H2 9963   1.440   3.929   1.827 -0.8018 -1.2674  0.0787
  673TMC3    C7 9964   1.440   4.017   1.595 -0.8201  0.2603  0.3763
  673TMC3    C8 9965   1.286   3.998   2.050  0.4212 -0.1624 -0.0788
  673TMC3    O1 9966   1.494   3.910   1.619  0.2200 -1.1058  0.1578
  673TMC3    O2 9967   1.195   4.023   2.126  0.3524  0.5193  0.9406
  674MPD2     C 9968   2.237   3.467   1.045 -0.6920  0.1662  0.4195
  674MPD2    C1 9969   2.133   3.409   0.972 -0.0176 -0.0153  0.6189
  674MPD2    C2 9970   2.003   3.399   1.028 -0.5179  0.8663 -0.2025
  674MPD2    C3 9971   1.981   3.454   1.151  0.2869  0.3951  0.3486
  674MPD2    C4 9972   2.076   3.516   1.223  0.5664 -0.5660  0.5370
  674MPD2    C5 9973   2.202   3.526   1.166 -0.0682  0.8023  0.1073
  674MPD2     H 9974   1.925   3.345   0.975  0.0654 -0.1948  0.0190
  674MPD2    H1 9975   2.064   3.579   1.310 -1.0701  0.4455 -0.4050
  674MPD2    H2 9976   2.339   3.470   1.009 -0.2735  0.2867  1.6364
  674MPD2    H3 9977   2.286   3.575   1.214  1.1700  1.2486 -2.5230
  674MPD2     N 9978   1.846   3.458   1.201  0.0306 -0.8140  0.2486
  674MPD2    H5 9979   1.768   3.442   1.138  2.0633 -2.0086 -1.9430
  674MPD2    N1 9980   2.159   3.360   0.845 -0.1480 -0.1214 -0.1207
  674MPD2    H7 9981   2.248   3.388   0.804 -0.4892  2.0045  0.6239
  675TMC3    C1 9982   2.139   3.256   0.636  0.3037 -0.8540 -0.0297
  675TMC3    C2 9983   2.096   3.146   0.570  0.4002  0.0250  0.7741
  675TMC3    C3 9984   2.107   3.149   0.432 -0.3209  0.7239  0.5814
  675TMC3    C4 9985   2.199   3.364   0.578  0.0780 -0.6445  0.2897
  675TMC3    C5 9986   2.220   3.354   0.442  0.6250 -0.2451  0.4838
  675TMC3    C6 9987   2.174   3.252   0.366 -1.0403 -0.6135 -0.6860
  675TMC3     C 9988   2.083   3.271   0.772 -0.0714  0.8365 -0.5592
  675TMC3     O 9989   1.991   3.195   0.803 -0.1793  0.4162 -0.4859
  675TMC3     H 9990   2.058   3.058   0.622  0.5419  0.8300  2.2369
  675TMC3    H1 9991   2.207   3.461   0.625  1.7770 -0.3788 -0.5516
  675TMC3    H2 9992   2.182   3.257   0.258  1.1234  0.4488 -0.4733
  675TMC3    C7 9993   2.306   3.453   0.384  0.9481 -0.4476  0.0523
  675TMC3    C8 9994   2.021   3.068   0.346  0.0141  0.2652  0.1254
  675TMC3    O1 9995   2.307   3.454   0.256  0.5557  0.2810 -0.4223
  675TMC3    O2 9996   2.053   3.040   0.233  0.0518 -0.1099  0.4757
  676MPD2     C 9997   0.061   2.242  11.105  0.3090  0.7116 -0.3509
  676MPD2    C1 9998   4.699   2.159  11.176 -0.1659 -0.7414 -0.6440
  676MPD2    C2 9999   0.006   2.025  11.196  0.0656  0.0091 -0.9051
  676MPD2    C310000   0.121   1.967  11.140  0.0510  0.2091  0.4029
  676MPD2    C410001   0.210   2.054  11.081  0.4406  0.0848 -0.5036
  676MPD2    C510002   0.175   2.187  11.059 -0.4436  0.3445 -0.2253
  676MPD2     H10003   4.655   1.961  11.241 -0.9047  1.1978 -0.8773
  676MPD2    H110004   0.302   2.016  11.040  1.0583  1.8169 -0.7084
  676MPD2    H210005   0.031   2.343  11.079  0.5445  0.5174 -1.3694
  676MPD2    H310006   0.242   2.251  11.003 -1.4351 -0.8713 -2.8017
  676MPD2     N10007   0.162   1.829  11.164 -0.3683  0.6167  0.0062
  676MPD2    H510008   0.240   1.794  11.110 -1.1107 -3.0243  1.3077
  676MPD2    N110009   4.577   2.212  11.233 -0.1633 -0.2923 -0.1989
  676MPD2    H710010   4.528   2.144  11.290  0.5999  0.2012  1.0421
  677TMC3    C110011   4.401   2.360  11.287 -0.1021 -0.1472  0.2852
  677TMC3    C210012   4.305   2.268  11.270  0.0049  0.0433  0.5654
  677TMC3    C310013   4.190   2.291  11.332 -0.2687  0.3693 -0.4447
  677TMC3    C410014   4.380   2.481  11.362 -1.0093 -0.0546  0.9588
  677TMC3    C510015   4.257   2.507  11.413  0.4391  0.0490  0.5096
  677TMC3    C610016   4.163   2.411  11.390 -0.9907  0.2537 -0.5651
  677TMC3     C10017   4.529   2.340  11.231  0.1080 -0.0093  0.6495
  677TMC3     O10018   4.586   2.444  11.204  0.3433 -0.0797 -0.0927
  677TMC3     H10019   4.326   2.178  11.213  0.6177 -0.3898  1.4687
  677TMC3    H110020   4.458   2.554  11.382 -0.2305 -0.3946 -0.8104
  677TMC3    H210021   4.070   2.417  11.445  0.3313 -1.6549  1.8471
  677TMC3    C710022   4.251   2.576  11.541 -0.8871  0.0147  0.1826
  677TMC3    C810023   4.086   2.192  11.321 -0.6326  0.1052  0.4579
  677TMC3    O110024   4.140   2.568  11.590 -0.5186 -0.4120 -0.1200
  677TMC3    O210025   4.019   2.192  11.216  0.4376  0.2468  0.3585
  678MPD2     C10026   0.788   2.102   1.902  0.4407 -0.0766 -0.8042
  678MPD2    C110027   0.735   2.099   1.779 -0.0536 -0.1996 -0.6030
  678MPD2    C210028   0.630   2.184   1.746 -0.4180  0.0201 -0.0413
  678MPD2    C310029   0.568   2.259   1.845  0.2192 -0.1562  0.1323
  678MPD2    C410030   0.617   2.251   1.969 -0.2686 -0.2487 -0.3060
  678MPD2    C510031   0.731   2.183   1.995  0.2719  0.1212 -0.1175
  678MPD2     H10032   0.586   2.178   1.647  2.5938 -0.7266 -1.3261
  678MPD2    H110033   0.565   2.312   2.043  1.8065  2.2664 -0.9103
  678MPD2    H210034   0.875   2.043   1.930 -1.1144 -1.4132  1.1864
  678MPD2    H310035   0.765   2.203   2.096 -1.1527  2.3748 -0.0812
  678MPD2     N10036   0.445   2.327   1.806 -0.5117 -0.3880  0.1129
  678MPD2    H510037   0.405   2.315   1.713  2.6249  2.4696 -1.6427
  678MPD2    N110038   0.786   2.012   1.677 -0.0839 -0.0019 -0.0719
  678MPD2    H710039   0.748   2.021   1.583 -0.8825 -2.9196 -0.0490
  679TMC3    C110040   1.101   1.757   1.431  0.1085  0.8463  0.4582
  679TMC3    C210041   1.032   1.783   1.550  0.0868 -0.2406 -0.1446
  679TMC3    C310042   0.942   1.880   1.551 -0.5779 -1.0242  0.3969
  679TMC3    C410043   1.065   1.823   1.319 -0.2540 -0.1311  0.5210
  679TMC3    C510044   0.972   1.924   1.327  0.3438 -0.7522 -0.3081
  679TMC3    C610045   0.911   1.953   1.442 -0.6506  0.5345 -0.3444
  679TMC3     C10046   1.182   1.635   1.431  0.3223 -0.4133  0.2706
  679TMC3     O10047   1.233   1.610   1.538  0.1899 -0.3121 -0.3031
  679TMC3     H10048   1.058   1.731   1.641  1.2463 -0.5674 -0.6686
  679TMC3    H110049   1.126   1.811   1.230  0.4284  1.6778  0.7315
  679TMC3    H210050   0.846   2.039   1.446 -2.0640 -0.5138 -1.0202
  679TMC3    C710051   0.958   2.014   1.214 -0.7458  0.6504 -0.1164
  679TMC3    C810052   0.890   1.916   1.681 -0.5115  1.1556 -0.2651
  679TMC3    O110053   0.895   2.113   1.238 -0.4102  0.3606 -0.7066
  679TMC3    O210054   0.960   1.879   1.777  0.2089 -0.3344  0.6338
  680MPD2     C10055   1.466   0.839  13.870  0.7800  0.5657  0.0092
  680MPD2    C110056   1.495   0.810  13.996  0.2992  0.3935 -0.4851
  680MPD2    C210057   1.461   0.891  14.100 -0.2397 -0.3786 -0.3226
  680MPD2    C310058   1.414   1.016  14.065 -0.4239 -0.8282 -0.1380
  680MPD2    C410059   1.387   1.052  13.935 -0.2241  0.2742 -0.0821
  680MPD2    C510060   1.414   0.959  13.836  0.6149  0.2507 -0.2927
  680MPD2     H10061   1.482   0.857  14.201 -1.8370 -0.8807 -0.1563
  680MPD2    H110062   1.343   1.148  13.910 -0.1811  0.4820  0.6386
  680MPD2    H210063   1.497   0.784  13.781  0.1062 -2.6656  1.7809
  680MPD2    H310064   1.404   0.975  13.729  2.8134 -2.7566 -0.9581
  680MPD2     N10065   1.395   1.116  14.166 -0.4366  0.1704  0.0573
  680MPD2    H510066   1.357   1.206  14.138 -0.6536  0.4242  1.1936
  680MPD2    N110067   1.544   0.680  14.031  0.1980  0.4563 -0.4729
  680MPD2    H710068   1.549   0.646  14.126 -1.7720  0.4912 -0.3576
  681TMC3    C110069   1.656   0.480  14.005 -0.0268 -0.5860 -0.7500
  681TMC3    C210070   1.596   0.426  14.111 -0.3635  0.2751  0.3832
  681TMC3    C310071   1.623   0.293  14.148 -0.6447 -0.1275  0.5083
  681TMC3    C410072   1.747   0.414  13.925  0.1843  0.3540  0.4518
  681TMC3    C510073   1.790   0.296  13.977 -0.2639  0.0294  0.4578
  681TMC3    C610074   1.733   0.235  14.085 -1.0745 -0.1232  0.5911
  681TMC3     C10075   1.609   0.599  13.942  0.0117 -0.4492  0.3352
  681TMC3     O10076   1.649   0.626  13.829  0.4777 -0.0813 -0.2744
  681TMC3     H10077   1.521   0.485  14.162 -0.4838  1.7350 -1.5050
  681TMC3    H110078   1.796   0.459  13.839 -2.1889  1.4389 -0.3311
  681TMC3    H210079   1.781   0.146  14.124 -0.7829  1.3741  3.6575
  681TMC3    C710080   1.920   0.257  13.925 -0.1413  0.0654  0.8522
  681TMC3    C810081   1.595   0.226  14.273 -0.2523  0.5158 -0.6742
  681TMC3    O110082   1.981   0.184  13.999 -0.3512 -0.0485  0.0186
  681TMC3    O210083   1.633   0.112  14.288  0.2443  0.2640  0.2395
  682MPD2     C10084   3.479   2.146  10.603  0.4958 -0.3622  0.0742
  682MPD2    C110085   3.475   2.007  10.589  0.0703 -0.4099  0.0077
  682MPD2    C210086   3.376   1.933  10.642  0.7445 -0.2693  0.3950
  682MPD2    C310087   3.289   1.993  10.735  0.5124 -0.3694 -0.1848
  682MPD2    C410088   3.292   2.131  10.749 -0.2236 -0.5507  0.1179
  682MPD2    C510089   3.384   2.208  10.681  0.0341 -0.0709 -0.4524
  682MPD2     H10090   3.394   1.826  10.640  2.2531 -0.0618  2.8787
  682MPD2    H110091   3.229   2.185  10.819  0.4874  0.2889  0.1027
  682MPD2    H210092   3.556   2.216  10.572  1.4730 -1.9710 -1.1075
  682MPD2    H310093   3.373   2.314  10.696 -1.2911 -0.2751  0.0294
  682MPD2     N10094   3.198   1.923  10.820  0.1311  0.0270  0.1938
  682MPD2    H510095   3.140   1.975  10.885  0.5781 -1.1230  1.4968
  682MPD2    N110096   3.573   1.940  10.518  0.4768 -0.1361  0.2603
  682MPD2    H710097   3.571   1.839  10.504  1.5963  0.1729 -2.0388
  683TMC3    C110098   3.171   1.710  11.161  0.8432  0.1144  0.8664
  683TMC3    C210099   3.141   1.581  11.152  0.3872 -0.7660  0.4083
  683TMC3    C310100   3.086   1.537  11.037  1.3916  0.0379 -0.5371
  683TMC3    C410101   3.164   1.791  11.054  0.0042 -0.3757  0.1894
  683TMC3    C510102   3.107   1.748  10.937  0.2184 -0.3721  0.3401
  683TMC3    C610103   3.059   1.617  10.927  0.3301  0.1448 -0.5034
  683TMC3     C10104   3.283   1.743  11.249  0.0535  0.5850 -0.8512
  683TMC3     O10105   3.291   1.861  11.284  0.0531 -0.1466  0.2301
  683TMC3     H10106   3.142   1.515  11.238 -0.2507 -2.0010 -0.5353
  683TMC3    H110107   3.232   1.876  11.049 -0.6412  0.1772  0.8733
  683TMC3    H210108   3.031   1.572  10.832  2.3519 -0.5775 -0.7431
  683TMC3    C710109   3.167   1.789  10.814 -0.1335 -0.3114 -0.3270
  683TMC3    C810110   3.038   1.401  11.033 -0.4711 -0.4042 -0.0193
  683TMC3    O110111   3.197   1.704  10.731  0.5721 -0.4809  0.2386
  683TMC3    O210112   2.946   1.384  10.952 -0.1724 -0.3445 -0.2006
  684MPD2     C10113   1.362   1.309  16.624 -0.9168 -0.5697 -0.0091
  684MPD2    C110114   1.362   1.269  16.488  0.3201  0.0617 -0.2777
  684MPD2    C210115   1.395   1.357  16.389  0.4140  0.0414  0.3750
  684MPD2    C310116   1.449   1.481  16.425  0.2296 -0.4656 -0.1613
  684MPD2    C410117   1.462   1.515  16.555 -0.2096  0.0681 -0.0940
  684MPD2    C510118   1.419   1.430  16.651  0.9464  0.1208  0.2572
  684MPD2     H10119   1.390   1.326  16.285 -0.6433  1.9018 -0.1221
  684MPD2    H110120   1.492   1.613  16.589  2.5697 -1.0137  0.5704
  684MPD2    H210121   1.325   1.247  16.705  1.0446 -1.3972  0.2607
  684MPD2    H310122   1.415   1.460  16.755 -1.8180 -2.0389  0.7591
  684MPD2     N10123   1.491   1.571  16.321 -0.4257  0.4024  0.7064
  684MPD2    H510124   1.559   1.644  16.338  0.9696 -1.0688  1.4325
  684MPD2    N110125   1.315   1.140  16.450 -0.2167 -0.2857  0.7995
  684MPD2    H710126   1.283   1.132  16.354  1.6509 -0.4076  0.1933
  685TMC3    C110127   1.285   0.904  16.461 -1.1707  0.1155  0.4686
  685TMC3    C210128   1.208   0.915  16.353 -0.0996  0.0524  0.8607
  685TMC3    C310129   1.205   0.807  16.266  0.7699 -0.3846  0.2415
  685TMC3    C410130   1.359   0.799  16.489  0.1095  0.4236  0.5572
  685TMC3    C510131   1.353   0.689  16.407  0.3087  0.3485 -0.6999
  685TMC3    C610132   1.273   0.693  16.291  0.7403  0.5781 -0.4749
  685TMC3     C10133   1.317   1.029  16.535 -0.3881 -0.0028 -0.6267
  685TMC3     O10134   1.364   1.017  16.645  0.5285  0.1071  0.3648
  685TMC3     H10135   1.142   1.001  16.348 -1.2021 -0.8028  0.6525
  685TMC3    H110136   1.432   0.801  16.569  1.6973  0.5796 -0.9173
  685TMC3    H210137   1.273   0.602  16.232 -1.1794  0.8986 -0.9687
  685TMC3    C710138   1.481   0.624  16.405  0.4308 -0.6525 -0.2998
  685TMC3    C810139   1.082   0.786  16.187  0.2502  0.3823 -0.0620
  685TMC3    O110140   1.526   0.586  16.510  0.7569 -0.5089  0.1629
  685TMC3    O210141   1.053   0.669  16.162  0.4591  0.5708  0.1488
  686MPD2     C10142   3.253   1.472  15.776  0.0979 -0.0350  0.7508
  686MPD2    C110143   3.284   1.398  15.881  0.2689  0.1652  0.8078
  686MPD2    C210144   3.416   1.360  15.894  0.5480  0.1295 -0.4483
  686MPD2    C310145   3.521   1.391  15.807 -0.0437 -1.1490 -0.0804
  686MPD2    C410146   3.483   1.462  15.700 -0.2115  0.5207  0.2070
  686MPD2    C510147   3.349   1.508  15.688  1.2060 -0.6924 -0.2872
  686MPD2     H10148   3.438   1.300  15.982  1.8179  1.2951  0.0239
  686MPD2    H110149   3.541   1.497  15.616 -0.0191 -0.4447 -0.0665
  686MPD2    H210150   3.154   1.515  15.765 -1.9203 -4.5994  1.3483
  686MPD2    H310151   3.326   1.560  15.596 -1.6232 -2.3611 -0.5125
  686MPD2     N10152   3.663   1.363  15.821  0.1359  0.7050  0.1310
  686MPD2    H510153   3.720   1.400  15.745  0.3795 -2.7630 -1.3844
  686MPD2    N110154   3.177   1.344  15.956 -0.2050 -0.1715 -0.3995
  686MPD2    H710155   3.088   1.377  15.920 -1.8590 -2.6366  1.3897
  687TMC3    C110156   3.651   1.189  16.000 -0.3322  0.1530  0.4293
  687TMC3    C210157   3.577   1.089  15.941 -0.1051  0.5792  0.2066
  687TMC3    C310158   3.524   0.996  16.034 -0.2071 -0.0579 -1.0662
  687TMC3    C410159   3.690   1.190  16.131  0.7353  0.1250  0.2240
  687TMC3    C510160   3.636   1.092  16.212  0.4163  0.0879  0.9578
  687TMC3    C610161   3.550   0.996  16.168  0.5368  0.1980 -0.1132
  687TMC3     C10162   3.727   1.278  15.911  0.8392  0.1588 -0.1062
  687TMC3     O10163   3.847   1.260  15.907  0.2727 -0.3676 -0.1017
  687TMC3     H10164   3.560   1.088  15.834  0.0863  0.8697  0.1736
  687TMC3    H110165   3.767   1.255  16.172  0.3671  1.5249 -1.2946
  687TMC3    H210166   3.498   0.931  16.237  0.3606  0.1959 -0.2480
  687TMC3    C710167   3.619   1.131  16.353  0.3054 -0.3075 -0.4007
  687TMC3    C810168   3.400   0.925  15.996  0.5308 -0.9777  0.4033
  687TMC3    O110169   3.610   1.253  16.372  0.4698  0.4510 -0.2120
  687TMC3    O210170   3.363   0.844  16.081  0.7569 -0.2758  0.3560
  688MPD2     C10171   2.118   0.277  17.629  0.6523 -0.2821  0.1531
  688MPD2    C110172   2.179   0.162  17.679  0.6527 -0.2365  0.3331
  688MPD2    C210173   2.279   0.107  17.610  0.7312 -0.1649 -0.3124
  688MPD2    C310174   2.318   0.160  17.484  0.5211  0.2044 -0.4732
  688MPD2    C410175   2.262   0.284  17.445  0.3218  0.3985  0.5810
  688MPD2    C510176   2.158   0.336  17.510  0.1037 -0.2627 -0.1229
  688MPD2     H10177   2.332   0.017  17.640  0.0990 -0.9592 -1.5480
  688MPD2    H110178   2.295   0.331  17.353  1.4957 -0.5684  0.5035
  688MPD2    H210179   2.038   0.324  17.683  1.7665 -0.3298  1.8353
  688MPD2    H310180   2.102   0.423  17.478 -0.7998 -0.7691  0.0935
  688MPD2     N10181   2.432   0.117  17.409 -0.0006  0.0209 -0.4405
  688MPD2    H510182   2.463   0.164  17.325 -3.0537 -0.3276 -1.7674
  688MPD2    N110183   2.131   0.113   0.102 -0.1486 -0.8081 -0.2309
  688MPD2    H710184   2.189   0.041   0.145  1.6583  0.4658 -0.5451
  689TMC3    C110185   2.010   0.107   0.313  0.2679 -0.0691 -0.0270
  689TMC3    C210186   2.001   0.195   0.412  0.0311 -0.0209  0.2989
  689TMC3    C310187   1.981   0.159   0.542  0.6402 -0.6107 -0.8796
  689TMC3    C410188   2.026   4.700   0.338 -0.0069 -0.0244  0.0451
  689TMC3    C510189   2.008   4.658   0.465  0.6094  0.0429 -0.0752
  689TMC3    C610190   1.982   0.026   0.567 -0.2908  0.3512  0.4285
  689TMC3     C10191   2.026   0.156   0.178 -1.2267 -0.5945 -0.0080
  689TMC3     O10192   1.940   0.241   0.158 -0.3503  0.2799 -0.0275
  689TMC3     H10193   1.964   0.294   0.385 -1.6290 -0.7978 -0.2606
  689TMC3    H110194   2.052   4.634   0.256  1.8669  1.5390 -0.5975
  689TMC3    H210195   1.968   4.717   0.669 -0.0178 -0.9926  0.0114
  689TMC3    C710196   1.983   4.520   0.506  0.1435  0.1237 -0.0745
  689TMC3    C810197   1.950   0.263   0.639 -0.1533 -0.0661  0.0753
  689TMC3    O110198   1.974   4.505   0.628  0.1471  0.5204  0.5652
  689TMC3    O210199   1.888   0.242   0.742  0.4172 -0.2857  0.1079
  690MPD2     C10200   0.059   2.534  15.965 -0.0120 -0.2352  0.0826
  690MPD2    C110201   0.034   2.427  15.872  0.5834  0.3789 -0.1987
  690MPD2    C210202   0.092   2.442  15.748 -0.4118  0.1840  0.7491
  690MPD2    C310203   0.182   2.541  15.730 -0.6110 -0.4102 -0.0459
  690MPD2    C410204   0.215   2.631  15.831 -0.0410  0.2912 -0.1172
  690MPD2    C510205   0.157   2.632  15.948 -0.0072  0.2059 -0.4466
  690MPD2     H10206   0.058   2.374  15.671  0.3931 -0.9931  1.4233
  690MPD2    H110207   0.278   2.716  15.807 -0.1568  0.3515 -0.2093
  690MPD2    H210208   0.009   2.522  16.061  0.0209  0.1619  0.1509
  690MPD2    H310209   0.178   2.700  16.029 -0.2860 -2.0456  1.5098
  690MPD2     N10210   0.264   2.549  15.612  0.1673  0.5533 -0.4298
  690MPD2    H510211   0.314   2.636  15.603 -1.9647  1.9130  1.0052
  690MPD2    N110212   4.674   2.317  15.891 -0.1951  0.2415 -0.0794
  690MPD2    H710213   4.674   2.247  15.818  0.4531 -0.0173  0.1709
  691TMC3    C110214   4.512   2.178  15.968 -0.0896 -0.5215  0.0622
  691TMC3    C210215   4.420   2.150  16.068 -0.4973  0.2445 -0.3754
  691TMC3    C310216   4.362   2.028  16.066 -0.8272  0.6897  0.3630
  691TMC3    C410217   4.540   2.096  15.861  0.4873  0.4021 -1.1711
  691TMC3    C510218   4.476   1.980  15.864  0.3742 -0.4955  0.0280
  691TMC3    C610219   4.387   1.944  15.968 -1.0944  0.7745 -0.0369
  691TMC3     C10220   4.592   2.292  15.999 -0.4128 -1.0628  0.1220
  691TMC3     O10221   4.592   2.348  16.108 -0.7125 -0.0093  0.4674
  691TMC3     H10222   4.392   2.231  16.134 -0.3603 -0.1681  0.1898
  691TMC3    H110223   4.582   2.131  15.768  0.6765 -1.3753 -1.7492
  691TMC3    H210224   4.337   1.849  15.967  2.5305 -1.1388 -1.0478
  691TMC3    C710225   4.513   1.879  15.758 -0.4628 -1.1018  0.3131
  691TMC3    C810226   4.263   1.997  16.160  0.1782 -0.0693 -0.4388
  691TMC3    O110227   4.532   1.903  15.641  0.1106  0.0249  0.4680
  691TMC3    O210228   4.247   1.878  16.188  0.0203  0.5168  0.3664
  692TMC3    C110229   1.241   2.928  16.081  0.1819 -0.0680 -0.3825
  692TMC3    C210230   1.361   2.931  16.137  0.4070  0.0593  0.2062
  692TMC3    C310231   1.417   2.806  16.151 -0.7388  0.3073 -0.6568
  692TMC3    C410232   1.173   2.810  16.031  0.2593 -0.2789 -0.2411
  692TMC3    C510233   1.237   2.691  16.054 -0.1985 -0.0757 -0.1285
  692TMC3    C610234   1.359   2.685  16.116  0.9564 -0.0529 -0.4711
  692TMC3     C10235   1.153   3.015  16.162 -0.2237  0.2325 -0.4799
  692TMC3     O10236   1.043   2.973  16.161  0.0563  0.2909  0.0327
  692TMC3     H10237   1.420   3.022  16.147  0.2929 -0.0539  1.9218
  692TMC3    H110238   1.076   2.813  15.983  0.7172  0.6709 -1.1240
  692TMC3    H210239   1.425   2.599  16.109 -0.5232 -1.2290  0.2626
  692TMC3    C710240   1.157   2.570  16.045 -0.3555 -0.0212  0.0486
  692TMC3    C810241   1.496   2.780  16.268 -0.1754 -0.6998  0.1414
  692TMC3    O110242   1.036   2.582  16.034 -0.0754  0.2460 -0.1873
  692TMC3    O210243   1.511   2.664  16.303 -0.2351 -0.5704  0.5196
  693MPD2     C10244   0.415   0.980  10.623 -0.2105  0.2866 -0.2016
  693MPD2    C110245   0.428   0.994  10.762 -0.8573  0.7688  0.1376
  693MPD2    C210246   0.550   0.985  10.827  0.3556  0.0066 -0.4425
  693MPD2    C310247   0.667   0.972  10.748 -0.1616 -0.3022 -0.0908
  693MPD2    C410248   0.652   0.941  10.612  0.4314  0.5907 -0.0241
  693MPD2    C510249   0.528   0.945  10.554 -0.0155 -0.6803 -0.6595
  693MPD2     H10250   0.559   0.996  10.934 -0.8240  1.6600 -0.5130
  693MPD2    H110251   0.734   0.905  10.551  0.5566 -1.4666  1.3503
  693MPD2    H210252   0.325   1.005  10.568 -1.1054 -1.0814  0.6435
  693MPD2    H310253   0.503   0.915  10.453 -1.8921 -0.1092 -0.3716
  693MPD2     N10254   0.794   0.957  10.807  0.5400 -0.7729  0.0736
  693MPD2    H510255   0.861   0.904  10.752  1.0962 -1.0504  1.0174
  693MPD2    N110256   0.312   1.011  10.840  0.0532 -0.5196  0.3626
  693MPD2    H710257   0.222   0.985  10.800 -0.8417  0.6684  1.5816
  694TMC3    C110258   0.202   0.985  11.043  0.6357 -0.3995  0.5472
  694TMC3    C210259   0.122   0.891  10.985  0.0007  0.2212  0.4355
  694TMC3    C310260   0.024   0.835  11.062 -0.3953  0.5413  0.4702
  694TMC3    C410261   0.192   1.023  11.172 -0.8368 -0.2523  0.3322
  694TMC3    C510262   0.103   0.952  11.251  0.4229  0.3130 -0.0995
  694TMC3    C610263   0.021   0.853  11.199 -0.1435  0.0506 -0.0058
  694TMC3     C10264   0.312   1.044  10.969  0.0246  0.3709  0.0325
  694TMC3     O10265   0.390   1.126  11.024 -0.1558  0.3245 -0.3525
  694TMC3     H10266   0.152   0.843  10.893  1.5215  1.1275  0.4637
  694TMC3    H110267   0.271   1.080  11.220 -1.6696 -0.7925  2.3703
  694TMC3    H210268   4.672   0.803  11.259  0.3302  0.8976  1.2757
  694TMC3    C710269   0.130   0.951  11.390  0.1858 -0.5287  0.5053
  694TMC3    C810270   4.666   0.728  11.002 -0.2144 -0.0327 -0.6238
  694TMC3    O110271   0.191   1.048  11.433  0.0633 -0.5044 -0.3931
  694TMC3    O210272   4.638   0.637  11.078  0.4715 -0.1277 -0.2625
  695MPD2     C10273   1.839   2.692  13.929 -0.8584  0.8420 -0.2851
  695MPD2    C110274   1.798   2.753  14.045  0.0599 -0.0415 -0.0309
  695MPD2    C210275   1.688   2.832  14.049  0.1718  0.2626  0.0018
  695MPD2    C310276   1.617   2.854  13.931  0.7351  0.0572 -0.5206
  695MPD2    C410277   1.658   2.787  13.810  0.4430  0.1673  0.2651
  695MPD2    C510278   1.765   2.700  13.813 -0.1810  0.0998 -0.0977
  695MPD2     H10279   1.653   2.876  14.141  0.9095  1.9436 -0.5344
  695MPD2    H110280   1.619   2.788  13.709 -2.3761 -1.2610  1.3321
  695MPD2    H210281   1.931   2.636  13.918 -0.6250  1.4538 -1.4475
  695MPD2    H310282   1.798   2.643  13.727  0.5572 -0.6672  0.7057
  695MPD2     N10283   1.506   2.944  13.931 -0.1817 -0.7587 -0.7160
  695MPD2    H510284   1.473   2.974  14.023 -0.7942  0.6311 -1.3846
  695MPD2    N110285   1.864   2.722  14.160 -0.1604  0.4861 -0.3131
  695MPD2    H710286   1.846   2.779  14.242 -0.4272 -2.3327  1.5844
  696TMC3    C110287   1.318   3.058  13.864  0.5386  0.6093 -0.3529
  696TMC3    C210288   1.258   3.035  13.982  0.2616 -0.9460 -0.6893
  696TMC3    C310289   1.134   3.088  14.016 -1.0437 -0.1014 -0.6722
  696TMC3    C410290   1.263   3.146  13.773  0.5826  0.4297  0.2533
  696TMC3    C510291   1.145   3.208  13.816 -0.1434 -0.0375 -0.2058
  696TMC3    C610292   1.089   3.182  13.936  0.7713  0.0430  0.0796
  696TMC3     C10293   1.444   3.000  13.821  0.0532 -0.3855  0.0552
  696TMC3     O10294   1.483   2.984  13.708  0.5912 -0.2878 -0.0039
  696TMC3     H10295   1.297   2.972  14.061 -1.5943 -0.3837  0.6905
  696TMC3    H110296   1.311   3.176  13.681  2.5746 -0.8592  0.8669
  696TMC3    H210297   1.013   3.250  13.973  0.6106 -1.3348  2.2508
  696TMC3    C710298   1.160   3.348  13.786  0.0616 -0.4187 -0.0413
  696TMC3    C810299   1.134   3.145  14.149 -0.1740  0.1083 -0.5985
  696TMC3    O110300   1.157   3.375  13.666  0.1550  0.1581 -0.1603
  696TMC3    O210301   1.159   3.265  14.157 -0.0536  0.1040  0.1024
  697MPD2     C10302   0.994   4.572  15.868 -0.1358  0.2481  0.0727
  697MPD2    C110303   0.934   4.502  15.762  0.2589 -0.1129 -0.4817
  697MPD2    C210304   0.895   4.584  15.656 -0.1601  0.3366 -0.7188
  697MPD2    C310305   0.888   4.720  15.662 -0.6164  0.7316  0.6219
  697MPD2    C410306   0.931   0.059  15.773  0.0800  0.4714  0.1080
  697MPD2    C510307   0.984   4.714  15.879  0.5751  0.0432  0.2689
  697MPD2     H10308   0.858   4.528  15.571  0.9250  0.0709 -1.0150
  697MPD2    H110309   0.929   0.167  15.778 -1.8935  0.4368  0.2411
  697MPD2    H210310   1.037   4.512  15.947 -0.1692  0.7041  0.4381
  697MPD2    H310311   1.025   0.037  15.966  0.7630  0.1409  0.1243
  697MPD2     N10312   0.826   0.064  15.560 -0.6193  0.4149 -0.1008
  697MPD2    H510313   0.815   0.007  15.477  2.5737 -0.5506  0.1377
  697MPD2    N110314   0.929   4.365  15.751  0.0131 -0.0002 -0.5035
  697MPD2    H710315   0.879   4.326  15.672 -1.7145  1.2899 -0.0515
  698TMC3    C110316   0.791   0.255  15.424 -0.3573 -0.4490  0.1771
  698TMC3    C210317   0.740   0.382  15.413  0.5404 -0.0486 -0.2756
  698TMC3    C310318   0.721   0.425  15.287  0.3535  0.0264  0.5427
  698TMC3    C410319   0.831   0.176  15.318  0.6296 -0.3553  0.5715
  698TMC3    C510320   0.809   0.226  15.196 -0.2510 -0.3770 -0.1590
  698TMC3    C610321   0.752   0.348  15.176 -0.3365  0.9779  0.0832
  698TMC3     C10322   0.794   0.201  15.561  0.2588 -0.8989  1.0071
  698TMC3     O10323   0.792   0.287  15.647  0.4896 -0.2534 -0.6938
  698TMC3     H10324   0.718   0.438  15.503 -0.0603  0.6940 -0.8969
  698TMC3    H110325   0.868   0.075  15.331 -1.6728 -1.0567  1.6695
  698TMC3    H210326   0.738   0.390  15.077 -0.4572 -1.0233 -0.7493
  698TMC3    C710327   0.842   0.155  15.077 -0.2597 -0.0955 -0.3243
  698TMC3    C810328   0.695   0.568  15.266  0.1403 -0.0060  0.1897
  698TMC3    O110329   0.792   0.195  14.971 -0.7188 -0.0924 -0.2248
  698TMC3    O210330   0.635   0.601  15.162  0.1107  0.6098  0.0965
  699TMC3    C110331   1.475   3.113  13.329  0.5600  0.0952 -0.0264
  699TMC3    C210332   1.509   2.977  13.346  0.2948 -0.9267 -0.6062
  699TMC3    C310333   1.420   2.899  13.412 -0.5397  0.0683 -0.4863
  699TMC3    C410334   1.349   3.160  13.354  0.1188 -0.3312  0.2948
  699TMC3    C510335   1.261   3.074  13.415  0.3429 -0.3134  0.6955
  699TMC3    C610336   1.293   2.951  13.455 -0.1876  0.6537 -0.4487
  699TMC3     C10337   1.552   3.197  13.246  0.2666  0.4541 -0.1550
  699TMC3     O10338   1.491   3.293  13.206  0.1430 -0.2356  0.5264
  699TMC3     H10339   1.614   2.953  13.339  0.1002 -2.1252  0.6592
  699TMC3    H110340   1.318   3.264  13.350 -0.7640 -0.5812  0.6937
  699TMC3    H210341   1.219   2.880  13.490 -0.7860  0.6009 -1.8340
  699TMC3    C710342   1.120   3.112  13.450 -0.1539  0.2412 -0.7907
  699TMC3    C810343   1.450   2.768  13.464  0.5357 -0.0883 -0.1064
  699TMC3    O110344   1.057   3.041  13.527  0.0467  0.5686  0.4945
  699TMC3    O210345   1.376   2.727  13.555 -0.6244 -0.3481  0.1533
  700TMC3    C110346   0.274   0.212  17.615 -0.0527  0.7086 -0.3692
  700TMC3    C210347   0.345   0.097  17.606 -0.0111  0.2213  0.8321
  700TMC3    C310348   0.464   0.091  17.678 -0.3081 -0.0386 -0.1096
  700TMC3    C410349   0.321   0.322  17.681 -0.9028 -0.2250  0.3948
  700TMC3    C510350   0.446   0.317   0.034 -0.5472 -0.2605 -0.6873
  700TMC3    C610351   0.509   0.199   0.043  0.2231 -0.5321 -0.2467
  700TMC3     C10352   0.179   0.234  17.513 -0.0019  0.1502  0.8424
  700TMC3     O10353   0.088   0.157  17.495 -0.3510  0.1413  0.3437
  700TMC3     H10354   0.307   0.019  17.540  0.5978 -0.2010  0.9835
  700TMC3    H110355   0.250   0.403  17.697 -0.3686  0.0515  1.4162
  700TMC3    H210356   0.606   0.204   0.092 -0.7904  1.0308  1.6024
  700TMC3    C710357   0.523   0.438   0.053 -0.3957 -0.3506  0.2713
  700TMC3    C810358   0.569   0.009  17.624  0.1347  0.0716  0.4792
  700TMC3    O110359   0.644   0.423   0.053  0.1058  0.0778 -0.0571
  700TMC3    O210360   0.681   0.058  17.613 -0.1950 -0.1847 -0.3808
  701TMC3    C110361   0.319   3.633  16.116  0.5313  0.1553 -0.2182
  701TMC3    C210362   0.281   3.540  16.020  0.1018  0.0026 -0.4630
  701TMC3    C310363   0.311   3.578  15.892 -0.7595 -0.8566 -0.0168
  701TMC3    C410364   0.393   3.751  16.092  0.2802  0.5860 -0.2776
  701TMC3    C510365   0.427   3.768  15.958 -1.0196 -0.4262  0.3306
  701TMC3    C610366   0.383   3.686  15.857  0.4171 -0.7375  0.2264
  701TMC3     C10367   0.246   3.632  16.241  0.7950 -0.2436  0.2372
  701TMC3     O10368   0.133   3.594  16.242 -0.2064  0.3636 -0.4469
  701TMC3     H10369   0.231   3.447  16.043 -2.9662  1.6079 -0.6356
  701TMC3    H110370   0.400   3.833  16.163  2.0938  0.3607 -0.2144
  701TMC3    H210371   0.407   3.704  15.753 -0.5818 -0.5606  0.0273
  701TMC3    C710372   0.485   3.896  15.913 -0.0244  0.4771 -0.4013
  701TMC3    C810373   0.292   3.474  15.797  0.0955 -0.4652 -0.1461
  701TMC3    O110374   0.470   3.936  15.797  0.5198  0.4160 -0.0415
  701TMC3    O210375   0.333   3.362  15.821  0.0578 -0.1542 -0.4616
  702MPD2     C10376   0.654   1.340  10.806 -0.6545  0.0040  0.5575
  702MPD2    C110377   0.576   1.442  10.840  0.0971  0.2676 -0.7280
  702MPD2    C210378   0.586   1.557  10.765  0.6042 -0.4509 -0.2856
  702MPD2    C310379   0.682   1.573  10.668 -0.3836 -0.7355  0.2426
  702MPD2    C410380   0.766   1.474  10.642  0.3223  0.1429  0.1306
  702MPD2    C510381   0.754   1.351  10.711 -0.2131 -0.8085  0.1832
  702MPD2     H10382   0.523   1.640  10.795  0.6337  0.4204 -2.5595
  702MPD2    H110383   0.844   1.489  10.569 -1.2301  1.0869 -1.3342
  702MPD2    H210384   0.643   1.245  10.857  1.6983 -1.8269 -2.3512
  702MPD2    H310385   0.812   1.261  10.697 -0.8258 -1.5470  2.3814
  702MPD2     N10386   0.698   1.688  10.587 -0.6104 -0.0615  0.3977
  702MPD2    H510387   0.771   1.683  10.517  0.2155  0.0428  1.2595
  702MPD2    N110388   0.479   1.431  10.945 -0.8526  0.0256 -0.7679
  702MPD2    H710389   0.456   1.337  10.973  0.0569  0.9561  3.0223
  703TMC3    C110390   0.652   1.908  10.491 -0.1061  0.2507 -0.6960
  703TMC3    C210391   0.561   2.002  10.519  0.0227  0.9425  0.1608
  703TMC3    C310392   0.608   2.128  10.536  0.0912  0.4884 -0.2693
  703TMC3    C410393   0.786   1.934  10.463 -0.0908  0.9342  0.3521
  703TMC3    C510394   0.821   2.066  10.467 -0.4675  0.1723 -0.2846
  703TMC3    C610395   0.734   2.166  10.501  0.8921 -0.2790  0.7026
  703TMC3     C10396   0.629   1.804  10.597 -1.1184 -0.1941  0.0315
  703TMC3     O10397   0.542   1.831  10.673 -0.5146 -0.1389  0.3444
  703TMC3     H10398   0.456   1.975  10.523  0.3055 -0.1006  0.4649
  703TMC3    H110399   0.855   1.852  10.442 -1.3344  0.1431 -0.6233
  703TMC3    H210400   0.755   2.272  10.504  0.5722 -0.2679  2.9062
  703TMC3    C710401   0.965   2.091  10.467  0.1432 -0.3405 -0.1631
  703TMC3    C810402   0.519   2.227  10.597  0.5435 -0.7193  0.3519
  703TMC3    O110403   1.043   2.001  10.467 -0.3337 -0.1326  0.1430
  703TMC3    O210404   0.554   2.344  10.599  0.5067  0.3470 -0.1595
  704TMC3    C110405   2.131   4.578  12.596  0.2725  0.0504  0.0114
  704TMC3    C210406   2.260   4.608  12.571 -0.0846 -0.8698  0.1588
  704TMC3    C310407   2.360   4.530  12.622  0.0310  0.0862 -0.1133
  704TMC3    C410408   2.092   4.463  12.655  0.6551  0.2096 -0.2445
  704TMC3    C510409   2.190   4.374  12.697 -0.7621 -0.0714 -0.6004
  704TMC3    C610410   2.326   4.408  12.680  0.2811 -0.2225 -0.6090
  704TMC3     C10411   2.031   4.645  12.521  0.5063 -0.4883 -0.5740
  704TMC3     O10412   1.928   4.664  12.582  0.2012  0.5519  0.0113
  704TMC3     H10413   2.292   4.701  12.527  0.2709 -1.4442 -0.8053
  704TMC3    H110414   1.989   4.443  12.681 -0.5900  2.6806 -3.3314
  704TMC3    H210415   2.402   4.340  12.717 -1.3384 -1.2434  0.8434
  704TMC3    C710416   2.158   4.232  12.700  0.3559 -0.0909  0.1183
  704TMC3    C810417   2.481   4.519  12.541  0.0867  0.0457 -0.2598
  704TMC3    O110418   2.239   4.162  12.642  0.4325  0.1770 -0.2117
  704TMC3    O210419   2.446   4.530  12.424  0.0908  0.0952  0.3914
  705MPD2     C10420   1.509   2.310  16.649 -0.1058  0.4590 -0.0529
  705MPD2    C110421   1.565   2.432  16.660 -0.0475 -0.6896  0.3064
  705MPD2    C210422   1.505   2.523  16.744 -1.0668 -0.0249 -0.1657
  705MPD2    C310423   1.385   2.501  16.811  0.4590  0.7987 -0.5221
  705MPD2    C410424   1.330   2.380  16.789 -0.3051 -0.5468  0.2259
  705MPD2    C510425   1.384   2.287  16.704 -0.7847  0.4311 -0.3469
  705MPD2     H10426   1.540   2.625  16.733 -0.9260  0.1817  2.0251
  705MPD2    H110427   1.235   2.357  16.836 -0.7608  3.0794  1.0435
  705MPD2    H210428   1.555   2.223  16.602  1.3326  1.4548 -0.4815
  705MPD2    H310429   1.342   2.187  16.705  0.4411 -0.0657  1.2084
  705MPD2     N10430   1.312   2.584  16.896  0.0790 -0.0750 -0.2373
  705MPD2    H510431   1.219   2.552  16.922  0.4188 -0.0974  0.9470
  705MPD2    N110432   1.692   2.466  16.600 -0.8668  0.4800 -0.0422
  705MPD2    H710433   1.757   2.531  16.645 -1.0925  1.5058 -1.1909
  706TMC3    C110434   1.991   2.453  16.238 -0.8609 -0.3017 -0.6116
  706TMC3    C210435   2.013   2.588  16.234 -0.2574 -0.5904 -0.0464
  706TMC3    C310436   1.964   2.662  16.343  0.0387 -0.6051 -0.0265
  706TMC3    C410437   1.914   2.389  16.334 -0.0473 -0.3091 -0.0472
  706TMC3    C510438   1.874   2.460  16.443  0.4462  0.3395 -0.5283
  706TMC3    C610439   1.907   2.597  16.452  0.6842 -0.5811  0.1415
  706TMC3     C10440   2.080   2.365  16.163  0.3154  0.1285  0.1802
  706TMC3     O10441   2.188   2.413  16.132 -0.2066 -0.3141 -0.2292
  706TMC3     H10442   2.075   2.629  16.155 -0.7815  0.4305  0.0686
  706TMC3    H110443   1.890   2.284  16.323  1.6231 -0.8713  1.7921
  706TMC3    H210444   1.865   2.655  16.534 -0.4315  0.2243 -0.9961
  706TMC3    C710445   1.738   2.412  16.487  0.1178 -0.1184  0.3630
  706TMC3    C810446   1.933   2.807  16.314 -0.4788  0.7140 -0.3119
  706TMC3    O110447   1.674   2.340  16.410 -0.0368  0.2658  0.4453
  706TMC3    O210448   1.954   2.830  16.194  0.1700 -0.2929 -0.2745
  707TMC3    C110449   2.539   2.647   0.884  0.4537 -0.3911 -0.7786
  707TMC3    C210450   2.511   2.737   0.983 -0.6308 -0.5737  0.0615
  707TMC3    C310451   2.394   2.715   1.055  0.0923 -0.2358  0.0246
  707TMC3    C410452   2.452   2.555   0.834 -0.1373  0.4036  0.1512
  707TMC3    C510453   2.328   2.549   0.899 -0.4548 -0.1562 -0.2277
  707TMC3    C610454   2.300   2.622   1.016  0.5911  0.4982 -0.6248
  707TMC3     C10455   2.674   2.646   0.840 -0.2911  0.6182 -0.3176
  707TMC3     O10456   2.744   2.686   0.931 -0.0308  0.2522 -0.3671
  707TMC3     H10457   2.588   2.811   1.000  0.3203 -0.8251 -3.1280
  707TMC3    H110458   2.475   2.488   0.752  1.4311  0.9690  0.1275
  707TMC3    H210459   2.217   2.612   1.084  0.6464  0.1983 -0.6010
  707TMC3    C710460   2.248   2.432   0.870  0.3223  0.0517  0.1587
  707TMC3    C810461   2.397   2.762   1.192 -0.5294  0.2834 -0.8400
  707TMC3    O110462   2.183   2.379   0.959 -0.1536 -0.3038 -0.0698
  707TMC3    O210463   2.301   2.762   1.270  0.9511 -0.1030 -0.0803
  708MPD2     C10464   4.478   1.855  14.039 -0.9921  0.4355  0.4908
  708MPD2    C110465   4.448   1.748  14.119  0.1002 -0.4952  0.4102
  708MPD2    C210466   4.554   1.682  14.187 -1.0437 -0.0490  0.9183
  708MPD2    C310467   4.683   1.735  14.168  0.0850 -0.0271  0.2509
  708MPD2    C410468   4.704   1.847  14.088  0.2728 -0.0802 -0.1234
  708MPD2    C510469   4.605   1.901  14.017 -0.0610 -0.2763  0.0538
  708MPD2     H10470   4.546   1.586  14.237  0.8567 -1.5360 -1.5940
  708MPD2    H110471   0.080   1.872  14.060 -0.2694 -1.4333 -3.2492
  708MPD2    H210472   4.400   1.889  13.971 -0.2979 -1.4428 -1.2561
  708MPD2    H310473   4.628   1.978  13.944  2.4963  0.0855  1.2611
  708MPD2     N10474   0.061   1.656  14.222 -0.6341  0.3659 -0.6462
  708MPD2    H510475   0.023   1.577  14.273 -0.8191  0.1987 -1.0455
  708MPD2    N110476   4.316   1.691  14.117 -0.5864  0.0950 -0.4627
  708MPD2    H710477   4.247   1.727  14.052 -2.5642 -2.1604  0.3806
  709TMC3    C110478   4.150   1.525  14.167  0.4416  0.9537  0.4425
  709TMC3    C210479   4.163   1.457  14.047 -0.6045 -0.1563 -0.5706
  709TMC3    C310480   4.127   1.331  14.038 -0.1049  0.2340  0.3273
  709TMC3    C410481   4.127   1.453  14.284  0.2094 -0.3807 -0.3072
  709TMC3    C510482   4.100   1.320  14.271 -0.0937 -0.1178 -0.0892
  709TMC3    C610483   4.093   1.262  14.148 -0.6138  0.7836  0.2658
  709TMC3     C10484   4.280   1.581  14.197  0.4690  0.1671 -0.5940
  709TMC3     O10485   4.342   1.544  14.295 -0.3630 -0.5210  0.1362
  709TMC3     H10486   4.203   1.506  13.959  2.6261  0.9447  1.4899
  709TMC3    H110487   4.141   1.506  14.377 -1.2497  1.5455 -1.1715
  709TMC3    H210488   4.067   1.157  14.154  1.0506  0.3330 -0.4487
  709TMC3    C710489   4.162   1.236  14.377  0.4100  0.1712  0.6163
  709TMC3    C810490   4.221   1.259  13.953  0.4691  0.4561  0.5884
  709TMC3    O110491   4.148   1.115  14.364 -0.4723 -0.3936 -1.2520
  709TMC3    O210492   4.250   1.145  14.000 -0.3662 -0.2741 -0.0729
  710TMC3    C110493   0.806   2.772   0.764 -0.4475  0.5381  0.7985
  710TMC3    C210494   0.842   2.779   0.633 -0.2573  0.9013  1.1724
  710TMC3    C310495   0.927   2.678   0.590  0.2233  0.1193  1.1698
  710TMC3    C410496   0.824   2.663   0.840  0.0055 -0.0329 -0.8155
  710TMC3    C510497   0.890   2.554   0.781  0.3476  0.5038  0.5658
  710TMC3    C610498   0.950   2.564   0.659  0.5491 -0.2612  0.2277
  710TMC3     C10499   0.710   2.874   0.799 -0.7717  0.0628  0.1362
  710TMC3     O10500   0.665   2.925   0.701  0.2674  0.0933  0.8358
  710TMC3     H10501   0.823   2.865   0.570  0.0037 -0.1935 -0.3836
  710TMC3    H110502   0.799   2.647   0.944  1.9565  0.3651 -0.2771
  710TMC3    H210503   1.012   2.490   0.608 -0.0481  0.0925 -1.0151
  710TMC3    C710504   0.916   2.431   0.866 -0.4287  0.0172 -0.6019
  710TMC3    C810505   0.947   2.661   0.445  0.4128  0.1086 -0.4711
  710TMC3    O110506   0.920   2.433   0.988 -0.2973  0.1048  0.3499
  710TMC3    O210507   1.049   2.594   0.421 -0.6486  0.6455  0.4034
  711TMC3    C110508   0.828   3.573  15.098  0.2137  0.6784 -0.3551
  711TMC3    C210509   0.772   3.539  15.221 -0.0267 -0.6468 -0.5170
  711TMC3    C310510   0.839   3.585  15.339  0.8680 -0.2377 -0.0053
  711TMC3    C410511   0.955   3.622  15.087 -0.9103  0.0233  0.0482
  711TMC3    C510512   1.026   3.642  15.206  0.0971  0.1039  0.0654
  711TMC3    C610513   0.955   3.649  15.329 -0.4412  0.2994 -0.2200
  711TMC3     C10514   0.758   3.547  14.973 -0.8365  0.7734  0.1975
  711TMC3     O10515   0.676   3.458  14.971 -0.1052 -0.0411 -0.3277
  711TMC3     H10516   0.669   3.504  15.228  0.0518 -0.3963  2.0221
  711TMC3    H110517   1.003   3.654  14.996 -0.3607 -1.0468 -0.0322
  711TMC3    H210518   1.000   3.692  15.418  1.4411 -2.1617  0.0215
  711TMC3    C710519   1.136   3.554  15.234 -0.0546 -0.9931  0.5724
  711TMC3    C810520   0.836   3.493  15.448 -0.4217  0.1276 -0.2018
  711TMC3    O110521   1.172   3.558  15.352 -0.0793 -0.5024 -0.2322
  711TMC3    O210522   0.730   3.443  15.480  0.0833  0.5581  0.5661
  712MPD2     C10523   2.451   4.530  14.388  0.1635 -0.5688  0.6919
  712MPD2    C110524   2.364   4.586  14.300 -0.8690  0.4194  0.3568
  712MPD2    C210525   2.407   4.677  14.204 -0.0801  0.1990 -0.3107
  712MPD2    C310526   2.531   0.010  14.209  1.0279 -0.6727  0.0107
  712MPD2    C410527   2.616   4.694  14.308  0.4105  0.2622  0.2802
  712MPD2    C510528   2.574   4.588  14.392 -0.5136  0.0614 -0.2126
  712MPD2     H10529   2.342   4.699  14.121  0.7843  1.6717 -0.6151
  712MPD2    H110530   2.710   0.018  14.327  0.8034  0.1330 -1.3339
  712MPD2    H210531   2.424   4.458  14.465 -1.7106 -0.9983 -0.3638
  712MPD2    H310532   2.646   4.572  14.471  0.1024 -1.1483 -1.0175
  712MPD2     N10533   2.580   0.106  14.126  0.1547  0.0164 -0.4572
  712MPD2    H510534   2.677   0.134  14.137 -0.3539  2.2890 -1.7187
  712MPD2    N110535   2.225   4.552  14.303  0.3464  0.4426  0.0841
  712MPD2    H710536   2.157   4.606  14.251 -0.8786 -1.8704 -0.7555
  713TMC3    C110537   2.610   0.233  13.935  0.4214  0.3223 -0.2850
  713TMC3    C210538   2.736   0.192  13.930 -0.0282 -0.5808  0.9036
  713TMC3    C310539   2.816   0.245  13.831 -0.2432 -0.5101 -0.7350
  713TMC3    C410540   2.560   0.322  13.843  0.2725  1.2437 -0.4879
  713TMC3    C510541   2.642   0.376  13.742  0.2462  0.2075 -0.3792
  713TMC3    C610542   2.774   0.336  13.736 -0.0195  0.6177  0.4820
  713TMC3     C10543   2.516   0.171  14.023  0.3672  0.2144 -0.0803
  713TMC3     O10544   2.397   0.169  13.992  0.2631  0.9224 -0.1309
  713TMC3     H10545   2.780   0.131  14.008 -0.0130  0.2300  1.5290
  713TMC3    H110546   2.463   0.361  13.869 -0.8683 -2.6738  1.1317
  713TMC3    H210547   2.844   0.384  13.668 -2.9910  0.5623 -2.6460
  713TMC3    C710548   2.615   0.505  13.685  0.2352  0.2365  0.3400
  713TMC3    C810549   2.957   0.245  13.854 -0.7681  0.4366  0.7789
  713TMC3    O110550   2.713   0.559  13.636 -0.6024  0.4733 -0.0307
  713TMC3    O210551   3.018   0.326  13.785 -0.5908 -0.0501 -0.5073
  714MPD2     C10552   4.053   3.274   2.160 -0.2617 -0.2764  0.2524
  714MPD2    C110553   4.118   3.259   2.042  0.2605 -0.1347  0.1096
  714MPD2    C210554   4.054   3.296   1.927  0.1426 -0.3738 -0.2102
  714MPD2    C310555   3.935   3.366   1.929 -0.0881  0.3506 -0.0910
  714MPD2    C410556   3.875   3.391   2.050  0.3310 -0.0844 -0.3275
  714MPD2    C510557   3.933   3.342   2.166  0.2024 -0.2877 -0.3336
  714MPD2     H10558   4.104   3.299   1.830  2.7172 -3.3244  1.0454
  714MPD2    H110559   3.782   3.447   2.043 -0.7999 -1.8302  0.6198
  714MPD2    H210560   4.096   3.257   2.258  0.8657  0.0521 -0.1940
  714MPD2    H310561   3.884   3.367   2.260  1.4119  3.0523 -0.5942
  714MPD2     N10562   3.874   3.431   1.818  0.1005  0.4620  0.0290
  714MPD2    H510563   3.785   3.477   1.835 -0.3162 -0.5359  0.5301
  714MPD2    N110564   4.256   3.224   2.042  0.7568  0.0702  0.3667
  714MPD2    H710565   4.307   3.236   2.129 -1.4923  0.4708  1.6361
  715TMC3    C110566   4.475   3.188   1.970 -0.0881  0.4449 -0.0303
  715TMC3    C210567   4.553   3.125   1.879  0.7638  0.0537  0.0721
  715TMC3    C310568   4.681   3.096   1.908 -0.4853  0.8675 -0.5798
  715TMC3    C410569   4.524   3.223   2.091 -0.4478  0.4488  0.1328
  715TMC3    C510570   4.657   3.193   2.121  0.3854  0.0707  0.1229
  715TMC3    C610571   0.009   3.132   2.033 -0.3208 -0.1629  0.1013
  715TMC3     C10572   4.335   3.201   1.933 -0.3965 -0.8017  0.2675
  715TMC3     O10573   4.313   3.194   1.812  0.0309  0.3997 -0.3085
  715TMC3     H10574   4.510   3.096   1.784 -1.2027  3.0778  0.0378
  715TMC3    H110575   4.469   3.288   2.157 -0.0092  2.3451 -1.3599
  715TMC3    H210576   0.113   3.111   2.056 -0.4913 -2.9715 -1.6725
  715TMC3    C710577   0.001   3.259   2.226 -0.7282 -0.4479  0.8361
  715TMC3    C810578   0.015   3.014   1.820 -0.5119  0.6546 -0.0844
  715TMC3    O110579   0.120   3.265   2.217 -0.0143 -0.3451  0.0058
  715TMC3    O210580   4.674   2.976   1.728 -0.2334  0.5757 -0.4364
  716MPD2     C10581   4.694   0.918   9.865  0.1561 -0.4045 -0.5671
  716MPD2    C110582   0.058   0.838   9.797 -0.7733  0.0562  0.4656
  716MPD2    C210583   0.009   0.768   9.689  0.5271 -0.2958  0.1684
  716MPD2    C310584   4.606   0.774   9.648  0.5598 -0.7541  0.3115
  716MPD2    C410585   4.518   0.846   9.731  0.0617 -0.1494  0.0001
  716MPD2    C510586   4.561   0.922   9.834 -0.0227  0.1868 -0.2187
  716MPD2     H10587   0.080   0.712   9.630 -1.7317 -1.8737 -1.0295
  716MPD2    H110588   4.414   0.861   9.703  0.7536  0.4282 -2.2494
  716MPD2    H210589   0.016   0.983   9.937 -1.5870  0.4222 -0.1552
  716MPD2    H310590   4.509   0.993   9.898  1.9280  0.2302  1.2972
  716MPD2     N10591   4.560   0.711   9.528  0.6355  0.2138 -0.0973
  716MPD2    H510592   4.461   0.689   9.527  0.4459  0.8624  3.1088
  716MPD2    N110593   0.203   0.848   9.823  0.0415 -0.6818  0.4847
  716MPD2    H710594   0.244   0.923   9.877 -0.1540  0.8917 -1.5401
  717TMC3    C110595   4.539   0.606   9.325 -0.6744 -0.3250  0.3560
  717TMC3    C210596   4.425   0.670   9.300 -0.1281  0.3221  0.8429
  717TMC3    C310597   4.340   0.612   9.216 -0.0403 -0.3022 -0.0663
  717TMC3    C410598   4.586   0.495   9.266 -0.1181  0.1405 -0.4139
  717TMC3    C510599   4.491   0.432   9.193 -0.3521 -0.0715  0.2628
  717TMC3    C610600   4.366   0.483   9.175 -0.6663  0.3255  0.5509
  717TMC3     C10601   4.633   0.653   9.427 -0.4498  0.3137 -0.7537
  717TMC3     O10602   0.026   0.624   9.421 -0.3724  0.4566 -0.1261
  717TMC3     H10603   4.403   0.756   9.363  0.5582  1.6272 -0.7090
  717TMC3    H110604   4.684   0.457   9.293  0.5636  1.6184 -0.7909
  717TMC3    H210605   4.291   0.428   9.118  2.1884 -4.1496  1.1069
  717TMC3    C710606   4.509   0.297   9.136 -0.8936  0.9961  0.2309
  717TMC3    C810607   4.225   0.686   9.189  0.3976  0.6988  0.0029
  717TMC3    O110608   4.413   0.244   9.084 -1.0154 -0.1021  0.0039
  717TMC3    O210609   4.188   0.775   9.266  0.0168  0.4524 -0.6572
  718MPD2     C10610   3.835   4.477  13.385  0.3866  0.4291 -0.0341
  718MPD2    C110611   3.775   4.570  13.301  0.8429  0.1048 -0.9113
  718MPD2    C210612   3.678   4.538  13.211  0.4035  0.3715  0.2223
  718MPD2    C310613   3.638   4.409  13.208  0.3874 -0.7597 -0.5523
  718MPD2    C410614   3.688   4.303  13.285 -0.1557  0.9888  0.3445
  718MPD2    C510615   3.785   4.340  13.376  0.5180  0.0843 -0.0772
  718MPD2     H10616   3.636   4.612  13.144 -1.8643 -3.4349 -2.5469
  718MPD2    H110617   3.660   4.199  13.272  0.5393  0.9684 -1.0147
  718MPD2    H210618   3.905   4.502  13.465  1.3494  2.8841 -1.6409
  718MPD2    H310619   3.828   4.268  13.446  3.3898 -1.3138 -3.2963
  718MPD2     N10620   3.533   4.371  13.115  0.0888  0.2541 -0.0114
  718MPD2    H510621   3.495   4.277  13.125  1.2480 -0.0426  1.6029
  718MPD2    N110622   3.815   4.705  13.293  0.5254 -0.1511 -0.3019
  718MPD2    H710623   3.758   0.045  13.241 -0.7633 -0.2240  1.0016
  719TMC3    C110624   3.942   0.176  13.283  0.0245  0.0452 -0.3370
  719TMC3    C210625   3.825   0.232  13.257  0.1296  0.7322 -0.6544
  719TMC3    C310626   3.813   0.304  13.145 -0.4173 -0.4793 -0.5049
  719TMC3    C410627   4.055   0.194  13.212 -0.1197 -0.0241  0.0974
  719TMC3    C510628   4.036   0.262  13.094  0.2597 -0.1209 -0.0190
  719TMC3    C610629   3.920   0.321  13.060 -0.5600  0.6920 -0.2247
  719TMC3     C10630   3.938   0.035  13.326 -0.1834  0.1973 -0.1526
  719TMC3     O10631   4.042   4.703  13.362 -0.1382  0.8041  0.2811
  719TMC3     H10632   3.749   0.212  13.333  0.7091 -0.5834 -0.4259
  719TMC3    H110633   4.150   0.166  13.256 -0.6186 -3.2152 -0.8832
  719TMC3    H210634   3.921   0.397  12.982 -1.5907 -0.3631 -1.2605
  719TMC3    C710635   4.154   0.288  13.005 -0.3644  0.0095 -0.1355
  719TMC3    C810636   3.696   0.253  13.082  1.0215 -0.3563  0.6373
  719TMC3    O110637   4.143   0.376  12.916  0.4962 -0.3345 -0.1055
  719TMC3    O210638   3.629   0.178  13.147 -0.6556  0.2820 -0.0622
  720MPD2     C10639   2.261   1.583  14.175 -0.5037 -0.0812 -0.4320
  720MPD2    C110640   2.294   1.705  14.122 -0.4107 -0.3132  0.0670
  720MPD2    C210641   2.416   1.762  14.153  0.4095 -0.1331  0.6103
  720MPD2    C310642   2.511   1.688  14.215  0.1090  0.2854 -0.0825
  720MPD2    C410643   2.476   1.574  14.280  0.5218  0.2218  0.3389
  720MPD2    C510644   2.347   1.524  14.260 -0.9158 -0.4395 -0.5436
  720MPD2     H10645   2.438   1.862  14.118  0.0563 -0.1628  0.3046
  720MPD2    H110646   2.551   1.511  14.325  0.0158 -1.0013 -0.5178
  720MPD2    H210647   2.179   1.527  14.131 -0.7499 -0.9914  1.1825
  720MPD2    H310648   2.318   1.431  14.307  0.1875  0.1409  1.3085
  720MPD2     N10649   2.645   1.745  14.231 -0.1822 -0.4535  0.7662
  720MPD2    H510650   2.674   1.806  14.155  0.1841 -1.4505  0.1137
  720MPD2    N110651   2.210   1.779  14.037  0.4103  0.0045 -0.0366
  720MPD2    H710652   2.261   1.849  13.985  2.1008 -0.4780  0.9572
  721TMC3    C110653   2.849   1.783  14.335  0.2717 -1.0164 -0.2785
  721TMC3    C210654   2.897   1.797  14.462 -0.4867 -0.5719  0.6259
  721TMC3    C310655   3.030   1.839  14.472  0.2895  0.3149  0.1670
  721TMC3    C410656   2.913   1.809  14.217  0.1754  0.2686  0.6459
  721TMC3    C510657   3.041   1.848  14.230  0.4661  0.2497 -0.0568
  721TMC3    C610658   3.099   1.862  14.357 -0.1343  0.2962  0.0002
  721TMC3     C10659   2.721   1.715  14.338 -0.0337  0.6134 -0.2402
  721TMC3     O10660   2.690   1.653  14.440  0.3828  0.6513 -0.3127
  721TMC3     H10661   2.842   1.769  14.551 -1.1456 -1.1582  0.0326
  721TMC3    H110662   2.870   1.767  14.127 -0.2623 -0.9267  1.4052
  721TMC3    H210663   3.205   1.881  14.371  0.5933 -2.1262 -2.2090
  721TMC3    C710664   3.116   1.830  14.109 -0.1044 -0.0480 -0.6088
  721TMC3    C810665   3.095   1.831  14.596 -0.2397 -0.1768 -0.0868
  721TMC3    O110666   3.074   1.757  14.023  0.5673  0.0253 -0.2308
  721TMC3    O210667   3.208   1.876  14.585 -0.4845  0.3945  0.3359
  722MPD2     C10668   1.517   0.197  13.733 -0.1767 -0.4181  0.1608
  722MPD2    C110669   1.460   0.318  13.705  0.3055 -0.5563 -0.1317
  722MPD2    C210670   1.318   0.332  13.728 -0.3482 -0.9637 -1.2123
  722MPD2    C310671   1.247   0.228  13.778  0.1472 -0.5937  0.0986
  722MPD2    C410672   1.314   0.113  13.811  0.3813 -0.4041 -0.4757
  722MPD2    C510673   1.449   0.106  13.798  0.1362  0.0513  0.8052
  722MPD2     H10674   1.272   0.426  13.700 -2.4686 -1.4840  0.5642
  722MPD2    H110675   1.263   0.028  13.855 -1.2054  1.1971  0.7641
  722MPD2    H210676   1.623   0.174  13.726  0.1461  0.4219  2.2514
  722MPD2    H310677   1.497   0.014  13.828  1.3143 -0.0588 -1.3829
  722MPD2     N10678   1.108   0.242  13.784  0.0932  0.4422  0.1775
  722MPD2    H510679   1.084   0.333  13.747  0.6983 -0.2960 -1.9950
  722MPD2    N110680   1.518   0.420  13.631 -0.0088 -0.1820 -0.3076
  722MPD2    H710681   1.460   0.502  13.618 -0.1813 -0.0624  1.2371
  723TMC3    C110682   0.881   0.180  13.808  0.1486 -0.6099  0.8815
  723TMC3    C210683   0.793   0.079  13.780 -0.5283 -0.8754  0.6822
  723TMC3    C310684   0.672   0.084  13.841  0.1205 -0.9912  0.1983
  723TMC3    C410685   0.848   0.290  13.879  1.2472 -0.4421  0.8301
  723TMC3    C510686   0.721   0.296  13.930  0.4171  0.0177 -0.3672
  723TMC3    C610687   0.633   0.187  13.917  0.3527 -0.4254  0.4785
  723TMC3     C10688   1.018   0.138  13.800 -0.1897  0.5110  0.1304
  723TMC3     O10689   1.045   0.017  13.795  0.3946  0.6425  0.5940
  723TMC3     H10690   0.834   4.717  13.733  2.0129  0.3254  0.6229
  723TMC3    H110691   0.910   0.374  13.906  0.1601  0.9175 -0.8805
  723TMC3    H210692   0.540   0.184  13.973  0.8718 -2.3931  1.2266
  723TMC3    C710693   0.688   0.379  14.042  0.2467  0.1391  0.0034
  723TMC3    C810694   0.572   4.702  13.822 -0.0814  0.2063 -0.4888
  723TMC3    O110695   0.655   0.333  14.147  0.0803 -0.0575  0.3517
  723TMC3    O210696   0.474   4.697  13.897 -0.3393 -0.3807 -0.0495
  724TMC3    C110697   1.311   4.161   9.443 -0.3975  1.1120 -0.2410
  724TMC3    C210698   1.325   4.067   9.541 -0.1991 -0.3544  0.3324
  724TMC3    C310699   1.434   4.075   9.629  0.3177  0.2512 -0.9015
  724TMC3    C410700   1.403   4.262   9.429  0.3473 -0.0990  0.0259
  724TMC3    C510701   1.504   4.277   9.524 -0.3573  0.6710 -0.0454
  724TMC3    C610702   1.532   4.175   9.618 -0.1760 -0.6702  0.6588
  724TMC3     C10703   1.193   4.163   9.359 -0.0321 -0.0496 -0.8658
  724TMC3     O10704   1.211   4.238   9.260 -0.4046  0.2224 -0.3437
  724TMC3     H10705   1.238   4.010   9.572 -0.1343 -0.7190 -0.1597
  724TMC3    H110706   1.400   4.327   9.342  0.9309 -0.5413 -0.3296
  724TMC3    H210707   1.616   4.175   9.687 -0.9583 -1.5157  1.6173
  724TMC3    C710708   1.609   4.377   9.505 -0.3393 -0.5262 -0.1732
  724TMC3    C810709   1.430   3.965   9.731 -0.0028  0.0209 -0.4516
  724TMC3    O110710   1.719   4.357   9.555  0.3010 -0.0275  0.1575
  724TMC3    O210711   1.350   3.875   9.716  0.1800 -0.5782 -0.1456
  725TMC3    C110712   3.350   1.765  12.589  0.2866 -0.0518 -0.5637
  725TMC3    C210713   3.353   1.801  12.454 -0.2832 -0.0502  0.1172
  725TMC3    C310714   3.447   1.736  12.384 -0.0878 -0.2872  0.6349
  725TMC3    C410715   3.452   1.698  12.648  0.1476  0.0723 -0.0401
  725TMC3    C510716   3.551   1.640  12.569 -0.2151 -0.5522  0.2374
  725TMC3    C610717   3.546   1.648  12.432  0.2467 -0.3755  0.6140
  725TMC3     C10718   3.271   1.856  12.665  0.2182  0.0631  0.0305
  725TMC3     O10719   3.220   1.945  12.603 -0.2772 -0.0592  0.6684
  725TMC3     H10720   3.268   1.846  12.404  0.1696  1.0945  0.3834
  725TMC3    H110721   3.454   1.686  12.756 -0.5921  2.8375  0.2842
  725TMC3    H210722   3.612   1.593  12.366  1.0359  0.4078  0.7488
  725TMC3    C710723   3.677   1.613  12.634 -0.1279  0.2496 -0.7639
  725TMC3    C810724   3.431   1.735  12.241  0.2663  0.6830  0.5157
  725TMC3    O110725   3.696   1.665  12.742  0.4635 -0.4477 -0.8686
  725TMC3    O210726   3.498   1.650  12.188 -0.0590  0.4025  0.2784
  726MPD2     C10727   0.974   3.819  10.582  0.4438 -0.4401  0.4700
  726MPD2    C110728   0.894   3.879  10.682  0.2769 -0.9322 -0.4732
  726MPD2    C210729   0.809   3.803  10.764  0.1148  0.0108  0.6270
  726MPD2    C310730   0.804   3.665  10.745  0.4808 -1.0598 -0.0240
  726MPD2    C410731   0.882   3.609  10.642 -0.1753  0.0119 -0.2837
  726MPD2    C510732   0.969   3.683  10.562 -0.2408 -0.4833  0.3316
  726MPD2     H10733   0.754   3.854  10.842 -2.1204 -0.3861 -0.6929
  726MPD2    H110734   0.881   3.504  10.617 -2.3951  0.1046 -0.5465
  726MPD2    H210735   1.009   3.883  10.501 -0.9032 -0.5417 -0.1966
  726MPD2    H310736   1.028   3.644  10.479 -0.1984 -1.1033  0.6542
  726MPD2     N10737   0.725   3.577  10.820 -0.0352  0.1848 -0.7399
  726MPD2    H510738   0.712   3.481  10.788  0.7709 -0.0922 -0.2259
  726MPD2    N110739   0.880   4.022  10.689 -0.5464 -0.1186 -0.2510
  726MPD2    H710740   0.808   4.060  10.748 -1.1524 -0.6575 -0.6420
  727TMC3    C110741   0.927   4.246  10.630  0.2247  1.2654 -0.0104
  727TMC3    C210742   1.018   4.346  10.646  0.1589  0.8947 -0.0263
  727TMC3    C310743   0.978   4.473  10.618  0.6402 -0.2634 -1.0590
  727TMC3    C410744   0.804   4.274  10.579 -0.0044 -1.0127 -0.0551
  727TMC3    C510745   0.764   4.401  10.560  0.1056  0.5721 -0.4445
  727TMC3    C610746   0.849   4.505  10.582 -0.2922  0.1157 -0.0864
  727TMC3     C10747   0.970   4.107  10.635 -0.0650 -0.3688  0.2444
  727TMC3     O10748   1.079   4.085  10.582  0.8649  0.8139 -0.1350
  727TMC3     H10749   1.121   4.324  10.673 -0.1591 -1.7539 -0.9215
  727TMC3    H110750   0.738   4.188  10.571  1.2152 -1.6116 -4.1456
  727TMC3    H210751   0.812   4.607  10.572  1.3115  0.6141 -0.8718
  727TMC3    C710752   0.656   4.434  10.467  0.7001 -0.5083 -0.1917
  727TMC3    C810753   1.085   4.560  10.581 -0.6487  0.4979 -0.2835
  727TMC3    O110754   0.610   4.546  10.474  0.1502 -0.1589  0.7447
  727TMC3    O210755   1.198   4.520  10.593  0.2116  0.0626  0.6327
  728TMC3    C110756   0.301   2.530  15.382  0.8522 -0.1814  0.0306
  728TMC3    C210757   0.418   2.594  15.382  0.7012  0.1473 -0.0729
  728TMC3    C310758   0.475   2.637  15.267 -0.5436  0.7402  0.2167
  728TMC3    C410759   0.229   2.511  15.273 -0.0904  0.2709  0.3635
  728TMC3    C510760   0.278   2.564  15.158 -0.5694 -0.5915 -0.0348
  728TMC3    C610761   0.404   2.631  15.154 -0.3109 -0.3169  0.0318
  728TMC3     C10762   0.243   2.471  15.497  0.9401  0.5416  0.0891
  728TMC3     O10763   0.168   2.371  15.473  0.2404 -0.0554 -0.1716
  728TMC3     H10764   0.453   2.615  15.482  1.1076 -1.0440  0.0397
  728TMC3    H110765   0.134   2.457  15.269 -0.4684  0.8392  1.9948
  728TMC3    H210766   0.446   2.665  15.059  1.9693  1.0641  1.5281
  728TMC3    C710767   0.190   2.575  15.041 -0.2403  0.2028  0.4034
  728TMC3    C810768   0.577   2.741  15.265 -0.1873  0.1625  0.1729
  728TMC3    O110769   0.095   2.498  15.049 -0.0562  0.5612 -0.1365
  728TMC3    O210770   0.580   2.809  15.160  0.5329  0.1670  0.1937
  729MPD2     C10771   2.364   3.346  16.582  0.2445  0.3838 -0.2320
  729MPD2    C110772   2.476   3.311  16.658 -0.3023 -0.3402 -0.6406
  729MPD2    C210773   2.440   3.263  16.784  0.4941  0.4556  0.1136
  729MPD2    C310774   2.313   3.267  16.836  0.8657  0.0241 -0.6918
  729MPD2    C410775   2.207   3.309  16.753 -0.0782  0.0703  0.1660
  729MPD2    C510776   2.230   3.341  16.628  1.1705 -0.5435 -0.7438
  729MPD2     H10777   2.529   3.230  16.837 -0.9614 -2.2276  0.8920
  729MPD2    H110778   2.109   3.321  16.799  0.2234  0.8285  0.6236
  729MPD2    H210779   2.370   3.378  16.478 -1.1725 -1.5456 -0.9272
  729MPD2    H310780   2.152   3.377  16.563  0.5369 -0.2677  0.1739
  729MPD2     N10781   2.283   3.248  16.975  0.3512  0.0425 -0.3261
  729MPD2    H510782   2.188   3.267  17.003  0.1042 -2.5009  0.4758
  729MPD2    N110783   2.609   3.325  16.601 -0.0542  0.4871 -0.7405
  729MPD2    H710784   2.610   3.370  16.510 -3.3558 -0.1487 -1.0857
  730TMC3    C110785   2.307   3.250  17.211  0.2193 -0.5752  0.2062
  730TMC3    C210786   2.362   3.183  17.315 -0.8178  0.0298 -0.2179
  730TMC3    C310787   2.340   3.239  17.436 -0.6235 -0.3711 -0.8603
  730TMC3    C410788   2.244   3.370  17.223 -0.4586  0.1730 -0.0293
  730TMC3    C510789   2.223   3.426  17.344  0.4118  0.4452 -0.4501
  730TMC3    C610790   2.269   3.355  17.455  0.2295 -0.3553  0.4623
  730TMC3     C10791   2.372   3.224  17.079 -0.5213 -0.1360  0.1368
  730TMC3     O10792   2.489   3.192  17.070 -0.0006 -0.1681  0.1687
  730TMC3     H10793   2.416   3.090  17.303  0.1428  0.9136 -2.6753
  730TMC3    H110794   2.208   3.429  17.139 -0.1285 -1.7237 -1.4925
  730TMC3    H210795   2.244   3.384  17.556 -0.1504  0.6096  0.0930
  730TMC3    C710796   2.211   3.572  17.351 -0.7850  0.2811 -0.5309
  730TMC3    C810797   2.367   3.150  17.547  0.0701 -0.2341  0.0781
  730TMC3    O110798   2.220   3.643  17.253  0.1294  0.4227 -0.3471
  730TMC3    O210799   2.378   3.028  17.520 -0.2372  0.0630  0.0847
  731MPD2     C10800   3.037   1.637  12.436 -0.0518  0.3435  0.2716
  731MPD2    C110801   3.124   1.542  12.392  0.1065  0.7050 -0.0721
  731MPD2    C210802   3.195   1.463  12.481  0.6763  0.8948  0.2231
  731MPD2    C310803   3.197   1.485  12.616 -0.1429 -0.5007  0.3583
  731MPD2    C410804   3.095   1.563  12.662  0.5880 -0.3744  0.5315
  731MPD2    C510805   3.023   1.638  12.575 -0.3939 -0.1182 -0.1118
  731MPD2     H10806   3.270   1.396  12.440 -1.8683 -1.1097 -1.0850
  731MPD2    H110807   3.089   1.585  12.768  0.3358 -0.1668  0.4741
  731MPD2    H210808   2.981   1.704  12.372 -0.9452 -0.1068  0.5780
  731MPD2    H310809   2.960   1.708  12.629  0.3572  1.9858 -1.9561
  731MPD2     N10810   3.279   1.406  12.694 -0.5071 -0.1661  0.6730
  731MPD2    H510811   3.334   1.331  12.652 -1.1137 -0.2272 -0.0117
  731MPD2    N110812   3.137   1.537  12.251  0.7070 -0.5714  0.9658
  731MPD2    H710813   3.070   1.594  12.201  1.4511  0.3812  1.0565
  732TMC3    C110814   3.186   1.433  12.046 -0.2537  0.2111  0.2835
  732TMC3    C210815   3.060   1.464  11.995 -0.6348 -0.2072  0.1478
  732TMC3    C310816   3.033   1.427  11.865 -0.4721  0.6576 -0.0344
  732TMC3    C410817   3.282   1.372  11.967  0.2768  0.3052 -0.1922
  732TMC3    C510818   3.253   1.364  11.833  0.3400  0.4485  0.1008
  732TMC3    C610819   3.130   1.392  11.778  0.2769  0.5140 -0.8444
  732TMC3     C10820   3.216   1.441  12.187 -0.1577  0.0483  0.3680
  732TMC3     O10821   3.299   1.357  12.224  0.2724 -0.6132 -0.2314
  732TMC3     H10822   2.980   1.513  12.049 -0.7898 -0.9112  0.5562
  732TMC3    H110823   3.377   1.339  12.007 -0.1559 -0.5982  0.0820
  732TMC3    H210824   3.115   1.379  11.671 -0.5010 -0.3027 -0.6289
  732TMC3    C710825   3.348   1.300  11.745 -0.0038 -0.1218 -0.1558
  732TMC3    C810826   2.892   1.377  11.843  0.7608 -0.7190  0.0672
  732TMC3    O110827   3.301   1.272  11.634  0.0714 -0.3173 -0.3773
  732TMC3    O210828   2.891   1.317  11.738  0.1701 -0.1994  0.3346
  733TMC3    C110829   3.146   4.390  12.990 -1.1077  0.2710 -0.4088
  733TMC3    C210830   3.272   4.354  13.028 -0.4220  0.1885 -0.5465
  733TMC3    C310831   3.377   4.383  12.943  0.4919 -0.6773  0.2880
  733TMC3    C410832   3.124   4.474  12.877  0.3610  0.4956  0.1973
  733TMC3    C510833   3.233   4.504  12.797 -0.0043 -0.5706  0.0604
  733TMC3    C610834   3.351   4.443  12.824 -0.3538  0.3797  0.1411
  733TMC3     C10835   3.025   4.362  13.067  0.2418 -0.1204 -0.0982
  733TMC3     O10836   2.918   4.392  13.017 -0.9027  0.2960 -0.8875
  733TMC3     H10837   3.294   4.290  13.112 -2.7457  0.9404  0.6420
  733TMC3    H110838   3.026   4.512  12.850  0.2029  0.2628  0.4462
  733TMC3    H210839   3.434   4.474  12.763  0.6929 -1.1576  0.7732
  733TMC3    C710840   3.236   4.649  12.765  0.0951 -0.5447  0.6915
  733TMC3    C810841   3.489   4.442  13.008  0.4731 -0.2555  0.2155
  733TMC3    O110842   3.129   4.705  12.728 -0.1339 -0.2307  0.1025
  733TMC3    O210843   3.518   4.553  12.972 -0.2092 -0.5289  0.2348
  734MPD2     C10844   0.973   2.506  12.897  0.4099  0.1597  0.1301
  734MPD2    C110845   0.868   2.463  12.819  0.3036  0.2095  1.4289
  734MPD2    C210846   0.827   2.536  12.705  0.2205 -0.2785 -0.3702
  734MPD2    C310847   0.884   2.661  12.685  0.1042 -0.7166 -0.0976
  734MPD2    C410848   0.966   2.717  12.778  0.3688  0.0771  0.0496
  734MPD2    C510849   1.019   2.639  12.881  0.1494 -0.1838 -0.0152
  734MPD2     H10850   0.761   2.490  12.632 -0.3324 -0.7061  0.3951
  734MPD2    H110851   0.991   2.822  12.771 -0.4115  0.1984 -0.9309
  734MPD2    H210852   1.003   2.453  12.987  0.3107 -1.6807 -0.9327
  734MPD2    H310853   1.081   2.690  12.953  0.3812  0.8792 -0.9618
  734MPD2     N10854   0.836   2.733  12.573 -0.1454 -0.1180  0.2686
  734MPD2    H510855   0.768   2.677  12.523  0.4740 -0.5584 -0.0874
  734MPD2    N110856   0.822   2.331  12.843  0.7004  0.4087 -0.4605
  734MPD2    H710857   0.862   2.269  12.913  0.8265 -0.1526 -1.0264
  735TMC3    C110858   0.686   2.143  12.797 -0.3244  0.3686  0.3723
  735TMC3    C210859   0.562   2.113  12.747 -0.4579 -1.0604  0.2682
  735TMC3    C310860   0.548   2.022  12.648 -0.2027  0.2340  0.1367
  735TMC3    C410861   0.798   2.072  12.754 -0.8490 -0.1283 -0.6430
  735TMC3    C510862   0.778   1.975  12.666  0.0703 -0.6748  0.1577
  735TMC3    C610863   0.660   1.957  12.597  0.0613  0.0735  0.9145
  735TMC3     C10864   0.705   2.284  12.786 -0.6828  0.2238 -0.6544
  735TMC3     O10865   0.622   2.343  12.714  0.5491 -0.3142 -0.0396
  735TMC3     H10866   0.480   2.167  12.791  0.0357  0.5077 -0.7390
  735TMC3    H110867   0.892   2.101  12.800 -0.3575 -1.4948 -0.8060
  735TMC3    H210868   0.645   1.890  12.513 -0.2506 -1.6325  2.3447
  735TMC3    C710869   0.904   1.908  12.619 -0.1461 -0.2980 -0.3103
  735TMC3    C810870   0.469   2.074  12.538  0.1218 -0.3852  0.3625
  735TMC3    O110871   1.007   1.934  12.681  0.4388 -0.6606  0.3291
  735TMC3    O210872   0.434   1.992  12.452  0.5602 -0.1949 -0.4291
  736MPD2     C10873   0.921   1.589  12.456  0.3744 -0.1532 -0.2144
  736MPD2    C110874   0.979   1.706  12.494 -0.0213  0.0496 -0.1006
  736MPD2    C210875   1.115   1.723  12.474 -0.2895 -0.0474 -0.5469
  736MPD2    C310876   1.199   1.618  12.435 -0.0117 -0.1192 -0.6076
  736MPD2    C410877   1.134   1.504  12.389  0.4962 -0.0662  0.1227
  736MPD2    C510878   0.996   1.492  12.401  0.4274  0.4543 -0.4016
  736MPD2     H10879   1.149   1.823  12.498  0.4137 -0.5352  0.4971
  736MPD2    H110880   1.188   1.419  12.349  0.8984  0.2935 -0.0977
  736MPD2    H210881   0.814   1.580  12.469  0.2643 -2.5477 -2.9714
  736MPD2    H310882   0.938   1.402  12.385 -2.0916  1.8450  0.8840
  736MPD2     N10883   1.339   1.627  12.414  0.4148  0.6510  0.1139
  736MPD2    H510884   1.383   1.545  12.373  0.0221  0.0265  0.9222
  736MPD2    N110885   0.882   1.811  12.531 -0.0633  0.3818 -0.6862
  736MPD2    H710886   0.785   1.793  12.505  0.1338  0.5383 -1.5245
  737TMC3    C110887   1.552   1.724  12.374  0.0295 -0.1623  0.4959
  737TMC3    C210888   1.615   1.833  12.348 -0.5424  0.9059 -0.3766
  737TMC3    C310889   1.737   1.832  12.296  0.1043  0.4514 -0.5654
  737TMC3    C410890   1.608   1.602  12.335 -0.4173  0.2271  0.1777
  737TMC3    C510891   1.737   1.607  12.295  0.2080  0.6208  0.0006
  737TMC3    C610892   1.806   1.717  12.277  0.2008  0.6124  0.3903
  737TMC3     C10893   1.409   1.741  12.414 -0.0325  0.5074  0.4008
  737TMC3     O10894   1.360   1.852  12.433  0.4797 -0.1561 -0.0205
  737TMC3     H10895   1.574   1.931  12.370  0.7564  1.2569  0.4587
  737TMC3    H110896   1.553   1.510  12.348  0.9596 -0.9618 -2.5285
  737TMC3    H210897   1.914   1.713  12.267  0.0902 -1.0579 -0.1506
  737TMC3    C710898   1.798   1.477  12.266  0.1545  0.2737  0.0750
  737TMC3    C810899   1.812   1.953  12.304  0.5580  1.1142  0.1302
  737TMC3    O110900   1.738   1.380  12.306 -0.8236  0.0673  0.0111
  737TMC3    O210901   1.761   2.056  12.340 -0.3243 -0.1031  0.1148
  738MPD2     C10902   0.744   0.855  15.233 -0.7733 -0.5320 -1.0684
  738MPD2    C110903   0.822   0.770  15.313  0.4540 -0.0845  0.4033
  738MPD2    C210904   0.941   0.816  15.367 -0.8560 -0.3521 -0.3010
  738MPD2    C310905   0.988   0.943  15.335  0.1815  0.4055 -0.3691
  738MPD2    C410906   0.908   1.027  15.258 -0.1067  0.5906 -0.8276
  738MPD2    C510907   0.786   0.981  15.207 -0.4846 -0.5110 -0.5051
  738MPD2     H10908   1.009   0.749  15.418 -1.6676 -0.3918  0.7288
  738MPD2    H110909   0.941   1.124  15.221 -0.1675  0.6416 -0.7499
  738MPD2    H210910   0.650   0.826  15.187 -1.1280 -0.1259 -0.5926
  738MPD2    H310911   0.717   1.052  15.163 -0.0699  1.7918  2.5968
  738MPD2     N10912   1.113   0.993  15.381  0.1729 -0.3514 -0.1673
  738MPD2    H510913   1.141   1.078  15.334 -0.2009  0.5823  1.3109
  738MPD2    N110914   0.791   0.641  15.334 -0.2772 -0.4553  0.2316
  738MPD2    H710915   0.851   0.591  15.399 -0.3486  0.7465  1.2303
  739TMC3    C110916   1.332   1.020  15.470 -0.0711 -0.0226 -0.8308
  739TMC3    C210917   1.366   1.101  15.361 -0.3551  0.1204  0.0224
  739TMC3    C310918   1.475   1.177  15.382  0.2557 -0.0446 -0.3171
  739TMC3    C410919   1.409   1.001  15.578 -0.2243 -0.7437  0.4159
  739TMC3    C510920   1.516   1.082  15.587 -0.9709  0.0531  0.3778
  739TMC3    C610921   1.549   1.174  15.496  0.0135 -0.1307  0.8401
  739TMC3     C10922   1.205   0.942  15.463 -0.1499  0.4693  0.4813
  739TMC3     O10923   1.195   0.838  15.524 -0.2138  0.4100 -0.2314
  739TMC3     H10924   1.305   1.096  15.272 -0.4615 -0.1030  0.1093
  739TMC3    H110925   1.387   0.934  15.660 -1.6895 -1.3217 -0.4545
  739TMC3    H210926   1.629   1.247  15.508  0.6041 -0.9407  1.8599
  739TMC3    C710927   1.629   1.017  15.651  0.7066 -0.5449 -0.7342
  739TMC3    C810928   1.512   1.256  15.263  0.4605 -0.2345 -0.0905
  739TMC3    O110929   1.622   0.897  15.646 -0.1169  0.6163  0.2875
  739TMC3    O210930   1.426   1.286  15.183 -0.3967  0.4523 -0.7089
  740TMC3    C110931   2.141   2.356  14.907  0.1752  0.2766  0.1462
  740TMC3    C210932   2.186   2.341  15.038  0.7678  0.5760 -0.1490
  740TMC3    C310933   2.318   2.316  15.060  0.3557  0.1457  0.8034
  740TMC3    C410934   2.223   2.337  14.798 -1.0579  0.9154 -0.1051
  740TMC3    C510935   2.357   2.314  14.830  0.3810  0.3501 -0.5745
  740TMC3    C610936   2.405   2.316  14.957  0.0363  0.2277 -0.2186
  740TMC3     C10937   2.022   2.429  14.884  0.4597 -0.4853 -0.3288
  740TMC3     O10938   2.029   2.504  14.793  0.1283  0.0397  0.7806
  740TMC3     H10939   2.118   2.372  15.117 -0.6838  1.5766 -1.7818
  740TMC3    H110940   2.179   2.349  14.700  0.7895  0.2811 -1.0231
  740TMC3    H210941   2.509   2.294  14.976  0.5998  0.0229 -3.4774
  740TMC3    C710942   2.427   2.234  14.730  0.0601 -0.4641  0.3654
  740TMC3    C810943   2.351   2.237  15.179 -0.6671  0.0379  0.7485
  740TMC3    O110944   2.545   2.220  14.757 -0.2543 -0.0118  0.1862
  740TMC3    O210945   2.257   2.225  15.258  0.1001  0.0855  0.4131
  741TMC3    C110946   1.626   1.712  14.953  0.4971  0.4218  0.1454
  741TMC3    C210947   1.525   1.644  14.882  0.7372  0.7422 -0.0910
  741TMC3    C310948   1.434   1.572  14.951  0.6122 -0.2607 -0.4178
  741TMC3    C410949   1.645   1.701  15.093  0.4813  0.1416  1.0394
  741TMC3    C510950   1.544   1.638  15.159  1.0405  0.1710 -0.2005
  741TMC3    C610951   1.442   1.567  15.089  0.6419  0.4210 -0.1255
  741TMC3     C10952   1.754   1.743  14.880  0.6244  0.8050  0.2584
  741TMC3     O10953   1.848   1.739  14.956  0.0342 -0.5724  0.2459
  741TMC3     H10954   1.528   1.640  14.774  1.2958 -1.4035  0.0060
  741TMC3    H110955   1.733   1.725  15.151  2.0620  1.1845 -1.7919
  741TMC3    H210956   1.367   1.505  15.137 -1.5323  1.3284 -2.3446
  741TMC3    C710957   1.575   1.603  15.293  0.9312 -0.2661  0.7580
  741TMC3    C810958   1.343   1.494  14.873  0.4926  0.2235 -0.8796
  741TMC3    O110959   1.691   1.594  15.321  0.4303 -0.2095 -0.1220
  741TMC3    O210960   1.302   1.534  14.763 -0.1029  0.3384 -0.3814
  742TMC3    C110961   1.484   4.158  15.758  0.1569  0.2297 -0.3277
  742TMC3    C210962   1.415   4.235  15.669  0.3639  0.7153 -0.4219
  742TMC3    C310963   1.488   4.323  15.599 -0.2067 -0.1657  0.5853
  742TMC3    C410964   1.619   4.170  15.773 -0.6391  0.0931  0.3330
  742TMC3    C510965   1.688   4.254  15.691  0.1944  0.2355  0.2639
  742TMC3    C610966   1.621   4.335  15.607  0.1819 -0.0513  0.0375
  742TMC3     C10967   1.413   4.072  15.849  0.5052 -0.5749  0.2095
  742TMC3     O10968   1.291   4.064  15.826  1.0758 -0.2091  0.1622
  742TMC3     H10969   1.309   4.221  15.652  0.1445  0.1852  1.3697
  742TMC3    H110970   1.681   4.101  15.829  1.0415  0.8296 -0.6190
  742TMC3    H210971   1.676   4.397  15.536  4.3690 -0.3323  2.9896
  742TMC3    C710972   1.826   4.273  15.697  0.4721 -0.3052 -0.9465
  742TMC3    C810973   1.438   4.344  15.472 -0.1540 -0.0861 -0.3231
  742TMC3    O110974   1.883   4.296  15.589  0.4745 -0.1609  0.2455
  742TMC3    O210975   1.517   4.333  15.380 -0.5567  0.5464 -0.4105
  743MPD2     C10976   3.088   2.461   2.024 -0.6050 -1.0947 -1.2678
  743MPD2    C110977   3.190   2.426   1.942 -0.9566  0.1101 -0.0458
  743MPD2    C210978   3.274   2.325   1.984  0.2057 -0.3499 -0.0822
  743MPD2    C310979   3.275   2.282   2.116 -0.1530 -0.8063 -0.1297
  743MPD2    C410980   3.186   2.332   2.205  0.3911  0.3576 -0.2222
  743MPD2    C510981   3.089   2.414   2.153 -0.4747 -0.2843  0.2815
  743MPD2     H10982   3.358   2.292   1.923 -0.2179 -0.2978 -0.6895
  743MPD2    H110983   3.185   2.303   2.309 -3.9201  1.3605  0.0187
  743MPD2    H210984   3.010   2.529   1.991  0.6709  1.0679  0.1912
  743MPD2    H310985   3.013   2.455   2.218  0.8034  0.7963  1.0969
  743MPD2     N10986   3.362   2.168   2.148  0.1213  0.8922  0.6702
  743MPD2    H510987   3.405   2.124   2.067 -0.5205  1.7521 -0.1518
  743MPD2    N110988   3.196   2.481   1.809  0.3415 -0.4459 -0.3388
  743MPD2    H710989   3.115   2.538   1.787  2.5589  2.1816 -1.6958
  744TMC3    C110990   3.270   2.516   1.586 -1.0197  0.2839  0.5080
  744TMC3    C210991   3.166   2.597   1.546  0.8087  0.5106 -0.2138
  744TMC3    C310992   3.145   2.612   1.417  0.0771 -0.2132  0.5720
  744TMC3    C410993   3.336   2.441   1.492 -0.2262 -0.2345  0.1991
  744TMC3    C510994   3.298   2.455   1.362  0.2115  0.0666  0.7243
  744TMC3    C610995   3.213   2.548   1.322  0.3451 -0.3591  1.0387
  744TMC3     C10996   3.296   2.463   1.716  0.4261  0.3708  0.2998
  744TMC3     O10997   3.394   2.394   1.724 -0.5379  0.4007  0.4934
  744TMC3     H10998   3.111   2.652   1.622  0.4101 -1.0190  0.6091
  744TMC3    H110999   3.417   2.372   1.514 -1.4407 -1.6054  0.3510
  744TMC3    H211000   3.181   2.558   1.219 -2.6673 -1.3996  1.8513
  744TMC3    C711001   3.366   2.376   1.264 -0.2503  0.1732  0.4933
  744TMC3    C811002   3.022   2.674   1.365 -0.3235  0.3672  0.3636
  744TMC3    O111003   3.481   2.338   1.293  0.0845 -0.5698  0.5252
  744TMC3    O211004   2.994   2.663   1.245  0.3296 -0.3428  0.5659
  745TMC3    C111005   2.026   4.461  14.364 -0.3496  0.1373  0.2982
  745TMC3    C211006   1.946   4.458  14.476  0.2837  0.1753  0.1133
  745TMC3    C311007   1.811   4.468  14.458  0.3465  0.0688  0.5007
  745TMC3    C411008   1.972   4.477  14.237  0.8411 -0.7362  0.7616
  745TMC3    C511009   1.843   4.511  14.224 -0.5951 -0.7569  0.8535
  745TMC3    C611010   1.759   4.499  14.332 -0.2272  0.0629  0.2527
  745TMC3     C11011   2.166   4.456  14.381  0.2495 -0.5075 -0.0052
  745TMC3     O11012   2.207   4.398  14.481 -0.2217  0.0546  0.1871
  745TMC3     H11013   1.981   4.430  14.575  0.0819  2.4769  0.8292
  745TMC3    H111014   2.033   4.458  14.150 -1.1992  2.6235 -1.3828
  745TMC3    H211015   1.653   4.497  14.312  0.1901 -2.4568 -1.6830
  745TMC3    C711016   1.787   4.546  14.095  0.2600 -0.3068  0.5875
  745TMC3    C811017   1.725   4.515  14.566  0.2039  0.1011 -0.2445
  745TMC3    O111018   1.668   4.579  14.095  0.2489  0.0379  0.0383
  745TMC3    O211019   1.605   4.501  14.547 -0.4221 -0.1049 -0.4964
  746TMC3    C111020   0.148   1.612  11.219 -0.1457 -0.4248 -1.0270
  746TMC3    C211021   0.279   1.616  11.182  0.6624 -0.5929  0.5176
  746TMC3    C311022   0.315   1.502  11.105 -0.1207  0.1897 -0.6428
  746TMC3    C411023   0.072   1.494  11.221 -0.2891 -0.4790 -0.4137
  746TMC3    C511024   0.116   1.390  11.149  0.4848  0.0848  0.3766
  746TMC3    C611025   0.231   1.401  11.079 -0.1297 -0.2317  0.8843
  746TMC3     C11026   0.083   1.737  11.223  0.0024 -0.0875  0.0190
  746TMC3     O11027   4.695   1.749  11.251  0.2475  0.1349  0.1562
  746TMC3     H11028   0.352   1.692  11.205  0.4196 -0.4488  0.8069
  746TMC3    H111029   4.696   1.489  11.257 -0.5201 -0.5612 -1.0813
  746TMC3    H211030   0.256   1.311  11.024  3.1152  0.3676  1.3574
  746TMC3    C711031   0.018   1.296  11.095 -0.7124 -0.5467  0.2757
  746TMC3    C811032   0.420   1.538  11.010 -0.0750  0.1606  0.1396
  746TMC3    O111033   0.035   1.272  10.974 -0.5291 -0.3021 -0.6359
  746TMC3    O211034   0.450   1.656  11.006 -0.0381  0.0412 -0.1926
  747TMC3    C111035   2.546   1.323  11.496 -0.3015  0.3239 -0.4000
  747TMC3    C211036   2.443   1.270  11.570 -0.4024  0.7381  0.5042
  747TMC3    C311037   2.405   1.337  11.689 -1.0252  0.0533 -0.2567
  747TMC3    C411038   2.612   1.430  11.544  0.4396  0.7488  0.5753
  747TMC3    C511039   2.581   1.480  11.668 -0.0145  1.1547  0.1745
  747TMC3    C611040   2.479   1.432  11.745 -0.3831 -0.9570  0.7793
  747TMC3     C11041   2.591   1.276  11.367  0.5995 -0.0264  0.1837
  747TMC3     O11042   2.705   1.308  11.337 -0.7862 -0.2902 -0.0599
  747TMC3     H11043   2.363   1.218  11.520  0.7663  2.0854 -2.7205
  747TMC3    H111044   2.673   1.484  11.472 -0.5991  0.2556 -0.6926
  747TMC3    H211045   2.460   1.478  11.841  2.1802  1.2072  0.2479
  747TMC3    C711046   2.646   1.608  11.704  0.0307 -0.2268  0.7964
  747TMC3    C811047   2.301   1.267  11.765 -0.1281  0.3210  0.3230
  747TMC3    O111048   2.594   1.671  11.796  0.0210 -0.4019 -0.1822
  747TMC3    O211049   2.269   1.150  11.727  0.4741 -0.3744 -0.5626
  748MPD2     C11050   2.701   3.204   1.870 -0.3546  0.4224 -0.1801
  748MPD2    C111051   2.775   3.100   1.917  0.8229 -0.1246  0.6959
  748MPD2    C211052   2.911   3.091   1.893  0.0165 -0.1672 -0.3762
  748MPD2    C311053   2.967   3.196   1.823  0.3624  0.8563  0.3589
  748MPD2    C411054   2.894   3.305   1.784 -0.6812 -0.5214  0.2145
  748MPD2    C511055   2.759   3.311   1.812  0.3248 -0.9425  0.3369
  748MPD2     H11056   2.969   3.007   1.931 -0.3418 -0.2837 -0.0799
  748MPD2    H111057   2.942   3.391   1.738 -1.1059 -0.4404 -0.0861
  748MPD2    H211058   2.593   3.209   1.880 -0.6521  0.3625 -3.4240
  748MPD2    H311059   2.701   3.390   1.766 -1.5037 -1.8660  1.0325
  748MPD2     N11060   3.108   3.184   1.799  0.6235 -0.0224  0.5158
  748MPD2    H511061   3.159   3.121   1.860  2.5144  1.4654  0.4828
  748MPD2    N111062   2.699   2.996   1.983  0.1899  0.2449 -0.8741
  748MPD2    H711063   2.602   3.019   2.001 -0.0909 -1.7530  0.2338
  749TMC3    C111064   3.325   3.250   1.715 -0.1073  0.3481 -0.0616
  749TMC3    C211065   3.398   3.226   1.828 -0.2033  0.7263  0.5853
  749TMC3    C311066   3.530   3.180   1.806 -0.0771 -0.4842 -1.1905
  749TMC3    C411067   3.376   3.243   1.585  0.3754 -0.5193 -0.5788
  749TMC3    C511068   3.504   3.207   1.566  0.0236  0.5584  0.7605
  749TMC3    C611069   3.582   3.170   1.679 -0.2281  0.8275  0.2580
  749TMC3     C11070   3.183   3.270   1.717  0.3057  0.2505 -0.6445
  749TMC3     O11071   3.133   3.330   1.619  0.3120 -0.4657  0.6027
  749TMC3     H11072   3.362   3.233   1.929  1.5410  2.3851  1.0985
  749TMC3    H111073   3.316   3.272   1.500 -2.8574 -2.0772  1.1444
  749TMC3    H211074   3.684   3.139   1.663 -1.0316 -0.7384 -1.7859
  749TMC3    C711075   3.563   3.241   1.442  0.2026  0.4451  0.9752
  749TMC3    C811076   3.597   3.119   1.924  0.2179 -0.2823  0.6052
  749TMC3    O111077   3.677   3.197   1.429  0.0098 -0.0708 -0.5233
  749TMC3    O211078   3.584   3.183   2.028  0.3798  0.0909  0.3256
  750MPD2     C11079   4.721   3.577  11.513  0.6269  0.1300 -0.6971
  750MPD2    C111080   4.597   3.526  11.467  0.1403 -0.6767  0.3034
  750MPD2    C211081   4.589   3.406  11.394 -0.0268  0.5908 -0.7826
  750MPD2    C311082   4.709   3.342  11.364  0.2271  1.1667 -1.1668
  750MPD2    C411083   0.098   3.396  11.405 -0.0677  0.0590  0.4992
  750MPD2    C511084   0.105   3.508  11.478  0.4430 -0.1866 -0.3808
  750MPD2     H11085   4.493   3.367  11.362 -0.0542 -1.0665  1.3942
  750MPD2    H111086   0.190   3.351  11.371 -0.0525 -0.0776  0.7194
  750MPD2    H211087   4.721   3.672  11.566  2.1168 -0.0191 -0.4356
  750MPD2    H311088   0.199   3.551  11.508 -0.0087  0.6510 -0.1487
  750MPD2     N11089   4.721   3.225  11.284 -0.4221  0.4082  0.0121
  750MPD2    H511090   0.085   3.178  11.272 -0.5945  0.1405 -0.2290
  750MPD2    N111091   4.485   3.605  11.492  0.1014 -0.0546  0.0385
  750MPD2    H711092   4.502   3.685  11.551  0.5752 -0.7726  0.8715
  751TMC3    C111093   4.654   3.064  11.119  0.0984  0.4616  0.1267
  751TMC3    C211094   4.556   2.981  11.074 -0.3778 -0.5475  0.1841
  751TMC3    C311095   4.586   2.874  10.995 -0.7687 -0.3970 -0.1066
  751TMC3    C411096   0.060   3.061  11.068 -0.2308  0.3910  0.3793
  751TMC3    C511097   0.078   2.956  10.982  0.0405 -0.7864 -0.4005
  751TMC3    C611098   4.708   2.859  10.954  0.7223 -0.4380  0.1581
  751TMC3     C11099   4.617   3.158  11.226 -0.8086  0.8676  0.2300
  751TMC3     O11100   4.501   3.195  11.221 -0.0520 -0.6816 -0.0931
  751TMC3     H11101   4.456   2.991  11.115 -0.3695  1.6962 -0.3640
  751TMC3    H111102   0.141   3.132  11.081 -0.1349 -0.1954  3.0064
  751TMC3    H211103   0.007   2.776  10.888 -0.6718 -1.1631  0.5565
  751TMC3    C711104   0.212   2.900  10.999  0.9726 -0.2982  0.2615
  751TMC3    C811105   4.493   2.762  10.969 -0.4672  0.2402 -0.1697
  751TMC3    O111106   0.307   2.972  11.021 -0.0122 -0.0452 -0.8049
  751TMC3    O211107   4.532   2.671  10.899  0.0871 -0.3253  0.1830
  752TMC3    C111108   3.531   3.806  17.360  0.0774 -0.5449 -0.5259
  752TMC3    C211109   3.403   3.843  17.397 -0.0666 -0.6811 -0.7753
  752TMC3    C311110   3.392   3.946  17.483  0.5561  0.0095  1.1642
  752TMC3    C411111   3.641   3.855  17.423 -0.6781 -0.2202 -0.7607
  752TMC3    C511112   3.617   3.951  17.515  0.4055 -0.8441  0.4729
  752TMC3    C611113   3.496   4.001  17.547 -0.5892 -0.2987  0.4301
  752TMC3     C11114   3.549   3.687  17.272  0.0760 -0.3345 -0.0565
  752TMC3     O11115   3.662   3.638  17.275  0.5262 -0.1022  0.4849
  752TMC3     H11116   3.324   3.788  17.348  0.1976 -1.4346 -0.3637
  752TMC3    H111117   3.741   3.817  17.402 -1.7150 -1.6512 -3.1240
  752TMC3    H211118   3.489   4.080  17.622 -0.2578  2.4989 -2.4766
  752TMC3    C711119   3.735   4.002  17.583 -0.1957  0.2283 -0.3434
  752TMC3    C811120   3.257   3.997  17.515 -0.2940 -0.7472 -0.3250
  752TMC3    O111121   3.843   4.018  17.522  0.0505  0.4572 -0.2169
  752TMC3    O211122   3.244   4.089  17.595  0.0854 -0.5218 -0.3201
  753TMC3    C111123   0.156   4.638  13.716 -0.1188 -0.0837  0.3258
  753TMC3    C211124   0.175   4.634  13.848 -0.4969 -0.6013 -0.0877
  753TMC3    C311125   0.111   4.537  13.925  0.3417 -1.0815  0.6842
  753TMC3    C411126   0.111   4.534  13.645  0.3224 -0.4381 -0.6501
  753TMC3    C511127   0.053   4.436  13.724  0.0089 -0.0823 -0.0531
  753TMC3    C611128   0.042   4.439  13.865 -0.2170  0.1865  0.5171
  753TMC3     C11129   0.228   0.005  13.637 -0.6720  0.5931 -0.8009
  753TMC3     O11130   0.264   4.695  13.525 -0.0616  0.2329  0.0270
  753TMC3     H11131   0.200   0.002  13.897  1.7179 -1.7880  1.0908
  753TMC3    H111132   0.110   4.528  13.537  0.3176  3.5427 -0.8775
  753TMC3    H211133   4.718   4.360  13.920 -0.4026 -0.9346 -1.2542
  753TMC3    C711134   0.031   4.311  13.661 -0.2427  0.5466  0.1170
  753TMC3    C811135   0.163   4.507  14.058  0.5661 -0.5903  0.2652
  753TMC3    O111136   0.011   4.313  13.540 -0.0935  0.0265  0.0928
  753TMC3    O211137   0.116   4.410  14.118 -0.4797 -0.3396  0.2377
  754MPD2     C11138   3.705   3.050  12.710  0.0923  0.0079 -0.2571
  754MPD2    C111139   3.714   2.976  12.824  0.1800  0.1448  0.1787
  754MPD2    C211140   3.620   2.883  12.849  0.2430  0.4999  0.3652
  754MPD2    C311141   3.508   2.871  12.769  0.0627  0.1437  0.5265
  754MPD2    C411142   3.501   2.942  12.650  0.1607 -0.5808 -0.4052
  754MPD2    C511143   3.599   3.035  12.620 -0.0409  0.4323 -0.1011
  754MPD2     H11144   3.614   2.839  12.948 -0.9516 -0.2529 -0.0470
  754MPD2    H111145   3.421   2.941  12.577 -0.4640  0.9496  0.2577
  754MPD2    H211146   3.770   3.133  12.685 -0.4654  1.2747  2.4649
  754MPD2    H311147   3.581   3.091  12.529 -0.0174  0.0882 -0.3207
  754MPD2     N11148   3.395   2.796  12.813  0.5056  0.2430  0.3729
  754MPD2    H511149   3.412   2.745  12.899  0.7260  1.0037  0.7765
  754MPD2    N111150   3.821   2.995  12.923 -0.0069 -0.1184  0.1567
  754MPD2    H711151   3.814   2.942  13.010  1.1782 -0.4423  0.0494
  755MPD2     C11152   2.583   3.055  13.201  0.0631  0.0438  0.1977
  755MPD2    C111153   2.688   2.988  13.257 -0.1888  0.2700  0.3684
  755MPD2    C211154   2.749   2.893  13.186  0.2970  0.3844  0.4593
  755MPD2    C311155   2.724   2.879  13.054 -0.4202  0.0592 -0.2976
  755MPD2    C411156   2.635   2.958  12.990 -0.1285 -0.3890  0.2918
  755MPD2    C511157   2.560   3.038  13.068 -0.4388 -0.0764  0.2648
  755MPD2     H11158   2.833   2.849  13.238  0.2717  0.2153  0.3564
  755MPD2    H111159   2.613   2.944  12.884  0.0023  1.0239  0.0662
  755MPD2    H211160   2.526   3.135  13.247 -1.9678 -0.9489 -0.5738
  755MPD2    H311161   2.479   3.088  13.016 -0.8000 -1.8053 -0.8283
  755MPD2     N11162   2.797   2.788  12.967  0.1444 -0.0329  0.0639
  755MPD2    H511163   2.784   2.791  12.867  0.2951  1.5440  0.0797
  755MPD2    N111164   2.734   2.996  13.386 -0.6983  0.0604  0.0318
  755MPD2    H711165   2.801   2.924  13.410  1.3590  1.6667 -0.8218
  756MPD2     C11166   3.722   3.975   9.561  0.0222 -0.5935 -0.1254
  756MPD2    C111167   3.689   3.945   9.692  0.1471 -0.0181 -0.5799
  756MPD2    C211168   3.560   3.930   9.730  1.0259 -0.0387  0.0774
  756MPD2    C311169   3.459   3.952   9.641 -0.4162 -0.6327 -1.1781
  756MPD2    C411170   3.484   3.999   9.514 -0.6055 -0.0102  0.1358
  756MPD2    C511171   3.617   4.012   9.477  0.3361 -0.1577  0.5061
  756MPD2     H11172   3.528   3.885   9.823 -0.6101 -0.7984 -0.8664
  756MPD2    H111173   3.410   4.004   9.435 -0.4596  0.3235  0.0198
  756MPD2    H211174   3.822   3.976   9.520  0.6104  0.4082  1.3624
  756MPD2    H311175   3.628   4.031   9.371  0.5956  1.0506  0.7411
  756MPD2     N11176   3.328   3.939   9.689  0.1828  0.4926 -0.1079
  756MPD2    H511177   3.320   3.897   9.781 -2.5242  2.0757  0.3868
  756MPD2    N111178   3.778   3.900   9.789 -0.5709 -0.1491  0.7303
  756MPD2    H711179   3.738   3.851   9.869  0.3216 -0.3593  1.0497
  757MPD2     C11180   3.104   3.345  10.247  0.1073 -0.8486 -0.5407
  757MPD2    C111181   3.220   3.401  10.190 -0.4324 -0.2959 -0.1322
  757MPD2    C211182   3.205   3.513  10.114 -0.3440  0.1021 -0.1263
  757MPD2    C311183   3.080   3.577  10.100 -1.2703 -0.0587 -0.1615
  757MPD2    C411184   2.967   3.519  10.159  0.3398 -0.3680  0.7215
  757MPD2    C511185   2.979   3.405  10.232  0.0020 -0.6759  0.9314
  757MPD2     H11186   3.280   3.563  10.053  0.3593 -0.1444  0.5348
  757MPD2    H111187   2.863   3.541  10.138 -0.3115 -1.3010  2.9173
  757MPD2    H211188   3.105   3.250  10.301 -3.0228 -1.5733 -1.7737
  757MPD2    H311189   2.892   3.355  10.272 -1.5614  1.5130  0.1904
  757MPD2     N11190   3.080   3.698  10.015  0.2360 -0.0448  0.3824
  757MPD2    H511191   3.165   3.744   9.984 -0.8790  0.6802 -1.5376
  757MPD2    N111192   3.343   3.338  10.217 -0.1195  0.2218  0.7199
  757MPD2    H711193   3.346   3.257  10.278  2.2933 -0.8495 -0.8350
  758MPD2     C11194   3.835   3.130  15.984 -0.8051 -0.1520  0.2592
  758MPD2    C111195   3.893   3.054  16.081 -0.1899  0.4610 -0.8961
  758MPD2    C211196   3.847   3.071  16.211 -0.2868 -0.3242 -0.0629
  758MPD2    C311197   3.739   3.150  16.236  0.1326  0.2215 -0.7354
  758MPD2    C411198   3.677   3.224  16.138  0.6845 -0.2145 -0.2023
  758MPD2    C511199   3.728   3.207  16.010  0.3679  0.0084  0.1375
  758MPD2     H11200   3.903   3.026  16.292  1.7918  3.4914  0.6365
  758MPD2    H111201   3.605   3.302  16.158  0.5995  0.0530 -1.5447
  758MPD2    H211202   3.871   3.117  15.882  1.3358  0.7893  0.8842
  758MPD2    H311203   3.688   3.277  15.938 -2.5963 -1.2019  0.6122
  758MPD2     N11204   3.713   3.181  16.368  0.2110  0.4999  0.1342
  758MPD2    H511205   3.777   3.133  16.431 -0.3372 -1.9573 -1.1690
  758MPD2    N111206   4.003   2.980  16.038 -0.5688  0.1183 -0.4913
  758MPD2    H711207   4.052   3.008  15.955 -0.4177  1.8812  0.1886
  759MPD2     C11208   3.081   1.397  10.299 -0.2276 -0.0185 -0.7735
  759MPD2    C111209   2.974   1.311  10.290 -0.0285 -0.1450 -0.1892
  759MPD2    C211210   2.916   1.300  10.167 -0.9927  0.6953 -0.2627
  759MPD2    C311211   2.964   1.369  10.052 -0.5123  0.4871  0.4161
  759MPD2    C411212   3.064   1.464  10.072  0.0781 -0.1185 -0.3260
  759MPD2    C511213   3.123   1.483  10.197 -0.5248 -0.1913 -0.7132
  759MPD2     H11214   2.821   1.248  10.157 -0.0342 -1.0521 -0.3814
  759MPD2    H111215   3.098   1.525   9.989 -2.7134  1.2863 -0.4675
  759MPD2    H211216   3.134   1.426  10.388 -1.9163  0.3611  0.1199
  759MPD2    H311217   3.200   1.557  10.212  0.8684 -1.9591  0.9686
  759MPD2     N11218   2.896   1.353   9.931 -0.3758 -0.2760 -0.5634
  759MPD2    H511219   2.817   1.289   9.933  1.1510 -2.1751 -0.6798
  759MPD2    N111220   2.928   1.229  10.401  0.0968  0.1411 -0.0766
  759MPD2    H711221   2.851   1.170  10.372 -1.0885  1.9709 -0.6361
  760MPD2     C11222   2.770   2.635  12.158  0.1844 -0.0889  0.0469
  760MPD2    C111223   2.841   2.720  12.075  0.2998  0.4763  0.1325
  760MPD2    C211224   2.919   2.662  11.975 -0.0488 -0.0833  0.0404
  760MPD2    C311225   2.920   2.528  11.945 -0.2909 -0.5603 -0.1685
  760MPD2    C411226   2.849   2.444  12.020 -0.0728  0.3977 -0.0417
  760MPD2    C511227   2.772   2.499  12.126  0.2062 -0.0164  0.0424
  760MPD2     H11228   2.977   2.737  11.923 -1.5326  0.4875 -0.8054
  760MPD2    H111229   2.847   2.340  11.991  3.9949  0.3098 -0.1051
  760MPD2    H211230   2.701   2.672  12.233  0.5670  1.2770 -0.2853
  760MPD2    H311231   2.709   2.427  12.177 -0.6533  0.3803 -0.4637
  760MPD2     N11232   3.003   2.476  11.843  0.1798 -0.1532  0.0329
  760MPD2    H511233   3.017   2.375  11.847  2.4974  0.1375 -0.6952
  760MPD2    N111234   2.838   2.866  12.085 -0.6268  0.3949 -0.6383
  760MPD2    H711235   2.894   2.922  12.021  3.0968 -1.5688  0.9188
  761MPD2     C11236   4.070   2.480  11.053  0.2618  0.4444 -0.4733
  761MPD2    C111237   4.186   2.450  10.983  0.4820  0.2262 -0.5665
  761MPD2    C211238   4.283   2.554  10.964 -0.6126 -0.1074  0.4250
  761MPD2    C311239   4.267   2.681  11.026  1.0597 -0.2939  0.3572
  761MPD2    C411240   4.149   2.708  11.087  0.4797  0.1614 -0.3184
  761MPD2    C511241   4.056   2.609  11.105  0.0060 -0.4184  0.4872
  761MPD2     H11242   4.374   2.528  10.912 -2.3886 -1.0923 -2.2065
  761MPD2    H111243   4.133   2.809  11.124 -2.7383  0.0198 -1.2973
  761MPD2    H211244   4.001   2.400  11.078 -1.0143  1.4787 -0.6584
  761MPD2    H311245   3.969   2.630  11.165 -0.9114 -0.0957 -0.9657
  761MPD2     N11246   4.369   2.777  11.027  0.3298  0.2790  0.1047
  761MPD2    H511247   4.355   2.857  11.089  1.4386 -0.3567  1.1708
  761MPD2    N111248   4.192   2.312  10.936  0.3062  0.1954 -0.0679
  761MPD2    H711249   4.113   2.253  10.959  1.2731 -1.3040 -0.6134
  762MPD2     C11250   0.054   2.374  10.788 -0.1929 -0.2387  0.2757
  762MPD2    C111251   0.052   2.234  10.769 -0.0186  1.0591  0.2744
  762MPD2    C211252   0.170   2.172  10.730  0.0860  0.5503 -0.4121
  762MPD2    C311253   0.292   2.244  10.698  0.4657 -0.2195 -0.0694
  762MPD2    C411254   0.283   2.379  10.712  0.5322 -0.6855  0.5880
  762MPD2    C511255   0.169   2.440  10.754 -0.8186 -0.6251  0.1999
  762MPD2     H11256   0.167   2.064  10.718 -0.1408  0.3562  1.3645
  762MPD2    H111257   0.362   2.450  10.692  0.8299 -1.3648 -0.6778
  762MPD2    H211258   4.692   2.425  10.825 -0.6477 -2.3225  2.0738
  762MPD2    H311259   0.172   2.549  10.761  2.4713 -0.7837  1.2842
  762MPD2     N11260   0.403   2.172  10.646  0.4079 -0.0451 -0.1187
  762MPD2    H511261   0.409   2.072  10.659  1.4531 -0.1034 -1.0207
  762MPD2    N111262   4.662   2.165  10.794 -0.2870 -0.6026 -0.3112
  762MPD2    H711263   4.581   2.224  10.812 -0.2422 -0.4510 -0.6108
  763MPD2     C11264   1.137   2.684  16.450  0.5950 -0.1863  0.4920
  763MPD2    C111265   1.044   2.787  16.472 -0.5984  0.1823  0.1270
  763MPD2    C211266   1.070   2.894  16.561 -0.3577 -0.3247  0.2067
  763MPD2    C311267   1.199   2.902  16.617  0.7608  0.0158 -0.0741
  763MPD2    C411268   1.283   2.796  16.600  0.8945  0.3903  0.9014
  763MPD2    C511269   1.259   2.691  16.520  0.9161 -0.1921  0.0071
  763MPD2     H11270   0.994   2.968  16.580  0.6735  1.1282 -1.3868
  763MPD2    H111271   1.376   2.778  16.652  0.6663 -0.3190  1.0653
  763MPD2    H211272   1.112   2.606  16.379  2.4233  0.4068 -0.7904
  763MPD2    H311273   1.335   2.615  16.504  1.1995  0.5457 -2.2420
  763MPD2     N11274   1.236   3.003  16.707  0.1214 -0.1034 -0.0710
  763MPD2    H511275   1.333   2.996  16.737  0.2853  2.6968 -0.0236
  763MPD2    N111276   0.921   2.797  16.398 -1.1641 -0.4492 -0.1573
  763MPD2    H711277   0.871   2.884  16.410  0.4348  0.6033 -1.1493
  764MPD2     C11278   3.749   4.416  17.620 -0.3518  0.5973  0.5212
  764MPD2    C111279   3.614   4.387  17.626 -0.2450  0.2670  0.5433
  764MPD2    C211280   3.556   4.355   0.045  0.1241  0.1464 -0.7220
  764MPD2    C311281   3.634   4.336   0.159 -0.4396 -0.2455 -0.2772
  764MPD2    C411282   3.769   4.340   0.141 -0.2780  0.2595  0.3085
  764MPD2    C511283   3.823   4.389   0.026  0.1626  0.0911  0.0219
  764MPD2     H11284   3.450   4.336   0.044  0.1170  0.1730  0.1017
  764MPD2    H111285   3.830   4.313   0.227 -2.2398  1.1794  1.9718
  764MPD2    H211286   3.799   4.456  17.532  1.0601  0.1864  1.1371
  764MPD2    H311287   3.932   4.392   0.025  0.1578  0.7183  2.0052
  764MPD2     N11288   3.576   4.292   0.281 -0.1032  0.0773 -0.2396
  764MPD2    H511289   3.477   4.270   0.280 -0.4677  1.6570  2.0594
  764MPD2    N111290   3.521   4.402  17.517 -0.0598  0.5491  0.1978
  764MPD2    H711291   3.422   4.396  17.539  0.3137  2.8956  2.5159
  765MPD2     C11292   3.813   2.067  16.384 -0.4166  0.6262 -0.1626
  765MPD2    C111293   3.831   2.167  16.295 -0.4715 -0.5356 -0.3945
  765MPD2    C211294   3.956   2.190  16.248  0.5207  0.8673 -0.6334
  765MPD2    C311295   4.060   2.094  16.272 -0.2699  0.0025  0.1287
  765MPD2    C411296   4.033   1.990  16.355 -0.0777  0.1376  0.3141
  765MPD2    C511297   3.917   1.992  16.422  0.3586  0.2268  0.4068
  765MPD2     H11298   3.976   2.277  16.186  1.2408  0.3262 -1.1705
  765MPD2    H111299   4.108   1.913  16.373 -1.7140 -1.5205  0.0312
  765MPD2    H211300   3.712   2.059  16.422 -0.4743 -1.8409 -0.8209
  765MPD2    H311301   3.897   1.913  16.493 -2.0101  1.1042  0.6934
  765MPD2     N11302   4.175   2.103  16.189 -0.1642  0.0373  0.0513
  765MPD2    H511303   4.190   2.196  16.151 -1.8874  0.0892 -0.4972
  765MPD2    N111304   3.715   2.240  16.270  0.9414 -0.1000  0.3283
  765MPD2    H711305   3.627   2.198  16.295  1.1728 -1.4061 -1.0426
  766MPD2     C11306   3.171   2.227  15.623 -0.0479  0.2300 -0.0009
  766MPD2    C111307   3.292   2.224  15.690 -0.1219 -0.2515  0.3095
  766MPD2    C211308   3.404   2.184  15.619  0.4007 -0.2935  0.2960
  766MPD2    C311309   3.388   2.163  15.484  0.8450  0.1105  0.4819
  766MPD2    C411310   3.266   2.176  15.419  0.0570 -0.7418 -0.1255
  766MPD2    C511311   3.156   2.192  15.494 -0.0666  0.2402 -0.5907
  766MPD2     H11312   3.502   2.176  15.665 -0.2930 -2.0260  1.4815
  766MPD2    H111313   3.250   2.152  15.315  3.1150  0.3034 -0.8489
  766MPD2    H211314   3.081   2.246  15.682  0.6259  0.5928  0.9128
  766MPD2    H311315   3.058   2.197  15.447 -0.7070 -0.3901  0.6994
  766MPD2     N11316   3.507   2.128  15.418  0.1390 -0.1541  0.1573
  766MPD2    H511317   3.592   2.120  15.472 -0.1014  2.2242  0.8995
  766MPD2    N111318   3.298   2.256  15.828 -0.0478 -0.1508  0.6581
  766MPD2    H711319   3.214   2.282  15.878  0.1050  1.3805  0.1178
  767MPD2     C11320   2.898   2.478  15.491  0.5134  0.6431 -0.0874
  767MPD2    C111321   3.019   2.496  15.420  0.2213 -0.1600 -0.3192
  767MPD2    C211322   3.036   2.446  15.292  0.0639  0.0056 -0.1624
  767MPD2    C311323   2.934   2.374  15.234 -0.2686 -0.2275  0.0994
  767MPD2    C411324   2.822   2.351  15.306 -0.0797  0.6634 -0.4733
  767MPD2    C511325   2.800   2.410  15.429  0.0029 -0.5403  0.5568
  767MPD2     H11326   3.132   2.443  15.241  0.8790 -0.9088  1.4463
  767MPD2    H111327   2.738   2.296  15.266 -1.6830  1.1408  2.2787
  767MPD2    H211328   2.883   2.502  15.596  1.5498 -0.6029  0.3572
  767MPD2    H311329   2.702   2.405  15.476 -0.1200  0.1387  0.3864
  767MPD2     N11330   2.963   2.308  15.115  0.7238  0.3022  0.3974
  767MPD2    H511331   3.047   2.337  15.066  1.7680 -1.3610  1.2279
  767MPD2    N111332   3.127   2.553  15.484  0.7909  0.2040  0.9558
  767MPD2    H711333   3.216   2.542  15.436 -0.3341  1.9379 -1.5482
  768MPD2     C11334   3.938   0.409  10.889  0.5268 -0.4097  0.8971
  768MPD2    C111335   4.044   0.497  10.913 -0.3005 -0.1683 -0.7055
  768MPD2    C211336   4.103   0.494  11.036  0.0213 -0.0857  0.9733
  768MPD2    C311337   4.059   0.413  11.141 -0.2786  0.3223 -0.6135
  768MPD2    C411338   3.964   0.322  11.110 -0.0546 -0.5182  0.1471
  768MPD2    C511339   3.901   0.319  10.987  0.3845  0.4641 -0.4661
  768MPD2     H11340   4.179   0.568  11.054  0.5445 -0.0918 -1.2268
  768MPD2    H111341   3.920   0.252  11.180 -0.1686 -1.0498 -0.4515
  768MPD2    H211342   3.882   0.404  10.796 -0.1571 -1.0845  1.3531
  768MPD2    H311343   3.816   0.253  10.973  1.5456 -0.9876 -0.6833
  768MPD2     N11344   4.116   0.418  11.267 -0.5215 -0.2710 -0.5097
  768MPD2    H511345   4.059   0.371  11.337  0.0621  0.1549  0.2555
  768MPD2    N111346   4.094   0.584  10.813  0.4101  0.0291 -0.0618
  768MPD2    H711347   4.170   0.643  10.843  0.3295 -0.1730  0.5326
  769MPD2     C11348   0.025   3.344  15.370  0.0486  0.9747 -0.1756
  769MPD2    C111349   0.009   3.480  15.387  0.2048  0.1516 -0.8740
  769MPD2    C211350   0.078   3.539  15.496  0.0682 -0.1109  0.0424
  769MPD2    C311351   0.160   3.463  15.581 -0.4500  0.6241  0.7033
  769MPD2    C411352   0.168   3.334  15.563  0.1356 -0.0151  0.0587
  769MPD2    C511353   0.102   3.276  15.453 -0.2357  0.4007  0.3587
  769MPD2     H11354   0.069   3.646  15.512  3.3596 -0.1874  2.2825
  769MPD2    H111355   0.226   3.270  15.629  0.8469  1.3517  0.7655
  769MPD2    H211356   4.714   3.298  15.279 -1.7272 -0.7286  1.4037
  769MPD2    H311357   0.106   3.169  15.442 -3.5582  0.2871  0.2496
  769MPD2     N11358   0.220   3.529  15.690  0.2121  0.3394  0.7410
  769MPD2    H511359   0.187   3.625  15.698  0.1370  0.2256  1.8165
  769MPD2    N111360   4.664   3.553  15.288 -0.1398 -0.0046  0.4103
  769MPD2    H711361   4.627   3.505  15.207  0.3592 -0.1259  0.2570
  770MPD2     C11362   3.969   3.111  15.122  0.1312  0.0181  0.1410
  770MPD2    C111363   4.097   3.096  15.075  0.2063 -0.7796  0.7207
  770MPD2    C211364   4.180   3.206  15.073 -1.1099  0.3070  0.0782
  770MPD2    C311365   4.147   3.326  15.125 -0.7197 -0.4791 -0.1116
  770MPD2    C411366   4.015   3.343  15.173 -0.2155  0.2264  0.4170
  770MPD2    C511367   3.927   3.238  15.181  0.3725  0.2444 -0.1217
  770MPD2     H11368   4.284   3.190  15.047 -0.9814  1.1160  0.0984
  770MPD2    H111369   3.971   3.437  15.208 -0.1238 -0.5819  2.7412
  770MPD2    H211370   3.902   3.026  15.125 -0.2128  0.2273 -1.5369
  770MPD2    H311371   3.829   3.244  15.225 -0.0155 -1.8399 -0.6997
  770MPD2     N11372   4.236   3.437  15.107 -0.0113  0.1778 -0.0788
  770MPD2    H511373   4.323   3.427  15.056 -1.3035 -1.3357 -1.9938
  770MPD2    N111374   4.141   2.966  15.041  0.4232 -0.5984 -0.1618
  770MPD2    H711375   4.076   2.896  15.075  1.4228 -0.9264  1.0638
  771MPD2     C11376   1.009   1.687  13.488  0.1021 -0.0162 -0.0325
  771MPD2    C111377   1.025   1.682  13.627  0.0979 -0.5585  0.3199
  771MPD2    C211378   0.943   1.602  13.698  0.2950 -0.2512 -0.0112
  771MPD2    C311379   0.841   1.530  13.639 -0.0093 -0.6468  0.3907
  771MPD2    C411380   0.821   1.545  13.502  0.0068  0.0354 -0.1730
  771MPD2    C511381   0.905   1.627  13.427 -0.5246  0.4157 -0.2232
  771MPD2     H11382   0.965   1.600  13.805  0.8523 -0.1872 -0.1237
  771MPD2    H111383   0.750   1.486  13.445  2.3058 -0.9128 -2.0714
  771MPD2    H211384   1.071   1.746  13.422  0.6093 -1.3283 -0.7244
  771MPD2    H311385   0.897   1.624  13.319  1.2564  1.1536 -0.3608
  771MPD2     N11386   0.761   1.442  13.716  0.5165 -0.1651 -0.2852
  771MPD2    H511387   0.805   1.406  13.801  2.0581  2.3282 -0.0254
  771MPD2    N111388   1.131   1.764  13.692 -0.6920  0.5874  0.4210
  771MPD2    H711389   1.126   1.770  13.793 -0.7248  0.2225  0.4420
  772MPD2     C11390   0.958   2.355  14.028 -0.0284  1.0936 -0.5089
  772MPD2    C111391   0.943   2.251  13.936  0.6543  0.5486 -0.0100
  772MPD2    C211392   0.817   2.216  13.890  0.4835  0.7093  0.4701
  772MPD2    C311393   0.706   2.282  13.931  0.0013  0.2134 -0.4124
  772MPD2    C411394   0.721   2.376  14.030 -0.9586 -0.5467  0.8485
  772MPD2    C511395   0.840   2.407  14.082 -0.5089 -0.4611  0.1684
  772MPD2     H11396   0.810   2.145  13.809 -0.0846 -1.7206  2.6340
  772MPD2    H111397   0.630   2.424  14.064 -1.6562 -1.6249  0.4969
  772MPD2    H211398   1.054   2.387  14.068  0.1787 -1.4152  0.9852
  772MPD2    H311399   0.848   2.476  14.165 -0.9181  2.0977 -1.9090
  772MPD2     N11400   0.578   2.260  13.866 -0.0996 -0.5394  0.1697
  772MPD2    H511401   0.504   2.319  13.904  0.5483  0.0442  0.5244
  772MPD2    N111402   1.055   2.181  13.879 -0.2412  0.7911  0.3991
  772MPD2    H711403   1.035   2.102  13.818 -1.0651  2.3461 -1.3448
  773MPD2     C11404   4.389   3.972   0.124  0.1370 -0.1500 -1.2461
  773MPD2    C111405   4.360   3.834   0.123 -0.0392  0.1840 -0.2860
  773MPD2    C211406   4.413   3.754   0.223  0.0979  0.1492  0.1462
  773MPD2    C311407   4.508   3.801   0.312 -0.7934  0.2278 -0.3158
  773MPD2    C411408   4.538   3.938   0.311 -0.3458 -0.3450  0.7324
  773MPD2    C511409   4.482   4.012   0.208 -0.6392 -0.2713 -0.2942
  773MPD2     H11410   4.390   3.649   0.236  1.3460  0.0650  1.7162
  773MPD2    H111411   4.609   3.984   0.378 -0.1823 -0.8229  0.8894
  773MPD2    H211412   4.338   4.037   0.054 -2.2629 -0.0709  0.6156
  773MPD2    H311413   4.501   4.119   0.210 -1.3216 -0.1057 -2.7045
  773MPD2     N11414   4.556   3.707   0.406 -0.0004  0.3412 -1.3057
  773MPD2    H511415   4.524   3.611   0.399  0.4387  0.0261  1.0228
  773MPD2    N111416   4.260   3.787   0.039  0.2144  0.3123 -0.1958
  773MPD2    H711417   4.219   3.696   0.061 -1.5867  0.6546 -2.1517
  774MPD2     C11418   3.795   2.794  13.810  0.2404 -0.1784 -0.3666
  774MPD2    C111419   3.873   2.723  13.719 -0.1112 -0.0675  1.0143
  774MPD2    C211420   3.937   2.801  13.621  0.1698  0.5027 -0.4932
  774MPD2    C311421   3.915   2.933  13.613  0.2367  0.9527 -0.3745
  774MPD2    C411422   3.829   2.999  13.704 -0.0505  0.0070  0.1651
  774MPD2    C511423   3.774   2.929  13.805 -0.3078 -0.0744 -0.4368
  774MPD2     H11424   4.001   2.751  13.550  0.2717 -1.2819  0.8223
  774MPD2    H111425   3.816   3.107  13.697  0.6922 -0.0230 -1.6677
  774MPD2    H211426   3.746   2.748  13.895 -2.5522  0.8954 -1.4149
  774MPD2    H311427   3.715   2.974  13.884  2.2998  1.9272  0.3808
  774MPD2     N11428   3.952   3.009  13.496 -0.2563 -0.4557  0.3890
  774MPD2    H511429   3.904   3.098  13.485 -2.3935 -1.5119  1.2950
  774MPD2    N111430   3.893   2.583  13.719  0.0772  0.7930 -0.1500
  774MPD2    H711431   3.952   2.537  13.651 -0.4779 -1.4961  0.9148
  775MPD2     C11432   0.613   3.408  16.025  0.1950  0.0519 -0.2091
  775MPD2    C111433   0.671   3.494  16.110  0.2905  0.2607 -0.1778
  775MPD2    C211434   0.753   3.599  16.062 -0.0709  0.3111  0.7715
  775MPD2    C311435   0.775   3.618  15.929 -0.0198 -0.7132 -0.3672
  775MPD2    C411436   0.709   3.531  15.843  0.4442  0.4081  0.0592
  775MPD2    C511437   0.627   3.432  15.891  0.0353  0.1688 -0.9380
  775MPD2     H11438   0.811   3.663  16.127 -1.6131  1.4001  1.0659
  775MPD2    H111439   0.731   3.536  15.737 -0.6785 -1.2193 -0.2487
  775MPD2    H211440   0.542   3.330  16.052 -0.3150  0.7534  0.4734
  775MPD2    H311441   0.586   3.368  15.814 -0.1922  1.0726 -1.5688
  775MPD2     N11442   0.858   3.712  15.869  0.6426  0.0720  0.9107
  775MPD2    H511443   0.859   3.734  15.770 -1.1038 -0.0559  0.8592
  775MPD2    N111444   0.645   3.472  16.248 -0.8474  0.4618  0.2349
  775MPD2    H711445   0.568   3.410  16.271 -2.2352  2.4284  0.8378
  776MPD2     C11446   4.277   4.226  11.953 -0.0475  0.1421 -0.4210
  776MPD2    C111447   4.317   4.198  11.823 -0.2841 -0.2674  0.0463
  776MPD2    C211448   4.393   4.292  11.753 -0.1380  0.0225  0.0927
  776MPD2    C311449   4.419   4.407  11.812 -0.6054  0.0445 -0.1881
  776MPD2    C411450   4.382   4.435  11.939  0.0004 -0.4111 -0.0904
  776MPD2    C511451   4.311   4.343  12.010 -0.8234  0.2313  0.0122
  776MPD2     H11452   4.413   4.285  11.647  0.4410  2.3889  0.0520
  776MPD2    H111453   4.413   4.531  11.980 -0.8423 -1.3023  2.5949
  776MPD2    H211454   4.223   4.151  12.010 -1.4058  1.6348  0.2697
  776MPD2    H311455   4.272   4.368  12.108  0.0522 -0.5445  0.5599
  776MPD2     N11456   4.496   4.510  11.750  0.1367  0.6727 -0.4103
  776MPD2    H511457   4.524   4.589  11.807 -0.3023 -1.6423  2.9724
  776MPD2    N111458   4.272   4.065  11.775  0.1670  0.2299  0.3108
  776MPD2    H711459   4.235   4.000  11.843  0.0646 -1.4491 -1.3359
  777MPD2     C11460   4.470   2.122   1.288  0.1448  0.0131 -0.2248
  777MPD2    C111461   4.341   2.147   1.335  0.2508 -0.1535 -0.2231
  777MPD2    C211462   4.222   2.083   1.281 -0.9237  0.1697 -0.4698
  777MPD2    C311463   4.242   2.001   1.170 -0.0080  0.8891  0.4653
  777MPD2    C411464   4.374   1.977   1.124  0.5343 -0.4244  0.0209
  777MPD2    C511465   4.483   2.036   1.189  0.0412 -0.1957 -0.6453
  777MPD2     H11466   4.120   2.093   1.315 -0.1222  0.7574  1.7438
  777MPD2    H111467   4.391   1.917   1.036  0.4231 -0.8286  0.2788
  777MPD2    H211468   4.557   2.174   1.326 -0.6649  1.2798 -0.0965
  777MPD2    H311469   4.582   2.006   1.156 -0.3504  0.1019 -2.1045
  777MPD2     N11470   4.130   1.944   1.104  0.2936  0.2068 -0.7172
  777MPD2    H511471   4.038   1.964   1.143  0.7582  1.5002 -0.3182
  777MPD2    N111472   4.333   2.237   1.443  0.0599  0.1417 -0.7144
  777MPD2    H711473   4.426   2.273   1.465  0.7639 -0.9613 -1.8704
  778MPD2     C11474   0.965   2.273  15.026 -0.0328 -0.3206 -0.3241
  778MPD2    C111475   1.010   2.146  14.992  0.4234  0.1645  0.1625
  778MPD2    C211476   1.115   2.123  14.907  0.0678  0.0170 -0.3283
  778MPD2    C311477   1.191   2.229  14.858  0.0188  0.1980 -0.1032
  778MPD2    C411478   1.157   2.357  14.902  0.0116  0.4278 -0.7043
  778MPD2    C511479   1.054   2.372  14.990  0.0932  0.5955 -0.2339
  778MPD2     H11480   1.123   2.025  14.862 -0.1107 -2.0413  4.1435
  778MPD2    H111481   1.233   2.432  14.884  0.4868  0.2663  0.6087
  778MPD2    H211482   0.873   2.293  15.080 -0.6167  0.0111 -1.4209
  778MPD2    H311483   1.050   2.476  15.019  2.9206  1.0819 -1.5013
  778MPD2     N11484   1.311   2.188  14.801 -0.7548  0.0740  0.0620
  778MPD2    H511485   1.349   2.096  14.818 -3.2508 -1.5212 -3.1508
  778MPD2    N111486   0.937   2.027  15.031  0.3624 -0.4773  0.1225
  778MPD2    H711487   0.955   1.942  14.979  2.3489 -0.5446  0.9350
  779MPD2     C11488   1.250   0.489  14.034 -0.3168  0.0240  0.0357
  779MPD2    C111489   1.175   0.492  14.151  0.0168  0.7473  0.6794
  779MPD2    C211490   1.111   0.617  14.189  0.0691 -0.0062 -0.0310
  779MPD2    C311491   1.120   0.735  14.113 -0.8959  0.1505 -0.1103
  779MPD2    C411492   1.192   0.723  13.999  0.9524  0.8123  0.6054
  779MPD2    C511493   1.251   0.606  13.956  0.8386 -0.3128 -0.5548
  779MPD2     H11494   1.045   0.608  14.275  1.3040  0.6780  0.9977
  779MPD2    H111495   1.213   0.808  13.935  0.0112  0.1003 -0.6515
  779MPD2    H211496   1.296   0.404  13.985 -0.1076  0.4051 -0.4220
  779MPD2    H311497   1.302   0.614  13.861 -0.3851  2.6942 -0.9657
  779MPD2     N11498   1.068   0.859  14.163 -0.2234 -0.2711 -0.1324
  779MPD2    H511499   1.036   0.869  14.259  1.4501  0.3506  0.3763
  779MPD2    N111500   1.141   0.371  14.220  0.4237 -0.0153  0.6679
  779MPD2    H711501   1.073   0.388  14.294 -1.1559 -1.8997 -0.3635
  780MPD2     C11502   0.368   0.672   1.394  0.4059 -0.3597 -0.5607
  780MPD2    C111503   0.332   0.576   1.308  0.0751  0.0604  0.0973
  780MPD2    C211504   0.382   0.588   1.176 -0.1448 -0.0249  0.7773
  780MPD2    C311505   0.463   0.694   1.137 -0.3068 -0.1845  0.1985
  780MPD2    C411506   0.501   0.790   1.229 -0.2407 -0.3389 -0.6573
  780MPD2    C511507   0.456   0.775   1.358  0.5321  0.2638  0.9252
  780MPD2     H11508   0.348   0.533   1.090  0.0259 -0.0729  0.7402
  780MPD2    H111509   0.560   0.878   1.206  1.1005  0.0669  4.4303
  780MPD2    H211510   0.324   0.674   1.493 -1.4497 -1.0281 -1.3639
  780MPD2    H311511   0.481   0.847   1.435 -0.1984  1.2488  0.2294
  780MPD2     N11512   0.493   0.698   1.004  0.1427 -0.1666 -0.1791
  780MPD2    H511513   0.476   0.614   0.949  0.5137 -1.0673  1.0721
  780MPD2    N111514   0.240   0.479   1.355 -0.3391 -0.0908  0.0060
  780MPD2    H711515   0.234   0.470   1.456 -1.3953  0.4096 -0.0082
  781MPD2     C11516   2.281   2.697  12.304 -0.5423 -0.0487 -0.2048
  781MPD2    C111517   2.307   2.565  12.286 -0.0380  0.0129  0.0700
  781MPD2    C211518   2.370   2.522  12.169  0.0618 -0.5760 -0.2370
  781MPD2    C311519   2.411   2.613  12.073  0.2604  0.3438 -0.1082
  781MPD2    C411520   2.406   2.743  12.105 -0.5464 -0.2681  0.5277
  781MPD2    C511521   2.345   2.789  12.216  0.3596  0.2726 -0.2645
  781MPD2     H11522   2.372   2.416  12.147 -0.1378  0.1234 -3.7363
  781MPD2    H111523   2.447   2.815  12.035 -2.0526  0.0730 -0.0089
  781MPD2    H211524   2.227   2.730  12.392 -0.0231 -0.6676  0.3548
  781MPD2    H311525   2.344   2.895  12.240  1.5472 -0.1669  1.7775
  781MPD2     N11526   2.461   2.582  11.944  0.5226  0.3375  0.0445
  781MPD2    H511527   2.499   2.659  11.890  2.6031 -0.5069  0.2790
  781MPD2    N111528   2.277   2.465  12.388 -0.5382 -0.3482  1.1459
  781MPD2    H711529   2.298   2.367  12.369  1.0678  0.5034 -1.4317
  782MPD2     C11530   0.363   2.837  10.553  0.0378  0.0939  0.3637
  782MPD2    C111531   0.493   2.893  10.576 -0.2968  0.0411 -0.9251
  782MPD2    C211532   0.514   2.995  10.667 -0.1713  0.1813 -0.5811
  782MPD2    C311533   0.410   3.066  10.720  0.1007 -0.3409  0.0359
  782MPD2    C411534   0.287   3.016  10.686  0.3554  0.4160 -0.1206
  782MPD2    C511535   0.264   2.903  10.617 -0.0262  0.0994  0.3913
  782MPD2     H11536   0.611   3.030  10.700  0.0867 -0.2739 -0.8530
  782MPD2    H111537   0.199   3.074  10.713 -0.0326  0.4647 -1.4953
  782MPD2    H211538   0.341   2.742  10.505 -1.1469  0.0697  0.9502
  782MPD2    H311539   0.162   2.866  10.614  0.0225  0.0768 -0.9505
  782MPD2     N11540   0.430   3.176  10.809  0.4789 -0.1906 -0.5934
  782MPD2    H511541   0.525   3.202  10.836  0.0265 -0.4034  1.2367
  782MPD2    N111542   0.600   2.821  10.518  0.2151 -0.0717 -0.2165
  782MPD2    H711543   0.577   2.741  10.460  0.0732  1.5046 -2.3389
  783MPD2     C11544   0.303   2.548  11.069  0.5796 -0.3714 -0.3450
  783MPD2    C111545   0.314   2.671  10.997  0.1933 -0.0617 -0.3101
  783MPD2    C211546   0.427   2.699  10.928 -0.3869 -0.0785  0.4796
  783MPD2    C311547   0.517   2.598  10.902  0.5025  0.3174  0.3144
  783MPD2    C411548   0.510   2.484  10.968  0.2372 -0.6993 -0.3821
  783MPD2    C511549   0.406   2.458  11.052 -0.0214  0.2465 -0.1078
  783MPD2     H11550   0.443   2.789  10.870 -1.0003 -0.0457  0.3582
  783MPD2    H111551   0.570   2.397  10.948  0.7368 -0.2154 -0.9559
  783MPD2    H211552   0.213   2.516  11.120  0.9543 -0.5945  0.1749
  783MPD2    H311553   0.401   2.361  11.101 -0.3817 -1.1743 -2.9398
  783MPD2     N11554   0.616   2.615  10.804 -0.2112 -0.3516 -0.3183
  783MPD2    H511555   0.599   2.690  10.738 -3.2402 -0.8908 -0.1474
  783MPD2    N111556   0.204   2.764  11.019 -0.0037 -0.3406  0.2533
  783MPD2    H711557   0.114   2.728  11.050 -0.4801  0.0473 -0.6771
  784MPD2     C11558   1.495   3.722   2.410 -0.0358  0.6054 -0.0316
  784MPD2    C111559   1.595   3.777   2.332  0.0775  0.3210 -0.2256
  784MPD2    C211560   1.553   3.837   2.215 -0.7592 -0.1371 -0.2382
  784MPD2    C311561   1.426   3.854   2.185  0.3654  0.4663  0.0416
  784MPD2    C411562   1.327   3.800   2.264 -0.0286 -0.7609  0.4765
  784MPD2    C511563   1.367   3.729   2.372 -0.3230  0.6129  0.2730
  784MPD2     H11564   1.621   3.882   2.143 -1.3273  0.5835 -0.3225
  784MPD2    H111565   1.221   3.817   2.253  0.0156 -0.1622  0.9941
  784MPD2    H211566   1.528   3.670   2.499  1.6239 -1.2153 -1.7369
  784MPD2    H311567   1.284   3.681   2.422  0.7145 -1.2209  0.2105
  784MPD2     N11568   1.400   3.926   2.069  0.0719 -0.0735 -0.4103
  784MPD2    H511569   1.480   3.953   2.013  0.3291 -0.1155 -0.0636
  784MPD2    N111570   1.730   3.782   2.364  0.7417  0.1454 -0.0798
  784MPD2    H711571   1.791   3.814   2.290  0.7105  1.1271  0.3266
  785MPD2     C11572   2.658   2.147  11.256 -0.0102  0.2885 -0.3761
  785MPD2    C111573   2.546   2.136  11.188  0.3318 -0.3429 -0.2209
  785MPD2    C211574   2.506   2.010  11.155 -0.5896 -0.1551  0.1290
  785MPD2    C311575   2.577   1.897  11.192 -0.8363  0.4853  0.4401
  785MPD2    C411576   2.694   1.906  11.258  0.3112 -0.1296  0.5472
  785MPD2    C511577   2.738   2.036  11.280  0.8415 -0.3578  0.1974
  785MPD2     H11578   2.410   2.001  11.105  1.0722  1.7954 -3.4356
  785MPD2    H111579   2.762   1.825  11.279  2.1016  0.7781 -1.6710
  785MPD2    H211580   2.705   2.241  11.282  1.2967 -0.0803 -1.4074
  785MPD2    H311581   2.832   2.053  11.331  0.4096 -3.0036  1.8830
  785MPD2     N11582   2.531   1.777  11.131 -0.3028 -0.1550 -0.2439
  785MPD2    H511583   2.447   1.776  11.074 -0.1257  4.1151 -0.5882
  785MPD2    N111584   2.482   2.262  11.181 -0.2948  0.1914  0.2266
  785MPD2    H711585   2.530   2.343  11.219 -1.2978  1.3705 -1.0458
  786MPD2     C11586   1.026   4.387  15.186  0.4626 -0.5513 -0.4067
  786MPD2    C111587   1.144   4.327  15.162 -0.3887 -0.9678 -0.0872
  786MPD2    C211588   1.246   4.325  15.252  0.7426 -0.1380 -0.2189
  786MPD2    C311589   1.223   4.383  15.377  0.3854  0.0156 -0.2413
  786MPD2    C411590   1.108   4.453  15.401 -0.0146 -0.2796 -0.4117
  786MPD2    C511591   1.009   4.448  15.309  0.7500 -0.6150  0.3206
  786MPD2     H11592   1.341   4.279  15.227 -0.2790 -1.7804 -1.0614
  786MPD2    H111593   1.104   4.514  15.491  0.1675 -0.5948 -0.1888
  786MPD2    H211594   0.955   4.388  15.105  0.9793  1.3073 -0.8411
  786MPD2    H311595   0.913   4.494  15.330 -0.2644 -1.3961 -2.5616
  786MPD2     N11596   1.313   4.386  15.483  1.1215  0.4364  0.1253
  786MPD2    H511597   1.286   4.415  15.577  0.1800  2.4633 -0.7741
  786MPD2    N111598   1.181   4.275  15.032  0.2666 -0.4114 -0.3267
  786MPD2    H711599   1.268   4.223  15.028  0.1693 -0.7473  1.8374
  787MPD2     C11600   1.784   4.179  14.459  0.3246 -0.0066 -0.0658
  787MPD2    C111601   1.724   4.135  14.577  0.2622  0.7075  0.2079
  787MPD2    C211602   1.791   4.062  14.677 -0.0984 -0.0532 -0.0776
  787MPD2    C311603   1.924   4.033  14.646  0.1312 -0.8001  0.1138
  787MPD2    C411604   1.977   4.072  14.528  0.2773  0.2574 -0.4846
  787MPD2    C511605   1.907   4.151  14.442 -0.5714  0.6036 -0.5223
  787MPD2     H11606   1.741   4.017  14.762 -1.0396 -0.2404 -0.7247
  787MPD2    H111607   2.077   4.043  14.499  0.3844 -1.1297  1.3046
  787MPD2    H211608   1.734   4.246  14.390  2.2481 -0.2970 -1.7437
  787MPD2    H311609   1.953   4.190  14.352  1.0896  0.2294  0.1708
  787MPD2     N11610   2.009   3.953  14.727  0.2933 -0.0386 -0.5507
  787MPD2    H511611   2.081   3.907  14.672  0.3094 -1.2043  0.4434
  787MPD2    N111612   1.593   4.184  14.597  0.4271 -0.9967 -0.0193
  787MPD2    H711613   1.547   4.241  14.527 -0.9655 -0.8597  1.0068
  788MPD2     C11614   3.220   3.396   0.444  0.4564 -0.8305 -0.0242
  788MPD2    C111615   3.154   3.306   0.530 -0.2098  0.1736 -0.1862
  788MPD2    C211616   3.051   3.226   0.485 -0.2615  0.0797  0.3671
  788MPD2    C311617   3.017   3.238   0.352 -0.2902 -0.0477 -0.8468
  788MPD2    C411618   3.074   3.331   0.267  0.1325 -0.5349 -0.0785
  788MPD2    C511619   3.170   3.413   0.321 -0.2578 -0.5926  0.1611
  788MPD2     H11620   3.006   3.153   0.552  1.5177  1.1438  2.6903
  788MPD2    H111621   3.041   3.346   0.165  0.5739 -0.9979 -0.2939
  788MPD2    H211622   3.302   3.460   0.476 -1.8062  2.4670 -1.0016
  788MPD2    H311623   3.217   3.482   0.252 -1.2082  1.8697  1.9705
  788MPD2     N11624   2.942   3.142   0.274  0.1252  0.5397  0.1016
  788MPD2    H511625   2.958   3.149   0.174 -1.4308  0.0537 -0.1808
  788MPD2    N111626   3.185   3.280   0.666 -0.2546  0.4752  0.7463
  788MPD2    H711627   3.116   3.233   0.725 -2.0481  0.4719 -1.3692
  789MPD2     C11628   3.685   2.449  16.630 -0.5388 -0.3178  0.3787
  789MPD2    C111629   3.662   2.421  16.764 -0.3123  0.3499 -0.2957
  789MPD2    C211630   3.533   2.432  16.810  0.2179  0.3628  0.1328
  789MPD2    C311631   3.433   2.477  16.730  0.0807 -0.0134  0.1700
  789MPD2    C411632   3.460   2.531  16.605  0.1685 -0.1283 -0.0072
  789MPD2    C511633   3.587   2.505  16.553  0.6533 -0.4959 -0.5470
  789MPD2     H11634   3.510   2.418  16.915 -0.1555 -2.0412 -0.2760
  789MPD2    H111635   3.383   2.577  16.543  0.9711  0.6115 -0.4583
  789MPD2    H211636   3.780   2.429  16.582 -1.5851 -0.0307 -1.7923
  789MPD2    H311637   3.604   2.528  16.449  0.5943 -0.0684 -0.4641
  789MPD2     N11638   3.299   2.483  16.776  0.2212 -0.0242  0.1389
  789MPD2    H511639   3.236   2.549  16.732 -1.4047 -1.9720 -0.4885
  789MPD2    N111640   3.762   2.365  16.845  0.2519  0.7886  0.2335
  789MPD2    H711641   3.733   2.323  16.933  1.8617 -0.0002  0.3933
  790MPD2     C11642   4.435   4.431  13.873  0.4326 -0.3554 -0.2273
  790MPD2    C111643   4.423   4.294  13.855  0.1128  0.0070 -0.5624
  790MPD2    C211644   4.388   4.248  13.726 -0.1016 -0.3710 -0.4396
  790MPD2    C311645   4.352   4.335  13.629 -0.8826 -0.2274 -0.4416
  790MPD2    C411646   4.355   4.466  13.651 -0.1968 -0.7449  0.0062
  790MPD2    C511647   4.397   4.519  13.770 -0.0865 -0.5127 -0.0237
  790MPD2     H11648   4.389   4.142  13.700 -0.6085 -1.0540  2.3475
  790MPD2    H111649   4.334   4.531  13.566  2.2808  1.2929  0.9526
  790MPD2    H211650   4.469   4.478  13.964 -0.2847 -0.8131  0.2703
  790MPD2    H311651   4.400   4.626  13.784  2.7062 -0.7936  1.5362
  790MPD2     N11652   4.308   4.272  13.510 -0.9012  0.2253 -0.2256
  790MPD2    H511653   4.320   4.172  13.509  0.2045  0.3547 -0.1320
  790MPD2    N111654   4.455   4.210  13.967 -0.2819 -0.0257  0.5478
  790MPD2    H711655   4.510   4.243  14.045  0.0624 -0.2421  0.3948
  791MPD2     C11656   3.730   4.280  12.849  0.0783 -0.2274  0.0707
  791MPD2    C111657   3.776   4.183  12.938  0.1676 -0.6217  0.5523
  791MPD2    C211658   3.717   4.058  12.943  0.3301  0.0003  0.2069
  791MPD2    C311659   3.609   4.024  12.858 -0.7285  0.4881 -0.2225
  791MPD2    C411660   3.571   4.130  12.765  0.1121 -0.1819 -0.4805
  791MPD2    C511661   3.628   4.253  12.765  0.3614  0.5159 -0.2125
  791MPD2     H11662   3.742   3.974  13.008 -0.4568  1.3904  2.3228
  791MPD2    H111663   3.494   4.115  12.690  1.6326 -1.4200 -1.7932
  791MPD2    H211664   3.783   4.374  12.841  0.2443 -0.2219  1.1917
  791MPD2    H311665   3.591   4.328  12.696  0.3479  1.2465  0.5945
  791MPD2     N11666   3.550   3.902  12.869  0.3078 -0.0382  0.4066
  791MPD2    H511667   3.575   3.838  12.944  0.7455 -0.4874 -0.1302
  791MPD2    N111668   3.886   4.219  13.018  0.7791 -0.4295 -0.3628
  791MPD2    H711669   3.924   4.312  13.003 -1.2421  0.4936  0.2455
  792MPD2     C11670   0.261   3.803  11.318  0.5301  0.3793  0.1554
  792MPD2    C111671   0.134   3.848  11.338 -0.1344 -0.0531 -0.2438
  792MPD2    C211672   0.032   3.813  11.252  0.7564  0.0837 -0.0437
  792MPD2    C311673   0.047   3.699  11.169 -0.2981 -0.5668 -0.0368
  792MPD2    C411674   0.171   3.653  11.149 -0.3774 -0.5993 -0.1888
  792MPD2    C511675   0.271   3.702  11.224 -0.2835 -0.7336  0.4126
  792MPD2     H11676   4.658   3.854  11.264  0.5765  0.0379 -1.3348
  792MPD2    H111677   0.186   3.577  11.074  1.2876  0.3743 -0.8321
  792MPD2    H211678   0.345   3.843  11.374  3.4644 -1.3294 -3.0871
  792MPD2    H311679   0.368   3.661  11.201 -1.9948 -2.1011 -4.3711
  792MPD2     N11680   4.664   3.638  11.098  0.2960 -0.4687  0.4800
  792MPD2    H511681   4.691   3.565  11.033  1.3534  0.2920  0.0692
  792MPD2    N111682   0.119   3.957  11.426  0.3889 -0.6363 -0.2627
  792MPD2    H711683   0.211   3.985  11.458 -0.6349 -0.1422  2.1811
  793MPD2     C11684   3.810   3.713  10.498 -0.3265 -0.1986  0.3657
  793MPD2    C111685   3.939   3.677  10.460  0.0284  0.1355 -0.2480
  793MPD2    C211686   4.035   3.636  10.546 -0.3182 -0.0283  0.5218
  793MPD2    C311687   4.014   3.635  10.683  0.9471  0.1609 -0.4712
  793MPD2    C411688   3.886   3.666  10.725 -0.0062 -0.0261  0.0747
  793MPD2    C511689   3.788   3.692  10.637 -0.2796  0.1503  0.1403
  793MPD2     H11690   4.132   3.611  10.504 -0.4694  1.6147 -0.8036
  793MPD2    H111691   3.859   3.641  10.827  0.3299  0.6879  0.3385
  793MPD2    H211692   3.722   3.725  10.437  0.8204 -1.2335 -1.4910
  793MPD2    H311693   3.690   3.706  10.680  0.2745  0.9854  1.1431
  793MPD2     N11694   4.116   3.594  10.772  0.6528  0.4523 -0.1015
  793MPD2    H511695   4.199   3.555  10.729 -0.0524 -0.8153 -0.3441
  793MPD2    N111696   3.978   3.681  10.322 -0.0842  0.5639  0.2358
  793MPD2    H711697   4.057   3.624  10.294  0.1096  1.4310 -1.0310
  794MPD2     C11698   4.066   3.474  17.008  0.0195 -0.0217  0.0338
  794MPD2    C111699   3.958   3.554  17.048 -0.4051 -0.3492 -0.5152
  794MPD2    C211700   3.860   3.581  16.954 -0.3062 -0.1572 -0.2551
  794MPD2    C311701   3.871   3.547  16.820  0.1000 -0.0172 -0.2398
  794MPD2    C411702   3.978   3.470  16.785 -0.5519 -0.5467  0.1212
  794MPD2    C511703   4.073   3.430  16.878  0.2521 -0.4142  0.2104
  794MPD2     H11704   3.776   3.636  16.995 -1.5092 -1.5725 -0.7974
  794MPD2    H111705   3.993   3.440  16.682  1.8545 -0.5106  0.4681
  794MPD2    H211706   4.146   3.450  17.078 -0.5088  0.2486  0.7327
  794MPD2    H311707   4.154   3.371  16.838 -0.7844 -1.7560  0.0775
  794MPD2     N11708   3.773   3.580  16.726  0.2523 -0.5734 -0.1849
  794MPD2    H511709   3.790   3.555  16.630 -0.1482 -2.4591  0.2326
  794MPD2    N111710   3.946   3.615  17.174 -0.1773 -0.0182  0.1942
  794MPD2    H711711   3.878   3.688  17.193 -0.7184 -0.9446  1.7772
  795MPD2     C11712   2.270   0.801  13.452  0.4501  0.4488  0.0346
  795MPD2    C111713   2.201   0.712  13.528  0.5557  0.4288  0.3836
  795MPD2    C211714   2.276   0.632  13.610  0.1396 -0.0437 -0.1565
  795MPD2    C311715   2.416   0.638  13.618 -0.0440 -0.8812  0.2610
  795MPD2    C411716   2.485   0.739  13.545  0.3218  0.2818  0.1781
  795MPD2    C511717   2.407   0.824  13.466 -0.4211 -0.1312 -0.9159
  795MPD2     H11718   2.232   0.552  13.668  0.6121  0.7416  1.3012
  795MPD2    H111719   2.593   0.750  13.541 -0.0422  3.0747 -1.5967
  795MPD2    H211720   2.215   0.864  13.383  1.7245 -1.5669 -2.8300
  795MPD2    H311721   2.460   0.899  13.408  0.2153 -0.0992 -0.2801
  795MPD2     N11722   2.480   0.530  13.681 -0.7704 -0.2094 -0.1232
  795MPD2    H511723   2.422   0.457  13.720 -0.9480 -0.2068 -0.3866
  795MPD2    N111724   2.062   0.693  13.528  0.4821 -0.1925  0.2158
  795MPD2    H711725   2.025   0.642  13.608  0.1821 -0.8399 -0.3375
  796MPD2     C11726   1.128   2.069  16.128 -0.5960 -0.0629  0.2170
  796MPD2    C111727   1.250   2.089  16.075 -0.0071  0.0021 -0.0963
  796MPD2    C211728   1.285   2.221  16.041  0.3424 -0.3452  0.0698
  796MPD2    C311729   1.196   2.322  16.069  0.3980  0.5264  1.2348
  796MPD2    C411730   1.062   2.293  16.099  0.8051 -0.3247  0.0843
  796MPD2    C511731   1.030   2.164  16.126 -0.0396  0.8442 -0.1214
  796MPD2     H11732   1.389   2.230  16.011  0.4590 -0.1968  0.5115
  796MPD2    H111733   0.989   2.368  16.129  1.5394 -0.4177  2.0844
  796MPD2    H211734   1.100   1.967  16.153  2.6360 -0.6282  1.5686
  796MPD2    H311735   0.937   2.132  16.173 -1.1015  0.9217 -2.1662
  796MPD2     N11736   1.238   2.456  16.054  0.6570  0.2977 -0.3024
  796MPD2    H511737   1.336   2.459  16.029  0.2637  0.0915 -1.8638
  796MPD2    N111738   1.336   1.983  16.057  0.1338  0.6003  0.2561
  796MPD2    H711739   1.304   1.890  16.083 -1.1082  0.8462 -0.3848
  797MPD2     C11740   1.858   1.574  17.375 -0.0559  0.9009 -0.0793
  797MPD2    C111741   1.827   1.693  17.429 -0.1848 -0.0713  0.1240
  797MPD2    C211742   1.778   1.784  17.345 -0.4106  0.2627 -0.1773
  797MPD2    C311743   1.777   1.768  17.206 -0.7319  0.2335  0.4147
  797MPD2    C411744   1.813   1.644  17.151  0.5312  0.5524  0.5369
  797MPD2    C511745   1.864   1.552  17.243  0.7030 -0.6110  0.4950
  797MPD2     H11746   1.744   1.880  17.382 -0.9170 -1.0597  2.8073
  797MPD2    H111747   1.804   1.617  17.047  1.9221  1.2696  0.2281
  797MPD2    H211748   1.886   1.495  17.444  1.2038  1.4486  0.0368
  797MPD2    H311749   1.893   1.456  17.202  1.0849 -0.8789  1.3817
  797MPD2     N11750   1.724   1.853  17.112  0.2226  0.0967  0.5122
  797MPD2    H511751   1.703   1.811  17.022 -0.9570 -1.7900  1.6694
  797MPD2    N111752   1.819   1.716  17.569  0.0923 -0.1103 -0.2686
  797MPD2    H711753   1.791   1.812  17.587 -3.4265 -0.8271 -1.9321
  798MPD2     C11754   1.715   2.508  17.407 -0.2873 -0.4887 -0.2662
  798MPD2    C111755   1.700   2.378  17.377 -0.3772 -0.7845  0.1617
  798MPD2    C211756   1.747   2.277  17.463  0.6319 -0.4296 -0.0373
  798MPD2    C311757   1.824   2.313  17.574 -0.6481 -0.7055  0.2859
  798MPD2    C411758   1.845   2.450  17.598  0.0181  0.7366  0.5359
  798MPD2    C511759   1.789   2.545  17.515 -0.4922 -0.0306 -1.0218
  798MPD2     H11760   1.718   2.176  17.440  2.8019 -1.0076 -0.1922
  798MPD2    H111761   1.913   2.489  17.674  2.1766  1.0583 -1.5824
  798MPD2    H211762   1.673   2.589  17.348  2.0834  0.6331 -0.4470
  798MPD2    H311763   1.804   2.648  17.544 -0.0658 -0.2859 -0.3293
  798MPD2     N11764   1.866   2.219  17.673 -0.1953 -0.1883  0.1234
  798MPD2    H511765   1.925   2.251   0.045 -0.3397 -3.0353  1.4073
  798MPD2    N111766   1.641   2.325  17.256 -0.6765  0.4340  0.2283
  798MPD2    H711767   1.636   2.224  17.256  2.3177  0.2915  0.1813
  799MPD2     C11768   1.590   3.568  15.182 -0.5990 -0.4323  0.1875
  799MPD2    C111769   1.512   3.511  15.085 -0.2231  0.5191  0.7392
  799MPD2    C211770   1.453   3.594  14.988  0.1351  0.3067  0.3245
  799MPD2    C311771   1.487   3.725  14.965 -0.1189 -0.2479 -0.6604
  799MPD2    C411772   1.569   3.779  15.064  0.1473  0.7049  0.3991
  799MPD2    C511773   1.615   3.699  15.170 -0.5742  0.5239  0.0131
  799MPD2     H11774   1.406   3.547  14.903 -0.3259 -0.0121  0.7551
  799MPD2    H111775   1.609   3.879  15.049  1.2280  0.0488 -1.1110
  799MPD2    H211776   1.635   3.507  15.259 -0.5498 -1.1289 -0.3948
  799MPD2    H311777   1.684   3.733  15.247  1.0527 -0.7781 -0.8673
  799MPD2     N11778   1.445   3.797  14.848  0.0414 -0.3082  0.3553
  799MPD2    H511779   1.490   3.887  14.835  1.0666 -1.0290 -1.0776
  799MPD2    N111780   1.486   3.369  15.080 -0.7309 -0.1709 -0.2451
  799MPD2    H711781   1.442   3.341  14.993  0.7541 -1.6938 -0.5278
  800MPD2     C11782   1.690   0.011  15.011 -0.5689 -0.1215  0.2123
  800MPD2    C111783   1.810   0.058  14.960  1.0489 -0.5861 -0.3039
  800MPD2    C211784   1.842   4.723  14.836 -0.1735  0.2879 -0.3172
  800MPD2    C311785   1.758   4.637  14.772  0.1730 -0.2874 -0.0319
  800MPD2    C411786   1.639   4.604  14.824 -0.2366  0.0236 -0.0138
  800MPD2    C511787   1.607   4.651  14.947 -0.5635 -0.8881  0.8676
  800MPD2     H11788   1.935   0.020  14.784 -0.1875 -0.2495 -0.5696
  800MPD2    H111789   1.566   4.537  14.781  1.4867 -0.7303 -1.7574
  800MPD2    H211790   1.658   0.031  15.112  0.7324 -1.4278  0.8747
  800MPD2    H311791   1.512   4.628  14.994  0.6045 -1.8783  2.7696
  800MPD2     N11792   1.806   4.586  14.651 -0.2575 -0.0166 -0.0201
  800MPD2    H511793   1.906   4.593  14.632 -0.0315 -0.0465  1.1604
  800MPD2    N111794   1.892   0.136  15.043  0.0157  0.1846 -0.3037
  800MPD2    H711795   1.855   0.161  15.135  0.4707 -0.5378  0.0769
  801MPD2     C11796   1.821   0.859  15.079  0.5611  0.1047 -0.0602
  801MPD2    C111797   1.793   0.727  15.044 -0.3401  0.8285  0.2843
  801MPD2    C211798   1.664   0.690  15.019 -0.0675  0.6075 -0.3161
  801MPD2    C311799   1.563   0.786  15.029  0.0572 -0.5441 -0.4589
  801MPD2    C411800   1.591   0.924  15.056  0.8454 -0.4923 -0.5721
  801MPD2    C511801   1.723   0.957  15.088  0.1775  0.0799 -0.6355
  801MPD2     H11802   1.645   0.585  14.999  1.4312 -0.1675  2.2899
  801MPD2    H111803   1.517   1.003  15.066  2.3563  1.0210 -1.2985
  801MPD2    H211804   1.917   0.884  15.122 -0.3223 -0.6285  2.3997
  801MPD2    H311805   1.746   1.058  15.121 -0.4092 -0.0020  0.0284
  801MPD2     N11806   1.430   0.737  15.014  0.1177 -0.6687  0.2652
  801MPD2    H511807   1.410   0.642  14.986  0.4307 -0.4574 -0.6929
  801MPD2    N111808   1.891   0.630  15.063  0.0915  0.6005  0.4107
  801MPD2    H711809   1.867   0.534  15.042 -2.2452  1.0952  0.8303
  802MPD2     C11810   1.718   1.013   0.601 -0.1998  0.3957 -1.1650
  802MPD2    C111811   1.617   1.049   0.509 -0.1476  0.3697 -0.0977
  802MPD2    C211812   1.570   0.953   0.417 -0.2977  0.0301  0.0795
  802MPD2    C311813   1.624   0.822   0.415 -0.1395  0.4791  0.1305
  802MPD2    C411814   1.725   0.795   0.505  0.1857 -0.0611  0.0152
  802MPD2    C511815   1.756   0.885   0.605  0.4547 -0.1711  0.0310
  802MPD2     H11816   1.504   0.975   0.334  1.2711 -1.0808 -1.4814
  802MPD2    H111817   1.761   0.693   0.514  1.8836  0.2612 -3.0528
  802MPD2    H211818   1.754   1.070   0.686  0.2404 -0.3702 -0.8451
  802MPD2    H311819   1.832   0.848   0.674 -0.4984  0.5544  1.4626
  802MPD2     N11820   1.584   0.731   0.312 -0.3547  0.1249  0.0726
  802MPD2    H511821   1.501   0.761   0.262 -0.6452 -1.5530 -0.4676
  802MPD2    N111822   1.555   1.175   0.519  0.5722  0.7101  0.2703
  802MPD2    H711823   1.471   1.188   0.462  1.3744  2.3350 -0.5465
  803MPD2     C11824   2.351   4.001  11.884 -0.0298  0.2743 -0.2587
  803MPD2    C111825   2.465   3.956  11.951 -0.1467 -0.1158  0.1185
  803MPD2    C211826   2.466   3.855  12.041 -0.4365  0.1702  0.8707
  803MPD2    C311827   2.343   3.797  12.081 -0.3758 -0.9588 -0.4169
  803MPD2    C411828   2.225   3.847  12.014 -0.5707 -0.1494 -0.2276
  803MPD2    C511829   2.230   3.944  11.923  0.0836  0.4064  0.2703
  803MPD2     H11830   2.556   3.826  12.095 -0.7833  0.4411  1.5938
  803MPD2    H111831   2.129   3.808  12.045  0.9388 -0.2971  4.3056
  803MPD2    H211832   2.350   4.087  11.818 -0.0781  0.8456  0.4942
  803MPD2    H311833   2.136   3.981  11.884  0.3079 -0.3514 -0.9955
  803MPD2     N11834   2.320   3.703  12.186 -0.4624  0.5420  0.2210
  803MPD2    H511835   2.222   3.680  12.203 -0.3812 -1.4747 -2.0799
  803MPD2    N111836   2.587   4.011  11.926 -0.0585 -0.1122  0.4242
  803MPD2    H711837   2.664   3.972  11.978  0.2163 -0.2310 -0.0787
  804MPD2     C11838   1.753   0.533  17.451  0.6224 -0.0600  0.0325
  804MPD2    C111839   1.809   0.468  17.561 -1.0293  0.6725  0.3706
  804MPD2    C211840   1.861   0.550  17.662  0.5233  0.1374  0.0201
  804MPD2    C311841   1.865   0.689  17.643  0.6002  0.3998 -0.3212
  804MPD2    C411842   1.801   0.749  17.538  0.8074  0.2889  0.1123
  804MPD2    C511843   1.754   0.666  17.432 -0.6119 -0.6300  0.4114
  804MPD2     H11844   1.913   0.509   0.043  3.0732 -2.2165 -2.6353
  804MPD2    H111845   1.796   0.854  17.516  2.4851  0.5234  0.8420
  804MPD2    H211846   1.709   0.472  17.373  1.9883  0.4509 -1.1518
  804MPD2    H311847   1.710   0.696  17.337  0.4780 -0.8180 -0.1590
  804MPD2     N11848   1.927   0.764   0.041 -0.2022  0.0066 -0.0694
  804MPD2    H511849   1.997   0.718   0.099  0.1167 -0.5572 -0.9038
  804MPD2    N111850   1.804   0.327  17.586  0.2233  0.0675  1.2119
  804MPD2    H711851   1.836   0.303  17.680  3.2470 -0.9425 -0.0824
  805MPD2     C11852   0.925   3.309  15.694 -0.0486 -0.3398  0.1170
  805MPD2    C111853   0.999   3.401  15.620  0.2001 -0.4566  0.6998
  805MPD2    C211854   1.125   3.425  15.665  0.0109  0.2916  0.2206
  805MPD2    C311855   1.177   3.364  15.776 -0.3028 -0.3092 -0.0767
  805MPD2    C411856   1.107   3.271  15.840  1.0261 -0.0355 -0.5430
  805MPD2    C511857   0.977   3.246  15.802  0.1727 -0.6907  1.0941
  805MPD2     H11858   1.184   3.503  15.619  0.2443  1.7965  3.0613
  805MPD2    H111859   1.146   3.215  15.924 -0.3410  0.5175  0.4390
  805MPD2    H211860   0.826   3.281  15.658 -0.2548  0.6336 -0.0657
  805MPD2    H311861   0.922   3.173  15.860 -1.6268 -1.5418 -1.6863
  805MPD2     N11862   1.300   3.395  15.815  0.0310 -0.2014  0.1600
  805MPD2    H511863   1.335   3.471  15.757 -0.1400 -1.8432 -2.0912
  805MPD2    N111864   0.960   3.482  15.511  0.1019 -0.2850 -0.1235
  805MPD2    H711865   1.034   3.536  15.467 -1.4829  2.2482  0.2885
  806MPD2     C11866   1.655   2.711   0.308  0.4046  0.0651 -0.3627
  806MPD2    C111867   1.642   2.772   0.435  0.0278 -0.1957  0.3283
  806MPD2    C211868   1.729   2.874   0.460 -1.0244 -0.4003  0.1752
  806MPD2    C311869   1.830   2.916   0.372 -0.6210  0.0107 -0.6806
  806MPD2    C411870   1.834   2.858   0.249  0.1555 -0.2457 -0.8130
  806MPD2    C511871   1.741   2.761   0.217 -0.0486  0.1590 -0.0539
  806MPD2     H11872   1.723   2.932   0.551  1.0622 -1.2178  0.8211
  806MPD2    H111873   1.906   2.890   0.174  0.7494 -2.9656 -1.4001
  806MPD2    H211874   1.590   2.630   0.278  1.3000 -1.7387  2.5744
  806MPD2    H311875   1.745   2.721   0.116  5.9720  0.0908  0.1755
  806MPD2     N11876   1.917   3.022   0.418 -0.6199  0.2991 -0.4189
  806MPD2    H511877   1.901   3.056   0.513 -2.5078 -1.2368 -0.1779
  806MPD2    N111878   1.531   2.732   0.515  0.1485 -1.0632  0.1672
  806MPD2    H711879   1.460   2.671   0.478 -2.2012  2.2010 -0.6743
  807MPD2     C11880   1.323   2.180   0.989 -0.3415  0.1492 -0.4523
  807MPD2    C111881   1.302   2.303   1.050 -0.1205 -1.0904  0.0902
  807MPD2    C211882   1.294   2.308   1.187  0.6791 -0.0277  0.6187
  807MPD2    C311883   1.294   2.192   1.267 -0.1648  0.2875 -0.6652
  807MPD2    C411884   1.312   2.070   1.202  0.8447 -0.2232  0.6531
  807MPD2    C511885   1.321   2.066   1.064  0.4588  0.6049 -0.6414
  807MPD2     H11886   1.280   2.405   1.232 -0.8927  0.0879 -0.1422
  807MPD2    H111887   1.326   1.974   1.250 -0.4079 -0.7643 -0.0763
  807MPD2    H211888   1.321   2.169   0.881 -3.9723  2.9861 -0.6743
  807MPD2    H311889   1.341   1.972   1.014 -0.4475 -0.9143  1.8713
  807MPD2     N11890   1.269   2.202   1.405 -0.4820  0.3502  0.0835
  807MPD2    H511891   1.259   2.294   1.447 -0.3824  1.2798 -1.9518
  807MPD2    N111892   1.283   2.427   0.981  0.6273  0.3357 -0.2830
  807MPD2    H711893   1.259   2.510   1.033 -2.9328 -1.1599  0.4776
  808MPD2     C11894   2.292   4.446  10.652 -0.2229  0.3473 -0.0223
  808MPD2    C111895   2.235   4.419  10.533  0.5129 -0.1138 -0.1016
  808MPD2    C211896   2.241   4.526  10.444 -0.1202  0.3552 -0.2782
  808MPD2    C311897   2.299   4.654  10.470  0.3885 -0.0728  0.4803
  808MPD2    C411898   2.368   4.666  10.587 -0.0415  1.2003 -0.1505
  808MPD2    C511899   2.363   4.561  10.675 -0.6367  0.4695 -0.0843
  808MPD2     H11900   2.206   4.512  10.343  0.3360 -0.5816 -0.3115
  808MPD2    H111901   2.407   0.037  10.616 -0.1546  0.8136  1.2825
  808MPD2    H211902   2.295   4.365  10.724 -0.8397 -0.7257 -1.2002
  808MPD2    H311903   2.418   4.572  10.768 -1.2078 -1.8712  0.5388
  808MPD2     N11904   2.308   0.041  10.392  0.3969 -0.4480 -0.0811
  808MPD2    H511905   2.376   0.111  10.419 -1.9007  1.9986 -0.5675
  808MPD2    N111906   2.172   4.301  10.493  0.8682  0.0237 -0.4658
  808MPD2    H711907   2.137   4.300  10.398 -2.4316 -1.6067  0.7799
  809MPD2     C11908   2.660   0.483   9.535  0.1448  0.1728  0.8690
  809MPD2    C111909   2.724   0.478   9.650 -0.3348 -0.0835 -0.1944
  809MPD2    C211910   2.656   0.469   9.769 -0.2569  0.2473  0.0385
  809MPD2    C311911   2.525   0.436   9.771 -0.3899  0.2429  0.7342
  809MPD2    C411912   2.457   0.439   9.653 -0.9566  0.5740  0.8153
  809MPD2    C511913   2.526   0.452   9.538  0.2475 -0.1452 -0.3671
  809MPD2     H11914   2.711   0.469   9.863 -1.3270  1.2354  0.6696
  809MPD2    H111915   2.348   0.440   9.654 -0.9752  0.2003 -0.2777
  809MPD2    H211916   2.708   0.493   9.438 -0.4750  0.2412  0.5675
  809MPD2    H311917   2.464   0.460   9.449  0.3288  0.3156 -0.3792
  809MPD2     N11918   2.465   0.407   9.897 -0.2284  0.0332  0.0647
  809MPD2    H511919   2.519   0.429   9.980 -1.1943 -0.2924  0.7829
  809MPD2    N111920   2.868   0.484   9.662 -0.3671 -0.3165 -0.0491
  809MPD2    H711921   2.911   0.486   9.754 -1.6603  1.3202  0.5126
  810MPD2     C11922   1.890   4.236  10.764 -0.0890  0.1946  0.4670
  810MPD2    C111923   1.786   4.262  10.680 -0.0791 -0.0753 -0.2015
  810MPD2    C211924   1.782   4.390  10.614  0.3495 -0.3737  0.0538
  810MPD2    C311925   1.880   4.490  10.637  0.0615 -0.0534 -0.2376
  810MPD2    C411926   1.981   4.455  10.725 -0.3041 -0.9516 -0.6247
  810MPD2    C511927   1.982   4.331  10.790  0.3160 -0.0067 -0.8816
  810MPD2     H11928   1.697   4.419  10.554  1.7589  3.6828  0.0373
  810MPD2    H111929   2.055   4.528  10.753  0.2467 -1.7374 -0.0473
  810MPD2    H211930   1.904   4.133  10.795 -4.4625 -0.8794 -1.0263
  810MPD2    H311931   2.055   4.324  10.870  0.1672 -2.6597 -0.9815
  810MPD2     N11932   1.887   4.614  10.574 -0.1034 -0.0485 -0.1290
  810MPD2    H511933   1.943   4.685  10.620 -1.2117 -0.2535  1.5429
  810MPD2    N111934   1.702   4.154  10.641  0.0634 -0.4069 -0.0079
  810MPD2    H711935   1.725   4.067  10.687  0.6682 -0.0925  0.2857
  811MPD2     C11936   0.938   3.911  10.200  0.0143  0.1736 -0.4865
  811MPD2    C111937   1.035   4.005  10.237 -0.7806  0.1593  0.1014
  811MPD2    C211938   1.019   4.137  10.200  0.0100  0.1295  0.0468
  811MPD2    C311939   0.915   4.179  10.109 -0.7543  0.2575  0.5381
  811MPD2    C411940   0.817   4.092  10.086  0.4145  0.0581  0.2390
  811MPD2    C511941   0.825   3.965  10.133  0.1952  0.2839  0.1805
  811MPD2     H11942   1.089   4.211  10.237 -1.7335  1.1400  1.3385
  811MPD2    H111943   0.731   4.127  10.031 -0.7424  2.3778  3.5067
  811MPD2    H211944   0.945   3.805  10.217 -1.7644  0.1252 -0.1056
  811MPD2    H311945   0.745   3.902  10.096  3.5672 -2.6253 -2.1434
  811MPD2     N11946   0.934   4.309  10.056  1.0690  0.9565 -0.2195
  811MPD2    H511947   0.998   4.371  10.105 -0.4881  1.8035  0.7275
  811MPD2    N111948   1.148   3.949  10.296  0.2436 -0.2216  0.8408
  811MPD2    H711949   1.155   3.849  10.307 -0.3281 -0.3104  0.4284
  812MPD2     C11950   0.325   3.934  12.366 -0.6330 -0.1273 -0.0120
  812MPD2    C111951   0.312   3.998  12.487  0.9879  1.6931 -0.4681
  812MPD2    C211952   0.333   3.921  12.606 -0.3072  0.1600  0.3313
  812MPD2    C311953   0.347   3.784  12.589  0.4635 -0.1321  0.4772
  812MPD2    C411954   0.373   3.732  12.468  0.5607  0.1876  0.2547
  812MPD2    C511955   0.362   3.805  12.350 -0.4152 -0.4045 -0.2476
  812MPD2     H11956   0.327   3.959  12.707 -1.5238  2.5748 -0.6537
  812MPD2    H111957   0.399   3.627  12.463  0.7970  0.2457  0.2590
  812MPD2    H211958   0.326   3.994  12.275 -0.3712 -1.3422 -0.8010
  812MPD2    H311959   0.377   3.757  12.254 -1.6337  0.4159 -0.8497
  812MPD2     N11960   0.357   3.706  12.706  0.2765 -0.3409  0.1057
  812MPD2    H511961   0.376   3.756  12.792 -2.7135  1.2544 -0.1782
  812MPD2    N111962   0.305   4.146  12.483  0.1081  0.4766 -0.0297
  812MPD2    H711963   0.291   4.190  12.393 -0.1515 -1.4754 -0.9495
  813MPD2     C11964   4.405   0.980  13.154 -0.5369  0.3486 -0.4836
  813MPD2    C111965   4.327   1.089  13.126 -0.1478  1.0698 -0.8237
  813MPD2    C211966   4.229   1.128  13.216  0.7045 -0.3202 -0.1163
  813MPD2    C311967   4.204   1.057  13.330  0.6830 -0.0642  0.7526
  813MPD2    C411968   4.284   0.949  13.365  0.1458  1.1434  0.8596
  813MPD2    C511969   4.382   0.915  13.279 -0.0007  0.2553 -0.2507
  813MPD2     H11970   4.160   1.209  13.195  2.2965  2.3546  5.1197
  813MPD2    H111971   4.285   0.896  13.459  1.3748  0.1436  0.2862
  813MPD2    H211972   4.480   0.934  13.090  0.3036 -0.4679  1.0749
  813MPD2    H311973   4.449   0.835  13.309  2.0638  1.3483 -1.8887
  813MPD2     N11974   4.091   1.096  13.410  0.2585 -0.1542 -0.1506
  813MPD2    H511975   4.019   1.156  13.371 -1.1138 -1.9170 -0.3274
  813MPD2    N111976   4.365   1.175  13.016  0.1935  0.2796 -1.0505
  813MPD2    H711977   4.452   1.149  12.972  1.1690 -1.2838  1.8214
  814MPD2     C11978   0.073   2.497  12.335 -0.4736 -1.2852  0.3709
  814MPD2    C111979   0.116   2.566  12.219 -0.9505  0.5471  0.0493
  814MPD2    C211980   0.179   2.688  12.237 -0.0770 -0.0848  0.5289
  814MPD2    C311981   0.193   2.746  12.360 -0.0711  0.1874 -0.2298
  814MPD2    C411982   0.156   2.674  12.470  0.7127  0.4201  0.1044
  814MPD2    C511983   0.100   2.554  12.460  0.2304 -0.1797 -0.1378
  814MPD2     H11984   0.193   2.743  12.145  0.7830 -0.7464  0.2609
  814MPD2    H111985   0.177   2.700  12.573 -0.4515  1.9752 -0.0628
  814MPD2    H211986   0.026   2.400  12.341 -2.3180 -0.3126  1.5245
  814MPD2    H311987   0.086   2.501  12.554  0.2013 -2.0237 -1.1965
  814MPD2     N11988   0.261   2.870  12.380  0.2845  0.0516 -0.0380
  814MPD2    H511989   0.260   2.905  12.475 -2.3590 -0.2433  0.0500
  814MPD2    N111990   0.086   2.518  12.090 -0.5649  0.1374 -0.2504
  814MPD2    H711991   0.107   2.574  12.008  2.9874 -0.9566 -0.0578
  815MPD2     C11992   0.362   1.068  12.147 -0.0794 -0.4175  0.5488
  815MPD2    C111993   0.374   0.931  12.151 -0.3119 -0.5820 -0.3224
  815MPD2    C211994   0.292   0.856  12.238  0.5594  0.3752 -0.6324
  815MPD2    C311995   0.203   0.920  12.320 -0.1168 -0.5563  0.2258
  815MPD2    C411996   0.197   1.058  12.325  0.1667  0.3635  0.3526
  815MPD2    C511997   0.274   1.130  12.233 -1.0605 -0.2255 -0.4736
  815MPD2     H11998   0.299   0.748  12.239 -0.1472  0.3344  0.3227
  815MPD2    H111999   0.113   1.113  12.367 -0.9587 -0.5232 -0.7565
  815MPD2    H212000   0.411   1.133  12.076 -1.4349 -1.0678 -0.9648
  815MPD2    H312001   0.273   1.238  12.231 -3.3806 -0.1872  2.2057
  815MPD2     N12002   0.110   0.840  12.384 -0.0647 -0.2069  0.4621
  815MPD2    H512003   0.113   0.740  12.369  0.6408  0.0201 -0.9176
  815MPD2    N112004   0.457   0.867  12.050 -0.2607 -0.3741 -0.2262
  815MPD2    H712005   0.514   0.922  11.986 -2.1348  2.6796  0.6841
  816MPD2     C12006   0.589   4.368  17.626 -0.1701  0.9272 -0.5461
  816MPD2    C112007   0.621   4.496  17.576 -0.8826  0.0527  0.7657
  816MPD2    C212008   0.726   4.525  17.496  0.3654 -1.1682  0.6391
  816MPD2    C312009   0.810   4.418  17.463  0.2913  0.3775  0.0931
  816MPD2    C412010   0.787   4.292  17.515 -0.5536 -0.4150 -0.0918
  816MPD2    C512011   0.682   4.274  17.597 -0.2617 -0.2836 -0.0268
  816MPD2     H12012   0.747   4.622  17.452 -1.6860 -0.1894  1.8079
  816MPD2    H112013   0.862   4.214  17.511  0.1018  0.1817  0.4549
  816MPD2    H212014   0.506   4.339  17.688 -0.2059 -2.1994 -2.0446
  816MPD2    H312015   0.667   4.173  17.633  0.1340 -0.2177  0.3182
  816MPD2     N12016   0.917   4.446  17.370  0.7190 -0.4886  0.1800
  816MPD2    H512017   0.927   4.542  17.340  0.5259 -1.0345 -1.5904
  816MPD2    N112018   0.531   4.599  17.616 -0.4545  0.1055  0.1248
  816MPD2    H712019   0.446   4.571  17.664  0.2999 -0.1531  1.3186
  817MPD2     C12020   0.140   1.634  10.477  0.0025  0.0896  0.1240
  817MPD2    C112021   0.231   1.692  10.394 -0.1815  0.1289 -0.0145
  817MPD2    C212022   0.225   1.826  10.371 -0.0834  0.1105 -0.2842
  817MPD2    C312023   0.126   1.904  10.435 -0.3380 -0.4458  0.2011
  817MPD2    C412024   0.031   1.843  10.515  0.0388  0.4232  0.2495
  817MPD2    C512025   0.039   1.708  10.536  0.1647  0.0284  0.6136
  817MPD2     H12026   0.292   1.876  10.302  0.7205  1.3069  1.3776
  817MPD2    H112027   4.681   1.898  10.570  0.4564  2.3639 -1.1158
  817MPD2    H212028   0.140   1.528  10.499 -1.6682  0.3551  1.3867
  817MPD2    H312029   4.686   1.661  10.594 -1.3042 -1.1487 -2.3064
  817MPD2     N12030   0.124   2.043  10.402 -0.6897 -0.3074 -0.6582
  817MPD2    H512031   0.197   2.079  10.343  0.8609 -2.9191 -0.3210
  817MPD2    N112032   0.333   1.616  10.336  0.4509  0.7152  0.4829
  817MPD2    H712033   0.405   1.672  10.292  0.0867  0.9568  0.1904
  818MPD2     C12034   4.020   1.702   9.835 -1.1122 -1.3286  0.5782
  818MPD2    C112035   3.964   1.641   9.945 -0.1351  0.1491  0.1673
  818MPD2    C212036   3.907   1.516   9.932 -1.0967 -0.2944  1.1235
  818MPD2    C312037   3.900   1.453   9.811  0.3439  0.1614  0.7328
  818MPD2    C412038   3.962   1.513   9.700 -0.1725 -0.4419 -1.1345
  818MPD2    C512039   4.020   1.637   9.713 -0.4763  0.0451  0.3460
  818MPD2     H12040   3.870   1.465  10.020  1.3600 -2.8973  0.6729
  818MPD2    H112041   3.962   1.461   9.605 -0.2489 -1.5389 -0.5415
  818MPD2    H212042   4.060   1.802   9.828 -2.6109 -0.8502 -1.0244
  818MPD2    H312043   4.047   1.693   9.624  1.1930 -1.4500 -0.1059
  818MPD2     N12044   3.827   1.328   9.792  0.2052 -0.0727 -0.3114
  818MPD2    H512045   3.846   1.277   9.706  1.8638 -1.7463  1.0721
  818MPD2    N112046   3.963   1.696  10.084  0.5107  0.4189  0.1275
  818MPD2    H712047   3.920   1.639  10.157  1.1772  0.9709  0.9481
  819MPD2     C12048   1.883   3.250  15.812  0.0427 -0.4717 -0.2594
  819MPD2    C112049   1.840   3.129  15.855  0.8515  0.3219 -1.0036
  819MPD2    C212050   1.916   3.061  15.950  0.5907 -0.6644 -0.0714
  819MPD2    C312051   2.024   3.122  16.009  0.1461 -0.4089  0.3574
  819MPD2    C412052   2.069   3.250  15.966  0.3669  0.4394  0.0913
  819MPD2    C512053   1.997   3.307  15.858  0.1336  0.2195 -0.2769
  819MPD2     H12054   1.890   2.966  15.994 -1.0309  0.2245  0.9069
  819MPD2    H112055   2.152   3.308  16.004  0.7641 -1.0050  1.3925
  819MPD2    H212056   1.836   3.316  15.740  1.0972 -0.2489 -0.7513
  819MPD2    H312057   2.027   3.407  15.830  2.6069 -0.4894 -0.1025
  819MPD2     N12058   2.102   3.041  16.095 -0.1016  0.1322  0.6198
  819MPD2    H512059   2.070   2.947  16.117  2.2962 -1.1489 -1.3131
  819MPD2    N112060   1.717   3.082  15.807  0.2609  0.9176 -0.0605
  819MPD2    H712061   1.684   3.142  15.732  3.2057  0.4570 -1.7290
  820MPD2     C12062   1.133   3.240  15.051  0.4092 -0.6927 -0.1780
  820MPD2    C112063   1.169   3.321  15.153  0.4203  0.0101  0.0662
  820MPD2    C212064   1.217   3.266  15.271  0.0573  1.0162  0.3183
  820MPD2    C312065   1.233   3.128  15.277 -0.5336  0.3152  0.6975
  820MPD2    C412066   1.196   3.046  15.169 -0.5065  0.5577 -0.8892
  820MPD2    C512067   1.146   3.107  15.053 -0.6326  0.0483 -0.2495
  820MPD2     H12068   1.238   3.334  15.352 -0.5016  1.2931  0.2332
  820MPD2    H112069   1.208   2.938  15.167  1.3108  0.7111  0.8081
  820MPD2    H212070   1.081   3.286  14.967  0.5407  0.7829  0.5349
  820MPD2    H312071   1.114   3.052  14.965 -0.2622  1.7393 -1.4353
  820MPD2     N12072   1.270   3.060  15.401 -0.4569 -0.1670  0.1649
  820MPD2    H512073   1.261   2.960  15.393 -0.6411 -0.2017  0.8257
  820MPD2    N112074   1.141   3.459  15.134 -1.0883  0.1791  0.0104
  820MPD2    H712075   1.091   3.478  15.048 -0.3044 -0.1155 -0.5140
  821MPD2     C12076   1.735   4.592  13.806 -0.8252 -0.3085  0.7646
  821MPD2    C112077   1.859   4.579  13.856 -0.2788  0.1908  0.8061
  821MPD2    C212078   1.970   4.589  13.767 -0.1273 -0.1337 -1.1375
  821MPD2    C312079   1.946   4.606  13.633 -0.9627  0.2081  0.4887
  821MPD2    C412080   1.819   4.622  13.592  0.3445  1.0505  0.0299
  821MPD2    C512081   1.713   4.611  13.673 -0.2825 -0.3330  0.6481
  821MPD2     H12082   2.070   4.567  13.802 -0.1728 -0.4833 -1.2324
  821MPD2    H112083   1.802   4.633  13.485 -0.9737 -2.2909 -0.1045
  821MPD2    H212084   1.644   4.584  13.864 -1.7761  1.0855 -0.5329
  821MPD2    H312085   1.613   4.622  13.632  0.9663  1.3711 -1.8838
  821MPD2     N12086   2.046   4.607  13.534  0.1950 -0.2340  0.4374
  821MPD2    H512087   2.028   4.641  13.440  1.9359 -0.6506 -0.0692
  821MPD2    N112088   1.883   4.549  13.991 -0.7094 -0.0561  0.5118
  821MPD2    H712089   1.979   4.538  14.020 -0.3941  1.2657 -0.0564
  822MPD2     C12090   2.646   4.378  15.989 -0.2493 -0.0743  0.5382
  822MPD2    C112091   2.702   4.438  16.102 -0.6210 -0.3639  0.5611
  822MPD2    C212092   2.642   4.550  16.157 -0.5917 -0.0361  0.6884
  822MPD2    C312093   2.516   4.582  16.125  0.2159  0.3020  0.3951
  822MPD2    C412094   2.455   4.505  16.037  0.0879 -0.3708  0.0268
  822MPD2    C512095   2.515   4.405  15.966 -0.4493  0.3386 -0.1796
  822MPD2     H12096   2.688   4.594  16.245 -2.1595 -0.2219  1.6057
  822MPD2    H112097   2.350   4.512  16.013  0.0106 -0.3945  0.3565
  822MPD2    H212098   2.696   4.302  15.931  1.8863  0.8846  1.1166
  822MPD2    H312099   2.463   4.352  15.887 -1.4405  2.4928 -0.9602
  822MPD2     N12100   2.443   4.678  16.198 -0.0116  0.4569 -0.1775
  822MPD2    H512101   2.347   4.690  16.168  0.3479  0.3791 -1.3735
  822MPD2    N112102   2.822   4.394  16.155 -0.4064 -0.0604 -0.2619
  822MPD2    H712103   2.856   4.445  16.235 -0.3400 -2.1493  1.0393
  823MPD2     C12104   2.113   0.161  16.970  0.7515 -0.0042 -0.0886
  823MPD2    C112105   2.197   0.096  16.883 -0.9035 -0.1969 -0.3387
  823MPD2    C212106   2.272   4.716  16.922 -0.2891 -0.3242  0.1265
  823MPD2    C312107   2.275   4.675  17.056  0.1891 -0.1144 -0.9844
  823MPD2    C412108   2.185   0.006  17.140 -0.1577 -0.4579  0.8617
  823MPD2    C512109   2.109   0.113  17.097  0.5206 -0.2802  0.1630
  823MPD2     H12110   2.332   4.665  16.847  1.7311  1.3577  0.5818
  823MPD2    H112111   2.171   4.698  17.242 -1.6966 -1.2452  0.3903
  823MPD2    H212112   2.043   0.241  16.952 -0.6661 -1.2977 -0.3146
  823MPD2    H312113   2.044   0.167  17.165 -0.4262  0.0320 -0.9639
  823MPD2     N12114   2.353   4.564  17.101 -0.1471  0.1568 -0.5654
  823MPD2    H512115   2.319   4.531  17.191 -1.1142  0.1566 -0.9268
  823MPD2    N112116   2.195   0.131  16.747  0.3886  0.3951  0.1099
  823MPD2    H712117   2.138   0.211  16.721  2.7814  2.3801  0.9960
  824MPD2     C12118   3.181   3.602  16.270  0.2978 -1.0593  0.8480
  824MPD2    C112119   3.179   3.709  16.179 -0.3050 -0.4688  0.0626
  824MPD2    C212120   3.233   3.693  16.052  0.0945  0.3955 -0.6414
  824MPD2    C312121   3.290   3.571  16.009  0.1933  0.0251  0.0527
  824MPD2    C412122   3.286   3.465  16.101 -0.3452  0.0294  0.6147
  824MPD2    C512123   3.240   3.492  16.230  0.0109  0.7319 -0.6605
  824MPD2     H12124   3.216   3.771  15.980 -1.2281  1.4695  0.8441
  824MPD2    H112125   3.314   3.365  16.073 -1.2025 -0.4968  1.6433
  824MPD2    H212126   3.160   3.612  16.376 -0.8186  1.3629  0.4087
  824MPD2    H312127   3.240   3.404  16.294  0.4261  0.7692 -0.6061
  824MPD2     N12128   3.336   3.547  15.876 -0.0943 -0.1645 -0.2177
  824MPD2    H512129   3.339   3.630  15.817  0.2951  0.8070  1.1623
  824MPD2    N112130   3.125   3.835  16.208 -0.2499 -0.8934 -0.4744
  824MPD2    H712131   3.121   3.899  16.129 -1.2567 -0.7346 -0.2993
  825MPD2     C12132   3.758   3.599  15.134 -1.5648 -0.1481  0.3095
  825MPD2    C112133   3.719   3.668  15.242 -0.1836 -0.5065 -0.2010
  825MPD2    C212134   3.747   3.802  15.241 -0.8888 -0.0321 -0.6584
  825MPD2    C312135   3.807   3.864  15.132  0.2874  0.2936 -0.4420
  825MPD2    C412136   3.844   3.789  15.023 -0.0724 -0.2193 -0.2388
  825MPD2    C512137   3.818   3.652  15.025  0.8012  0.6208 -0.1772
  825MPD2     H12138   3.726   3.873  15.320  1.2729  0.7558 -0.7874
  825MPD2    H112139   3.893   3.827  14.934 -0.5959  0.5974 -0.1721
  825MPD2    H212140   3.752   3.491  15.137  2.2418 -0.4274 -1.9329
  825MPD2    H312141   3.847   3.590  14.941  1.2046  1.5406 -0.7207
  825MPD2     N12142   3.850   3.998  15.130 -0.2950  0.1538  0.0346
  825MPD2    H512143   3.886   4.031  15.040  1.9814  2.4871  1.8126
  825MPD2    N112144   3.654   3.595  15.346  0.2198  0.0446 -0.1403
  825MPD2    H712145   3.640   3.497  15.325  1.6994 -0.4949  1.5084
  826MPD2     C12146   3.328   3.545  14.011 -0.9369 -0.0722 -0.5381
  826MPD2    C112147   3.238   3.613  13.940  0.4121  0.1301  0.3678
  826MPD2    C212148   3.146   3.692  13.997 -0.1046 -0.3193 -0.1171
  826MPD2    C312149   3.146   3.705  14.133  0.6879 -0.5349  0.0819
  826MPD2    C412150   3.241   3.638  14.206  0.7344  0.2441 -0.0265
  826MPD2    C512151   3.326   3.559  14.144 -0.2344 -0.1061 -0.2485
  826MPD2     H12152   3.072   3.740  13.934  1.6265  2.5715  0.0581
  826MPD2    H112153   3.244   3.645  14.314 -0.6539  0.2215  0.0113
  826MPD2    H212154   3.405   3.479  13.974 -0.9339  0.3104 -1.2046
  826MPD2    H312155   3.399   3.499  14.198 -0.7057  0.8809  1.4702
  826MPD2     N12156   3.069   3.799  14.199  0.0821 -0.5510  0.0654
  826MPD2    H512157   3.076   3.809  14.300  1.3319 -0.1430 -0.0596
  826MPD2    N112158   3.232   3.591  13.804  0.0083  0.2843  0.3578
  826MPD2    H712159   3.312   3.536  13.771 -0.9886 -0.4761 -0.7914
  827MPD2     C12160   4.187   4.719  10.376  0.4846 -0.2704  0.2254
  827MPD2    C112161   4.107   4.668  10.477  0.5639  0.6753  0.7273
  827MPD2    C212162   4.002   4.585  10.450 -0.4665  0.2519 -0.0980
  827MPD2    C312163   3.962   4.560  10.324  0.1132  0.0505 -0.1298
  827MPD2    C412164   4.035   4.607  10.219  0.0849 -0.2630  0.0970
  827MPD2    C512165   4.153   4.682  10.248 -0.1542  0.1864  0.2793
  827MPD2     H12166   3.940   4.550  10.531 -0.5329  1.8159  0.5143
  827MPD2    H112167   4.015   4.586  10.115  0.1029 -1.7679  0.3925
  827MPD2    H212168   4.265   0.065  10.399  0.3034 -0.1687  0.5119
  827MPD2    H312169   4.208   4.724  10.166 -1.6462 -1.8362 -1.7636
  827MPD2     N12170   3.832   4.504  10.299  0.0021 -0.3433  0.0390
  827MPD2    H512171   3.769   4.480  10.375  0.0641  0.2889  0.2873
  827MPD2    N112172   4.143   4.716  10.602  0.0373 -0.2901  0.0613
  827MPD2    H712173   4.228   0.045  10.612  0.9917 -1.5497 -1.0420
  828MPD2     C12174   2.510   0.131  12.791 -0.4061  0.2644 -0.5018
  828MPD2    C112175   2.493   0.151  12.655 -0.4899  0.4659 -0.5824
  828MPD2    C212176   2.604   0.131  12.575  0.1265 -0.3559 -0.5741
  828MPD2    C312177   2.717   0.071  12.612  0.2482  0.3816 -1.0852
  828MPD2    C412178   2.728   0.043  12.741  0.2462  0.0655  0.0946
  828MPD2    C512179   2.627   0.072  12.830  0.3611 -0.4384  0.1687
  828MPD2     H12180   2.582   0.151  12.471 -0.9636 -0.0982 -0.2890
  828MPD2    H112181   2.827   0.014  12.773  0.5405  0.5876 -0.3382
  828MPD2    H212182   2.434   0.151  12.866 -0.6285 -0.3547 -0.5623
  828MPD2    H312183   2.643   0.065  12.937 -0.0858  1.4231  0.3701
  828MPD2     N12184   2.822   0.037  12.527 -0.1007  0.3040  0.0344
  828MPD2    H512185   2.908   0.001  12.567 -0.1901 -1.1322 -1.0471
  828MPD2    N112186   2.380   0.210  12.595 -0.5344  0.5928  0.4155
  828MPD2    H712187   2.397   0.235  12.498  0.9985 -1.2061  0.2384
  829MPD2     C12188   2.336   0.479  11.816 -0.4779  0.0356  0.2415
  829MPD2    C112189   2.245   0.565  11.869 -0.1993 -0.1579  0.5108
  829MPD2    C212190   2.184   0.529  11.995  0.1922 -0.8246  0.4544
  829MPD2    C312191   2.226   0.410  12.058 -0.2035  0.4511  0.1145
  829MPD2    C412192   2.328   0.331  12.007  0.1071  0.0241  0.5142
  829MPD2    C512193   2.382   0.369  11.887 -0.5866 -0.5309 -0.4636
  829MPD2     H12194   2.099   0.582  12.035  1.3668  0.8592  0.7022
  829MPD2    H112195   2.351   0.235  12.053 -3.5776 -0.4455  1.3323
  829MPD2    H212196   2.385   0.508  11.723 -1.6206 -0.7319 -0.6026
  829MPD2    H312197   2.459   0.305  11.846  1.0578  0.4729  1.0362
  829MPD2     N12198   2.175   0.357  12.179 -1.0037 -0.2337  0.1962
  829MPD2    H512199   2.224   0.279  12.222  1.0645 -0.0043 -1.7677
  829MPD2    N112200   2.222   0.687  11.805 -0.4527  0.1635  0.3176
  829MPD2    H712201   2.275   0.692  11.718 -0.8911 -1.1419 -0.0295
  830MPD2     C12202   2.663   2.536  16.456  0.1542  1.0040 -0.0323
  830MPD2    C112203   2.607   2.601  16.347  0.5498 -0.0911 -0.7345
  830MPD2    C212204   2.689   2.647  16.247  0.0718  0.2043  0.2913
  830MPD2    C312205   2.829   2.646  16.260 -0.5437  0.3729  0.4071
  830MPD2    C412206   2.876   2.581  16.368 -0.0676 -0.0399  0.7624
  830MPD2    C512207   2.802   2.528  16.465 -0.3442 -0.0100 -0.5214
  830MPD2     H12208   2.648   2.710  16.169 -1.6409 -0.6890  0.4727
  830MPD2    H112209   2.983   2.570  16.383 -0.4528 -2.0603  1.9041
  830MPD2    H212210   2.598   2.492  16.531 -0.1183  0.9728 -0.2840
  830MPD2    H312211   2.842   2.475  16.551  0.7254  0.3539 -0.7986
  830MPD2     N12212   2.913   2.717  16.176 -1.0724  0.1660  0.2364
  830MPD2    H512213   3.013   2.716  16.192 -1.2312 -0.1109  1.1548
  830MPD2    N112214   2.467   2.622  16.340  0.0920 -0.1793  0.4875
  830MPD2    H712215   2.408   2.575  16.408 -0.8006  2.7830  1.7568
  831MPD2     C12216   2.792   0.185  16.575 -0.1163  0.2876  0.3593
  831MPD2    C112217   2.819   0.075  16.492 -0.3212  0.2878  0.4854
  831MPD2    C212218   2.745   4.689  16.514 -0.6797 -0.4379  0.7879
  831MPD2    C312219   2.640   4.684  16.609  0.3533 -0.6112 -0.6052
  831MPD2    C412220   2.611   0.065  16.682  0.1490  0.9530  0.0262
  831MPD2    C512221   2.689   0.179  16.666  1.2268  0.0995 -0.0356
  831MPD2     H12222   2.767   4.596  16.462  0.0953 -0.7918  1.7335
  831MPD2    H112223   2.528   0.064  16.752  0.4864  0.4456  0.4158
  831MPD2    H212224   2.848   0.277  16.566 -1.7912  1.3395  0.5118
  831MPD2    H312225   2.679   0.267  16.728  1.4228 -0.5392  0.8936
  831MPD2     N12226   2.555   4.573  16.614  0.3589 -0.2943  0.2730
  831MPD2    H512227   2.486   4.580  16.688  0.7665 -0.2247  0.6441
  831MPD2    N112228   2.899   0.090  16.371 -0.3083  0.0257 -0.1661
  831MPD2    H712229   2.920   0.186  16.346  0.8183 -0.1336  0.1868
  832MPD2     C12230   1.022   0.873  17.565  0.2003 -0.8097  0.0537
  832MPD2    C112231   1.032   0.988  17.489 -0.1108  1.0585 -0.1293
  832MPD2    C212232   0.917   1.026  17.416 -0.9026  0.0137  0.1300
  832MPD2    C312233   0.799   0.955  17.415 -0.8708 -0.2118  0.2882
  832MPD2    C412234   0.799   0.837  17.482 -0.3357  0.7376 -0.1999
  832MPD2    C512235   0.902   0.800  17.566 -0.2363 -0.4682  0.0147
  832MPD2     H12236   0.909   1.128  17.379  0.5180  0.1673  0.2483
  832MPD2    H112237   0.707   0.780  17.485  0.7445 -1.0584 -1.3013
  832MPD2    H212238   1.108   0.829  17.615  2.6073  2.2756 -1.3776
  832MPD2    H312239   0.900   0.708  17.623  1.1093 -2.1641 -2.6880
  832MPD2     N12240   0.679   0.991  17.344  0.2737 -0.1494 -0.4918
  832MPD2    H512241   0.595   0.939  17.368  1.0409 -1.1047  0.1252
  832MPD2    N112242   1.154   1.065  17.506 -0.3990 -0.0315  0.3007
  832MPD2    H712243   1.221   1.035  17.576 -1.7713  0.6734  1.8997
  833MPD2     C12244   3.539   2.094  12.655  0.3511 -0.5353 -0.9580
  833MPD2    C112245   3.514   2.184  12.556 -0.1474  0.2763  0.5004
  833MPD2    C212246   3.575   2.159  12.434  0.0044  0.5124  0.1887
  833MPD2    C312247   3.657   2.049  12.401 -0.7880 -0.0403 -0.0256
  833MPD2    C412248   3.677   1.971  12.506  0.3847 -0.1041 -0.2770
  833MPD2    C512249   3.623   1.990  12.628  0.1166 -0.0529 -0.5706
  833MPD2     H12250   3.554   2.234  12.359  1.0078 -0.3704 -0.9668
  833MPD2    H112251   3.742   1.884  12.497  3.0548  1.7759  0.8027
  833MPD2    H212252   3.495   2.108  12.753  2.5648  1.5384 -0.2616
  833MPD2    H312253   3.636   1.919  12.708 -2.2425 -0.0606 -0.2113
  833MPD2     N12254   3.710   2.025  12.273 -0.1192 -0.6364  0.3250
  833MPD2    H512255   3.749   1.933  12.253 -1.5985 -0.9919 -0.8937
  833MPD2    N112256   3.426   2.293  12.579 -0.1263  0.5974  1.0651
  833MPD2    H712257   3.388   2.305  12.673 -0.8418  2.2428  0.5708
  834MPD2     C12258   3.525   1.529  11.421  0.8000  0.1426  0.1462
  834MPD2    C112259   3.455   1.648  11.397  0.1828  0.4073 -0.3640
  834MPD2    C212260   3.489   1.761  11.474 -0.3749 -0.2215  2.2576
  834MPD2    C312261   3.580   1.745  11.581 -0.0172 -0.8246 -0.7113
  834MPD2    C412262   3.649   1.624  11.596  0.3000 -0.5576 -0.8884
  834MPD2    C512263   3.622   1.520  11.510  0.0778  0.1253 -0.1123
  834MPD2     H12264   3.433   1.852  11.454  0.0813 -0.4979 -0.2020
  834MPD2    H112265   3.709   1.605  11.684 -0.2861 -1.3441 -0.6636
  834MPD2    H212266   3.498   1.438  11.368  0.0197  0.8982 -0.7246
  834MPD2    H312267   3.681   1.429  11.509 -1.5781 -0.9381 -1.1423
  834MPD2     N12268   3.616   1.854  11.663 -0.6796  0.1972 -0.0857
  834MPD2    H512269   3.590   1.950  11.643 -0.7587  0.1063 -0.4333
  834MPD2    N112270   3.357   1.639  11.297  0.2606 -0.4433 -0.6490
  834MPD2    H712271   3.339   1.549  11.253  1.4812 -0.4004 -1.2325
  835MPD2     C12272   3.281   0.012  11.806 -0.0153 -0.2462  0.1291
  835MPD2    C112273   3.223   0.124  11.851 -0.0468 -0.5226  0.1808
  835MPD2    C212274   3.279   0.197  11.959 -1.1336 -0.7096  0.0458
  835MPD2    C312275   3.395   0.160  12.022 -0.6713 -0.6515 -0.8004
  835MPD2    C412276   3.453   0.037  11.975  0.6212 -0.5424 -0.1852
  835MPD2    C512277   3.398   4.695  11.867 -0.4098 -0.0052 -0.2743
  835MPD2     H12278   3.219   0.279  11.997  0.2361 -0.2675  1.2627
  835MPD2    H112279   3.546   0.006  12.022  0.5763  1.4955  1.2473
  835MPD2    H212280   3.231   4.677  11.731  0.3949 -0.2710 -0.1238
  835MPD2    H312281   3.441   4.603  11.830  2.9283  1.2916  0.3721
  835MPD2     N12282   3.459   0.231  12.125  0.1963  1.0489 -0.0666
  835MPD2    H512283   3.550   0.201  12.158  0.8345  0.4873 -2.2792
  835MPD2    N112284   3.120   0.188  11.781  0.1636 -0.2303 -0.3035
  835MPD2    H712285   3.090   0.270  11.833  1.9327  0.1028  0.1909
  836MPD2     C12286   3.290   0.980  12.429  0.6559  0.2587  0.1919
  836MPD2    C112287   3.288   0.850  12.458 -0.1873  0.2935  0.2681
  836MPD2    C212288   3.167   0.797  12.508 -0.6830  0.1571  0.1094
  836MPD2    C312289   3.059   0.878  12.537 -0.6742  0.0825  0.2927
  836MPD2    C412290   3.062   1.002  12.495  1.1706 -0.4107 -0.4170
  836MPD2    C512291   3.181   1.055  12.449 -0.7776  0.1065  0.5723
  836MPD2     H12292   3.164   0.691  12.530  0.3706 -0.0300 -0.6330
  836MPD2    H112293   2.981   1.072  12.515 -0.1990 -1.5007 -2.1759
  836MPD2    H212294   3.374   1.038  12.392  1.2604 -1.2030 -0.7213
  836MPD2    H312295   3.189   1.160  12.422  3.6826 -0.3051  0.2875
  836MPD2     N12296   2.940   0.824  12.585 -0.0649 -0.2295 -0.1904
  836MPD2    H512297   2.865   0.892  12.590 -0.9213 -1.2773  1.3811
  836MPD2    N112298   3.410   0.775  12.432  0.0032 -0.0505 -0.0969
  836MPD2    H712299   3.473   0.797  12.356 -2.0588 -0.7979 -2.0283
  837MPD2     C12300   1.428   0.172  10.007  0.2888  0.1200  0.8048
  837MPD2    C112301   1.345   0.173   9.891 -0.1447  0.3983 -0.8940
  837MPD2    C212302   1.351   0.275   9.799 -0.3561  0.1977  0.2913
  837MPD2    C312303   1.448   0.369   9.808  0.0097  0.2475  0.9649
  837MPD2    C412304   1.528   0.372   9.922 -0.4536 -0.2018  0.3654
  837MPD2    C512305   1.517   0.273  10.016 -0.0430 -0.0937 -0.0836
  837MPD2     H12306   1.279   0.282   9.718  0.4059 -0.2292 -0.4248
  837MPD2    H112307   1.599   0.453   9.940  0.6697 -0.9038 -0.8838
  837MPD2    H212308   1.432   0.096  10.084  1.7208  0.0260  0.6460
  837MPD2    H312309   1.575   0.277  10.107  0.9957  1.1119 -0.8069
  837MPD2     N12310   1.447   0.466   9.711 -0.6167 -0.5792 -0.0210
  837MPD2    H512311   1.380   0.453   9.635 -1.6434  0.6743  0.6766
  837MPD2    N112312   1.236   0.084   9.875 -0.1750 -0.2085 -0.2229
  837MPD2    H712313   1.175   0.089   9.794 -1.0171  1.0129  0.4980
  838MPD2     C12314   4.396   3.234  11.699  0.8234  0.5485  0.3119
  838MPD2    C112315   4.402   3.132  11.787  0.2007  0.8007 -0.1903
  838MPD2    C212316   4.316   3.021  11.773  0.0552  0.2141  0.4043
  838MPD2    C312317   4.217   3.024  11.684 -0.2526 -0.5652  0.2636
  838MPD2    C412318   4.207   3.134  11.595  0.6684  0.1339 -0.9305
  838MPD2    C512319   4.299   3.231  11.602  0.1331  0.2135  0.3307
  838MPD2     H12320   4.332   2.932  11.832  1.2987  0.0943 -0.1164
  838MPD2    H112321   4.138   3.134  11.512 -1.2433 -1.0507  0.6380
  838MPD2    H212322   4.478   3.304  11.687  0.5477  0.6798 -0.8084
  838MPD2    H312323   4.292   3.321  11.541 -0.4386 -1.0601 -1.4721
  838MPD2     N12324   4.119   2.920  11.684  0.2302  0.1908 -0.5527
  838MPD2    H512325   4.129   2.850  11.757 -2.7329  0.3414  0.0090
  838MPD2    N112326   4.505   3.130  11.882 -0.1575 -0.7271 -0.7707
  838MPD2    H712327   4.511   3.045  11.938 -2.0925 -0.8283 -0.6927
  839MPD2     C12328   4.311   2.554  11.832 -0.4318  0.7220  0.1316
  839MPD2    C112329   4.396   2.612  11.740 -0.4577 -0.0435 -0.7501
  839MPD2    C212330   4.503   2.686  11.784  0.0128 -0.9862 -0.3648
  839MPD2    C312331   4.524   2.700  11.918 -0.1317  0.1168 -0.4513
  839MPD2    C412332   4.442   2.634  12.005  0.4101  0.1777 -0.3896
  839MPD2    C512333   4.342   2.567  11.961  0.2306 -0.3708 -0.6802
  839MPD2     H12334   4.562   2.738  11.709 -0.0068  3.1503  2.4537
  839MPD2    H112335   4.449   2.635  12.113  0.5784 -0.2432 -0.3961
  839MPD2    H212336   4.238   2.479  11.805  0.6294 -0.5447  0.7611
  839MPD2    H312337   4.281   2.516  12.034  0.4139 -1.6381 -1.4180
  839MPD2     N12338   4.628   2.776  11.976 -0.7910 -0.0681 -0.1982
  839MPD2    H512339   4.616   2.799  12.075 -0.4268 -0.0918 -0.1483
  839MPD2    N112340   4.371   2.611  11.597 -0.2987  0.8139  0.3465
  839MPD2    H712341   4.437   2.648  11.531 -0.7581 -2.6167 -2.0134
  840MPD2     C12342   4.483   0.475  10.594 -0.0265  0.0863  0.4599
  840MPD2    C112343   4.494   0.435  10.728 -0.0660  0.1858  0.3673
  840MPD2    C212344   4.544   0.527  10.816  0.9449 -0.0187 -0.5260
  840MPD2    C312345   4.608   0.639  10.774  0.3035  0.4285 -0.1071
  840MPD2    C412346   4.606   0.667  10.634 -0.4550  1.1274  0.0291
  840MPD2    C512347   4.535   0.593  10.551  0.2593 -0.5763  0.9173
  840MPD2     H12348   4.543   0.512  10.923 -1.1840 -0.2607 -0.5723
  840MPD2    H112349   4.664   0.749  10.594  1.9721 -0.6527 -0.1050
  840MPD2    H212350   4.435   0.404  10.527 -4.5022  2.4512  1.1708
  840MPD2    H312351   4.553   0.619  10.447  2.8503 -2.6594  0.8586
  840MPD2     N12352   4.659   0.740  10.862 -0.1696  0.2491  0.4558
  840MPD2    H512353   4.700   0.823  10.821  0.6792  0.9980  2.8116
  840MPD2    N112354   4.426   0.322  10.775  0.0246  0.2271 -0.6307
  840MPD2    H712355   4.385   0.266  10.700  0.1575  0.9846 -1.2664
  841MPD2     C12356   4.404   0.588  14.527  0.0941 -1.2870  0.1799
  841MPD2    C112357   4.470   0.492  14.603 -0.6286 -0.4336  0.2671
  841MPD2    C212358   4.591   0.516  14.661 -0.4415 -0.3791  0.8967
  841MPD2    C312359   4.652   0.644  14.645 -0.3254  0.2563 -0.3360
  841MPD2    C412360   4.595   0.737  14.560 -0.2472 -0.5534 -0.0092
  841MPD2    C512361   4.472   0.710  14.500  0.5091 -0.1783 -0.7880
  841MPD2     H12362   4.645   0.440  14.717  1.4572  1.2665  1.2741
  841MPD2    H112363   4.632   0.838  14.547  1.0331 -1.2753 -2.0129
  841MPD2    H212364   4.310   0.575  14.475 -0.5332  1.2931  0.6803
  841MPD2    H312365   4.427   0.792  14.445  1.4003 -0.4705 -1.9385
  841MPD2     N12366   0.031   0.661  14.733 -0.2283  0.1578 -0.1543
  841MPD2    H512367   0.063   0.579  14.784 -1.9125 -1.4838 -1.7328
  841MPD2    N112368   4.413   0.370  14.645 -0.0304 -0.2504 -0.1686
  841MPD2    H712369   4.473   0.302  14.691 -1.8266 -2.0444 -0.4823
  842MPD2     C12370   4.296   1.189  17.167  0.1973  0.6297  0.3980
  842MPD2    C112371   4.361   1.309  17.183  0.0795  0.1631 -0.5869
  842MPD2    C212372   4.433   1.330  17.300  0.8874 -0.7511 -0.1839
  842MPD2    C312373   4.441   1.227  17.393  0.0122  0.4090  0.1969
  842MPD2    C412374   4.386   1.103  17.365 -0.2645  0.7905 -0.1243
  842MPD2    C512375   4.330   1.085  17.242  0.2958 -0.3674 -0.0732
  842MPD2     H12376   4.476   1.428  17.320  1.7273 -1.8213  3.3270
  842MPD2    H112377   4.383   1.023  17.437 -1.6225  0.1633 -0.8733
  842MPD2    H212378   4.239   1.167  17.078 -0.0529 -1.2222  1.0086
  842MPD2    H312379   4.310   0.981  17.215  0.8026 -0.3434 -0.5378
  842MPD2     N12380   4.512   1.246  17.514  0.4404  0.1963 -0.3010
  842MPD2    H512381   4.479   1.188  17.590  1.0759  2.2369  1.5373
  842MPD2    N112382   4.336   1.419  17.097 -0.1125 -0.0835  0.6547
  842MPD2    H712383   4.275   1.402  17.017 -0.1279  0.7227  0.4955
  843MPD2     C12384   2.653   1.529   1.224 -0.7659  0.6416 -0.0867
  843MPD2    C112385   2.687   1.431   1.134  0.3745 -1.0243  0.1416
  843MPD2    C212386   2.712   1.457   0.995 -0.7108 -0.6284 -0.6082
  843MPD2    C312387   2.697   1.592   0.952  0.1313  0.1605 -0.1546
  843MPD2    C412388   2.664   1.684   1.050  0.0673  0.2810  0.3558
  843MPD2    C512389   2.639   1.657   1.180 -0.3204  0.2645 -0.5783
  843MPD2     H12390   2.714   1.376   0.923 -1.6838 -0.1493 -1.1709
  843MPD2    H112391   2.650   1.789   1.025  2.0727  0.1575 -1.3142
  843MPD2    H212392   2.624   1.507   1.325  1.3787  0.9311  0.6052
  843MPD2    H312393   2.603   1.731   1.251 -0.3862  0.0657 -0.4067
  843MPD2     N12394   2.734   1.626   0.827 -0.2042 -0.8381  0.0499
  843MPD2    H512395   2.728   1.726   0.809 -0.9455 -0.4783  2.3024
  843MPD2    N112396   2.675   1.303   1.183 -0.3379 -0.7862  0.1064
  843MPD2    H712397   2.651   1.278   1.278 -1.3686  0.8243  0.2765
  844MPD2     C12398   0.260   0.237  16.917  0.5963  0.6902  0.2739
  844MPD2    C112399   0.320   0.292  16.804 -0.5840  0.2144 -0.6518
  844MPD2    C212400   0.416   0.394  16.824 -0.3322 -0.9077  0.7582
  844MPD2    C312401   0.450   0.443  16.955 -0.5664  0.2954 -0.1106
  844MPD2    C412402   0.384   0.382  17.058  0.3148 -0.6041 -0.4367
  844MPD2    C512403   0.297   0.279  17.042  0.0093  0.4965  0.0960
  844MPD2     H12404   0.470   0.427  16.736 -2.2782 -0.3851 -0.2393
  844MPD2    H112405   0.419   0.402  17.158  0.0334 -1.7065 -0.1222
  844MPD2    H212406   0.192   0.154  16.925 -2.2917  2.9185 -1.2039
  844MPD2    H312407   0.260   0.220  17.125 -0.0375  1.2512  0.6177
  844MPD2     N12408   0.535   0.557  16.969  0.2795  0.1002 -0.8602
  844MPD2    H512409   0.565   0.609  16.886  1.3118 -1.2936 -1.3676
  844MPD2    N112410   0.303   0.239  16.673 -0.1483  0.1581 -0.4677
  844MPD2    H712411   0.371   0.269  16.605 -0.6029 -2.4125 -2.0611
  845MPD2     C12412   0.758   1.507  16.813 -0.3581 -0.5308  0.2735
  845MPD2    C112413   0.844   1.466  16.918  0.5429 -1.1813  0.4017
  845MPD2    C212414   0.868   1.332  16.941 -0.0435 -0.3293  0.0047
  845MPD2    C312415   0.820   1.233  16.861 -0.2840 -0.2058  0.3875
  845MPD2    C412416   0.737   1.269  16.756  0.8875  0.4520  0.1756
  845MPD2    C512417   0.707   1.406  16.741 -1.0927  0.6773  1.1157
  845MPD2     H12418   0.914   1.293  17.031  0.7328  1.2212  0.2817
  845MPD2    H112419   0.693   1.197  16.688 -1.3935  0.5031  1.5949
  845MPD2    H212420   0.731   1.610  16.795  2.7761  0.8001  3.3286
  845MPD2    H312421   0.631   1.432  16.668  0.3800 -0.1182 -0.7008
  845MPD2     N12422   0.838   1.093  16.899 -0.2086 -0.1117  0.3202
  845MPD2    H512423   0.882   1.090  16.990 -0.4628  1.8969  0.5193
  845MPD2    N112424   0.906   1.577  16.999  0.5296  0.5247 -0.3087
  845MPD2    H712425   0.874   1.670  16.977 -0.5724  0.1882 -0.1276
  846MPD2     C12426   2.566   2.085  14.274  0.0382 -0.5028 -0.5207
  846MPD2    C112427   2.455   2.162  14.255  0.0697 -0.1840  0.2446
  846MPD2    C212428   2.386   2.206  14.368  0.8575 -0.0037 -0.5734
  846MPD2    C312429   2.434   2.170  14.496  0.5272  0.7325  0.2177
  846MPD2    C412430   2.548   2.095  14.505 -0.6978 -0.3191  0.4628
  846MPD2    C512431   2.612   2.048  14.394  0.6074  0.6109  0.3019
  846MPD2     H12432   2.308   2.282  14.367 -0.5438 -1.4168  1.7177
  846MPD2    H112433   2.571   2.050  14.601 -1.2293  2.0431  1.6984
  846MPD2    H212434   2.627   2.040  14.195  1.8254  0.2334  0.4372
  846MPD2    H312435   2.702   1.988  14.394 -1.2637 -2.1982  1.7665
  846MPD2     N12436   2.366   2.226  14.612 -0.9018 -0.1664 -0.6594
  846MPD2    H512437   2.270   2.258  14.599 -0.6096  0.5768 -1.0383
  846MPD2    N112438   2.420   2.214  14.132  0.2659  0.4233 -0.0800
  846MPD2    H712439   2.358   2.294  14.143 -1.1053 -1.1865  3.8482
  847MPD2     C12440   2.906   2.889  14.538  0.6367 -1.0093 -0.2046
  847MPD2    C112441   2.881   2.971  14.641  0.0262  0.0524 -0.3812
  847MPD2    C212442   2.842   2.918  14.760  0.7822 -1.0621  0.2834
  847MPD2    C312443   2.821   2.788  14.783  0.2072  0.1887  0.6418
  847MPD2    C412444   2.831   2.707  14.678 -0.1433  0.4251 -0.4098
  847MPD2    C512445   2.879   2.753  14.558 -0.1629  1.1038 -0.3967
  847MPD2     H12446   2.813   2.990  14.835  0.1793 -1.0102 -0.0048
  847MPD2    H112447   2.818   2.600  14.684 -0.8302  0.6534  2.5555
  847MPD2    H212448   2.959   2.910  14.445 -0.9250  3.2649 -0.1156
  847MPD2    H312449   2.901   2.686  14.475  0.4785 -1.3112  1.7223
  847MPD2     N12450   2.799   2.749  14.915 -0.1178 -0.2430  0.1501
  847MPD2    H512451   2.808   2.823  14.984  1.8977  1.0808 -1.5615
  847MPD2    N112452   2.921   3.103  14.639 -0.2837  0.2825 -0.1822
  847MPD2    H712453   2.929   3.146  14.731  4.9285  1.1510 -1.0790
  848MPD2     C12454   0.231   1.266  16.662 -0.1200  0.3711  0.3028
  848MPD2    C112455   0.326   1.321  16.750  0.0319  0.0885  0.4392
  848MPD2    C212456   0.371   1.451  16.722  0.2338  0.3246 -0.4923
  848MPD2    C312457   0.340   1.511  16.604  0.2133 -0.3111  0.3081
  848MPD2    C412458   0.250   1.455  16.516  0.0629  0.3306  0.1357
  848MPD2    C512459   0.194   1.334  16.546 -0.0027 -0.0989 -0.7850
  848MPD2     H12460   0.445   1.490  16.791  1.3982  0.8182 -1.9976
  848MPD2    H112461   0.206   1.498  16.428  1.0336  0.6909 -0.1664
  848MPD2    H212462   0.174   1.174  16.672 -0.1391  0.4210  0.6395
  848MPD2    H312463   0.125   1.278  16.484  0.3961 -2.7819  1.1886
  848MPD2     N12464   0.398   1.639  16.572 -0.5116  0.3723 -0.3342
  848MPD2    H512465   0.379   1.675  16.480 -0.2565  0.1143 -0.4904
  848MPD2    N112466   0.369   1.264  16.866  0.2763 -0.1488  0.5028
  848MPD2    H712467   0.427   1.324  16.924  1.3347  0.7952 -1.5588
  849MPD2     C12468   4.338   1.132  14.581  0.5739  0.3478  0.2687
  849MPD2    C112469   4.361   1.252  14.517 -0.3250 -0.0326 -0.6008
  849MPD2    C212470   4.478   1.320  14.521 -0.1490  0.0582  0.0391
  849MPD2    C312471   4.582   1.272  14.601 -0.1122  0.2587  0.6215
  849MPD2    C412472   4.563   1.151  14.665 -0.8780  0.5174 -0.0704
  849MPD2    C512473   4.443   1.082  14.652 -0.3058  0.0597  0.4293
  849MPD2     H12474   4.488   1.411  14.463  3.2563 -1.8660 -2.3499
  849MPD2    H112475   4.644   1.110  14.724  0.1423  0.4664 -1.4990
  849MPD2    H212476   4.247   1.074  14.571  0.2561  0.7171  1.0841
  849MPD2    H312477   4.431   0.983  14.694 -0.0359 -0.5151 -0.8154
  849MPD2     N12478   4.715   1.316  14.593 -0.0746  0.0347  0.9762
  849MPD2    H512479   0.063   1.253  14.624 -1.4688 -1.5667  1.0405
  849MPD2    N112480   4.257   1.307  14.443 -0.2249  0.2198  0.2383
  849MPD2    H712481   4.281   1.391  14.390  0.1534  1.0494  1.7477
  850MPD2     C12482   2.753   3.639  15.167  0.1375  0.0741  0.2726
  850MPD2    C112483   2.764   3.743  15.262  0.4687 -0.2929  0.1292
  850MPD2    C212484   2.852   3.847  15.227  0.0164  0.1185  0.4813
  850MPD2    C312485   2.921   3.851  15.110  0.1425  0.0413  0.5719
  850MPD2    C412486   2.920   3.737  15.025 -0.2077  0.2987  0.5374
  850MPD2    C512487   2.830   3.634  15.057 -0.0992 -0.6909  0.5349
  850MPD2     H12488   2.867   3.925  15.301 -2.0604  0.8051  0.1960
  850MPD2    H112489   2.970   3.738  14.929 -0.8702  0.8349  0.2017
  850MPD2    H212490   2.665   3.576  15.169 -1.0501  1.7621  1.0464
  850MPD2    H312491   2.812   3.551  14.989 -0.8701  1.1065 -1.4631
  850MPD2     N12492   2.996   3.966  15.075  0.0385  0.1916  0.0502
  850MPD2    H512493   3.046   3.959  14.987  0.2126  0.9382  0.0917
  850MPD2    N112494   2.679   3.749  15.373 -0.0274  0.2973 -0.1162
  850MPD2    H712495   2.619   3.669  15.389  0.9152 -0.4702 -0.3949
  851MPD2     C12496   2.775   3.677  16.163  0.6703  0.0654  0.8806
  851MPD2    C112497   2.728   3.604  16.058 -0.2866 -0.7674  0.3498
  851MPD2    C212498   2.777   3.479  16.034 -0.3171 -0.5908  0.1278
  851MPD2    C312499   2.866   3.410  16.116 -1.0460 -0.4578  0.2506
  851MPD2    C412500   2.897   3.479  16.236  0.0469 -0.8863 -0.0876
  851MPD2    C512501   2.854   3.606  16.252 -0.9945 -0.3208 -1.1543
  851MPD2     H12502   2.775   3.435  15.935  0.2220 -1.3307  0.4474
  851MPD2    H112503   2.971   3.447  16.308  0.7880  0.1861 -0.3839
  851MPD2    H212504   2.746   3.778  16.188  0.0284  0.9239 -3.2831
  851MPD2    H312505   2.883   3.659  16.343 -0.6641 -0.9892 -0.8724
  851MPD2     N12506   2.925   3.292  16.067  0.1842 -1.3068 -0.3969
  851MPD2    H512507   2.889   3.251  15.981 -0.6245  0.6039 -0.9673
  851MPD2    N112508   2.647   3.680  15.966  0.1544  0.0270 -0.1036
  851MPD2    H712509   2.646   3.781  15.978  0.9490 -0.0065  0.2944
  852MPD2     C12510   2.777   1.579  10.465 -0.1175 -0.7467 -0.1665
  852MPD2    C112511   2.782   1.655  10.579  0.1439  0.4183  0.1500
  852MPD2    C212512   2.844   1.784  10.576 -0.1480  0.3690  0.5125
  852MPD2    C312513   2.928   1.822  10.470 -0.4300  0.3783 -0.6867
  852MPD2    C412514   2.920   1.740  10.358 -0.3459  0.2993 -0.2268
  852MPD2    C512515   2.849   1.622  10.360  0.2753  0.5460 -0.3804
  852MPD2     H12516   2.820   1.855  10.654  1.6861 -0.1133  1.5231
  852MPD2    H112517   2.968   1.781  10.270  4.0237 -2.4010  0.9395
  852MPD2    H212518   2.712   1.495  10.447  0.3372 -1.3072  0.8037
  852MPD2    H312519   2.851   1.558  10.273 -2.4811 -1.9327  1.4077
  852MPD2     N12520   2.990   1.944  10.484 -0.7817 -0.0462 -1.2267
  852MPD2    H512521   2.971   1.993  10.570 -3.0334  0.0357 -1.7828
  852MPD2    N112522   2.708   1.626  10.692 -1.1177  0.0289 -0.1188
  852MPD2    H712523   2.717   1.695  10.765 -1.9097 -1.5460  1.4752
  853MPD2     C12524   4.453   1.681  12.628 -0.0442 -0.1164 -0.3778
  853MPD2    C112525   4.330   1.715  12.568 -0.1674  0.1144  0.0598
  853MPD2    C212526   4.316   1.693  12.436 -0.1957  0.1980 -0.0141
  853MPD2    C312527   4.426   1.657  12.357 -0.3188 -0.1679 -0.2981
  853MPD2    C412528   4.543   1.619  12.414  0.1311  0.6592 -0.2495
  853MPD2    C512529   4.555   1.632  12.549 -0.1572 -1.0191 -0.2371
  853MPD2     H12530   4.217   1.715  12.398  0.0565  0.8430 -0.2933
  853MPD2    H112531   4.630   1.585  12.359 -0.0972  0.6053 -0.5835
  853MPD2    H212532   4.441   1.677  12.735  0.2664 -0.9704 -0.3813
  853MPD2    H312533   4.643   1.592  12.598 -0.2363 -0.3205  0.4756
  853MPD2     N12534   4.423   1.648  12.218 -0.3691 -0.1047 -0.4643
  853MPD2    H512535   4.507   1.617  12.170  0.0131 -0.8732  0.7023
  853MPD2    N112536   4.218   1.751  12.655 -0.2121  0.3106 -0.2221
  853MPD2    H712537   4.224   1.757  12.756  0.4243 -2.2465 -0.1108
  854MPD2     C12538   1.260   1.801  12.778  0.0613  0.6667 -0.9623
  854MPD2    C112539   1.281   1.884  12.884  0.3965 -0.1821  0.0419
  854MPD2    C212540   1.350   1.828  12.997 -0.1013 -0.2158  0.1899
  854MPD2    C312541   1.368   1.691  13.006  0.2608 -1.3353 -0.4074
  854MPD2    C412542   1.332   1.607  12.903  0.1061 -0.3101  0.5699
  854MPD2    C512543   1.291   1.667  12.782  0.7943 -0.5165 -0.2677
  854MPD2     H12544   1.379   1.890  13.081 -0.6467  1.0663 -0.5600
  854MPD2    H112545   1.363   1.503  12.902  0.1521 -0.2869 -0.9544
  854MPD2    H212546   1.227   1.834  12.681 -0.1849 -0.8417 -1.3984
  854MPD2    H312547   1.281   1.606  12.693 -0.1264 -2.7242  1.3658
  854MPD2     N12548   1.435   1.626  13.114  0.8538  0.2684 -0.3235
  854MPD2    H512549   1.463   1.529  13.101  1.1335  0.3947 -0.6627
  854MPD2    N112550   1.261   2.020  12.864  0.5193 -0.5479  0.0104
  854MPD2    H712551   1.218   2.038  12.774  0.5022  0.6626  0.2688
  855MPD2     C12552   1.599   1.796  14.113 -0.1930  0.3400 -0.1082
  855MPD2    C112553   1.603   1.656  14.080  0.1943  0.2836  0.1343
  855MPD2    C212554   1.614   1.625  13.942 -0.4216 -0.1079 -0.5027
  855MPD2    C312555   1.632   1.726  13.846  0.0907 -0.2836 -0.5405
  855MPD2    C412556   1.618   1.860  13.884  0.7997  0.0047  0.3116
  855MPD2    C512557   1.604   1.897  14.017 -0.2289  0.0301  0.4100
  855MPD2     H12558   1.610   1.521  13.912  2.3580 -0.3705  0.0221
  855MPD2    H112559   1.642   1.939  13.813 -0.9361  0.3694  0.1272
  855MPD2    H212560   1.587   1.826  14.216 -0.4343  2.4024 -0.7451
  855MPD2    H312561   1.605   2.003  14.037  0.2635  0.1964 -0.4754
  855MPD2     N12562   1.639   1.691  13.706 -0.1957 -1.5729  0.1698
  855MPD2    H512563   1.621   1.764  13.638  2.4796  1.5715  2.8381
  855MPD2    N112564   1.584   1.550  14.176  0.0940 -0.7100 -0.0751
  855MPD2    H712565   1.583   1.454  14.145  0.6440 -0.0645 -2.0686
  856MPD2     C12566   3.710   1.950  14.249 -0.6895 -0.0961 -0.2635
  856MPD2    C112567   3.750   2.077  14.279 -0.5713 -0.0315 -0.1488
  856MPD2    C212568   3.661   2.168  14.338 -0.1003  0.0686  0.5657
  856MPD2    C312569   3.526   2.135  14.353 -0.0298  0.2814  0.1044
  856MPD2    C412570   3.487   2.004  14.334 -0.5624  0.2266  0.1057
  856MPD2    C512571   3.582   1.914  14.283  0.7469 -0.3186 -0.0002
  856MPD2     H12572   3.688   2.272  14.351 -1.7372  0.2789  2.3202
  856MPD2    H112573   3.387   1.976  14.368 -0.5519 -0.5798 -0.5130
  856MPD2    H212574   3.770   1.870  14.210  0.8688  0.4072  1.0896
  856MPD2    H312575   3.554   1.811  14.261  2.8414 -0.4395 -2.1143
  856MPD2     N12576   3.435   2.232  14.398  0.2127  0.1235 -0.4236
  856MPD2    H512577   3.475   2.321  14.425 -2.3392  0.3806  2.4574
  856MPD2    N112578   3.882   2.130  14.265  0.0341 -0.6362  0.2389
  856MPD2    H712579   3.891   2.223  14.304 -1.3778 -0.3734 -0.0532
  857MPD2     C12580   0.437   4.275  13.572  0.1965  0.1422  0.9970
  857MPD2    C112581   0.527   4.334  13.503  0.4151 -0.4159  0.2865
  857MPD2    C212582   0.594   4.457  13.549  0.1285  0.8181 -0.4130
  857MPD2    C312583   0.546   4.507  13.676 -0.3687  0.2630 -0.2804
  857MPD2    C412584   0.450   4.440  13.749  0.1251  0.5666  0.0619
  857MPD2    C512585   0.391   4.326  13.692  0.3202 -0.3966  0.3082
  857MPD2     H12586   0.665   4.511  13.488  2.0135  1.0978  2.0506
  857MPD2    H112587   0.416   4.474  13.847  0.1697  1.4012 -0.2162
  857MPD2    H212588   0.380   4.191  13.534  0.9876  0.2428 -0.4284
  857MPD2    H312589   0.301   4.291  13.742 -0.0029 -0.1889 -0.1303
  857MPD2     N12590   0.607   4.621  13.721  0.0821  0.0156  0.3928
  857MPD2    H512591   0.683   4.661  13.667 -0.1930 -0.4925 -0.3659
  857MPD2    N112592   0.555   4.265  13.383 -0.6354  0.4097 -0.6428
  857MPD2    H712593   0.504   4.179  13.372 -0.8289  0.1141  2.7197
  858MPD2     C12594   1.168   3.844  16.941  0.6082 -0.5032 -0.7782
  858MPD2    C112595   1.265   3.760  16.982 -0.4192  0.1722  0.1119
  858MPD2    C212596   1.339   3.792  17.096 -0.1402 -0.1779  0.2010
  858MPD2    C312597   1.301   3.898  17.173  0.1061  0.2324  0.0920
  858MPD2    C412598   1.195   3.977  17.136  0.2415  0.3330  0.2126
  858MPD2    C512599   1.129   3.950  17.019 -0.5414  0.2243  0.3883
  858MPD2     H12600   1.412   3.717  17.125 -1.1109 -1.2247 -0.0627
  858MPD2    H112601   1.163   4.057  17.201  2.6716  0.9398  0.6775
  858MPD2    H212602   1.115   3.821  16.849  1.0458 -0.5329 -1.0195
  858MPD2    H312603   1.050   4.010  16.976 -1.1158 -1.0298 -0.3254
  858MPD2     N12604   1.364   3.930  17.299  0.2302 -0.0967  0.0260
  858MPD2    H512605   1.311   3.987  17.365  0.9404  0.5378  0.0474
  858MPD2    N112606   1.293   3.637  16.918 -0.0338 -0.0293 -0.4647
  858MPD2    H712607   1.366   3.583  16.965  0.1894 -0.8358 -1.7397
  859MPD2     C12608   4.170   0.188  15.025  0.6643  0.3786 -0.1741
  859MPD2    C112609   4.300   0.244  15.026  0.0889 -0.3143  0.0724
  859MPD2    C212610   4.400   0.168  15.083 -0.0723 -0.2796  0.2841
  859MPD2    C312611   4.382   0.040  15.137 -0.4127  0.3774  0.9620
  859MPD2    C412612   4.258   4.710  15.124 -0.1719 -0.4832 -0.5465
  859MPD2    C512613   4.156   0.061  15.072  0.1151  0.3691 -0.2688
  859MPD2     H12614   4.505   0.192  15.085  0.4450 -2.4068 -0.9130
  859MPD2    H112615   4.235   4.611  15.162 -0.6525 -0.9029 -1.9394
  859MPD2    H212616   4.082   0.236  14.983  1.9562  1.2448 -1.9226
  859MPD2    H312617   4.055   0.026  15.092  0.4947 -1.2954 -1.2719
  859MPD2     N12618   4.481   4.717  15.218  0.1204  0.6108 -0.1269
  859MPD2    H512619   4.575   0.026  15.204 -0.2134  1.8089  0.6820
  859MPD2    N112620   4.321   0.380  14.991  0.1430 -0.2815  0.2434
  859MPD2    H712621   4.238   0.436  14.976  2.2496  2.0248 -2.8528
  860MPD2     C12622   2.683   1.173  11.875  0.4042  0.4720  0.5711
  860MPD2    C112623   2.703   1.277  11.962 -0.3883 -0.3066  0.2946
  860MPD2    C212624   2.620   1.298  12.074  0.5661 -0.0287  0.5295
  860MPD2    C312625   2.514   1.220  12.092  0.2007 -0.8089 -0.0491
  860MPD2    C412626   2.488   1.116  12.008 -0.0069  0.0196  0.4590
  860MPD2    C512627   2.576   1.092  11.906 -0.1179 -0.1226 -0.1744
  860MPD2     H12628   2.637   1.392  12.124  0.5101 -1.6816  3.7068
  860MPD2    H112629   2.408   1.044  12.020  0.5475 -0.1630  3.1987
  860MPD2    H212630   2.750   1.144  11.794  1.5071 -0.6454  1.8884
  860MPD2    H312631   2.558   1.011  11.836  1.9403 -0.2270 -0.5815
  860MPD2     N12632   2.435   1.254  12.202  0.1413  0.1898  0.1581
  860MPD2    H512633   2.446   1.338  12.257 -0.6867  0.0175  0.5818
  860MPD2    N112634   2.809   1.367  11.949  0.2228 -0.6523 -0.3077
  860MPD2    H712635   2.822   1.427  12.029  0.8896 -1.3625  0.1202
  861MPD2     C12636   0.395   4.299  11.160  0.1494 -0.6655 -0.6043
  861MPD2    C112637   0.452   4.417  11.198  0.3121  0.5085 -0.8950
  861MPD2    C212638   0.401   4.535  11.160 -0.4526  0.5224  0.3113
  861MPD2    C312639   0.282   4.544  11.098  0.1079 -0.1744  0.6040
  861MPD2    C412640   0.218   4.420  11.072  0.9689 -0.2983  0.4563
  861MPD2    C512641   0.273   4.302  11.098  0.3334 -0.4034 -0.5062
  861MPD2     H12642   0.454   4.629  11.170  0.3456 -0.3552  4.0704
  861MPD2    H112643   0.122   4.433  11.024 -0.2688 -3.3623  2.0841
  861MPD2    H212644   0.447   4.204  11.169  2.7047  0.7292 -0.6022
  861MPD2    H312645   0.215   4.212  11.079 -2.5294  1.8543 -2.5448
  861MPD2     N12646   0.210   4.664  11.068 -0.0288  0.0788  0.4270
  861MPD2    H512647   0.116   4.646  11.033  0.1574  0.5710 -0.3167
  861MPD2    N112648   0.573   4.419  11.276 -0.2502  0.1562 -0.7243
  861MPD2    H712649   0.597   4.517  11.291 -0.1388 -0.1190  0.8500
  862MPD2     C12650   0.012   0.291  10.457 -0.5154 -0.3609  0.1781
  862MPD2    C112651   0.030   0.190  10.554  0.3318  0.2522 -0.7531
  862MPD2    C212652   0.045   0.057  10.512  0.4797 -0.5691  0.0789
  862MPD2    C312653   0.060   0.026  10.377  0.0351 -0.4747  0.3406
  862MPD2    C412654   0.022   0.117  10.287  0.1577 -0.3163 -0.3328
  862MPD2    C512655   4.724   0.250  10.325  1.0577  0.0612 -0.4548
  862MPD2     H12656   0.042   4.700  10.581  0.2107  0.2120  1.0069
  862MPD2    H112657   0.014   0.104  10.180  0.4255 -0.1930 -0.3667
  862MPD2    H212658   4.721   0.395  10.483 -0.2041 -0.2645 -0.0118
  862MPD2    H312659   4.698   0.319  10.245  0.4413 -0.9967 -1.1660
  862MPD2     N12660   0.109   4.617  10.337  0.8665  0.5425 -0.0439
  862MPD2    H512661   0.123   4.605  10.238 -3.1164  0.3886 -0.5616
  862MPD2    N112662   0.043   0.214  10.694  0.4732 -0.2464 -0.4500
  862MPD2    H712663   0.022   0.134  10.752 -0.9659 -0.5921 -1.4541
  863MPD2     C12664   4.155   2.921  16.725 -0.0979  0.1406  0.4757
  863MPD2    C112665   4.080   2.968  16.833 -0.1292 -0.3884  0.3990
  863MPD2    C212666   4.127   2.947  16.956 -0.5890  0.2511 -0.2337
  863MPD2    C312667   4.253   2.883  16.979 -0.2309 -0.3349 -0.7836
  863MPD2    C412668   4.324   2.847  16.872  0.0913 -0.4220 -0.8071
  863MPD2    C512669   4.276   2.863  16.749 -0.3131 -0.1800 -0.2110
  863MPD2     H12670   4.061   2.992  17.029 -0.6521  2.0295 -1.3850
  863MPD2    H112671   4.425   2.810  16.882  0.6346  1.0090 -1.0709
  863MPD2    H212672   4.137   2.942  16.620  0.7462 -0.2174  0.2549
  863MPD2    H312673   4.332   2.849  16.657 -0.1515 -1.0683  0.0266
  863MPD2     N12674   4.303   2.862  17.111 -0.2695 -0.0483  1.1086
  863MPD2    H512675   4.403   2.844  17.116 -0.2448 -0.5065 -1.3992
  863MPD2    N112676   3.956   3.029  16.815 -0.5171 -0.4250 -0.1724
  863MPD2    H712677   3.901   3.046  16.898 -0.6902  0.1274 -0.3990
  864MPD2     C12678   0.029   3.697   0.099 -0.7699 -0.0137  0.3369
  864MPD2    C112679   0.076   3.635  17.692  0.0846 -0.1643  0.4616
  864MPD2    C212680   0.183   3.685  17.628  0.2516  0.3620 -0.4550
  864MPD2    C312681   0.258   3.788  17.682 -0.0121  0.3022 -0.1082
  864MPD2    C412682   0.214   3.855   0.091  0.7094 -0.5772 -0.7169
  864MPD2    C512683   0.099   3.804   0.153 -0.0193 -0.0571 -0.2058
  864MPD2     H12684   0.217   3.637  17.537  0.7501 -1.3408  0.6265
  864MPD2    H112685   0.268   3.935   0.141 -0.4012 -1.3973  1.7594
  864MPD2    H212686   4.669   3.662   0.156  0.2964 -4.2724 -0.6295
  864MPD2    H312687   0.065   3.851   0.245 -0.3075  0.6712 -0.6871
  864MPD2     N12688   0.384   3.831  17.624  0.5907 -0.7246  0.5244
  864MPD2    H512689   0.419   3.919  17.660  0.6648 -0.4960 -0.0956
  864MPD2    N112690   0.010   3.531  17.628 -0.3124  0.5490  0.5360
  864MPD2    H712691   4.663   3.484  17.681  0.0957 -0.6242  0.0539
  865MPD2     C12692   0.848   4.038  16.783 -0.3515  0.5999  0.3240
  865MPD2    C112693   0.764   3.949  16.836 -0.1006  0.6843  0.0259
  865MPD2    C212694   0.725   3.965  16.967  0.7078 -0.3245  0.1901
  865MPD2    C312695   0.765   4.073  17.044  0.6260 -0.5404  0.1087
  865MPD2    C412696   0.855   4.160  16.987  0.0414 -0.2224 -0.3507
  865MPD2    C512697   0.893   4.144  16.852 -0.2833  0.4697  0.3821
  865MPD2     H12698   0.671   3.884  17.013 -1.7963 -0.0872 -2.3177
  865MPD2    H112699   0.902   4.242  17.039 -1.3540  2.1804 -2.8474
  865MPD2    H212700   0.877   4.048  16.679  1.3118 -1.1163  0.6397
  865MPD2    H312701   0.958   4.209  16.795 -2.4759  0.8663 -1.6573
  865MPD2     N12702   0.748   4.084  17.182 -0.0011 -0.8162 -0.5937
  865MPD2    H512703   0.818   4.139  17.231 -0.8411 -0.7472  0.5294
  865MPD2    N112704   0.718   3.841  16.755  0.0509  0.2530 -0.2283
  865MPD2    H712705   0.733   3.853  16.655  3.2210 -0.2417  0.1771
  866MPD2     C12706   1.318   0.718  11.458  0.4021 -0.0505 -0.3303
  866MPD2    C112707   1.292   0.657  11.339  0.6265  0.5780  0.2010
  866MPD2    C212708   1.160   0.648  11.290 -0.2108 -0.4795  0.2239
  866MPD2    C312709   1.059   0.697  11.377 -0.0008 -0.5190  0.8774
  866MPD2    C412710   1.085   0.768  11.495 -0.3507 -0.3236  0.4777
  866MPD2    C512711   1.218   0.775  11.531 -0.2992 -0.0618  0.0740
  866MPD2     H12712   1.144   0.589  11.200 -1.2580 -0.6689  0.5260
  866MPD2    H112713   1.011   0.806  11.565 -0.4601  0.0658  0.1559
  866MPD2    H212714   1.413   0.718  11.510 -0.2476 -0.2448  0.8472
  866MPD2    H312715   1.248   0.821  11.625  2.7721 -1.8350 -0.0185
  866MPD2     N12716   0.922   0.686  11.342  0.0621 -0.6567  0.2175
  866MPD2    H512717   0.854   0.714  11.412 -0.7298  2.3384 -1.7646
  866MPD2    N112718   1.405   0.596  11.278  0.1026  0.4071 -0.7443
  866MPD2    H712719   1.489   0.594  11.335 -1.6166  0.8046  1.8071
  867MPD2     C12720   3.306   4.246  16.450 -0.3077  0.6972  0.1418
  867MPD2    C112721   3.314   4.163  16.557 -0.1543  0.0238 -0.9035
  867MPD2    C212722   3.311   4.210  16.687 -0.2661 -0.2648  0.1887
  867MPD2    C312723   3.299   4.344  16.718 -0.8598  0.2631 -0.2884
  867MPD2    C412724   3.284   4.427  16.610  0.3755 -0.2569 -0.1192
  867MPD2    C512725   3.293   4.378  16.479 -0.5533  0.1172  0.0847
  867MPD2     H12726   3.312   4.139  16.769 -0.5267 -1.5694 -0.9479
  867MPD2    H112727   3.283   4.532  16.637  0.7312 -0.0871 -0.7860
  867MPD2    H212728   3.294   4.206  16.350  4.7690  0.8387 -0.5031
  867MPD2    H312729   3.277   4.453  16.403 -0.4210 -0.5998 -0.6549
  867MPD2     N12730   3.293   4.388  16.854 -0.3454 -0.5683 -0.2452
  867MPD2    H512731   3.266   4.485  16.870 -0.8276 -0.7435 -0.0114
  867MPD2    N112732   3.334   4.025  16.522  0.3744  0.7930  0.1619
  867MPD2    H712733   3.363   4.014  16.426  0.4971  0.6941  0.2110
  868MPD2     C12734   0.915   3.398  13.306 -0.8173  0.8468  0.1592
  868MPD2    C112735   0.947   3.290  13.394  0.1957 -0.4129  0.2995
  868MPD2    C212736   0.853   3.252  13.483  0.5988  0.1083  0.4016
  868MPD2    C312737   0.730   3.312  13.491  0.1569 -0.7733 -0.1422
  868MPD2    C412738   0.708   3.423  13.409  0.1081 -0.0119 -0.3102
  868MPD2    C512739   0.797   3.463  13.310  0.3846  0.2825  0.9608
  868MPD2     H12740   0.863   3.162  13.542 -0.4893  0.9807  1.9381
  868MPD2    H112741   0.623   3.489  13.405  0.3020  0.2697  0.2800
  868MPD2    H212742   0.976   3.424  13.220  0.9731  2.3950  1.9050
  868MPD2    H312743   0.773   3.553  13.254 -2.0577 -0.6094  0.5955
  868MPD2     N12744   0.626   3.266  13.571 -0.4171 -0.2164 -0.2140
  868MPD2    H512745   0.649   3.196  13.641 -0.4629  0.5856  0.5997
  868MPD2    N112746   1.073   3.220  13.378 -0.5559 -0.1226  0.2987
  868MPD2    H712747   1.127   3.261  13.302 -0.1129  1.3427  1.3968
  869MPD2     C12748   1.924   0.994   2.370 -0.1289 -0.7933  0.0327
  869MPD2    C112749   1.801   0.940   2.337  0.3665  0.5617  0.7303
  869MPD2    C212750   1.736   0.978   2.219 -0.1698  0.3245  0.6109
  869MPD2    C312751   1.806   1.064   2.138  0.5391  0.2272 -0.4254
  869MPD2    C412752   1.926   1.122   2.181  0.4677 -0.0181  0.5864
  869MPD2    C512753   1.976   1.085   2.300 -0.5160 -0.3212  0.1400
  869MPD2     H12754   1.651   0.926   2.177 -0.3488 -0.4728  1.9656
  869MPD2    H112755   1.981   1.194   2.123 -2.7992  1.5658 -0.5745
  869MPD2    H212756   1.971   0.968   2.463  0.4499 -0.6711 -0.2280
  869MPD2    H312757   2.063   1.136   2.340  0.0552 -1.0114 -0.2251
  869MPD2     N12758   1.773   1.095   2.007  0.6212 -0.1369  0.0759
  869MPD2    H512759   1.845   1.128   1.944 -0.0707 -0.0688 -0.6764
  869MPD2    N112760   1.748   0.842   2.431  0.4668 -0.3439  1.0556
  869MPD2    H712761   1.802   0.818   2.514  1.4347 -2.3387 -0.1498
  870MPD2     C12762   0.878   0.189   1.873  0.3639 -0.0896 -0.1577
  870MPD2    C112763   0.983   0.276   1.887  0.0883 -0.8896 -0.0586
  870MPD2    C212764   1.017   0.369   1.792 -0.3923  0.0026 -0.5062
  870MPD2    C312765   0.936   0.375   1.680  0.2458 -0.2526 -0.2356
  870MPD2    C412766   0.820   0.295   1.674 -0.0041 -0.7154 -0.5841
  870MPD2    C512767   0.789   0.201   1.771  0.3122 -0.7395 -0.1674
  870MPD2     H12768   1.094   0.444   1.801 -0.7428  0.4180 -0.9558
  870MPD2    H112769   0.750   0.318   1.595 -0.7938 -1.1160 -0.0030
  870MPD2    H212770   0.860   0.115   1.950  1.0604 -1.0152 -0.8843
  870MPD2    H312771   0.707   0.132   1.761 -1.5381  1.3012  0.8808
  870MPD2     N12772   0.979   0.471   1.584  0.2763 -0.2203  0.2679
  870MPD2    H512773   1.075   0.503   1.595  0.7646 -2.0410  1.3465
  870MPD2    N112774   1.058   0.267   2.012  0.2536  0.0823 -0.1226
  870MPD2    H712775   1.030   0.192   2.074 -1.5947  0.1580 -0.8705
  871MPD2     C12776   2.451   3.999  16.687  0.2783 -0.3992 -0.2838
  871MPD2    C112777   2.556   3.993  16.766 -0.4514 -0.4023 -0.5916
  871MPD2    C212778   2.660   3.910  16.734 -0.3120  0.5599 -0.9779
  871MPD2    C312779   2.659   3.847  16.613 -0.1860 -0.5783 -0.5684
  871MPD2    C412780   2.546   3.853  16.528  0.4965 -0.0836 -0.1712
  871MPD2    C512781   2.448   3.939  16.564  0.2013  0.4324 -0.3265
  871MPD2     H12782   2.738   3.891  16.807 -2.1129 -0.7154  0.6134
  871MPD2    H112783   2.544   3.801  16.433 -1.3371  2.0899 -1.3259
  871MPD2    H212784   2.364   4.059  16.708 -0.6682 -1.5171 -1.0130
  871MPD2    H312785   2.368   3.959  16.493 -0.6778 -0.5353  0.3852
  871MPD2     N12786   2.761   3.759  16.572 -0.1665 -0.7375 -0.1331
  871MPD2    H512787   2.738   3.717  16.483 -1.9422  0.3583 -0.1993
  871MPD2    N112788   2.555   4.076  16.883 -0.3406 -0.8681 -0.3885
  871MPD2    H712789   2.482   4.147  16.887  0.4050 -0.1437  0.4092
  872MPD2     C12790   3.528   1.846  13.820 -0.2792 -0.4315  0.3215
  872MPD2    C112791   3.543   1.952  13.909 -0.7020 -0.4253  0.2442
  872MPD2    C212792   3.438   1.973  13.993  0.4529  0.3394  0.0970
  872MPD2    C312793   3.334   1.875  14.005  0.4373 -0.0449 -0.3971
  872MPD2    C412794   3.322   1.777  13.910 -0.4313  0.0110 -0.4101
  872MPD2    C512795   3.423   1.757  13.831 -0.0785  0.2403  0.1330
  872MPD2     H12796   3.440   2.061  14.056  3.2817 -0.6093  1.3493
  872MPD2    H112797   3.243   1.703  13.900 -0.3117  0.2580 -3.0902
  872MPD2    H212798   3.605   1.823  13.748 -2.2947  0.5645 -2.1412
  872MPD2    H312799   3.407   1.677  13.759 -1.3040 -0.0997  0.7757
  872MPD2     N12800   3.233   1.896  14.102  0.1558  0.9467  0.0186
  872MPD2    H512801   3.249   1.970  14.170  1.2605 -0.6399  1.4876
  872MPD2    N112802   3.649   2.047  13.888  0.2776 -0.0969 -0.4009
  872MPD2    H712803   3.644   2.141  13.928 -1.3441 -0.3109 -0.1027
  873MPD2     C12804   0.188   1.942   1.453  0.0744 -0.0174 -0.0819
  873MPD2    C112805   0.077   2.016   1.492  0.7184 -0.3391 -0.3442
  873MPD2    C212806   4.679   1.964   1.490  0.4672 -0.4817  0.5977
  873MPD2    C312807   4.655   1.836   1.445 -0.0175 -0.2665  0.2148
  873MPD2    C412808   0.036   1.769   1.388 -0.2913 -0.2166  0.6279
  873MPD2    C512809   0.164   1.819   1.394  0.4986  0.7115 -0.0330
  873MPD2     H12810   4.600   2.021   1.537 -0.0873 -0.3117 -0.5385
  873MPD2    H112811   0.019   1.668   1.355  0.9549 -0.2581  0.1241
  873MPD2    H212812   0.292   1.964   1.472  0.1684  0.1317 -0.7696
  873MPD2    H312813   0.245   1.760   1.354 -0.9900  0.4193 -2.6768
  873MPD2     N12814   4.528   1.778   1.429 -0.1574  0.1233 -0.8447
  873MPD2    H512815   4.524   1.690   1.379 -1.3645 -0.6977  0.6906
  873MPD2    N112816   0.106   2.147   1.548 -0.2859  0.3163 -0.1945
  873MPD2    H712817   0.200   2.185   1.542 -1.6649  3.6419 -0.4697
  874MPD2     C12818   4.431   2.130  16.503 -0.0310 -0.0277  0.0768
  874MPD2    C112819   4.503   2.036  16.575  0.1531  0.1050  0.5428
  874MPD2    C212820   4.636   2.028  16.548 -0.2973 -0.4303  0.3141
  874MPD2    C312821   4.702   2.110  16.460  0.3837 -0.4849 -0.6086
  874MPD2    C412822   4.630   2.201  16.386 -0.7011  0.5507  0.5224
  874MPD2    C512823   4.493   2.212  16.404 -0.8465  0.8228 -0.0834
  874MPD2     H12824   4.693   1.956  16.605 -0.6785 -1.0364 -0.0778
  874MPD2    H112825   4.674   2.274  16.319 -1.0073  1.5622  1.4264
  874MPD2    H212826   4.325   2.146  16.521 -0.1165  0.1500 -0.5790
  874MPD2    H312827   4.430   2.291  16.364 -1.3493  0.4251 -0.0705
  874MPD2     N12828   0.114   2.102  16.442  0.3674 -0.3913 -0.2626
  874MPD2    H512829   0.156   2.176  16.388  0.7139 -1.2312 -1.1442
  874MPD2    N112830   4.436   1.965  16.679 -0.0496 -0.1975 -0.0669
  874MPD2    H712831   4.339   1.993  16.686  0.1091  0.8567 -2.0553
  875MPD2     C12832   1.206   4.610  14.829 -0.0779  0.4689 -0.1821
  875MPD2    C112833   1.092   4.675  14.779  0.5740 -0.3633  0.2016
  875MPD2    C212834   1.015   0.019  14.867  0.1525  0.3144  0.4203
  875MPD2    C312835   1.037   0.015  15.006 -0.6366 -0.1682 -0.1450
  875MPD2    C412836   1.155   4.688  15.051  0.9276  0.2914  0.1470
  875MPD2    C512837   1.236   4.614  14.958  0.9488  0.5982 -0.2277
  875MPD2     H12838   0.923   0.064  14.832  0.3272  0.1011 -0.3182
  875MPD2    H112839   1.166   4.669  15.157  1.6332 -3.4870 -0.5988
  875MPD2    H212840   1.270   4.551  14.765 -0.3699 -0.2262  0.1694
  875MPD2    H312841   1.326   4.565  14.992  1.8029  1.8634 -0.6664
  875MPD2     N12842   0.951   0.072  15.102 -0.4367  0.2712 -0.4382
  875MPD2    H512843   0.995   0.071  15.193 -0.5838  0.2484 -0.3678
  875MPD2    N112844   1.068   4.692  14.642  0.1768  0.4487  0.6551
  875MPD2    H712845   0.983   0.017  14.619  0.3153  1.7418  3.0401
  876MPD2     C12846   4.634   1.162  16.253  0.2926  0.2139  0.3487
  876MPD2    C112847   4.681   1.080  16.149 -0.1453 -0.2323  0.1414
  876MPD2    C212848   4.681   0.942  16.171  0.0494  0.1951  0.7602
  876MPD2    C312849   4.636   0.887  16.294 -0.3861  0.4286  0.5203
  876MPD2    C412850   4.581   0.969  16.392 -0.0662  0.1686 -0.2302
  876MPD2    C512851   4.586   1.104  16.371 -0.4069 -0.0951 -0.6178
  876MPD2     H12852   4.718   0.876  16.093  0.2603  0.3424  0.7386
  876MPD2    H112853   4.558   0.938  16.493  1.3593 -2.0854 -0.6015
  876MPD2    H212854   4.642   1.270  16.250  1.9823  0.1226  1.0596
  876MPD2    H312855   4.542   1.178  16.437  1.1702  0.6656 -0.4043
  876MPD2     N12856   4.649   0.745  16.305  0.2230 -0.0743  0.6985
  876MPD2    H512857   4.656   0.695  16.217 -0.5871  0.3746  0.3792
  876MPD2    N112858   0.008   1.148  16.040  1.0940  0.0793  0.1824
  876MPD2    H712859   0.011   1.250  16.048 -1.9737  0.1041  1.1486
  877MPD2     C12860   0.144   1.793  15.809 -0.3346 -0.0145  0.5153
  877MPD2    C112861   0.216   1.740  15.694  0.7303  0.2932 -0.7079
  877MPD2    C212862   0.236   1.827  15.590 -0.4058  0.6314  0.0951
  877MPD2    C312863   0.198   1.956  15.594 -0.5068 -0.1771 -0.1104
  877MPD2    C412864   0.136   2.008  15.703  0.9912 -0.4936  0.2483
  877MPD2    C512865   0.110   1.924  15.806  0.6132  0.4735 -0.0376
  877MPD2     H12866   0.284   1.785  15.503 -3.1106  0.4169 -1.2916
  877MPD2    H112867   0.127   2.116  15.701  0.3135 -0.5439  0.6856
  877MPD2    H212868   0.129   1.736  15.900 -0.1761 -0.2760  0.3784
  877MPD2    H312869   0.069   1.959  15.900 -3.7163 -1.8473 -1.0737
  877MPD2     N12870   0.221   2.044  15.487 -0.6079 -0.0691  0.7310
  877MPD2    H512871   0.174   2.134  15.487 -0.1746  0.1586  0.8526
  877MPD2    N112872   0.239   1.599  15.682 -0.7656 -0.3920  0.5920
  877MPD2    H712873   0.263   1.561  15.592  0.0163  1.2703  0.0901
  878MPD2     C12874   4.540   1.150  13.561  0.2700  0.3700 -0.8489
  878MPD2    C112875   4.492   1.272  13.540  0.4167 -0.5348 -0.1477
  878MPD2    C212876   4.397   1.324  13.628  0.3653 -0.4789 -0.0319
  878MPD2    C312877   4.359   1.261  13.744  0.7062  0.5457  0.3155
  878MPD2    C412878   4.420   1.141  13.765  0.4927 -0.0518 -0.2990
  878MPD2    C512879   4.508   1.091  13.672 -0.2540  1.0503  0.5883
  878MPD2     H12880   4.348   1.419  13.612  1.3404  0.5731  3.3328
  878MPD2    H112881   4.405   1.080  13.854 -0.9913  1.6225  0.6013
  878MPD2    H212882   4.613   1.113  13.490  0.5090  1.6194 -1.2479
  878MPD2    H312883   4.561   1.000  13.700 -1.3352  0.0100 -0.7821
  878MPD2     N12884   4.265   1.321  13.836 -0.1760 -0.5127 -0.7431
  878MPD2    H512885   4.217   1.407  13.812  0.7509  0.2361  0.1196
  878MPD2    N112886   4.529   1.342  13.423 -0.0913  0.2444  0.2316
  878MPD2    H712887   4.578   1.292  13.349  0.6287  0.7423  0.3766
  879MPD2     C12888   0.552   2.597  17.245  0.5346  0.2948 -0.3536
  879MPD2    C112889   0.426   2.599  17.298  0.0564 -0.4624  0.0815
  879MPD2    C212890   0.331   2.517  17.243 -0.2585 -0.1242  0.3531
  879MPD2    C312891   0.354   2.439  17.127  0.1784  0.1337 -0.1317
  879MPD2    C412892   0.486   2.433  17.080 -1.1459 -0.0455 -0.1079
  879MPD2    C512893   0.576   2.523  17.129  0.2905  0.0989 -0.3573
  879MPD2     H12894   0.231   2.518  17.284  0.0173  0.2743  1.0221
  879MPD2    H112895   0.508   2.390  16.983  0.6689 -1.7558  1.0710
  879MPD2    H212896   0.626   2.671  17.274  2.6430 -1.6180 -0.9352
  879MPD2    H312897   0.670   2.532  17.076  0.7958 -1.2790  0.3135
  879MPD2     N12898   0.256   2.369  17.053  0.4226 -0.0276 -0.3226
  879MPD2    H512899   0.281   2.323  16.966 -1.5364  0.2648 -1.0366
  879MPD2    N112900   0.399   2.696  17.398  0.0594  0.0307  0.6028
  879MPD2    H712901   0.476   2.761  17.407  0.2175 -0.1026  0.1602
  880MPD2     C12902   1.714   4.135   1.175  1.2623  0.3729  0.5233
  880MPD2    C112903   1.648   4.247   1.210 -0.1570  0.3712 -0.2943
  880MPD2    C212904   1.560   4.234   1.315  0.0594 -0.0624 -0.8763
  880MPD2    C312905   1.549   4.114   1.390 -0.0147 -0.0681  1.0190
  880MPD2    C412906   1.617   4.003   1.352  0.5718  0.8884 -0.1609
  880MPD2    C512907   1.695   4.015   1.240 -1.0421 -0.3492  0.9782
  880MPD2     H12908   1.504   4.321   1.347  0.2864  1.1167 -3.7215
  880MPD2    H112909   1.602   3.905   1.395  0.8104  0.6740 -0.5677
  880MPD2    H212910   1.772   4.128   1.084  0.5445 -1.0452  0.1741
  880MPD2    H312911   1.747   3.927   1.203 -1.1248 -0.0473  0.1374
  880MPD2     N12912   1.472   4.116   1.508  0.3434 -0.3158  1.0831
  880MPD2    H512913   1.410   4.197   1.511 -2.3805 -2.3220 -0.6156
  880MPD2    N112914   1.667   4.358   1.127  0.3328 -0.0518  0.5388
  880MPD2    H712915   1.730   4.347   1.049  0.6749  0.3609  0.7569
  881MPD2     C12916   1.554   4.335   0.246 -0.3184  0.3145  0.4357
  881MPD2    C112917   1.599   4.466   0.257  0.5822 -0.3935  0.4975
  881MPD2    C212918   1.636   4.505   0.384 -0.0778 -0.4031  0.2512
  881MPD2    C312919   1.606   4.431   0.497  0.6078  0.5689  0.7360
  881MPD2    C412920   1.564   4.299   0.482 -0.1160  0.0375 -0.5358
  881MPD2    C512921   1.548   4.248   0.356 -0.3068  0.1949 -0.1201
  881MPD2     H12922   1.683   4.602   0.398 -1.6271  0.3267  0.3988
  881MPD2    H112923   1.548   4.240   0.571 -1.3402  0.0085 -0.7830
  881MPD2    H212924   1.540   4.290   0.148  0.8464  0.9670 -0.0290
  881MPD2    H312925   1.537   4.141   0.343 -1.5994  0.1001  1.7602
  881MPD2     N12926   1.630   4.474   0.633 -0.2609 -0.0727 -0.0738
  881MPD2    H512927   1.616   4.402   0.704  0.9040 -0.4219 -0.1957
  881MPD2    N112928   1.641   4.524   0.138  0.4945 -0.3925  0.6535
  881MPD2    H712929   1.631   4.468   0.054  1.2019  1.3808 -0.6366
  882MPD2     C12930   0.140   2.035  14.632 -0.6126 -0.9709 -0.0527
  882MPD2    C112931   0.121   2.002  14.762  0.1674  0.2013 -0.0185
  882MPD2    C212932   0.079   1.871  14.795  0.1074  0.4094 -0.6052
  882MPD2    C312933   0.033   1.786  14.693 -0.0740  0.3189  0.5086
  882MPD2    C412934   0.050   1.830  14.558 -0.6735 -0.5072 -0.0194
  882MPD2    C512935   0.108   1.952  14.536  0.2117 -0.2761  0.0650
  882MPD2     H12936   0.069   1.839  14.898 -1.1219 -1.9169 -1.4575
  882MPD2    H112937   0.019   1.764  14.477  0.3393  0.3730 -1.1242
  882MPD2    H212938   0.189   2.130  14.613 -1.3491 -1.0940 -2.6109
  882MPD2    H312939   0.137   1.974  14.434 -0.8811 -1.5996 -0.5383
  882MPD2     N12940   4.672   1.673  14.716  0.5271 -0.5315  0.2731
  882MPD2    H512941   4.611   1.646  14.638 -2.2016  0.6802  1.9838
  882MPD2    N112942   0.151   2.098  14.868 -0.3197 -0.1941  0.0709
  882MPD2    H712943   0.210   2.179  14.850  2.7746 -2.5405 -0.4877
  883MPD2     C12944   2.247   1.914  16.692 -0.1504  0.4423 -1.1986
  883MPD2    C112945   2.345   1.857  16.612 -0.5854  0.1494  0.2202
  883MPD2    C212946   2.474   1.894  16.633  0.3665  0.2566 -0.1387
  883MPD2    C312947   2.510   1.981  16.733 -0.0810 -0.5554  0.2989
  883MPD2    C412948   2.417   2.021  16.818 -0.6360  0.0445  0.4235
  883MPD2    C512949   2.286   2.005  16.791 -0.9811 -0.1297 -0.0332
  883MPD2     H12950   2.553   1.851  16.574 -0.9075 -1.1602 -0.7994
  883MPD2    H112951   2.438   2.084  16.904 -3.0035 -2.8877  3.1548
  883MPD2    H212952   2.145   1.900  16.657 -0.1588  0.1905 -1.0666
  883MPD2    H312953   2.216   2.064  16.848  0.3839  2.5531 -1.1584
  883MPD2     N12954   2.649   2.014  16.739 -0.2758 -0.2540 -0.3049
  883MPD2    H512955   2.714   1.969  16.674  1.2132 -0.0025  1.0108
  883MPD2    N112956   2.308   1.771  16.504 -0.3853 -0.2795  0.2436
  883MPD2    H712957   2.384   1.757  16.438 -1.3831  1.0505 -1.1858
  884MPD2     C12958   4.039   2.361  15.392  0.0550 -0.8770  0.2417
  884MPD2    C112959   4.000   2.476  15.328 -0.0369 -0.3896 -0.0308
  884MPD2    C212960   3.880   2.539  15.355 -0.2212 -0.0960  0.1122
  884MPD2    C312961   3.795   2.491  15.449  0.6865  0.8118 -0.5800
  884MPD2    C412962   3.825   2.376  15.507 -0.3896  0.2154  0.0898
  884MPD2    C512963   3.954   2.314  15.492  0.9215  0.1111 -0.3964
  884MPD2     H12964   3.864   2.638  15.315 -1.7879 -0.4471 -0.0969
  884MPD2    H112965   3.760   2.335  15.584  1.5950 -2.9576  0.0994
  884MPD2    H212966   4.132   2.307  15.380 -1.1732 -3.3336  1.6910
  884MPD2    H312967   3.979   2.234  15.561 -0.4385 -1.0598 -1.2581
  884MPD2     N12968   3.669   2.556  15.471  0.4045 -0.1499  0.5207
  884MPD2    H512969   3.673   2.651  15.436 -0.9856 -0.1227  0.4703
  884MPD2    N112970   4.090   2.539  15.243 -0.1394 -1.0904 -0.4115
  884MPD2    H712971   4.058   2.619  15.190 -1.4177 -1.1543  0.2836
  885MPD2     C12972   2.030   2.678   0.708  0.4571  0.0995 -0.2739
  885MPD2    C112973   2.104   2.794   0.691 -0.1744  0.1148  0.0064
  885MPD2    C212974   2.153   2.824   0.564  0.1665 -0.0814 -0.4970
  885MPD2    C312975   2.131   2.732   0.456  0.3586  0.9877  0.0829
  885MPD2    C412976   2.049   2.626   0.475  1.0991 -0.1317  0.6975
  885MPD2    C512977   1.994   2.598   0.599  0.5764  0.4118  0.0230
  885MPD2     H12978   2.228   2.901   0.559  0.0262  0.2072  1.8159
  885MPD2    H112979   2.039   2.556   0.394  3.0744 -0.3213  0.6065
  885MPD2    H212980   1.981   2.652   0.801  1.0797  2.3190  0.6688
  885MPD2    H312981   1.929   2.513   0.614  1.5318 -0.3447 -0.1282
  885MPD2     N12982   2.196   2.752   0.336 -0.4595  0.3693  0.3767
  885MPD2    H512983   2.231   2.845   0.316 -1.1861  0.9907  1.9639
  885MPD2    N112984   2.124   2.877   0.808 -0.3014  0.1722  0.2399
  885MPD2    H712985   2.056   2.861   0.882  0.3213 -1.6797  0.4102
  886MPD2     C12986   4.103   1.674  15.976  0.4660  0.8488 -0.0031
  886MPD2    C112987   4.041   1.559  15.928 -0.5177 -0.3993  0.3936
  886MPD2    C212988   3.950   1.548  15.825 -0.5919 -0.4188  0.4833
  886MPD2    C312989   3.933   1.656  15.747 -0.1845 -0.1479  0.5564
  886MPD2    C412990   3.993   1.775  15.784  0.4242 -0.8372  0.7570
  886MPD2    C512991   4.061   1.780  15.900 -0.4199 -0.1813  0.7738
  886MPD2     H12992   3.907   1.450  15.808 -0.8517 -0.2318  0.0835
  886MPD2    H112993   3.985   1.863  15.721 -1.1753  1.2537  3.8657
  886MPD2    H212994   4.193   1.687  16.034  1.1012 -2.3257 -0.2637
  886MPD2    H312995   4.127   1.863  15.922 -0.5686 -0.1543  1.1189
  886MPD2     N12996   3.867   1.651  15.623  0.2990 -0.1653 -1.0694
  886MPD2    H512997   3.884   1.737  15.572  2.4575 -0.7538 -1.3293
  886MPD2    N112998   4.073   1.438  15.984  0.0987  0.4564 -0.7678
  886MPD2    H712999   4.019   1.359  15.951  0.2356  0.2626 -0.5289
  887MPD2     C13000   4.534   1.388  15.650 -0.0635 -0.0878  0.1938
  887MPD2    C113001   4.520   1.414  15.786  0.4538  0.4905  0.3365
  887MPD2    C213002   4.532   1.537  15.838 -0.0150  0.4130  0.7184
  887MPD2    C313003   4.543   1.642  15.758 -0.1254  0.0874  0.2162
  887MPD2    C413004   4.558   1.622  15.620 -0.7614 -0.2616  0.0256
  887MPD2    C513005   4.559   1.499  15.572 -0.2732  0.3833 -0.0062
  887MPD2     H13006   4.510   1.552  15.943  2.1966 -1.9024  1.4984
  887MPD2    H113007   4.565   1.702  15.547  1.0447  1.0354  1.6067
  887MPD2    H213008   4.520   1.292  15.602  0.5454 -0.9015  1.6660
  887MPD2    H313009   4.586   1.481  15.469  1.0488 -0.1069  0.4278
  887MPD2     N13010   4.525   1.765  15.825 -0.1160  0.3783  0.2319
  887MPD2    H513011   4.510   1.760  15.925  0.2786  0.0102  0.2726
  887MPD2    N113012   4.471   1.308  15.874  0.5174  0.1701  0.4739
  887MPD2    H713013   4.450   1.343  15.967 -1.7797  0.1933 -0.0651
  888MPD2     C13014   0.989   1.527  15.257  0.2408 -0.3930 -0.0834
  888MPD2    C113015   0.986   1.561  15.389  0.2078  0.0134 -1.1571
  888MPD2    C213016   1.035   1.685  15.419  0.8314  0.7040 -0.6289
  888MPD2    C313017   1.085   1.773  15.322 -0.0026 -0.2291 -0.3787
  888MPD2    C413018   1.094   1.721  15.194  0.3767 -0.3929 -1.0840
  888MPD2    C513019   1.038   1.602  15.149 -0.0567 -0.0925 -0.0367
  888MPD2     H13020   1.045   1.716  15.523 -1.7972 -0.9819  0.1111
  888MPD2    H113021   1.126   1.784  15.111 -1.2988 -0.0054 -1.4241
  888MPD2    H213022   0.953   1.430  15.223  2.2949 -1.0166 -0.4639
  888MPD2    H313023   1.037   1.580  15.043  2.2128 -0.5609  0.0250
  888MPD2     N13024   1.141   1.898  15.359 -0.2383  0.7114  0.0252
  888MPD2    H513025   1.103   1.939  15.444 -1.1769 -0.6168  0.2522
  888MPD2    N113026   0.941   1.473  15.493 -0.0282 -0.7888 -0.0765
  888MPD2    H713027   0.947   1.510  15.587 -0.0958 -1.2688  0.1139
  889MPD2     C13028   0.669   0.611  14.222  0.0784  0.4530  0.3642
  889MPD2    C113029   0.707   0.620  14.089  0.1521 -0.2580 -0.2292
  889MPD2    C213030   0.705   0.745  14.023 -0.2647  1.0754 -0.2036
  889MPD2    C313031   0.677   0.864  14.092 -0.7377  0.2203  0.5407
  889MPD2    C413032   0.676   0.854  14.228  0.4803  0.1140  0.1460
  889MPD2    C513033   0.664   0.729  14.289  0.6751 -0.2794 -0.5376
  889MPD2     H13034   0.693   0.739  13.915 -1.5812 -1.7256  0.0799
  889MPD2    H113035   0.675   0.939  14.295 -2.2711  0.6689 -0.6142
  889MPD2    H213036   0.669   0.521  14.282  0.6681 -2.1401 -3.5976
  889MPD2    H313037   0.656   0.719  14.396  0.5077 -0.2922 -0.5507
  889MPD2     N13038   0.663   0.985  14.019 -0.3564  0.0005  0.2275
  889MPD2    H513039   0.651   0.971  13.919  2.2510 -1.5085  0.1211
  889MPD2    N113040   0.704   0.511  14.003  0.0228  0.1886 -0.3373
  889MPD2    H713041   0.730   0.532  13.907  0.6414 -1.0199 -0.4350
  890MPD2     C13042   0.021   2.772  14.600  0.1567 -0.5096 -0.3222
  890MPD2    C113043   0.136   2.841  14.633 -0.1314 -0.7752  0.7892
  890MPD2    C213044   0.204   2.801  14.746 -0.1414 -0.2502 -0.1307
  890MPD2    C313045   0.151   2.700  14.830  0.4826 -0.9417  0.6802
  890MPD2    C413046   0.037   2.632  14.797 -0.2233 -0.2522  0.1278
  890MPD2    C513047   4.701   2.672  14.677 -0.4601  0.2114 -0.0394
  890MPD2     H13048   0.301   2.843  14.767  0.4451 -2.1705  1.0167
  890MPD2    H113049   4.715   2.554  14.856  1.4638 -1.2698  0.1412
  890MPD2    H213050   4.695   2.792  14.508 -0.2924 -1.0064 -0.1792
  890MPD2    H313051   4.620   2.608  14.646 -0.5558  0.2381  0.1526
  890MPD2     N13052   0.224   2.669  14.948  0.3560  0.5452 -0.5558
  890MPD2    H513053   0.310   2.717  14.972  1.6905 -3.3847  2.4422
  890MPD2    N113054   0.187   2.927  14.538  0.4453 -0.0198 -0.6032
  890MPD2    H713055   0.137   2.942  14.450  1.5450  1.8081 -0.9211
  891MPD2     C13056   2.654   1.157  16.442 -0.3726 -0.1712 -0.6433
  891MPD2    C113057   2.612   1.102  16.559 -0.3347 -0.0103 -0.1193
  891MPD2    C213058   2.686   1.131  16.668  0.5963 -0.8314  0.2223
  891MPD2    C313059   2.792   1.221  16.657  0.3507 -0.2941  0.2006
  891MPD2    C413060   2.845   1.272  16.538 -0.5897  0.3194 -0.1131
  891MPD2    C513061   2.770   1.232  16.429 -0.3422 -0.0384 -0.2542
  891MPD2     H13062   2.654   1.100  16.767 -2.4623 -1.9361 -1.1125
  891MPD2    H113063   2.928   1.340  16.521  0.7628 -1.2598  0.1090
  891MPD2    H213064   2.600   1.137  16.350 -0.3223  2.6368 -1.2729
  891MPD2    H313065   2.788   1.273  16.330  0.3545 -1.8510 -0.8767
  891MPD2     N13066   2.853   1.254  16.780 -0.0179 -0.0801  0.2436
  891MPD2    H513067   2.805   1.227  16.865  2.5747 -0.0668  1.7079
  891MPD2    N113068   2.492   1.023  16.561 -0.1121 -0.1976  0.0155
  891MPD2    H713069   2.451   1.009  16.469  0.8311  1.2967 -0.6223
  892MPD2     C13070   4.166   1.728  15.439 -0.8975 -0.1141 -0.2089
  892MPD2    C113071   4.128   1.747  15.306 -0.4151  0.3552  0.4562
  892MPD2    C213072   4.179   1.663  15.210 -0.6669 -0.5693 -0.2747
  892MPD2    C313073   4.265   1.561  15.238 -0.0084  0.4201 -0.1961
  892MPD2    C413074   4.304   1.543  15.368 -0.2875  0.0665  0.0402
  892MPD2    C513075   4.257   1.630  15.469  0.0211  0.3409  0.4339
  892MPD2     H13076   4.150   1.672  15.106 -1.5071 -1.1656 -0.0910
  892MPD2    H113077   4.368   1.460  15.395 -0.3865 -0.3540 -1.0037
  892MPD2    H213078   4.128   1.780  15.526 -3.2496  1.3152 -2.0947
  892MPD2    H313079   4.285   1.621  15.573  0.3211  0.3225  0.3522
  892MPD2     N13080   4.302   1.478  15.133 -0.2877  0.0603  0.1982
  892MPD2    H513081   4.259   1.504  15.044 -0.7421 -0.1315  0.3622
  892MPD2    N113082   4.049   1.858  15.273 -0.8156 -0.5413 -0.2393
  892MPD2    H713083   4.030   1.877  15.175 -1.1846 -0.6562 -0.1918
  893MPD2     C13084   0.396   0.222   1.994  0.6971  0.5521  0.1839
  893MPD2    C113085   0.417   0.330   1.910  0.3898 -0.8485 -0.3955
  893MPD2    C213086   0.311   0.384   1.840  0.1709 -0.1007  0.5180
  893MPD2    C313087   0.187   0.317   1.838  0.4728  1.1835  0.0068
  893MPD2    C413088   0.167   0.202   1.907  0.4743 -0.5651 -0.6642
  893MPD2    C513089   0.278   0.157   1.983 -0.1459 -0.1290  0.6777
  893MPD2     H13090   0.330   0.456   1.761 -0.9185 -0.7346 -0.3180
  893MPD2    H113091   0.067   0.161   1.919  0.2821 -0.1716 -0.9030
  893MPD2    H213092   0.482   0.187   2.049  0.9659 -1.6276 -1.6370
  893MPD2    H313093   0.269   0.064   2.038  0.1811 -1.2892 -1.2073
  893MPD2     N13094   0.073   0.373   1.773 -0.8965  0.6208 -0.8104
  893MPD2    H513095   4.708   0.333   1.794  0.2369 -1.0332  0.9527
  893MPD2    N113096   0.540   0.393   1.917 -0.8374 -0.0040  0.0927
  893MPD2    H713097   0.605   0.354   1.985  0.9341  1.1936 -0.9112
  894MPD2     C13098   3.065   3.667   1.792  0.5964  0.0243 -0.1484
  894MPD2    C113099   3.155   3.580   1.853 -0.0368  0.0271 -0.5120
  894MPD2    C213100   3.280   3.562   1.800 -0.6095  0.3298  0.5919
  894MPD2    C313101   3.327   3.618   1.682 -0.5282  0.4013 -0.6852
  894MPD2    C413102   3.233   3.702   1.618  0.5456  0.0436 -0.7587
  894MPD2    C513103   3.112   3.725   1.676 -0.3326 -0.7765  0.3873
  894MPD2     H13104   3.341   3.487   1.850 -1.5181 -0.8214 -0.0231
  894MPD2    H113105   3.253   3.755   1.526 -1.7041 -0.5712 -1.6013
  894MPD2    H213106   2.971   3.696   1.836 -0.3786 -0.1705 -2.0717
  894MPD2    H313107   3.049   3.802   1.634 -0.4356 -0.6126  0.8409
  894MPD2     N13108   3.461   3.595   1.638 -0.1903 -0.6488  0.0368
  894MPD2    H513109   3.521   3.546   1.703  2.1051  0.1831 -1.4467
  894MPD2    N113110   3.119   3.511   1.976  0.0702  0.3465 -0.3660
  894MPD2    H713111   3.194   3.460   2.019 -1.5026 -3.2339 -1.8262
  895MPD2     C13112   3.260   1.216  14.150 -0.0569 -0.0041  0.1722
  895MPD2    C113113   3.241   1.159  14.026 -0.4889 -0.2338  0.1301
  895MPD2    C213114   3.303   1.040  13.992 -0.0462  0.5666 -0.5217
  895MPD2    C313115   3.391   0.980  14.084 -0.1473  0.5063 -0.2854
  895MPD2    C413116   3.416   1.042  14.200 -0.1127 -1.0918  0.0799
  895MPD2    C513117   3.343   1.151  14.238 -0.5059 -0.3931 -0.0234
  895MPD2     H13118   3.305   0.999  13.892  1.4021 -1.2453  0.2684
  895MPD2    H113119   3.491   1.006  14.268  1.0700  1.8249  0.3355
  895MPD2    H213120   3.203   1.302  14.183  1.3581  1.1768 -0.4545
  895MPD2    H313121   3.361   1.181  14.341  0.3450 -0.0783 -0.2587
  895MPD2     N13122   3.464   0.862  14.045 -0.4973 -0.6938 -0.8897
  895MPD2    H513123   3.454   0.823  13.951 -1.4311 -1.8581 -0.3068
  895MPD2    N113124   3.150   1.214  13.937  0.2451  0.0620  0.0623
  895MPD2    H713125   3.118   1.161  13.857  2.3734 -0.4365 -0.4379
  896MPD2     C13126   0.336   3.929   2.340  0.0123  0.2148 -0.8449
  896MPD2    C113127   0.365   3.881   2.211  0.2213 -0.7444  0.2256
  896MPD2    C213128   0.266   3.809   2.146  0.6571  0.3532 -0.2450
  896MPD2    C313129   0.147   3.785   2.208  0.4932  0.0667  0.7556
  896MPD2    C413130   0.127   3.827   2.340 -0.0049 -0.2043  0.6050
  896MPD2    C513131   0.219   3.903   2.405  0.1344  0.6831 -0.0287
  896MPD2     H13132   0.282   3.772   2.046  1.4315  1.1081 -0.4031
  896MPD2    H113133   0.036   3.797   2.390  0.8713 -0.2395  2.2041
  896MPD2    H213134   0.408   3.988   2.395  0.8633 -1.4623 -0.1576
  896MPD2    H313135   0.211   3.929   2.510  0.1330 -0.2487  0.2081
  896MPD2     N13136   0.054   3.714   2.136  0.4064 -0.1969  0.1218
  896MPD2    H513137   0.084   3.689   2.042  1.5394  1.3684  0.0629
  896MPD2    N113138   0.493   3.915   2.155  0.0951 -0.0569  0.7497
  896MPD2    H713139   0.553   3.976   2.209  2.3169 -1.2941 -0.3390
  897MPD2     C13140   1.648   0.520  10.710 -0.0361 -0.5560  0.9477
  897MPD2    C113141   1.689   0.633  10.769 -1.0754  0.0706  0.0385
  897MPD2    C213142   1.595   0.707  10.848  0.6288 -0.4042 -0.4081
  897MPD2    C313143   1.458   0.675  10.836  0.1385  0.4492  0.2413
  897MPD2    C413144   1.416   0.554  10.789 -0.7860  0.4221 -0.2832
  897MPD2    C513145   1.513   0.483  10.723 -0.1557  0.2618 -0.0502
  897MPD2     H13146   1.617   0.811  10.871  0.0530 -0.7288  1.6127
  897MPD2    H113147   1.316   0.512  10.790 -0.3158 -0.7073 -1.2849
  897MPD2    H213148   1.717   0.453  10.660 -0.1735 -1.7455  2.3685
  897MPD2    H313149   1.490   0.383  10.688  2.1415  0.2803 -1.6487
  897MPD2     N13150   1.366   0.780  10.874 -0.2018 -0.0758 -0.2146
  897MPD2    H513151   1.404   0.867  10.910  1.5226 -1.2655  0.7999
  897MPD2    N113152   1.822   0.669  10.743  0.2942  0.4570 -0.3239
  897MPD2    H713153   1.874   0.616  10.674 -1.8161  0.7488 -2.1641
  898MPD2     C13154   3.467   1.812   0.148 -0.2116  0.0023 -0.1326
  898MPD2    C113155   3.573   1.892   0.111  0.1767  0.3978 -0.6670
  898MPD2    C213156   3.560   1.992   0.014 -0.4318  0.2231  0.5776
  898MPD2    C313157   3.430   2.040  17.685  0.6426 -0.8144  0.0319
  898MPD2    C413158   3.328   1.957   0.020 -0.0803 -0.0898 -0.4283
  898MPD2    C513159   3.346   1.847   0.103 -0.1536  0.1616 -0.2160
  898MPD2     H13160   3.647   2.038  17.674 -1.9392  0.9624 -1.5795
  898MPD2    H113161   3.225   1.952  17.691 -0.9277  0.4127  2.0697
  898MPD2    H213162   3.484   1.724   0.209  1.1450  2.7624  3.4905
  898MPD2    H313163   3.261   1.782   0.118  0.6702 -0.9800 -0.5394
  898MPD2     N13164   3.418   2.147  17.599  0.4258  0.4781  0.0956
  898MPD2    H513165   3.501   2.199  17.572 -1.0247  1.2493 -2.7942
  898MPD2    N113166   3.707   1.864   0.170  0.5185 -0.0577 -0.0484
  898MPD2    H713167   3.704   1.816   0.259  0.0992 -0.5961 -0.3518
  899MPD2     C13168   4.472   2.580   0.261  0.4021  0.0675  0.0697
  899MPD2    C113169   4.377   2.657   0.202  0.3254 -0.0504 -0.2014
  899MPD2    C213170   4.295   2.741   0.273  0.1143  0.0661  0.0056
  899MPD2    C313171   4.291   2.726   0.413 -0.2605  0.8152 -0.3847
  899MPD2    C413172   4.383   2.636   0.466 -0.2542  0.0102 -0.1846
  899MPD2    C513173   4.477   2.565   0.396  0.1743  0.1307 -0.3303
  899MPD2     H13174   4.226   2.805   0.220 -0.5229 -1.2696 -0.7990
  899MPD2    H113175   4.390   2.628   0.574 -0.2204 -0.6478 -0.2382
  899MPD2    H213176   4.532   2.514   0.199 -0.6669  0.9412 -1.9068
  899MPD2    H313177   4.551   2.501   0.443  0.5917  0.4899 -0.4993
  899MPD2     N13178   4.209   2.795   0.501 -0.5355  0.0392  0.0528
  899MPD2    H513179   4.215   2.774   0.600  0.2872  0.0073 -0.0109
  899MPD2    N113180   4.396   2.672   0.063  0.5257 -0.6406  0.4424
  899MPD2    H713181   4.469   2.608   0.034  1.2274 -0.7539  2.4632
  900MPD2     C13182   4.155   4.141  12.725 -0.3341 -0.4236  0.2401
  900MPD2    C113183   4.121   4.006  12.713 -0.1620 -0.0666  0.2118
  900MPD2    C213184   3.998   3.973  12.659 -0.2912 -0.0326  0.1476
  900MPD2    C313185   3.911   4.076  12.613  0.6423  0.2409 -0.5234
  900MPD2    C413186   3.948   4.204  12.630  0.9239  0.4522  0.0506
  900MPD2    C513187   4.065   4.241  12.692  0.3576  0.4591 -0.6483
  900MPD2     H13188   3.968   3.870  12.650  0.0301 -0.1232  0.1307
  900MPD2    H113189   3.890   4.291  12.599  1.3388  0.2966 -1.1625
  900MPD2    H213190   4.253   4.162  12.766  0.3632  1.2814 -2.3100
  900MPD2    H313191   4.082   4.347  12.708 -1.2794  0.5153  0.6337
  900MPD2     N13192   3.792   4.029  12.549 -0.6646 -0.2508 -0.0744
  900MPD2    H513193   3.787   3.928  12.547  2.6519 -0.4046 -1.3534
  900MPD2    N113194   4.216   3.911  12.757  0.5516 -0.6582 -0.1461
  900MPD2    H713195   4.305   3.948  12.790  0.2034  0.2524 -0.2134
  901MPD2     C13196   4.335   2.883  13.115 -0.1040  0.3657 -0.9280
  901MPD2    C113197   4.274   2.902  12.990 -0.0708  0.0160 -0.5663
  901MPD2    C213198   4.252   3.029  12.943 -0.1625 -0.4578  0.3870
  901MPD2    C313199   4.320   3.138  12.999 -0.2474  1.0463 -0.6512
  901MPD2    C413200   4.368   3.123  13.126  0.0600 -0.0835 -0.4967
  901MPD2    C513201   4.377   2.997  13.182  0.0467  0.7478 -0.7356
  901MPD2     H13202   4.186   3.033  12.857 -0.8827  0.9020  1.0246
  901MPD2    H113203   4.408   3.209  13.177  0.6863 -0.9325  0.4512
  901MPD2    H213204   4.354   2.785  13.157  2.0492  2.1901  2.3458
  901MPD2    H313205   4.429   2.986  13.276  1.4149  1.6885 -1.3681
  901MPD2     N13206   4.326   3.264  12.931 -0.2562  0.3031  0.6474
  901MPD2    H513207   4.320   3.254  12.831  3.6836  0.7968  0.3708
  901MPD2    N113208   4.215   2.787  12.934 -0.0157  0.8967  0.5380
  901MPD2    H713209   4.234   2.696  12.974 -1.3459  1.1789  1.8083
  902MPD2     C13210   3.952   1.485  12.687  0.4321 -0.1945  0.0498
  902MPD2    C113211   3.878   1.477  12.568  0.7336 -0.1578 -0.3765
  902MPD2    C213212   3.932   1.409  12.467 -0.2127  0.2720  0.0968
  902MPD2    C313213   4.047   1.335  12.485  0.1523 -0.2386 -0.4951
  902MPD2    C413214   4.121   1.340  12.603 -0.3728 -0.3118 -0.2398
  902MPD2    C513215   4.073   1.414  12.705  0.2946  0.0551  0.0334
  902MPD2     H13216   3.879   1.414  12.373 -0.9226 -2.2672  0.3768
  902MPD2    H113217   4.208   1.279  12.625  0.5067  0.8605 -0.4874
  902MPD2    H213218   3.906   1.538  12.769  1.4320  0.3576  0.2546
  902MPD2    H313219   4.129   1.417  12.798 -2.5063 -0.3861  1.7349
  902MPD2     N13220   4.104   1.268  12.378 -0.0115 -0.1267 -0.2796
  902MPD2    H513221   4.188   1.214  12.396  0.6330  0.3826 -1.8190
  902MPD2    N113222   3.747   1.538  12.548 -0.1666  0.2893 -0.1860
  902MPD2    H713223   3.710   1.527  12.454  0.2528  3.4628 -0.7071
  903MPD2     C13224   3.817   1.151  11.618 -0.4144  0.7774 -0.2575
  903MPD2    C113225   3.827   1.222  11.741 -0.5991  0.6213  0.4764
  903MPD2    C213226   3.712   1.275  11.794  0.0105  0.1362  0.3850
  903MPD2    C313227   3.589   1.249  11.731 -0.2760 -0.2216 -0.4365
  903MPD2    C413228   3.586   1.164  11.618  0.1889 -0.2022  0.4866
  903MPD2    C513229   3.698   1.116  11.564 -0.1224  0.0754 -0.3722
  903MPD2     H13230   3.723   1.316  11.894  0.1807 -1.7293  1.1298
  903MPD2    H113231   3.492   1.140  11.570  1.1778 -1.1287 -0.9635
  903MPD2    H213232   3.909   1.123  11.567  1.1669  0.2682  2.8912
  903MPD2    H313233   3.690   1.066  11.468 -0.8072 -1.1405  0.3063
  903MPD2     N13234   3.479   1.303  11.799  0.0313 -1.3783 -0.0692
  903MPD2    H513235   3.509   1.371  11.869 -2.1303  0.0373 -0.5368
  903MPD2    N113236   3.937   1.230  11.827 -0.7806 -0.5685  0.0454
  903MPD2    H713237   3.936   1.267  11.922 -2.6301  0.6020 -0.4300
  904MPD2     C13238   3.205   0.371  14.254 -0.5383  0.4871  0.0118
  904MPD2    C113239   3.185   0.509  14.273  0.1409 -0.3366  0.2285
  904MPD2    C213240   3.286   0.575  14.340 -0.1130  0.3479 -0.3865
  904MPD2    C313241   3.396   0.506  14.385  0.4133  0.4469 -0.2691
  904MPD2    C413242   3.408   0.373  14.376 -0.2555  0.7413  0.0967
  904MPD2    C513243   3.318   0.310  14.298 -0.2934  1.0013 -0.0964
  904MPD2     H13244   3.277   0.682  14.359 -1.9487  0.0344  0.5161
  904MPD2    H113245   3.496   0.317  14.407 -0.4527  0.3157 -0.1128
  904MPD2    H213246   3.149   0.317  14.179 -2.0931  2.2049 -0.0706
  904MPD2    H313247   3.339   0.209  14.262 -1.5308 -0.1385  2.3738
  904MPD2     N13248   3.486   0.588  14.462 -0.0108 -0.1656 -0.5092
  904MPD2    H513249   3.461   0.687  14.460 -0.2698 -0.1883  1.7769
  904MPD2    N113250   3.078   0.578  14.232  0.4203 -0.3713  0.4935
  904MPD2    H713251   3.076   0.678  14.254  2.2503 -0.7539  2.4402
  905MPD2     C13252   3.059   0.497  13.524 -0.2115 -0.4198  0.0820
  905MPD2    C113253   3.078   0.591  13.625  0.1188 -0.5284 -1.0608
  905MPD2    C213254   3.214   0.629  13.651  0.6159 -0.3018  0.3331
  905MPD2    C313255   3.322   0.569  13.598 -0.1254 -0.4283 -0.5097
  905MPD2    C413256   3.295   0.476  13.497  0.2780 -0.1365  0.2219
  905MPD2    C513257   3.167   0.454  13.456  0.4356 -0.0391  0.1904
  905MPD2     H13258   3.236   0.688  13.739 -1.5942  0.4509  0.3888
  905MPD2    H113259   3.374   0.415  13.454  0.0117 -0.4724  0.2067
  905MPD2    H213260   2.963   0.455  13.496  0.1666 -1.1935 -0.0514
  905MPD2    H313261   3.149   0.371  13.388 -0.3840 -0.2385  0.6493
  905MPD2     N13262   3.455   0.584  13.654  0.5364  0.2058 -0.3254
  905MPD2    H513263   3.530   0.522  13.625 -0.6159 -1.4332  0.1503
  905MPD2    N113264   2.968   0.626  13.708 -0.5719  0.2940  0.5171
  905MPD2    H713265   2.889   0.564  13.694 -0.5975  0.4455 -0.0105
  906MPD2     C13266   0.176   0.902  11.675 -0.3325  0.2181  1.0887
  906MPD2    C113267   0.081   0.825  11.604  0.7121 -0.4152 -0.1128
  906MPD2    C213268   0.006   0.723  11.669  0.7722 -1.2803 -0.1696
  906MPD2    C313269   0.030   0.691  11.798  0.3675  0.3779  0.5685
  906MPD2    C413270   0.129   0.765  11.865  0.6159 -0.2262  0.2076
  906MPD2    C513271   0.195   0.873  11.805 -0.1877 -0.9249 -0.1076
  906MPD2     H13272   4.653   0.666  11.621  0.8068  2.2819 -4.4487
  906MPD2    H113273   0.159   0.743  11.967 -0.9978 -0.5413  0.6067
  906MPD2    H213274   0.236   0.981  11.632  0.9144 -1.8380 -0.9175
  906MPD2    H313275   0.265   0.935  11.860 -2.9463  1.9066  0.2029
  906MPD2     N13276   4.710   0.573  11.866 -0.5500  0.2565  0.1458
  906MPD2    H513277   0.047   0.533  11.934 -0.3182  0.1249 -0.1447
  906MPD2    N113278   0.071   0.849  11.462 -0.4289 -0.0377  0.3947
  906MPD2    H713279   0.009   0.787  11.412  3.1529 -2.4003 -1.0892
  907MPD2     C13280   4.063   0.015  15.505  0.4730 -0.8360  0.0025
  907MPD2    C113281   4.087   4.607  15.502  0.1925 -0.6845  0.7082
  907MPD2    C213282   4.191   4.555  15.576 -0.2862 -1.3557 -0.6252
  907MPD2    C313283   4.264   4.636  15.664 -0.0464  0.5428  1.1392
  907MPD2    C413284   4.227   0.046  15.671  0.4928  0.2214  0.0529
  907MPD2    C513285   4.131   0.098  15.590 -0.0071  0.4880 -0.2473
  907MPD2     H13286   4.212   4.450  15.566  0.0788 -1.4597  1.2210
  907MPD2    H113287   4.270   0.109  15.748  1.1414  0.3346 -0.4023
  907MPD2    H213288   3.993   0.058  15.435  0.5301 -1.1100 -0.2200
  907MPD2    H313289   4.110   0.205  15.595  2.5405  0.9587  0.4503
  907MPD2     N13290   4.375   4.584  15.721  0.2780  0.4161  0.4151
  907MPD2    H513291   4.396   4.490  15.689 -0.3755  0.3818  0.1025
  907MPD2    N113292   4.014   4.520  15.416 -0.1623  0.2847  0.0786
  907MPD2    H713293   4.044   4.423  15.415  1.8419  0.8918  2.6726
  908MPD2     C13294   2.143   0.605   9.908  0.2266  0.2522  0.6857
  908MPD2    C113295   2.051   0.534   9.979 -0.5938  0.4168  0.0374
  908MPD2    C213296   2.020   0.573  10.113 -0.0510 -0.0947 -0.2810
  908MPD2    C313297   2.085   0.682  10.169  0.5510 -0.2535  0.7859
  908MPD2    C413298   2.182   0.740  10.095 -0.5850  0.5745 -0.0671
  908MPD2    C513299   2.210   0.709   9.964 -0.0165 -0.2050  0.5343
  908MPD2     H13300   1.947   0.515  10.168  0.0796 -0.3379 -0.3631
  908MPD2    H113301   2.253   0.812  10.134  1.0531  0.5047 -2.9254
  908MPD2    H213302   2.171   0.580   9.806  1.1838 -2.3741  1.5922
  908MPD2    H313303   2.287   0.759   9.905 -2.1053  0.4500 -1.6671
  908MPD2     N13304   2.066   0.708  10.310  0.0982 -0.2944 -0.4284
  908MPD2    H513305   2.000   0.647  10.358 -0.4478  2.4311  2.3454
  908MPD2    N113306   1.992   0.424   9.908 -0.3734 -0.8611  0.2891
  908MPD2    H713307   2.031   0.398   9.818 -0.7810 -0.5547  0.0276
  909MPD2     C13308   1.825   3.807  12.340  0.1128  0.4898 -0.0577
  909MPD2    C113309   1.738   3.730  12.262  0.1104 -0.5270 -0.1977
  909MPD2    C213310   1.602   3.731  12.276  0.4807  0.0814 -0.3714
  909MPD2    C313311   1.544   3.827  12.357  0.4018 -0.2510 -0.2741
  909MPD2    C413312   1.623   3.903  12.436 -0.3375  0.3007 -0.6808
  909MPD2    C513313   1.756   3.888  12.424  0.3895  0.1282  0.4999
  909MPD2     H13314   1.543   3.666  12.213  0.0938 -1.0363  1.1473
  909MPD2    H113315   1.581   3.979  12.501 -2.2136 -0.8731 -0.5248
  909MPD2    H213316   1.932   3.819  12.326  0.1639  1.0686  0.8295
  909MPD2    H313317   1.816   3.953  12.486  1.2042  0.2303 -0.4037
  909MPD2     N13318   1.400   3.841  12.362 -0.9003 -0.7270  0.7816
  909MPD2    H513319   1.339   3.802  12.290  1.2780 -0.2148 -1.3614
  909MPD2    N113320   1.788   3.646  12.156 -0.1817 -0.1496 -0.2438
  909MPD2    H713321   1.723   3.604  12.090 -0.4551  1.1442 -0.7898
  910MPD2     C13322   2.899   0.461  16.170  0.5234  0.3437  0.1008
  910MPD2    C113323   3.017   0.441  16.100 -0.1696 -0.3642  0.7095
  910MPD2    C213324   3.036   0.482  15.968  0.3079 -0.4839 -0.2541
  910MPD2    C313325   2.924   0.541  15.897  0.4916 -0.1345 -0.2783
  910MPD2    C413326   2.807   0.552  15.966  0.0660  0.4375 -0.5607
  910MPD2    C513327   2.793   0.507  16.093 -0.5306  0.1094 -0.5099
  910MPD2     H13328   3.136   0.471  15.926  0.2689  0.5615 -0.6051
  910MPD2    H113329   2.721   0.592  15.914 -1.1629  1.5088  2.3030
  910MPD2    H213330   2.882   0.416  16.267  1.0791 -1.7366 -0.7635
  910MPD2    H313331   2.692   0.509  16.132 -1.0119  2.3766 -1.8614
  910MPD2     N13332   2.927   0.591  15.773 -0.3793  0.2635  0.6082
  910MPD2    H513333   2.840   0.627  15.735 -2.0444 -2.3016  1.9715
  910MPD2    N113334   3.132   0.383  16.156  0.4755  0.0501  0.1033
  910MPD2    H713335   3.213   0.377  16.096  0.8317 -0.5287  0.6451
  911MPD2     C13336   0.835   0.583  16.423 -0.4306 -0.2584  0.9304
  911MPD2    C113337   0.883   0.685  16.505 -0.0670 -0.2404  0.1357
  911MPD2    C213338   0.826   0.810  16.506  0.4333  0.0353 -0.2742
  911MPD2    C313339   0.705   0.832  16.435  0.2986  0.1498 -0.0055
  911MPD2    C413340   0.653   0.727  16.361  0.1005 -0.4500 -0.9305
  911MPD2    C513341   0.723   0.605  16.349 -0.2910 -0.1470 -0.2887
  911MPD2     H13342   0.882   0.880  16.567  1.6629 -1.6857  0.5721
  911MPD2    H113343   0.562   0.737  16.303 -0.7425 -1.5776  0.2212
  911MPD2    H213344   0.891   0.490  16.417  0.3121  0.3109 -0.9061
  911MPD2    H313345   0.679   0.528  16.287  0.6510 -1.0902  0.2180
  911MPD2     N13346   0.621   0.940  16.440  0.0430 -0.3897  0.4261
  911MPD2    H513347   0.527   0.933  16.403  0.3791  1.5371 -0.8138
  911MPD2    N113348   1.005   0.651  16.569 -0.1851  0.1999 -0.2738
  911MPD2    H713349   1.044   0.560  16.546  0.0511  0.2693 -0.1509
  912MPD2     C13350   0.280   0.787  16.030  0.4379 -0.0706 -0.1361
  912MPD2    C113351   0.285   0.789  16.164  0.4985  0.1222 -0.2505
  912MPD2    C213352   0.271   0.673  16.234 -0.1063  0.4601 -0.4168
  912MPD2    C313353   0.273   0.553  16.163  0.5096 -0.5652  0.6020
  912MPD2    C413354   0.280   0.550  16.027  0.0933 -0.3632  0.4157
  912MPD2    C513355   0.275   0.670  15.961  0.3665 -0.1116 -0.3306
  912MPD2     H13356   0.263   0.676  16.342 -1.3550  1.1407 -0.5347
  912MPD2    H113357   0.282   0.460  15.967  0.3777 -0.8383  1.1380
  912MPD2    H213358   0.269   0.880  15.975 -0.1660 -0.7545 -1.1649
  912MPD2    H313359   0.264   0.673  15.854  1.4436  0.4561 -0.4215
  912MPD2     N13360   0.269   0.442  16.241  0.3699 -0.1050  0.2930
  912MPD2    H513361   0.252   0.463  16.339  0.1969  1.7159 -0.1333
  912MPD2    N113362   0.297   0.921  16.229  0.1796  0.3627 -0.4841
  912MPD2    H713363   0.305   1.002  16.169  3.0051  0.3936 -0.0471
  913MPD2     C13364   2.283   2.707   9.799  0.0748 -0.5047 -0.1337
  913MPD2    C113365   2.189   2.676   9.897  0.0163  0.6068  0.0019
  913MPD2    C213366   2.105   2.768   9.944  0.7905  0.7251  0.0679
  913MPD2    C313367   2.114   2.903   9.894  0.7696 -0.0229 -0.0033
  913MPD2    C413368   2.220   2.935   9.815  0.4033  0.4894  0.0528
  913MPD2    C513369   2.301   2.838   9.768 -0.6339 -0.6181  0.2402
  913MPD2     H13370   2.022   2.760  10.014  1.2095 -1.5474  0.2917
  913MPD2    H113371   2.236   3.040   9.793 -0.4461  0.9172  1.4054
  913MPD2    H213372   2.358   2.635   9.768 -1.9079 -1.1254 -3.5030
  913MPD2    H313373   2.379   2.862   9.697 -1.6499  0.6662 -0.4213
  913MPD2     N13374   2.031   3.011   9.920  0.4301  0.3172  0.2564
  913MPD2    H513375   2.056   3.104   9.888 -1.2963  0.8080  0.3346
  913MPD2    N113376   2.188   2.547   9.954  0.4304 -0.4305 -0.0409
  913MPD2    H713377   2.117   2.533  10.026  0.7701 -1.2193  0.1482
  914MPD2     C13378   4.049   2.359  12.025 -0.8504 -0.5373  0.1122
  914MPD2    C113379   3.991   2.477  12.062 -0.2924 -0.4900 -0.0994
  914MPD2    C213380   3.995   2.518  12.197 -0.0980  0.5438  0.4494
  914MPD2    C313381   4.055   2.441  12.293  0.1878  0.1837  0.1574
  914MPD2    C413382   4.098   2.314  12.251  1.0249  0.5157 -0.8014
  914MPD2    C513383   4.096   2.272  12.122  0.3116  0.4310 -0.1466
  914MPD2     H13384   3.948   2.612  12.224 -2.3538 -0.9283  1.6993
  914MPD2    H113385   4.140   2.243  12.321  1.4328 -0.0999 -1.6620
  914MPD2    H213386   4.050   2.326  11.922  1.7821 -2.0638  0.6413
  914MPD2    H313387   4.116   2.167  12.105 -2.2489 -0.1785  0.6388
  914MPD2     N13388   4.068   2.486  12.425 -0.6236  0.3391  0.3000
  914MPD2    H513389   4.039   2.582  12.442 -1.1640  0.0894  0.8163
  914MPD2    N113390   3.942   2.557  11.960 -1.0774  0.0059  0.1797
  914MPD2    H713391   3.947   2.516  11.867  1.8206 -3.6526  1.9686
  915MPD2     C13392   2.167   2.057  15.773  0.2648  0.5651 -0.0186
  915MPD2    C113393   2.037   2.052  15.805  0.8255  0.1426  0.0575
  915MPD2    C213394   1.986   2.110  15.917 -0.4728 -0.1168  0.3383
  915MPD2    C313395   2.074   2.177  16.001  0.0486 -0.1041 -0.1500
  915MPD2    C413396   2.210   2.177  15.981 -0.0412  0.4356  0.5573
  915MPD2    C513397   2.250   2.114  15.861 -0.3577  0.3209  0.0895
  915MPD2     H13398   1.879   2.122  15.933 -0.2643  0.1965  1.5246
  915MPD2    H113399   2.283   2.209  16.055 -1.2649  1.1181  1.4725
  915MPD2    H213400   2.204   2.008  15.684  2.6813  0.4212  1.0783
  915MPD2    H313401   2.355   2.123  15.835  0.4381  0.9657  3.5949
  915MPD2     N13402   2.009   2.258  16.102  0.3675 -0.3035 -0.6504
  915MPD2    H513403   1.911   2.247  16.128 -0.3734  2.1507 -2.4138
  915MPD2    N113404   1.959   1.984  15.716  0.2262 -0.4732 -0.1245
  915MPD2    H713405   2.005   1.941  15.636  3.9625 -1.1417  2.3816
  916MPD2     C13406   0.012   0.493  15.802 -0.7008 -0.0750  0.2838
  916MPD2    C113407   0.038   0.387  15.886  0.5142 -0.0938  0.3388
  916MPD2    C213408   0.118   0.283  15.849 -0.5041 -0.4147  0.1169
  916MPD2    C313409   0.171   0.273  15.723 -0.2064  0.6541 -0.2433
  916MPD2    C413410   0.139   0.377  15.635 -0.0436  0.3147 -0.4906
  916MPD2    C513411   0.074   0.492  15.675 -0.0035 -0.3358 -0.4142
  916MPD2     H13412   0.146   0.205  15.919  1.5315 -1.2645 -1.6484
  916MPD2    H113413   0.180   0.383  15.535 -3.1404  2.0355 -1.6962
  916MPD2    H213414   4.680   0.580  15.832 -0.7664 -1.3803  3.9293
  916MPD2    H313415   0.057   0.573  15.605  0.8625 -0.0025 -0.2390
  916MPD2     N13416   0.271   0.173  15.702 -0.0176 -0.4666  0.2215
  916MPD2    H513417   0.253   0.085  15.750  0.0927  0.5271  2.0522
  916MPD2    N113418   4.700   0.387  16.014 -0.0726 -0.2422 -0.0407
  916MPD2    H713419   4.652   0.472  16.043  0.2339  0.2373 -0.9384
  917MPD2     C13420   0.879   3.343  11.232 -0.4068  0.5477  0.3896
  917MPD2    C113421   0.883   3.416  11.350 -0.3903 -0.4303 -0.3450
  917MPD2    C213422   0.916   3.551  11.347 -0.2297  0.1662 -0.3271
  917MPD2    C313423   0.953   3.605  11.220 -0.2952 -0.4263 -0.2197
  917MPD2    C413424   0.961   3.530  11.106  0.4859 -0.6581  0.4246
  917MPD2    C513425   0.924   3.401  11.112  0.5773  0.0916 -0.1194
  917MPD2     H13426   0.919   3.604  11.442 -0.3932 -0.5673  0.0854
  917MPD2    H113427   1.000   3.567  11.012 -1.1394  1.9732  0.7749
  917MPD2    H213428   0.845   3.240  11.233  0.3184  0.3091  0.5796
  917MPD2    H313429   0.940   3.347  11.019 -0.4202 -1.4111  0.5875
  917MPD2     N13430   0.981   3.741  11.196  1.0994 -0.5287 -0.4648
  917MPD2    H513431   1.011   3.765  11.102  0.9065  0.3840 -0.2869
  917MPD2    N113432   0.851   3.338  11.466  0.4940  0.2467 -1.0424
  917MPD2    H713433   0.828   3.241  11.448  0.6136 -0.1087  0.7627
  918MPD2     C13434   1.011   3.375  12.495  0.7791  0.3136  0.3903
  918MPD2    C113435   1.088   3.419  12.391  0.8549  0.9889 -0.3521
  918MPD2    C213436   1.032   3.406  12.260 -0.0396  0.0640 -0.1797
  918MPD2    C313437   0.912   3.339  12.237  0.4842  0.0386  0.4880
  918MPD2    C413438   0.845   3.280  12.340 -0.3237  0.3748 -0.4071
  918MPD2    C513439   0.894   3.302  12.472 -0.8618 -0.4419 -0.1620
  918MPD2     H13440   1.075   3.443  12.168  0.1701  0.2379 -0.0134
  918MPD2    H113441   0.764   3.208  12.339  0.3876 -0.4132 -0.9928
  918MPD2    H213442   1.019   3.395  12.601  0.2754  1.5006  0.1991
  918MPD2    H313443   0.848   3.253  12.557  0.0922 -2.3170 -0.7165
  918MPD2     N13444   0.865   3.329  12.099  0.4425  0.9394 -0.2512
  918MPD2    H513445   0.922   3.374  12.029  1.4271  1.2452  0.7551
  918MPD2    N113446   1.219   3.484  12.399 -0.2046  0.0100  0.2355
  918MPD2    H713447   1.267   3.510  12.313 -0.4561 -0.9527 -0.1938
  919MPD2     C13448   1.988   2.187  12.234 -0.5415 -0.1475 -0.3770
  919MPD2    C113449   2.021   2.055  12.206 -0.7157 -0.6040  0.2591
  919MPD2    C213450   2.132   2.028  12.125 -1.2420  0.1015  0.0863
  919MPD2    C313451   2.201   2.131  12.067  0.0728 -0.0397  0.1860
  919MPD2    C413452   2.169   2.260  12.104 -0.6103 -0.1973 -0.0620
  919MPD2    C513453   2.072   2.287  12.194  0.3659  0.1172  0.2580
  919MPD2     H13454   2.141   1.925  12.092 -1.2499  0.6154 -1.5053
  919MPD2    H113455   2.203   2.348  12.051 -1.3510  0.5899  0.7791
  919MPD2    H213456   1.907   2.218  12.299 -0.4343  0.0153 -0.3196
  919MPD2    H313457   2.031   2.385  12.217 -0.2288 -0.6234  2.3549
  919MPD2     N13458   2.291   2.110  11.961  0.4897  0.1967 -0.0937
  919MPD2    H513459   2.341   2.195  11.935 -1.4845  1.6338  0.8349
  919MPD2    N113460   1.935   1.947  12.242  0.1901  0.4786  0.0431
  919MPD2    H713461   1.965   1.855  12.213  1.5938  0.8678  0.2271
  920MPD2     C13462   1.856   2.329  11.219 -0.5981  0.5678 -0.3713
  920MPD2    C113463   1.905   2.213  11.173 -0.1544 -0.1555 -0.1545
  920MPD2    C213464   2.015   2.164  11.246 -0.3185  0.7838  0.3822
  920MPD2    C313465   2.072   2.226  11.351  0.8391  1.0721  0.0564
  920MPD2    C413466   2.020   2.351  11.389  0.7036 -0.1261 -0.2775
  920MPD2    C513467   1.917   2.402  11.319  0.6427 -0.0337 -0.3607
  920MPD2     H13468   2.069   2.078  11.208  1.9677  1.5454  1.8934
  920MPD2    H113469   2.073   2.421  11.452 -0.7782  2.3900 -1.8198
  920MPD2    H213470   1.765   2.373  11.178 -0.4450  1.9625  0.7945
  920MPD2    H313471   1.897   2.509  11.327  0.8645 -0.0401  0.2467
  920MPD2     N13472   2.185   2.167  11.413  0.1467 -0.4232 -0.2200
  920MPD2    H513473   2.214   2.076  11.378 -1.0781 -1.0943  0.5163
  920MPD2    N113474   1.848   2.141  11.066  0.5836 -0.4282  0.2683
  920MPD2    H713475   1.882   2.046  11.055 -1.1344 -1.1515  1.2454
  921MPD2     C13476   1.816   1.104  16.941 -0.1846 -0.0274 -0.2633
  921MPD2    C113477   1.845   0.968  16.925  0.7203 -0.6175  0.5025
  921MPD2    C213478   1.735   0.883  16.930 -0.1198  0.8302 -0.8553
  921MPD2    C313479   1.606   0.931  16.929  0.7270 -0.4832  0.5035
  921MPD2    C413480   1.583   1.065  16.956 -0.1670 -0.7936 -0.2808
  921MPD2    C513481   1.688   1.148  16.980  0.4821  0.2870  0.6594
  921MPD2     H13482   1.750   0.778  16.904  2.2235  1.0408 -0.3643
  921MPD2    H113483   1.482   1.104  16.960 -0.4308 -1.6129  1.0121
  921MPD2    H213484   1.897   1.173  16.921 -2.5107  1.8683 -3.1994
  921MPD2    H313485   1.671   1.255  16.993  0.2000  0.3220 -0.0404
  921MPD2     N13486   1.485   0.850  16.907 -0.2783  0.1098 -0.7319
  921MPD2    H513487   1.393   0.893  16.912 -0.4946 -0.3493 -0.7342
  921MPD2    N113488   1.980   0.930  16.896 -0.2246 -0.0377  0.1558
  921MPD2    H713489   2.044   1.009  16.894  0.3200 -0.6395 -5.5316
  922MPD2     C13490   2.522   3.036   0.321 -0.6818  0.0071 -0.5659
  922MPD2    C113491   2.537   3.173   0.303  0.2164 -0.6271 -0.6986
  922MPD2    C213492   2.492   3.223   0.184  0.4073 -0.0131  0.3977
  922MPD2    C313493   2.440   3.146   0.084  0.2799  0.9618  0.2754
  922MPD2    C413494   2.418   3.014   0.108 -0.2953  0.4074  0.2954
  922MPD2    C513495   2.469   2.957   0.221 -0.4391  0.6652  0.2970
  922MPD2     H13496   2.491   3.331   0.182  0.1800  0.0038  1.2551
  922MPD2    H113497   2.383   2.943   0.034  2.7912 -0.4306 -0.3799
  922MPD2    H213498   2.573   2.980   0.399  1.5180  0.5598 -1.6294
  922MPD2    H313499   2.460   2.850   0.232 -2.2895  1.1882  3.8328
  922MPD2     N13500   2.401   3.212  17.665  0.0482  0.3484 -0.5237
  922MPD2    H513501   2.410   3.313  17.669 -0.1321  0.3319  0.3681
  922MPD2    N113502   2.599   3.255   0.395 -0.8910  0.1671 -0.5583
  922MPD2    H713503   2.627   3.344   0.355  0.4643 -0.3889 -0.8508
  923MPD2     C13504   3.811   0.811   8.927  0.0390 -0.1124 -0.3722
  923MPD2    C113505   3.895   0.889   9.002  0.0337 -0.1015 -0.2915
  923MPD2    C213506   4.013   0.831   9.048 -0.3290 -0.5572  0.3023
  923MPD2    C313507   4.046   0.697   9.026  0.3863 -0.3919 -0.2508
  923MPD2    C413508   3.965   0.623   8.944 -0.3839  0.0387  0.5361
  923MPD2    C513509   3.851   0.680   8.895  0.4375 -0.0487 -0.2529
  923MPD2     H13510   4.077   0.890   9.112 -1.3185  0.0348  0.7372
  923MPD2    H113511   3.979   0.520   8.913 -0.1990 -0.3194  1.8152
  923MPD2    H213512   3.720   0.846   8.880 -0.2779 -1.2037 -0.5850
  923MPD2    H313513   3.792   0.616   8.831  1.2335 -0.2605 -0.7707
  923MPD2     N13514   4.154   0.636   9.086 -0.0178  0.0138 -0.0667
  923MPD2    H513515   4.187   0.553   9.037  0.3251 -0.2743  0.6426
  923MPD2    N113516   3.862   1.022   9.026 -0.0087  0.7589  0.2514
  923MPD2    H713517   3.765   1.039   9.001  0.3650  0.9117 -1.1112
  924MPD2     C13518   4.646   4.044  16.518  0.4208  0.3947  0.2021
  924MPD2    C113519   4.533   4.108  16.470  0.6174  0.0195  0.2344
  924MPD2    C213520   4.539   4.170  16.343  0.2089  0.3305 -0.3053
  924MPD2    C313521   4.658   4.167  16.271  0.4059 -0.5231 -0.4374
  924MPD2    C413522   0.040   4.100  16.322 -0.3447 -1.1237 -1.7792
  924MPD2    C513523   0.031   4.043  16.439  0.4898 -0.2481  0.0083
  924MPD2     H13524   4.450   4.216  16.302  0.5065 -2.3291 -3.9416
  924MPD2    H113525   0.133   4.109  16.267 -1.1660  2.3055 -2.5934
  924MPD2    H213526   4.638   3.993  16.613 -1.1356  0.1013 -0.0919
  924MPD2    H313527   0.122   3.989  16.464  0.5496 -0.3425 -0.4069
  924MPD2     N13528   4.671   4.234  16.148  0.7282 -0.3001  1.1072
  924MPD2    H513529   0.036   4.236  16.104 -0.5989  2.5451 -1.5141
  924MPD2    N113530   4.427   4.132  16.563 -0.3293 -0.8792  0.1942
  924MPD2    H713531   4.432   4.075  16.646  0.7272  0.2420  0.8962
  925MPD2     C13532   3.208   1.759  14.855  0.0229 -0.2221  0.0935
  925MPD2    C113533   3.087   1.711  14.817  0.0044  0.6639  0.1849
  925MPD2    C213534   3.024   1.617  14.894  0.7541  0.4505  0.0632
  925MPD2    C313535   3.091   1.563  15.007  0.0603 -0.9801 -0.1527
  925MPD2    C413536   3.220   1.598  15.031  0.0118 -0.7085 -0.2643
  925MPD2    C513537   3.281   1.697  14.955 -0.4709 -0.2100  0.0613
  925MPD2     H13538   2.931   1.575  14.860  0.1908  1.1082  0.8050
  925MPD2    H113539   3.275   1.563  15.117  0.2748  0.2647 -0.0368
  925MPD2    H213540   3.268   1.827  14.795  3.4941 -0.2848  3.5171
  925MPD2    H313541   3.384   1.721  14.978 -0.4065 -1.4038  1.0594
  925MPD2     N13542   3.028   1.489  15.113  0.2734  0.5073  0.1711
  925MPD2    H513543   3.084   1.463  15.193  2.5793 -1.2729 -2.0259
  925MPD2    N113544   3.036   1.743  14.690 -0.2623 -0.0589  0.1716
  925MPD2    H713545   2.949   1.696  14.666 -0.6091 -0.0595  1.4592
  926MPD2     C13546   2.171   0.188  13.768 -0.0278  1.3456 -0.8856
  926MPD2    C113547   2.070   0.262  13.718  0.3899 -0.6358 -0.0695
  926MPD2    C213548   2.078   0.297  13.586 -0.5823  0.2016 -0.5037
  926MPD2    C313549   2.200   0.295  13.514 -0.6382 -0.4776  0.3141
  926MPD2    C413550   2.298   0.236  13.577 -0.2271  0.0402 -1.0007
  926MPD2    C513551   2.285   0.182  13.700  0.0652  0.4212 -0.1124
  926MPD2     H13552   1.991   0.344  13.542 -0.9993 -0.1788 -0.0793
  926MPD2    H113553   2.395   0.215  13.532  0.8208  0.7567  0.9213
  926MPD2    H213554   2.163   0.145  13.867  1.1630  1.5987 -0.6803
  926MPD2    H313555   2.359   0.112  13.737 -0.7455 -0.7275 -0.6723
  926MPD2     N13556   2.226   0.368  13.397  0.2038  0.1272 -0.2488
  926MPD2    H513557   2.320   0.375  13.358 -0.4590  1.7251 -1.5911
  926MPD2    N113558   1.945   0.290  13.790  0.4882 -0.4384  0.0198
  926MPD2    H713559   1.867   0.328  13.738  1.1477  1.2760  0.2670
  927MPD2     C13560   0.687   2.664   0.176  0.4765 -0.0598 -0.1918
  927MPD2    C113561   0.818   2.644   0.233 -0.5243  0.0045  0.5100
  927MPD2    C213562   0.921   2.580   0.160  0.3947 -0.4219 -0.1940
  927MPD2    C313563   0.890   2.531   0.034  0.1659 -0.1654  0.2971
  927MPD2    C413564   0.762   2.542  17.694 -0.2840 -0.1764 -0.3919
  927MPD2    C513565   0.663   2.608   0.050  0.0164 -0.4156 -0.5209
  927MPD2     H13566   1.023   2.570   0.195  0.1497 -1.6966  0.1447
  927MPD2    H113567   0.729   2.505  17.598  0.0328  0.4108 -0.7315
  927MPD2    H213568   0.611   2.710   0.238 -0.8221 -0.5481 -1.4357
  927MPD2    H313569   0.568   2.634   0.005  1.9686  2.3004 -3.0444
  927MPD2     N13570   1.001   2.469  17.676  0.0133  0.1851 -0.5210
  927MPD2    H513571   1.091   2.452   0.015 -0.7176 -1.4581  0.3199
  927MPD2    N113572   0.842   2.690   0.365 -0.7132  0.0899  0.3711
  927MPD2    H713573   0.758   2.732   0.402 -1.4306 -0.5065 -0.5723
  928MPD2     C13574   3.216   2.249   0.958  1.1985  0.2783  0.0305
  928MPD2    C113575   3.312   2.269   1.051  0.6783  0.8439 -0.1785
  928MPD2    C213576   3.433   2.211   1.025 -1.0812 -0.1680  0.5074
  928MPD2    C313577   3.449   2.134   0.913  0.0308  0.2942  0.4411
  928MPD2    C413578   3.347   2.122   0.817  0.1397 -0.4450  0.2986
  928MPD2    C513579   3.233   2.177   0.840  0.7594 -0.2486 -0.3717
  928MPD2     H13580   3.505   2.227   1.105 -1.0659 -0.0178  0.4635
  928MPD2    H113581   3.357   2.067   0.724  1.9672 -0.3410  0.4217
  928MPD2    H213582   3.122   2.303   0.964  0.7433 -0.3431 -1.5390
  928MPD2    H313583   3.150   2.161   0.772 -0.0011 -1.9994  0.9677
  928MPD2     N13584   3.568   2.062   0.882 -0.7142  0.0469  0.0180
  928MPD2    H513585   3.572   2.005   0.799 -2.4359 -2.3717  1.6015
  928MPD2    N113586   3.288   2.355   1.151  0.4538  0.2610  0.5294
  928MPD2    H713587   3.193   2.389   1.163  0.4507 -0.1605  1.7180
  929MPD2     C13588   3.789   0.314   9.725  0.1418  0.2225  0.2927
  929MPD2    C113589   3.865   0.403   9.790 -0.2019  0.2620  0.4387
  929MPD2    C213590   3.857   0.545   9.775 -0.2527  0.5585 -0.0571
  929MPD2    C313591   3.751   0.583   9.699 -0.1452 -0.2095  0.8041
  929MPD2    C413592   3.677   0.493   9.630 -0.8022 -0.0814 -0.2882
  929MPD2    C513593   3.696   0.359   9.638 -0.2004 -0.6918  0.3397
  929MPD2     H13594   3.923   0.618   9.820 -0.1160 -0.0732  0.7645
  929MPD2    H113595   3.600   0.528   9.563 -0.8178 -1.2366 -0.8813
  929MPD2    H213596   3.795   0.207   9.739 -0.3584  0.1078 -0.3567
  929MPD2    H313597   3.641   0.279   9.590  0.3821  0.5503 -2.3873
  929MPD2     N13598   3.711   0.718   9.693  0.2032 -0.2501  0.2380
  929MPD2    H513599   3.625   0.737   9.644 -0.2898 -0.3246  1.0641
  929MPD2    N113600   3.952   0.343   9.888  0.1249  0.8302  0.1324
  929MPD2    H713601   3.953   0.242   9.883  1.2495  0.8111  0.6548
  930MPD2     C13602   1.198   3.113  14.655  0.5705  0.1180 -0.2501
  930MPD2    C113603   1.240   3.199  14.556  0.7730  0.6111 -0.0962
  930MPD2    C213604   1.212   3.184  14.427 -0.4454  0.3976 -0.1025
  930MPD2    C313605   1.137   3.071  14.389 -0.0033  0.2378  0.9112
  930MPD2    C413606   1.107   2.975  14.483 -0.1784 -0.4218 -0.9362
  930MPD2    C513607   1.136   2.999  14.620 -0.2786 -0.9434 -0.1613
  930MPD2     H13608   1.232   3.266  14.359  2.1236 -0.0928  0.0561
  930MPD2    H113609   1.049   2.886  14.460 -0.1377 -0.4359 -0.9862
  930MPD2    H213610   1.227   3.118  14.760  1.1579  0.4038 -0.4245
  930MPD2    H313611   1.111   2.925  14.695  0.7913 -2.0523 -0.9013
  930MPD2     N13612   1.105   3.053  14.248  0.3079 -0.8239  0.6830
  930MPD2    H513613   1.080   2.958  14.221 -2.4114 -0.1649  0.9610
  930MPD2    N113614   1.325   3.304  14.586 -0.5070  0.2885 -0.0802
  930MPD2    H713615   1.362   3.348  14.502 -0.5786 -0.5770 -0.5609
  931MPD2     C13616   0.936   2.105   0.709 -0.2364 -0.4047  0.5454
  931MPD2    C113617   0.923   2.189   0.816 -0.2167  0.5462 -0.4557
  931MPD2    C213618   0.946   2.146   0.944  0.3435  0.8173  0.1373
  931MPD2    C313619   0.957   2.007   0.965 -0.1331 -0.2265  0.8687
  931MPD2    C413620   0.972   1.925   0.857  1.2440  0.3258 -0.0615
  931MPD2    C513621   0.963   1.971   0.732 -0.3079 -0.6948  0.6168
  931MPD2     H13622   0.944   2.214   1.028 -2.1442 -0.3005  0.9878
  931MPD2    H113623   0.999   1.820   0.863 -0.5328 -0.0894  0.6282
  931MPD2    H213624   0.909   2.147   0.613  2.4140 -1.0401 -0.4706
  931MPD2    H313625   0.968   1.898   0.651  0.8839  0.1667 -0.0999
  931MPD2     N13626   0.981   1.950   1.094  0.1062 -0.1803 -0.4049
  931MPD2    H513627   1.000   1.850   1.094 -4.4197 -0.9963  2.1930
  931MPD2    N113628   0.906   2.322   0.780  0.3747  0.0773 -0.4580
  931MPD2    H713629   0.874   2.344   0.686 -1.5477 -0.0472  0.1563
  932MPD2     C13630   2.934   1.149  11.116 -0.1232 -0.2316  0.1913
  932MPD2    C113631   3.070   1.180  11.133  0.3670  0.0639 -0.4532
  932MPD2    C213632   3.161   1.085  11.182 -0.0215  0.2816  0.2443
  932MPD2    C313633   3.110   0.962  11.213 -0.2533  0.2180  0.2266
  932MPD2    C413634   2.975   0.935  11.197  1.2118 -0.8392  0.1597
  932MPD2    C513635   2.891   1.022  11.150  0.7718  0.6873  0.4365
  932MPD2     H13636   3.264   1.114  11.201 -0.1070 -1.7538  3.9216
  932MPD2    H113637   2.936   0.838  11.226 -0.6054  0.1470  1.0391
  932MPD2    H213638   2.863   1.231  11.103  0.7202  0.3843 -0.5136
  932MPD2    H313639   2.786   0.996  11.150  0.6208  1.2816  0.8407
  932MPD2     N13640   3.185   0.865  11.275  0.3311 -0.5413  0.6339
  932MPD2    H513641   3.131   0.785  11.308 -2.0926  1.8100  2.4427
  932MPD2    N113642   3.114   1.312  11.104 -0.2144 -0.2494 -0.0457
  932MPD2    H713643   3.206   1.349  11.124  0.0404  0.0525 -1.7688
  933MPD2     C13644   2.743   2.822   1.569 -0.5264 -0.8520  0.0155
  933MPD2    C113645   2.805   2.771   1.455  0.1121 -0.0249  0.9150
  933MPD2    C213646   2.722   2.735   1.344 -0.6717 -0.4141  0.1575
  933MPD2    C313647   2.590   2.767   1.341  0.5522 -0.2062 -0.2037
  933MPD2    C413648   2.541   2.841   1.446  0.1666 -0.2197  0.4051
  933MPD2    C513649   2.613   2.856   1.563 -0.5793 -0.1551  0.4784
  933MPD2     H13650   2.772   2.687   1.260 -1.4584  0.0835 -0.5945
  933MPD2    H113651   2.442   2.885   1.451  0.5127  0.6664 -0.7562
  933MPD2    H213652   2.805   2.845   1.656 -0.5696 -1.4091  0.1963
  933MPD2    H313653   2.568   2.903   1.650  1.3863 -0.3031  1.5576
  933MPD2     N13654   2.535   2.760   1.219 -0.2285  0.6720  0.2731
  933MPD2    H513655   2.599   2.743   1.143  0.9936  0.2349  1.4110
  933MPD2    N113656   2.940   2.732   1.464  0.2321  0.3437  0.1864
  933MPD2    H713657   2.984   2.744   1.555  1.6244  0.0926 -0.4559
  934MPD2     C13658   0.046   3.531   2.651 -0.1650  0.1158 -0.4266
  934MPD2    C113659   0.132   3.511   2.552  0.5308  0.1905  0.1534
  934MPD2    C213660   0.092   3.451   2.440  0.0165 -0.5064  0.1115
  934MPD2    C313661   4.684   3.392   2.432 -0.5663 -0.5676 -0.2572
  934MPD2    C413662   4.596   3.416   2.537 -0.4448  0.2721 -0.4434
  934MPD2    C513663   4.641   3.486   2.644 -0.7383 -0.7150  0.2726
  934MPD2     H13664   0.160   3.442   2.356 -1.7227  1.7301 -1.5182
  934MPD2    H113665   4.497   3.370   2.537  0.5761 -1.9125 -1.2120
  934MPD2    H213666   0.078   3.586   2.739  0.8648 -0.4188 -0.4740
  934MPD2    H313667   4.575   3.500   2.728 -0.4984  1.1393  0.1555
  934MPD2     N13668   4.639   3.308   2.323  0.0783  0.4101  0.4890
  934MPD2    H513669   4.544   3.272   2.320 -0.3415  1.5595 -0.0438
  934MPD2    N113670   0.256   3.566   2.537 -0.2833  0.1616  0.2149
  934MPD2    H713671   0.311   3.535   2.458  0.9787  2.5483  0.1685
  935MPD2     C13672   0.369   2.690   1.653  0.1486  0.6243 -0.1488
  935MPD2    C113673   0.257   2.747   1.594  0.0279 -0.3563  0.3330
  935MPD2    C213674   0.186   2.851   1.654  0.0778 -0.0247 -0.5458
  935MPD2    C313675   0.235   2.902   1.777 -0.1076  0.3962 -0.0260
  935MPD2    C413676   0.346   2.844   1.834  0.5781  0.2496  0.1960
  935MPD2    C513677   0.406   2.733   1.778  0.1340 -0.1014  1.0928
  935MPD2     H13678   0.099   2.889   1.602 -0.2509  1.6172  1.2175
  935MPD2    H113679   0.378   2.900   1.921 -3.4102 -2.2086  3.2408
  935MPD2    H213680   0.413   2.596   1.622 -2.4202 -0.4921 -0.3839
  935MPD2    H313681   0.491   2.690   1.830  0.0194 -0.7883  0.7104
  935MPD2     N13682   0.150   2.990   1.848  0.3194 -0.3547  0.6758
  935MPD2    H513683   0.191   3.016   1.938 -0.9704 -2.0996  1.7635
  935MPD2    N113684   0.193   2.688   1.483 -0.1087 -0.0485 -0.5422
  935MPD2    H713685   0.095   2.707   1.467  0.1429  0.4002 -1.5121
  936MPD2     C13686   3.333   0.207  12.732 -0.2476  1.0977 -0.2025
  936MPD2    C113687   3.397   0.109  12.808  0.4623  0.4643 -0.1660
  936MPD2    C213688   3.504   0.151  12.884  0.3526  0.0805 -0.6431
  936MPD2    C313689   3.552   0.281  12.881 -0.4786  0.3722  0.1325
  936MPD2    C413690   3.497   0.375  12.796  0.6687  0.3653 -1.1012
  936MPD2    C513691   3.385   0.335  12.725  0.2078  0.0676 -0.4582
  936MPD2     H13692   3.561   0.084  12.947  0.0735  1.9775  1.6256
  936MPD2    H113693   3.521   0.481  12.796  1.3203  0.2166  1.0944
  936MPD2    H213694   3.240   0.189  12.679 -0.0651  1.0038 -0.4902
  936MPD2    H313695   3.330   0.403  12.660  0.7224  0.2201 -0.7354
  936MPD2     N13696   3.669   0.307  12.960  0.4178  0.1345  0.7091
  936MPD2    H513697   3.726   0.389  12.937  1.3723 -0.6184  0.3911
  936MPD2    N113698   3.347   4.706  12.826 -0.2632  0.1942  0.1417
  936MPD2    H713699   3.410   4.640  12.871 -0.4838 -0.4449 -0.4848
  937MPD2     C13700   1.943   1.237  12.130 -0.4745  0.2251 -0.6245
  937MPD2    C113701   1.953   1.375  12.094  0.4530 -0.3079  0.2330
  937MPD2    C213702   2.056   1.401  12.010  0.6020 -0.5227 -0.4908
  937MPD2    C313703   2.131   1.310  11.944 -0.4315 -0.9644 -0.0602
  937MPD2    C413704   2.093   1.178  11.961 -0.5238 -0.1191 -0.3794
  937MPD2    C513705   1.999   1.143  12.049 -0.4463  0.7080  0.2595
  937MPD2     H13706   2.076   1.506  11.990  2.2297 -0.8477 -0.5319
  937MPD2    H113707   2.159   1.101  11.922  0.6694  1.2671 -1.0919
  937MPD2    H213708   1.876   1.205  12.209 -0.6022 -0.7835 -1.1331
  937MPD2    H313709   1.990   1.037  12.071 -1.8137  0.8502  0.3645
  937MPD2     N13710   2.230   1.348  11.851  0.4110  0.5499 -0.1619
  937MPD2    H513711   2.261   1.444  11.837  1.5469  0.4498  1.7018
  937MPD2    N113712   1.894   1.489  12.168  0.2773 -0.6768  0.5444
  937MPD2    H713713   1.904   1.579  12.123 -0.7042  0.3235  2.3746
  938MPD2     C13714   3.642   3.507   1.012 -0.6599 -0.1948  0.3823
  938MPD2    C113715   3.727   3.438   1.088  0.6450  0.0346 -1.0267
  938MPD2    C213716   3.687   3.379   1.203 -0.4720  0.4973  0.0458
  938MPD2    C313717   3.559   3.403   1.253 -0.1975  0.2582  0.2277
  938MPD2    C413718   3.477   3.477   1.178  0.5368  0.1433 -0.6551
  938MPD2    C513719   3.518   3.525   1.056 -0.4200  0.1284 -0.0870
  938MPD2     H13720   3.752   3.316   1.262 -2.9760 -1.1863  1.0385
  938MPD2    H113721   3.377   3.498   1.215  1.2083  1.1028  0.5854
  938MPD2    H213722   3.671   3.556   0.920 -0.0575 -1.3903 -0.0716
  938MPD2    H313723   3.456   3.589   0.995  0.8123 -0.8401 -2.3845
  938MPD2     N13724   3.507   3.348   1.372 -0.8114 -0.5383  0.3496
  938MPD2    H513725   3.415   3.370   1.407  0.0350  0.7282  1.8160
  938MPD2    N113726   3.865   3.422   1.059  0.2436  0.2471  0.8488
  938MPD2    H713727   3.917   3.359   1.118  1.4972 -1.4990 -2.1285
  939MPD2     C13728   0.665   3.519   1.512 -0.1894  0.0826  0.1199
  939MPD2    C113729   0.666   3.659   1.487  0.4619 -0.0692 -0.1873
  939MPD2    C213730   0.763   3.703   1.395 -0.4089 -0.0672  0.1240
  939MPD2    C313731   0.852   3.619   1.339  0.1168 -0.4508  0.5785
  939MPD2    C413732   0.842   3.485   1.358 -0.0618  0.6059 -0.5117
  939MPD2    C513733   0.746   3.438   1.439 -0.2252  0.3748 -0.6423
  939MPD2     H13734   0.767   3.804   1.358 -2.2964 -1.1026 -2.8295
  939MPD2    H113735   0.899   3.408   1.307 -2.6196 -2.3081  1.0250
  939MPD2    H213736   0.597   3.471   1.581  0.8483 -1.4396  0.0804
  939MPD2    H313737   0.736   3.331   1.449 -1.0963  0.5566  0.4479
  939MPD2     N13738   0.945   3.685   1.252  0.6543  0.2712 -0.3299
  939MPD2    H513739   0.941   3.787   1.250  0.0339  0.2697  0.5549
  939MPD2    N113740   0.566   3.739   1.550  0.0787  0.1443  0.0709
  939MPD2    H713741   0.495   3.699   1.610 -2.1898  0.4839 -2.3972
  940MPD2     C13742   4.440   0.180  13.591  0.0373 -0.2715 -0.4681
  940MPD2    C113743   4.373   0.079  13.532 -0.2543  0.4586  0.5042
  940MPD2    C213744   4.429   4.720  13.436  0.0123  0.0664  0.1196
  940MPD2    C313745   4.557   0.015  13.405 -0.3241 -0.1179 -0.1607
  940MPD2    C413746   4.635   0.113  13.466 -0.1979  0.3939 -0.5984
  940MPD2    C513747   4.576   0.194  13.561  0.0187 -0.4439  0.1873
  940MPD2     H13748   4.385   4.626  13.402 -0.8222  0.2220  0.7586
  940MPD2    H113749   0.011   0.137  13.437  0.7169 -1.3435  1.2169
  940MPD2    H213750   4.395   0.243  13.667 -0.8591 -0.1277 -1.1167
  940MPD2    H313751   4.625   0.282  13.601 -1.2858 -0.3169  1.4876
  940MPD2     N13752   4.617   4.665  13.303 -0.3625 -0.5273  0.5686
  940MPD2    H513753   4.709   4.700  13.281 -0.6756 -0.4454 -0.5944
  940MPD2    N113754   4.239   0.044  13.563  0.3752 -0.0385  0.3082
  940MPD2    H713755   4.189   4.702  13.506 -0.0496  0.0628  0.5573
  941MPD2     C13756   3.481   4.233   9.864  0.0046  0.0724  0.8885
  941MPD2    C113757   3.534   4.168   9.975  0.3100  0.3429 -0.0200
  941MPD2    C213758   3.452   4.118  10.073 -0.1330  0.1347  0.0914
  941MPD2    C313759   3.314   4.134  10.066 -0.4535 -0.4108 -0.7269
  941MPD2    C413760   3.261   4.197   9.951 -0.0144 -0.5474  0.7030
  941MPD2    C513761   3.345   4.246   9.855  0.0144  0.3262  0.7908
  941MPD2     H13762   3.493   4.079  10.165  0.2638 -1.6638 -0.8458
  941MPD2    H113763   3.156   4.207   9.927  0.3381  1.7150  0.1333
  941MPD2    H213764   3.536   4.285   9.786  0.1875 -3.1617 -1.1167
  941MPD2    H313765   3.301   4.298   9.771  0.8427 -0.4675 -0.1299
  941MPD2     N13766   3.236   4.081  10.167 -0.5284  0.7456 -0.0575
  941MPD2    H513767   3.140   4.113  10.175 -0.7133  0.1053  0.2872
  941MPD2    N113768   3.676   4.157   9.998 -0.4117 -0.5003  0.8167
  941MPD2    H713769   3.698   4.113  10.087 -1.2364 -0.7925  0.8776
  942MPD2     C13770   3.733   1.152   9.480 -0.9883  1.0384 -0.9105
  942MPD2    C113771   3.660   1.043   9.454 -1.0630  0.0681 -0.3021
  942MPD2    C213772   3.718   0.929   9.409  0.4179  0.0725  0.4734
  942MPD2    C313773   3.855   0.914   9.396  0.4645  0.0159  0.2306
  942MPD2    C413774   3.929   1.025   9.434  0.0720  0.2946  0.3702
  942MPD2    C513775   3.872   1.137   9.470 -0.5904  0.5992  0.4080
  942MPD2     H13776   3.655   0.841   9.409 -1.7735  1.6363 -0.8618
  942MPD2    H113777   4.038   1.026   9.425 -0.0448  1.6465 -0.9486
  942MPD2    H213778   3.686   1.244   9.512  4.8404  2.4707  3.5041
  942MPD2    H313779   3.937   1.218   9.499 -0.4724  0.3925  0.7177
  942MPD2     N13780   3.914   0.793   9.352 -0.6125  0.0400  0.0029
  942MPD2    H513781   4.015   0.788   9.344 -0.6158  0.1985 -0.1252
  942MPD2    N113782   3.517   1.032   9.476  0.2597 -0.0207  0.2849
  942MPD2    H713783   3.463   0.949   9.457  3.4287 -1.6559 -1.4998
  943MPD2     C13784   2.651   4.651  10.195 -0.5577  0.3293 -0.6679
  943MPD2    C113785   2.548   4.577  10.142  0.9001  0.1827 -0.0305
  943MPD2    C213786   2.478   4.620  10.031 -0.2570  0.3491  0.1467
  943MPD2    C313787   2.519   0.012   9.974  0.6282 -0.4008  0.0831
  943MPD2    C413788   2.608   0.089  10.033  0.8317  0.9911 -0.2026
  943MPD2    C513789   2.683   0.046  10.138  0.1784 -0.7271  0.2486
  943MPD2     H13790   2.395   4.564   9.990  0.2330 -0.9018  0.8948
  943MPD2    H113791   2.638   0.180   9.983 -0.2415 -0.4126 -3.4111
  943MPD2    H213792   2.711   4.629  10.282  1.5143  2.1359 -1.6285
  943MPD2    H313793   2.755   0.111  10.187 -0.4615  0.9553 -1.0529
  943MPD2     N13794   2.464   0.065   9.855 -0.4072 -0.3243 -0.1162
  943MPD2    H513795   2.512   0.134   9.798 -0.2504 -1.5740 -1.5016
  943MPD2    N113796   2.524   4.458  10.209  0.0091  0.2538  0.6045
  943MPD2    H713797   2.588   4.434  10.284  0.7109 -2.0654 -0.7272
  944MPD2     C13798   2.093   2.768  11.130  0.0982  0.1499 -0.6246
  944MPD2    C113799   1.980   2.840  11.127  0.5057 -0.3746  0.5351
  944MPD2    C213800   1.900   2.846  11.239  0.6662 -0.5280  0.5441
  944MPD2    C313801   1.939   2.785  11.355 -0.5109  0.0840 -0.4655
  944MPD2    C413802   2.055   2.712  11.356 -0.4618 -0.4006 -0.3694
  944MPD2    C513803   2.128   2.700  11.239 -0.2814 -0.1460 -0.6592
  944MPD2     H13804   1.811   2.908  11.235 -0.5882 -2.3038  0.5356
  944MPD2    H113805   2.097   2.660  11.441 -2.3320  0.1589  0.9080
  944MPD2    H213806   2.162   2.782  11.048  2.6941  0.7175  1.6546
  944MPD2    H313807   2.228   2.658  11.237 -0.5949 -0.9895  1.7818
  944MPD2     N13808   1.861   2.801  11.476  0.1864 -0.3534 -0.2254
  944MPD2    H513809   1.774   2.853  11.469 -0.3528 -1.2886 -0.4824
  944MPD2    N113810   1.962   2.920  11.013  0.0321 -0.3773  0.1680
  944MPD2    H713811   2.012   2.885  10.932  0.4045  0.7982 -0.1182
    1TCq1    O113812   4.455   3.291  14.137 -0.1298  0.0943  0.1155
    1TCq1    C113813   4.493   3.217  14.241  0.1609  0.3486 -0.6850
    1TCq1    O213814   4.449   3.104  14.271 -0.1440 -0.0945  0.7087
    1TCq1    C213815   4.511   3.322  14.345 -0.1675  0.3492 -0.4357
    1TCq1    C313816   4.396   3.377  14.382  0.2117  0.3415  0.1835
    1TCq1    C413817   4.407   3.503  14.440  0.0697  0.6042  0.2879
    1TCq1    C513818   4.527   3.567  14.462 -0.5916 -0.1070 -0.4852
    1TCq1    C613819   4.637   3.501  14.424  0.3074 -0.3234 -0.2662
    1TCq1    C713820   4.632   3.381  14.354 -0.7386 -0.3825  0.0885
    1TCq1    C813821   0.036   3.534  14.479 -0.0503 -0.5288  0.0750
    1TCq1    O413822   0.108   3.443  14.506  0.3963  0.0230  0.9095
    1TCq1    C913823   4.284   3.560  14.484  0.7155 -0.2484 -0.6418
    1TCq1    O513824   4.173   3.512  14.446 -0.5579 -0.3117  0.3132
    1TCq1    O613825   4.296   3.676  14.532  0.3975  0.1866 -0.4307
    1TCq1    H113826   4.481   3.382  14.159  1.7915 -0.1375 -1.2644
    1TCq1    H213827   4.300   3.334  14.354  1.3558 -1.3524 -1.1305
    1TCq1    H313828   4.522   3.666  14.505 -2.4164 -0.6475  0.5166
    1TCq1    H413829   4.720   3.327  14.320 -0.1887  0.0441  0.8272
    2MPD2     C13830   0.333   3.921  14.671 -0.4800  0.0964  0.0810
    2MPD2    C113831   0.206   3.965  14.636  0.2262  0.6718 -0.3347
    2MPD2    C213832   0.110   3.875  14.587 -0.7715 -0.4122  0.3408
    2MPD2    C313833   0.150   3.744  14.563 -0.1762 -0.3612  1.4830
    2MPD2    C413834   0.276   3.693  14.593 -0.6572 -0.7077 -0.0368
    2MPD2    C513835   0.365   3.787  14.646 -0.5288 -0.9949 -0.1767
    2MPD2     H13836   0.011   3.917  14.573 -1.2146  0.0363  4.7153
    2MPD2    H113837   0.307   3.591  14.574  0.7297 -0.6334  1.8908
    2MPD2    H213838   0.413   3.987  14.704  0.9641 -0.8657 -1.4831
    2MPD2    H313839   0.461   3.744  14.672  1.7296  1.9588 -3.5741
    2MPD2     N13840   0.042   3.661  14.513  0.0481 -0.0462 -0.3485
    2MPD2    H513841   4.692   3.715  14.472 -1.2745 -1.9787 -0.4429
    2MPD2    N113842   0.182   4.103  14.652 -0.0548  0.5416  0.2483
    2MPD2    H713843   0.251   4.158  14.701  1.4562 -0.6955 -0.4799
    3TMC2    C113844   0.082   4.321  14.625  0.5197  0.2862  0.3330
    3TMC2    C213845   0.166   4.372  14.723 -0.1393  0.7121 -0.3470
    3TMC2    C313846   0.164   4.509  14.732  0.3353 -0.1482 -0.4497
    3TMC2    C413847   0.002   4.397  14.545  0.4808  0.3435  0.1695
    3TMC2    C513848   0.014   4.531  14.554  0.4873  0.1624 -0.3069
    3TMC2    C613849   0.093   4.593  14.648 -0.0033  0.2265 -0.3785
    3TMC2     C13850   0.082   4.173  14.598  0.2489 -0.7262 -0.2016
    3TMC2     O13851   4.705   4.139  14.540 -0.8943  0.0299  0.3949
    3TMC2     H13852   0.209   4.308  14.798  2.6911  0.5391 -2.1214
    3TMC2    H113853   4.663   4.351  14.471  0.1330 -2.5232  2.2589
    3TMC2    H213854   0.115   4.699  14.646  1.6232 -0.0959  0.9276
    3TMC2    C713855   4.664   4.614  14.464  0.1563  0.2850 -0.9635
    3TMC2    C813856   0.265   4.576  14.807  0.0339 -0.9788 -0.0023
    3TMC2    O113857   4.583   4.556  14.395  0.4084 -0.0169  0.2633
    3TMC2    O213858   0.267   4.696  14.821  0.4261 -0.6750 -0.3717
    3TMC2    O513859   0.380   4.505  14.787  0.8066 -0.8463  0.3166
    3TMC2    H513860   0.373   4.410  14.762 -0.6065  0.0135 -2.6146
    4MPD2     C13861   0.107   0.892  13.590 -0.3992 -0.4727 -0.4143
    4MPD2    C113862   0.024   0.809  13.657  0.0884  0.0757  0.4558
    4MPD2    C213863   0.031   0.798  13.794 -0.6528  0.1243  0.0838
    4MPD2    C313864   0.110   0.891  13.869 -0.5466  0.1884  0.3881
    4MPD2    C413865   0.176   0.990  13.806  0.1911  0.0748  0.5153
    4MPD2    C513866   0.182   0.979  13.668  0.1034 -0.6079 -0.1265
    4MPD2     H13867   4.706   0.718  13.846  0.1670 -0.0686  0.5935
    4MPD2    H113868   0.239   1.068  13.847  0.3876  0.5744 -0.7401
    4MPD2    H213869   0.105   0.905  13.483 -2.3516 -1.2299 -0.4562
    4MPD2    H313870   0.250   1.049  13.619 -0.2627 -0.3028 -0.1997
    4MPD2     N13871   0.130   0.851  14.004 -0.2181  0.1156 -0.1742
    4MPD2    H513872   0.076   0.777  14.048  0.4114 -0.1915  0.0787
    4MPD2    N113873   4.673   0.722  13.579  0.0417  0.4445 -0.1213
    4MPD2    H713874   4.684   0.718  13.479  0.1001 -2.1333 -0.0079
    5TCq2    C113875   0.225   0.902  14.084  0.2296 -0.4971 -0.3125
    5TCq2    O213876   0.297   0.997  14.056 -0.4173  0.7014 -0.0033
    5TCq2    C213877   0.244   0.826  14.207 -0.2802 -0.0037  0.2744
    5TCq2    C313878   0.310   0.883  14.307 -0.3713  0.7644 -0.1965
    5TCq2    C413879   0.326   0.822  14.427 -0.0362  0.0386 -0.4058
    5TCq2    C513880   0.279   0.698  14.449  0.4170 -0.0543  0.7933
    5TCq2    C613881   0.204   0.645  14.345  0.3288  0.1910  0.0805
    5TCq2    C713882   0.178   0.710  14.225 -0.4029 -0.0313 -0.3386
    5TCq2    C813883   0.149   0.508  14.370  0.6670 -0.4627  0.0279
    5TCq2    O413884   0.203   0.452  14.463  0.1566 -0.5802 -0.1284
    5TCq2    C913885   0.391   0.899  14.531 -0.3637  0.6374 -0.5544
    5TCq2    O513886   0.359   1.021  14.533 -0.0089  0.1406 -0.2596
    5TCq2    O613887   0.468   0.840  14.606 -0.1708  0.2258  0.2055
    5TCq2    H213888   0.370   0.972  14.297  0.1166  0.7023  2.0202
    5TCq2    H313889   0.311   0.653  14.542 -1.5922 -0.0003  1.5153
    5TCq2    H413890   0.126   0.660  14.144 -2.8109  2.4758 -0.3692
    6MPD1     C13891   3.625   1.194  12.165  0.2098 -0.0173  0.6773
    6MPD1    C113892   3.714   1.080  12.180 -0.1210 -0.5892  0.3023
    6MPD1    C213893   3.781   1.062  12.301 -0.4153 -0.4279  0.5142
    6MPD1    C313894   3.755   1.137  12.411  0.1562 -0.3969  0.4583
    6MPD1    C413895   3.674   1.244  12.399  0.2376 -0.8303 -0.6012
    6MPD1    C513896   3.612   1.280  12.277 -0.5076 -0.1875  0.3022
    6MPD1     H13897   3.843   0.974  12.310  0.8208  0.4709  0.7958
    6MPD1    H113898   3.651   1.302  12.487  0.0081 -1.3340 -0.3294
    6MPD1    H213899   3.567   1.207  12.075  1.0858 -0.1484  0.1006
    6MPD1    H313900   3.541   1.360  12.265  1.7257  1.2268 -3.4942
    6MPD1     N13901   3.818   1.101  12.531  0.0063 -0.0305  0.1396
    6MPD1    H513902   3.890   1.031  12.516 -0.2408 -0.5837  1.5840
    6MPD1    N113903   3.764   1.009  12.062  0.1323 -0.2450 -0.1121
    6MPD1    H613904   3.799   0.914  12.068 -2.7450 -1.3702 -1.5017
    6MPD1    H713905   3.692   1.002  11.991 -0.1967  0.6326  0.1359
    7MPD2     C13906   3.827   0.832  13.384 -0.0018  0.0208  0.3674
    7MPD2    C113907   3.905   0.790  13.279 -0.1715  0.7062 -0.1886
    7MPD2    C213908   4.003   0.694  13.303 -0.2233  0.1372 -0.4535
    7MPD2    C313909   4.019   0.636  13.429 -0.2379  0.5382  0.2652
    7MPD2    C413910   3.935   0.684  13.530  0.1731 -0.0389  0.1836
    7MPD2    C513911   3.833   0.776  13.507 -0.4535  0.1213 -0.1460
    7MPD2     H13912   4.076   0.672  13.225  0.9473  2.7005 -0.0725
    7MPD2    H113913   3.961   0.646  13.628 -3.1607  0.2042  1.1627
    7MPD2    H213914   3.750   0.908  13.374  2.5923  2.8181  2.0173
    7MPD2    H313915   3.766   0.814  13.583 -1.1720 -1.9748  0.2535
    7MPD2     N13916   4.131   0.549  13.459  0.0216 -0.5936  0.2253
    7MPD2    H513917   4.144   0.534  13.559  0.5661  0.5036  0.3268
    7MPD2    N113918   3.906   0.841  13.150  0.4853  0.2511 -0.1295
    7MPD2    H713919   3.968   0.805  13.077  0.0389  0.7681 -0.7640
    8TMC3    C113920   4.333   0.444  13.420 -0.1806  0.1286  0.1199
    8TMC3    C213921   4.385   0.520  13.527 -0.0419  0.1690 -0.1481
    8TMC3    C313922   4.525   0.543  13.518 -0.1310  0.7487  0.0874
    8TMC3    C413923   4.415   0.400  13.319  0.0028 -0.7392  0.3673
    8TMC3    C513924   4.548   0.421  13.313 -0.5234  0.0249  0.8491
    8TMC3    C613925   4.600   0.485  13.419 -0.3874  0.2285 -0.2449
    8TMC3     C13926   4.212   0.488  13.362  0.1098  0.5444  0.2407
    8TMC3     O13927   4.203   0.487  13.240 -0.1382 -0.4608 -0.5980
    8TMC3     H13928   4.321   0.567  13.600  1.2335 -0.0908  1.1158
    8TMC3    H113929   4.366   0.341  13.242  0.8843  0.7327 -1.3043
    8TMC3    H213930   4.707   0.503  13.410 -0.2190 -1.1944 -1.1303
    8TMC3    C713931   4.582   0.483  13.191 -0.2917 -0.2312  0.3405
    8TMC3    C813932   4.589   0.622  13.631  0.4726  0.5660  0.2079
    8TMC3    O113933   4.701   0.510  13.172  0.0152 -0.4867  0.7535
    8TMC3    O213934   4.535   0.624  13.742  0.3911  0.4575 -0.5938
    9TMC3    C113935   3.859   1.081  12.762 -0.5366 -0.6943 -0.1169
    9TMC3    C213936   3.991   1.043  12.735 -0.7841 -0.9692 -0.4849
    9TMC3    C313937   4.067   0.989  12.830 -0.0564  0.1215  0.0755
    9TMC3    C413938   3.812   1.070  12.893  0.0328 -0.0050 -0.3501
    9TMC3    C513939   3.900   1.013  12.986  0.0019  0.0035 -0.3872
    9TMC3    C613940   4.024   0.967  12.957  0.0741 -0.6224  0.1566
    9TMC3     C13941   3.779   1.137  12.655  0.5139  0.3756 -0.7538
    9TMC3     O13942   3.671   1.191  12.691 -0.3637 -0.0550 -0.3225
    9TMC3     H13943   4.046   1.068  12.645  1.1393 -0.1732  0.9214
    9TMC3    H113944   3.709   1.083  12.927  0.4007 -1.1536  1.2017
    9TMC3    H213945   4.095   0.932  13.031 -0.6546  0.2437  1.2576
    9TMC3    C713946   3.842   0.958  13.108 -0.1634  0.3470 -0.2698
    9TMC3    C813947   4.188   0.929  12.783 -0.4421 -0.2946  0.1936
    9TMC3    O113948   3.729   0.991  13.147 -0.0252 -0.1393 -0.2427
    9TMC3    O213949   4.260   0.994  12.707  0.0231 -0.1066 -0.3704
   10MPD2     C13950   4.591   0.657  12.947  0.2675  0.3578  0.4853
   10MPD2    C113951   4.476   0.618  13.007  0.4858 -0.2953 -0.2481
   10MPD2    C213952   4.354   0.674  12.973 -0.4836  0.3849  0.8235
   10MPD2    C313953   4.347   0.769  12.876  0.3163  0.6470  0.0677
   10MPD2    C413954   4.459   0.814  12.816  0.0822 -0.1472  0.3179
   10MPD2    C513955   4.583   0.758  12.857  0.5903  0.2874 -0.3924
   10MPD2     H13956   4.262   0.639  13.018 -0.7673 -2.1550 -1.7136
   10MPD2    H113957   4.464   0.879  12.729 -1.9853 -1.0781 -0.4878
   10MPD2    H213958   4.690   0.617  12.961 -0.2728 -0.9889  0.4104
   10MPD2    H313959   4.674   0.795  12.810  2.9080 -1.2916  2.8808
   10MPD2     N13960   4.222   0.824  12.863  0.7585 -0.1331 -0.1611
   10MPD2    H513961   4.152   0.767  12.910 -1.2549  0.1657 -2.8099
   10MPD2    N113962   4.473   0.536  13.118  1.0302 -0.6217  0.0714
   10MPD2    H713963   4.380   0.524  13.158  1.4491 -0.6294  1.0371
   11MPD2     C13964   4.537   0.123  14.344  0.0666  0.2768 -0.1706
   11MPD2    C113965   4.669   0.129  14.389 -0.8062 -0.0374 -0.5452
   11MPD2    C213966   0.015   0.243  14.384 -0.2418  0.6652  0.7194
   11MPD2    C313967   4.689   0.354  14.328 -0.2130 -0.1645 -0.1632
   11MPD2    C413968   4.559   0.352  14.280  0.3349 -0.0055  0.3432
   11MPD2    C513969   4.487   0.235  14.293 -0.5671 -0.0072 -0.1406
   11MPD2     H13970   0.116   0.241  14.424 -1.0053  2.8168  2.7398
   11MPD2    H113971   4.517   0.442  14.236 -0.3511 -0.4435  0.0926
   11MPD2    H213972   4.468   0.040  14.353 -0.7740  0.9563 -0.4549
   11MPD2    H313973   4.384   0.235  14.260 -0.4698  0.4669 -0.4416
   11MPD2     N13974   0.039   0.474  14.307  0.2748 -0.2250  1.0568
   11MPD2    H513975   4.724   0.542  14.243  1.0540  0.5843  1.4346
   11MPD2    N113976   4.724   0.013  14.444 -0.4949 -0.1710 -0.4290
   11MPD2    H713977   0.096   0.027  14.467 -0.0144 -1.0554 -1.9554
    1MPD1     C13978   2.053   2.253  17.317 -0.1658  0.5346 -0.5568
    1MPD1    C113979   2.005   2.214  17.195  0.5888 -0.1440 -0.8797
    1MPD1    C213980   2.044   2.087  17.148  0.2121  0.3903  0.0456
    1MPD1    C313981   2.116   2.001  17.233 -0.1167  0.0796 -0.9033
    1MPD1    C413982   2.153   2.041  17.361 -0.1629  0.6188 -0.0891
    1MPD1    C513983   2.118   2.167  17.405  0.1613  0.5642 -0.1069
    1MPD1     H13984   2.027   2.057  17.046 -0.4843  0.7942  0.0393
    1MPD1    H113985   2.215   1.983  17.429 -0.0663  0.7175 -0.0939
    1MPD1    H213986   2.036   2.357  17.345 -0.0153  0.6832 -1.0135
    1MPD1    H313987   2.160   2.198  17.500 -1.1646 -0.2761  0.7467
    1MPD1     N13988   2.168   1.879  17.187 -0.1486 -0.5203 -0.2441
    1MPD1    H513989   2.229   1.829  17.252 -0.2388 -1.8808 -1.1872
    1MPD1    N113990   1.967   2.310  17.099  0.0343 -0.5591  0.5323
    1MPD1    H613991   1.924   2.396  17.134 -0.5445 -0.9377  0.7387
    1MPD1    H713992   1.918   2.272  17.019  0.6060 -0.6913  0.2468
    2MPD1     C13993   3.019   1.701  16.686 -0.8821  0.4122  0.1308
    2MPD1    C113994   2.926   1.659  16.592  0.4304  0.6003 -0.2115
    2MPD1    C213995   2.801   1.651  16.640  0.2828  0.2916  0.3177
    2MPD1    C313996   2.758   1.674  16.773 -0.3440  0.1346  0.0464
    2MPD1    C413997   2.851   1.731  16.856  0.1167  0.2988  0.0476
    2MPD1    C513998   2.978   1.741  16.808 -0.5466 -0.2901  0.1668
    2MPD1     H13999   2.729   1.625  16.563 -0.1364 -1.1189  1.1821
    2MPD1    H114000   2.839   1.748  16.962 -0.9450  0.2981 -0.0759
    2MPD1    H214001   3.126   1.710  16.667 -0.9621 -0.6980 -0.8372
    2MPD1    H314002   3.050   1.782  16.879 -1.4496 -1.5757  1.8257
    2MPD1     N14003   2.623   1.659  16.811  0.0713  0.2834  0.4741
    2MPD1    H514004   2.565   1.604  16.748  0.6927 -1.8474  1.7741
    2MPD1    N114005   2.945   1.645  16.451  0.1961  0.1346  0.5176
    2MPD1    H614006   3.040   1.614  16.428  0.5839 -1.4927  4.4452
    2MPD1    H714007   2.875   1.578  16.422  0.8711 -0.2399 -0.2723
    3TMC3    C114008   2.427   1.672  16.943 -0.0259 -0.3506  0.5888
    3TMC3    C214009   2.370   1.590  16.848  0.2424  0.8855  0.1184
    3TMC3    C314010   2.234   1.566  16.855 -0.3625 -0.1394 -0.0266
    3TMC3    C414011   2.358   1.747  17.034 -0.3068 -0.2698 -0.3955
    3TMC3    C514012   2.222   1.718  17.030  0.4912 -0.0269 -0.1748
    3TMC3    C614013   2.159   1.629  16.942  0.2731 -0.2070  0.0707
    3TMC3     C14014   2.566   1.703  16.931 -0.1313  0.3453  0.3460
    3TMC3     O14015   2.623   1.762  17.027  0.3904  0.1998 -0.2514
    3TMC3     H14016   2.432   1.535  16.778 -0.6815  0.9300 -0.7448
    3TMC3    H114017   2.403   1.824  17.096 -2.6125  0.3803  0.4802
    3TMC3    H214018   2.054   1.610  16.956  0.2084 -1.0970 -1.6725
    3TMC3    C714019   2.125   1.816  17.074 -0.1826  0.3982 -0.3688
    3TMC3    C814020   2.168   1.450  16.793  0.1565  0.4486  0.0013
    3TMC3    O114021   2.039   1.853  16.998  0.2706  0.1256 -0.1601
    3TMC3    O214022   2.061   1.414  16.842  0.0051 -0.6621 -0.1668
    4MPD1     C14023   2.117   1.115  16.395  0.1870 -0.2762 -0.5643
    4MPD1    C114024   2.233   1.194  16.379 -0.1516  0.7421  0.1735
    4MPD1    C214025   2.260   1.292  16.473 -0.4650  0.3062  0.2585
    4MPD1    C314026   2.186   1.309  16.582  0.3293  0.5391  0.1083
    4MPD1    C414027   2.084   1.223  16.612 -0.0900 -0.4996 -0.3654
    4MPD1    C514028   2.046   1.133  16.516 -0.0454 -0.7901 -0.8217
    4MPD1     H14029   2.347   1.348  16.442 -0.0051 -0.0531  0.9013
    4MPD1    H114030   2.032   1.225  16.707 -0.6177  0.4857 -0.6772
    4MPD1    H214031   2.092   1.032  16.329 -0.9249 -1.3128  1.1824
    4MPD1    H314032   1.964   1.063  16.525  0.7434 -1.8788 -2.0952
    4MPD1     N14033   2.223   1.419  16.666  0.2413  0.2748  0.3141
    4MPD1    H514034   2.306   1.471  16.644  0.2049  0.7900  1.3822
    4MPD1    N114035   2.331   1.154  16.288 -0.7202  0.2587  0.1546
    4MPD1    H614036   2.397   1.228  16.264  1.5052 -1.4644  1.0259
    4MPD1    H714037   2.308   1.106  16.201 -2.2538 -2.2803  1.9654
    1TCq1    O114038   3.897   4.708  12.109 -0.8471 -0.2130 -0.4207
    1TCq1    C114039   3.814   0.048  12.033  0.0990  0.1009  0.0766
    1TCq1    O214040   3.763   0.160  12.055 -0.0797 -0.2889 -0.4007
    1TCq1    C214041   3.793   4.718  11.904  0.7678  0.0375  0.1890
    1TCq1    C314042   3.763   4.581  11.894  0.2691 -0.8607  0.4165
    1TCq1    C414043   3.703   4.536  11.777 -0.4197 -0.0463 -0.3601
    1TCq1    C514044   3.673   4.623  11.675 -0.0555 -0.0088 -0.6320
    1TCq1    C614045   3.700   0.030  11.692  0.5711  0.0303 -0.5320
    1TCq1    C714046   3.773   0.076  11.798 -0.3255 -0.2814 -0.4824
    1TCq1    C814047   3.675   0.115  11.579  0.2173 -0.5821 -0.2292
    1TCq1    O414048   3.590   0.082  11.495  0.2864  0.2664 -0.4415
    1TCq1    C914049   3.625   4.413  11.781  0.0051 -0.1732  0.8038
    1TCq1    O514050   3.650   4.338  11.880 -0.2642 -0.0811  0.2550
    1TCq1    O614051   3.576   4.374  11.672 -0.2119 -0.1202  0.0811
    1TCq1    H114052   3.930   4.622  12.076  0.8110  0.6280 -0.9790
    1TCq1    H214053   3.756   4.512  11.977  0.8919  2.5254  3.2544
    1TCq1    H314054   3.603   4.591  11.599  1.4290 -2.3843 -0.9979
    1TCq1    H414055   3.795   0.182  11.807  0.5926 -0.4467 -0.8245
    2MPD1     C14056   3.764   0.547  11.294  0.6833  0.5041 -0.5115
    2MPD1    C114057   3.828   0.562  11.414 -0.6372 -0.3682 -0.1041
    2MPD1    C214058   3.825   0.452  11.503 -0.4339 -0.3507 -0.6677
    2MPD1    C314059   3.756   0.332  11.478 -0.6868 -0.2030 -0.6175
    2MPD1    C414060   3.689   0.332  11.358 -0.4688  0.1463  0.1767
    2MPD1    C514061   3.689   0.436  11.274  0.2593  0.7724 -0.1056
    2MPD1     H14062   3.884   0.459  11.594 -3.0118  0.0944  0.9772
    2MPD1    H114063   3.625   0.247  11.339 -1.0436  0.6251 -0.0241
    2MPD1    H214064   3.766   0.621  11.214 -0.7618  0.4597 -0.5890
    2MPD1    H314065   3.637   0.422  11.180 -2.1964 -3.5300  1.8930
    2MPD1     N14066   3.753   0.229  11.580 -0.0790 -0.5718 -0.4445
    2MPD1    H514067   3.807   0.244  11.665 -1.7896  2.8429  0.0636
    2MPD1    N114068   3.921   0.666  11.424  0.4232 -0.3618  0.5184
    2MPD1    H614069   3.885   0.752  11.385  2.5329 -1.1408 -3.1705
    2MPD1    H714070   3.953   0.688  11.519 -1.8567  0.5913  1.0529
    1TCq1    O114071   3.737   1.972   1.337  0.3686  0.0194  0.2170
    1TCq1    C114072   3.607   1.958   1.309  0.7176  0.3061 -0.1634
    1TCq1    O214073   3.574   1.882   1.217  0.5891 -0.0425  0.0724
    1TCq1    C214074   3.521   2.031   1.397 -0.1719 -0.0891 -0.5039
    1TCq1    C314075   3.569   2.062   1.519  1.2111 -0.3530  0.3063
    1TCq1    C414076   3.485   2.077   1.627  0.4767 -0.3060  0.3797
    1TCq1    C514077   3.355   2.105   1.611 -0.0669  0.2579  0.3162
    1TCq1    C614078   3.309   2.097   1.479  0.1183  0.5902 -0.9699
    1TCq1    C714079   3.387   2.051   1.372  0.1297 -0.4613  0.0352
    1TCq1    C814080   3.172   2.134   1.449 -0.0990 -0.2175  0.2273
    1TCq1    O414081   3.137   2.098   1.338  0.8323 -0.4575 -0.2071
    1TCq1    C914082   3.544   2.114   1.751 -0.1277  0.0459 -0.5636
    1TCq1    O514083   3.670   2.128   1.766  0.3497 -0.1344  0.3627
    1TCq1    O614084   3.471   2.108   1.858 -0.4875  0.0981 -0.4253
    1TCq1    H114085   3.758   2.034   1.410 -0.3644 -2.6974  2.7245
    1TCq1    H214086   3.665   2.026   1.555  2.7773  3.0182 -0.5467
    1TCq1    H314087   3.299   2.133   1.699 -0.4130  0.0582  0.1585
    1TCq1    H414088   3.354   2.015   1.276 -0.1110  2.9909 -1.1681
    2MPD1     C14089   2.758   2.414   1.553 -0.3798  0.4428 -0.3120
    2MPD1    C114090   2.813   2.384   1.675  1.0751  0.1023 -0.2458
    2MPD1    C214091   2.936   2.312   1.675  0.0790  0.1342  0.2096
    2MPD1    C314092   2.988   2.265   1.554  0.2396  0.4253 -0.2910
    2MPD1    C414093   2.917   2.279   1.431 -0.4335 -0.9190 -0.3498
    2MPD1    C514094   2.802   2.363   1.435  0.0187  0.5363 -0.1318
    2MPD1     H14095   2.977   2.289   1.773 -2.4103 -4.4530  0.1649
    2MPD1    H114096   2.964   2.258   1.335  0.0447 -2.3350  0.1955
    2MPD1    H214097   2.673   2.480   1.543 -0.1475  0.6767 -0.7711
    2MPD1    H314098   2.750   2.376   1.341 -0.1874 -0.0015 -0.0904
    2MPD1     N14099   3.111   2.197   1.555 -0.1396  0.0801  0.3719
    2MPD1    H514100   3.161   2.196   1.644  0.4886  1.1255  0.0260
    2MPD1    N114101   2.769   2.457   1.789  0.3034  0.1451  0.1963
    2MPD1    H614102   2.797   2.404   1.871 -0.2085  0.1746  0.3856
    2MPD1    H714103   2.670   2.479   1.786  0.2617  0.1474  1.8008
    1MPD1     C14104   0.878   2.491  11.525 -0.6640 -0.3823 -0.2478
    1MPD1    C114105   1.002   2.547  11.544  0.3422  0.1962  0.3446
    1MPD1    C214106   1.076   2.511  11.656 -0.1550 -0.5529 -0.2364
    1MPD1    C314107   1.031   2.415  11.743 -0.2146 -0.5829 -0.3046
    1MPD1    C414108   0.913   2.353  11.716  0.5304 -0.8912  0.3549
    1MPD1    C514109   0.834   2.395  11.610  0.0269 -0.4971 -0.1226
    1MPD1     H14110   1.179   2.542  11.669  0.2352 -1.6807 -0.5801
    1MPD1    H114111   0.854   2.303  11.791 -0.7592  0.4388  0.2457
    1MPD1    H214112   0.817   2.526  11.442 -2.2253 -0.1787  0.9950
    1MPD1    H314113   0.741   2.343  11.592 -1.4243  1.1053  2.8441
    1MPD1     N14114   1.117   2.384  11.854 -0.1941  0.1626  0.2841
    1MPD1    H514115   1.203   2.438  11.860  0.9855 -1.7649  0.9131
    1MPD1    N114116   1.066   2.635  11.452 -0.4237 -0.7969  0.2366
    1MPD1    H614117   1.137   2.698  11.488 -1.4122 -0.0072  0.8146
    1MPD1    H714118   0.999   2.678  11.388 -2.5186 -2.0294  1.5960
    2MPD1     C14119   0.835   2.131  10.846 -0.5375 -0.1059  0.0073
    2MPD1    C114120   0.960   2.174  10.858  0.0048  0.2978 -0.0036
    2MPD1    C214121   1.067   2.092  10.821 -0.2304 -1.0831 -0.2357
    2MPD1    C314122   1.045   1.968  10.773  0.5406 -0.3052  0.4587
    2MPD1    C414123   0.918   1.922  10.756 -0.3462 -0.7336  0.0294
    2MPD1    C514124   0.814   2.003  10.798  0.0584  0.4879  0.1999
    2MPD1     H14125   1.165   2.128  10.851 -1.0665  1.9943 -1.1247
    2MPD1    H114126   0.902   1.821  10.719  1.6947 -0.6775 -0.9998
    2MPD1    H214127   0.752   2.199  10.858 -0.4604  0.2337 -1.3554
    2MPD1    H314128   0.712   1.965  10.805  0.4832 -0.5817  0.5669
    2MPD1     N14129   1.149   1.878  10.737  0.0344 -0.6520 -0.0340
    2MPD1    H514130   1.123   1.789  10.694  0.9208 -0.6843 -0.5186
    2MPD1    N114131   0.988   2.290  10.933  0.1151 -0.6826 -1.0318
    2MPD1    H614132   1.076   2.328  10.898  0.5769 -0.1370  0.7026
    2MPD1    H714133   0.913   2.358  10.932 -0.0852 -0.8799 -0.1635
    3MPD1     C14134   1.101   0.986  10.546 -0.4204 -0.5849  0.2754
    3MPD1    C114135   1.241   0.987  10.518  0.1583 -0.5134  1.1022
    3MPD1    C214136   1.315   1.101  10.545  0.4807  0.1592  0.2168
    3MPD1    C314137   1.247   1.210  10.585 -0.0285 -0.7433 -0.0670
    3MPD1    C414138   1.119   1.209  10.621  0.0631 -0.0840  0.0228
    3MPD1    C514139   1.039   1.097  10.599 -0.4881 -0.1081 -0.4773
    3MPD1     H14140   1.416   1.116  10.510  0.3652 -0.1286 -0.2298
    3MPD1    H114141   1.067   1.300  10.649 -1.9619 -0.8561 -1.2598
    3MPD1    H214142   1.032   0.907  10.519 -0.0647 -1.0810  0.8210
    3MPD1    H314143   0.933   1.117  10.590 -0.4982  0.8179  1.5318
    3MPD1     N14144   1.321   1.330  10.591 -0.2113 -0.3373  0.5112
    3MPD1    H514145   1.421   1.318  10.578 -0.2324  3.1516 -2.7850
    3MPD1    N114146   1.288   0.876  10.445  0.4353 -0.0677 -0.1100
    3MPD1    H614147   1.382   0.847  10.473  0.8426 -0.7455 -2.1871
    3MPD1    H714148   1.230   0.794  10.461 -0.8474  0.8547 -0.0097
    4MPD2     C14149   1.775   2.379  11.861  1.3562  0.0298 -0.0442
    4MPD2    C114150   1.720   2.271  11.927 -0.1329  0.2988 -0.2726
    4MPD2    C214151   1.783   2.148  11.906 -0.3059  0.0344 -0.3861
    4MPD2    C314152   1.886   2.130  11.823  0.8217  0.1118  0.8195
    4MPD2    C414153   1.918   2.239  11.734 -0.3110 -0.0089 -0.5800
    4MPD2    C514154   1.873   2.361  11.769  0.1789  0.0645 -0.2977
    4MPD2     H14155   1.743   2.070  11.970 -0.5039  0.7071  0.3163
    4MPD2    H114156   1.989   2.231  11.652 -1.5080  0.4910 -1.6651
    4MPD2    H214157   1.745   2.477  11.895  0.2313  0.4411 -2.2280
    4MPD2    H314158   1.908   2.453  11.722 -1.6539  1.7414  1.6334
    4MPD2     N14159   1.931   1.999  11.806 -0.3857  0.5238  0.4263
    4MPD2    H514160   1.881   1.935  11.867 -0.1219  1.0549  1.1930
    4MPD2    N114161   1.609   2.281  12.015 -0.0331  0.3015  0.1150
    4MPD2    H714162   1.580   2.193  12.055 -2.4493  0.7709 -0.5856
    5TMC3    C114163   1.414   2.350  12.110  0.4235 -0.3178  0.2453
    5TMC3    C214164   1.298   2.377  12.046  1.1640 -0.7484  0.5829
    5TMC3    C314165   1.204   2.281  12.042  0.4715 -0.1093 -0.0664
    5TMC3    C414166   1.438   2.228  12.165 -0.7349  0.7109  0.5905
    5TMC3    C514167   1.349   2.131  12.147 -0.1202  0.4023 -0.6515
    5TMC3    C614168   1.224   2.153  12.088 -0.0392 -0.1528  0.0473
    5TMC3     C14169   1.522   2.388  12.022 -0.2083  0.0307 -0.5240
    5TMC3     O14170   1.506   2.493  11.956  0.7803 -0.2163  0.3136
    5TMC3     H14171   1.290   2.479  12.009 -1.0520 -1.2158 -0.2520
    5TMC3    H114172   1.520   2.216  12.234  0.3657  2.9777 -0.3347
    5TMC3    H214173   1.148   2.076  12.080  0.4721 -0.4669 -1.9085
    5TMC3    C714174   1.424   2.002  12.127  0.6994 -0.3575 -0.4839
    5TMC3    C814175   1.094   2.291  11.952 -0.6235  0.1367  0.0837
    5TMC3    O114176   1.546   2.020  12.116 -0.8441 -0.2341 -0.5667
    5TMC3    O214177   1.013   2.198  11.959  0.0532  0.3129  0.5494
    6TMC3    C114178   1.360   1.775  10.726  0.1024  0.7792  0.3284
    6TMC3    C214179   1.305   1.682  10.645  0.2723  0.4697  0.0195
    6TMC3    C314180   1.366   1.561  10.646  0.5219  1.0300  0.3681
    6TMC3    C414181   1.467   1.749  10.805  0.6842 -0.5192 -0.0128
    6TMC3    C514182   1.516   1.624  10.815  0.6328  0.4882 -0.2855
    6TMC3    C614183   1.477   1.528  10.727  0.1187 -0.6311 -0.4814
    6TMC3     C14184   1.279   1.901  10.756  0.4119 -0.2073 -0.3936
    6TMC3     O14185   1.341   1.977  10.832 -0.5398  0.3038  0.8502
    6TMC3     H14186   1.221   1.711  10.582 -1.5077 -0.9193  1.7437
    6TMC3    H114187   1.515   1.832  10.856 -1.3572  0.1692  0.7897
    6TMC3    H214188   1.522   1.430  10.722  0.2379 -0.4538 -3.1088
    6TMC3    C714189   1.579   1.594  10.944  0.3856  0.7978 -0.2643
    6TMC3    C814190   1.266   1.458  10.615  0.2481 -0.2156  0.6872
    6TMC3    O114191   1.593   1.685  11.022  0.1711  0.5012  0.4885
    6TMC3    O214192   1.153   1.497  10.611 -0.0607 -0.7563  0.3788
    7MPD2     C14193   1.469   1.506  11.975  0.2909 -0.6650  0.4405
    7MPD2    C114194   1.560   1.610  11.968  0.6240 -0.7139  0.4821
    7MPD2    C214195   1.521   1.738  12.014  0.0693  0.1372  0.4500
    7MPD2    C314196   1.391   1.767  12.047 -0.5385 -0.2465  0.1579
    7MPD2    C414197   1.297   1.664  12.044 -0.0515 -0.8305 -0.3154
    7MPD2    C514198   1.337   1.539  12.009  0.5477 -0.0740 -0.6684
    7MPD2     H14199   1.596   1.816  12.009  0.7334 -0.6491 -1.6042
    7MPD2    H114200   1.203   1.686  12.094  0.3223 -0.9477  0.4344
    7MPD2    H214201   1.492   1.402  11.953 -0.6019 -0.6017 -0.8186
    7MPD2    H314202   1.266   1.457  12.018 -2.0952  2.3519  0.6624
    7MPD2     N14203   1.344   1.896  12.095  0.2013 -0.5709 -0.2250
    7MPD2    H514204   1.248   1.900  12.126  0.6832 -0.0253  1.2261
    7MPD2    N114205   1.689   1.584  11.905  0.0167 -0.6489  0.4484
    7MPD2    H714206   1.706   1.488  11.878 -1.0576 -0.8545  0.5064
    8TMC3    C114207   1.881   1.642  11.790  0.4989  0.5005  0.0025
    8TMC3    C214208   1.827   1.603  11.673 -0.4937 -0.1685  0.3643
    8TMC3    C314209   1.877   1.665  11.562 -0.3019 -0.4673 -0.3505
    8TMC3    C414210   1.988   1.736  11.796 -0.4679  0.3005  0.0647
    8TMC3    C514211   2.012   1.814  11.684  0.0422  0.8059 -0.4328
    8TMC3    C614212   1.965   1.771  11.561  0.0846 -0.1215  0.1418
    8TMC3     C14213   1.788   1.668  11.905  0.2386  1.5851 -0.0807
    8TMC3     O14214   1.806   1.771  11.969 -0.0086  0.2402  0.1672
    8TMC3     H14215   1.741   1.536  11.670  0.5173 -1.6285  3.9038
    8TMC3    H114216   2.026   1.772  11.890  1.2218  1.3123 -1.0079
    8TMC3    H214217   1.985   1.830  11.472  0.6167  1.2255  1.1588
    8TMC3    C714218   2.008   1.959  11.702 -0.3216 -0.6397 -1.0258
    8TMC3    C814219   1.824   1.635  11.432 -0.4928 -0.3509  0.1763
    8TMC3    O114220   2.062   2.019  11.612  0.7155  0.4155  0.1970
    8TMC3    O214221   1.813   1.719  11.345 -0.1529 -0.4070 -0.0269
    9MPD2     C14222   1.771   1.289  11.307 -0.0671  0.3111  0.1616
    9MPD2    C114223   1.770   1.424  11.302  0.4067 -0.5401 -0.1767
    9MPD2    C214224   1.711   1.482  11.190 -0.3041 -0.5314 -0.3473
    9MPD2    C314225   1.665   1.413  11.077 -0.1567 -0.1144  0.0334
    9MPD2    C414226   1.687   1.281  11.081 -1.0873 -0.9334  0.6354
    9MPD2    C514227   1.739   1.218  11.194  0.1141  0.0254  0.6104
    9MPD2     H14228   1.708   1.590  11.174  1.2956 -0.1108  2.1868
    9MPD2    H114229   1.653   1.220  10.998  2.3659 -0.8429 -0.8558
    9MPD2    H214230   1.819   1.231  11.386 -0.6082 -0.2898  0.0534
    9MPD2    H314231   1.731   1.110  11.203  1.6918 -0.3493 -2.5484
    9MPD2     N14232   1.614   1.466  10.960  0.4623  0.2373 -0.0388
    9MPD2    H514233   1.610   1.409  10.877 -3.1225 -0.2152  0.4672
    9MPD2    N114234   1.812   1.498  11.416  0.8212  0.3250 -0.6435
    9MPD2    H714235   1.847   1.444  11.495 -3.0601  0.1825  0.9611
    1MPD1     C14236   4.259   0.778  16.097 -0.0381 -0.0161  0.7267
    1MPD1    C114237   4.142   0.711  16.112  0.6235 -0.0080  0.1927
    1MPD1    C214238   4.078   0.728  16.235 -0.4383 -0.1513 -0.5094
    1MPD1    C314239   4.128   0.822  16.329  0.6589 -0.1962 -1.1451
    1MPD1    C414240   4.242   0.896  16.304  0.1607  0.8211  0.1095
    1MPD1    C514241   4.303   0.879  16.179 -0.0594 -0.1822 -0.8456
    1MPD1     H14242   3.995   0.664  16.260  0.8636 -1.5070  0.3729
    1MPD1    H114243   4.276   0.980  16.362 -2.4030  1.4446  0.7208
    1MPD1    H214244   4.311   0.767  16.002  1.2828  0.2930  1.4135
    1MPD1    H314245   4.393   0.937  16.162 -0.5615  0.6328 -0.7048
    1MPD1     N14246   4.064   0.840  16.453 -0.4908  0.2887  0.5285
    1MPD1    H514247   4.090   0.924  16.505  0.3179 -0.6138  1.5655
    1MPD1    N114248   4.101   0.613  16.023 -0.0284  0.2472  0.6362
    1MPD1    H614249   4.003   0.588  16.034 -0.1416 -0.5874 -2.2137
    1MPD1    H714250   4.110   0.647  15.928  1.4836  1.9877  1.4066
    2MPD1     C14251   3.610   0.506  17.404 -0.3496  1.0638  0.5956
    2MPD1    C114252   3.628   0.641  17.405 -0.4489 -0.0216  0.4465
    2MPD1    C214253   3.683   0.690  17.290  0.4344  0.3415  0.9928
    2MPD1    C314254   3.705   0.624  17.175 -0.6191 -0.4267  0.5207
    2MPD1    C414255   3.671   0.488  17.176 -0.2415  0.5069  0.4947
    2MPD1    C514256   3.618   0.431  17.291 -0.5065 -0.3666 -0.0884
    2MPD1     H14257   3.706   0.795  17.297  0.1472  0.3677  1.4991
    2MPD1    H114258   3.699   0.421  17.096  0.9738 -0.2779  1.5609
    2MPD1    H214259   3.581   0.462  17.498 -0.1323 -1.7403 -0.6561
    2MPD1    H314260   3.606   0.324  17.290  0.9598 -0.5072 -1.6462
    2MPD1     N14261   3.770   0.699  17.067  0.1055  0.4835 -0.4298
    2MPD1    H514262   3.804   0.789  17.097  1.5946 -0.0180 -0.6296
    2MPD1    N114263   3.638   0.717  17.525  0.8885  0.5929  0.6022
    2MPD1    H614264   3.628   0.817  17.510  2.2312  0.6251 -0.0098
    2MPD1    H714265   3.556   0.688  17.578 -0.3309  0.7253 -1.2160
    3TCq2    C114266   3.803   0.652  16.938  0.0500 -0.3288  0.5229
    3TCq2    O214267   3.762   0.549  16.885  0.8425  0.3412  0.7147
    3TCq2    C214268   3.867   0.752  16.854  0.9098 -0.0149 -0.7062
    3TCq2    C314269   3.882   0.882  16.897 -0.4625  0.0953 -0.0945
    3TCq2    C414270   3.925   0.974  16.802 -0.7142  0.0293  0.4446
    3TCq2    C514271   3.934   0.939  16.673  0.7308 -0.3678 -0.8427
    3TCq2    C614272   3.930   0.805  16.639  0.2758  0.6056 -0.0011
    3TCq2    C714273   3.893   0.707  16.724  0.1538 -0.6678  0.1102
    3TCq2    C814274   3.972   0.757  16.504  0.1025  0.3584  0.2142
    3TCq2    O414275   3.933   0.646  16.472  0.2238  0.0138 -0.2135
    3TCq2    C914276   3.926   1.116  16.840  0.4705 -0.2559 -0.1917
    3TCq2    O514277   3.967   1.195  16.749  0.4002  0.1204  0.1685
    3TCq2    O614278   3.882   1.137  16.955  0.1225 -0.2233 -0.4107
    3TCq2    H214279   3.861   0.909  17.000  0.7963  0.2117  0.1337
    3TCq2    H314280   3.973   1.013  16.604 -0.5222  0.1951 -0.9313
    3TCq2    H414281   3.879   0.604  16.694  1.0403 -0.3692 -1.2743
    1TCq1    O114282   2.751   3.988  12.579 -0.4421  0.0192  0.5266
    1TCq1    C114283   2.670   4.067  12.662 -0.5153 -0.2735  0.0958
    1TCq1    O214284   2.569   4.132  12.623  0.6410 -0.9866  0.0227
    1TCq1    C214285   2.720   4.050  12.798 -0.4298 -0.2710  0.7082
    1TCq1    C314286   2.628   4.032  12.895  0.3943  0.5765 -0.9460
    1TCq1    C414287   2.669   3.981  13.018  0.7310 -0.3051  0.1110
    1TCq1    C514288   2.805   3.965  13.048  0.1313 -1.0381 -0.4187
    1TCq1    C614289   2.890   3.995  12.949 -0.0572 -0.5010  0.5304
    1TCq1    C714290   2.852   4.030  12.821 -0.0936  0.1506  0.2725
    1TCq1    C814291   3.031   4.006  12.986  0.8302  0.1444  0.4928
    1TCq1    O414292   3.111   4.029  12.898 -0.3807 -0.3462 -0.3242
    1TCq1    C914293   2.574   3.951  13.123 -0.2563  0.2752  0.1713
    1TCq1    O514294   2.457   3.968  13.089  0.3743 -0.3697 -0.4123
    1TCq1    O614295   2.614   3.928  13.239  0.0186 -0.1128 -0.5513
    1TCq1    H114296   2.822   3.938  12.622 -0.5910  2.3812  3.4948
    1TCq1    H214297   2.522   4.044  12.877  0.2405 -0.3514 -0.6838
    1TCq1    H314298   2.837   3.906  13.132 -0.2435  2.0839  1.9249
    1TCq1    H414299   2.922   4.052  12.741  1.2308  1.5905  1.8454
    2MPD2     C14300   3.297   3.987  13.119 -0.1306 -0.4916 -0.1069
    2MPD2    C114301   3.172   4.003  13.187 -0.6905  0.2713  0.1464
    2MPD2    C214302   3.167   3.991  13.325 -0.2059 -0.0652  0.3665
    2MPD2    C314303   3.284   3.986  13.400 -0.4134  0.1820  0.7417
    2MPD2    C414304   3.402   3.974  13.332  0.7585 -0.0592  0.0596
    2MPD2    C514305   3.408   3.981  13.196  0.3222  0.3255 -0.7565
    2MPD2     H14306   3.071   3.986  13.375 -0.1977  0.2290  0.4135
    2MPD2    H114307   3.500   3.979  13.379  0.3769  0.6154  0.7856
    2MPD2    H214308   3.311   3.991  13.012  1.0792  1.6805  0.1202
    2MPD2    H314309   3.506   3.975  13.151  1.6018  0.3682  2.0039
    2MPD2     N14310   3.267   3.980  13.536 -0.3534  0.2796  0.7817
    2MPD2    H514311   3.172   3.989  13.571  0.0156 -0.9764  2.1091
    2MPD2    N114312   3.045   4.006  13.121  0.6470  0.2432  0.4818
    2MPD2    H714313   2.966   4.006  13.185 -0.3522 -0.8311 -0.7393
    3TCq1    O114314   3.103   4.234  14.083  0.6733  0.0506 -0.2162
    3TCq1    C114315   3.084   4.162  13.967 -0.4201  0.3186 -0.3837
    3TCq1    O214316   2.999   4.169  13.878 -0.9009  0.1745 -0.1208
    3TCq1    C214317   3.216   4.095  13.934 -0.2482  1.1537 -0.8156
    3TCq1    C314318   3.295   4.043  14.033  0.6624 -0.6456  0.2603
    3TCq1    C414319   3.389   3.946  13.999  0.6209  0.8154  0.0514
    3TCq1    C514320   3.400   3.908  13.870 -0.4729 -0.9945 -0.0776
    3TCq1    C614321   3.323   3.968  13.772 -0.0868  0.4431  0.5366
    3TCq1    C714322   3.232   4.062  13.802  0.3648  0.4898  0.3757
    3TCq1    C814323   3.365   3.950  13.633 -0.2534 -0.0973 -0.8625
    3TCq1    O414324   3.470   3.891  13.618 -0.3037 -0.1802  0.4208
    3TCq1    C914325   3.478   3.887  14.097  0.1270 -0.1074  0.2886
    3TCq1    O514326   3.587   3.826  14.066 -0.0402 -0.5943  0.6092
    3TCq1    O614327   3.466   3.931  14.214 -0.6952  0.0772 -0.4376
    3TCq1    H114328   3.196   4.248  14.110  0.1985  4.8989 -1.0961
    3TCq1    H214329   3.272   4.052  14.138 -0.1094 -4.1889  0.4202
    3TCq1    H314330   3.462   3.823  13.843  0.1986 -1.0881  1.7318
    3TCq1    H414331   3.167   4.106  13.727 -0.0608 -0.9153 -0.0679
    1MPD2     C14332   2.656   0.217  15.174  0.0113  0.5245 -0.4240
    1MPD2    C114333   2.539   0.163  15.208 -0.0544  0.4176 -0.0142
    1MPD2    C214334   2.471   0.078  15.118 -0.1312 -0.7905 -0.2765
    1MPD2    C314335   2.522   0.049  14.996 -0.2010  0.4790 -0.5346
    1MPD2    C414336   2.637   0.109  14.963  0.5431  0.5282 -0.0670
    1MPD2    C514337   2.704   0.189  15.051 -0.1332  0.3420 -0.3019
    1MPD2     H14338   2.372   0.046  15.148 -1.2892  0.2664 -2.9255
    1MPD2    H114339   2.665   0.098  14.858  1.1909 -1.0293  0.2717
    1MPD2    H214340   2.727   0.265  15.240  0.4699  1.1389 -1.3709
    1MPD2    H314341   2.800   0.224  15.015 -0.8230  2.1927 -0.3600
    1MPD2     N14342   2.447   4.690  14.912 -0.6764  0.7621  0.5104
    1MPD2    H514343   2.361   4.666  14.960 -0.2555 -0.7642  0.4768
    1MPD2    N114344   2.496   0.197  15.341  0.4783 -0.0393  0.2648
    1MPD2    H714345   2.541   0.273  15.392  1.2582  0.1591 -0.7079
    2TMC3    C114346   2.342   0.208  15.510  0.1719  0.1894 -0.0148
    2TMC3    C214347   2.267   0.122  15.578 -0.2805 -0.6897 -0.9186
    2TMC3    C314348   2.139   0.157  15.619  0.9470 -0.9265  0.1411
    2TMC3    C414349   2.299   0.338  15.485 -0.8944 -0.0397  0.1916
    2TMC3    C514350   2.174   0.366  15.535 -0.5954  0.5916  0.4875
    2TMC3    C614351   2.092   0.283  15.598 -0.1031  0.4328  0.4668
    2TMC3     C14352   2.383   0.141  15.393 -0.9504  0.0368 -0.2675
    2TMC3     O14353   2.313   0.044  15.362  0.0531 -0.3805  0.3248
    2TMC3     H14354   2.307   0.021  15.577  0.2600 -0.5020  0.4931
    2TMC3    H114355   2.352   0.406  15.420 -0.7036 -1.7901 -1.4934
    2TMC3    H214356   1.990   0.305  15.625 -0.0012  1.4889 -0.0314
    2TMC3    C714357   2.096   0.447  15.447  0.5663  0.6303 -0.0753
    2TMC3    C814358   2.031   0.075  15.580 -0.0712  0.2953  0.6651
    2TMC3    O114359   1.989   0.393  15.410 -0.7136 -0.5042 -0.6947
    2TMC3    O214360   1.938   0.080  15.660 -0.0029 -0.4425  0.2589
    3TCq1    O114361   1.885   1.633  15.580 -0.5224 -0.1989 -0.6486
    3TCq1    C114362   1.978   1.594  15.669  0.2139 -0.4269  0.4056
    3TCq1    O214363   1.947   1.595  15.787 -0.1699 -0.5191  0.0281
    3TCq1    C214364   2.047   1.472  15.628 -0.3549 -0.2888 -0.0370
    3TCq1    C314365   2.133   1.432  15.723  0.5145  0.2801 -0.3557
    3TCq1    C414366   2.191   1.313  15.710  0.1158 -0.4827  0.1328
    3TCq1    C514367   2.151   1.228  15.609  0.6092  0.5648  0.1770
    3TCq1    C614368   2.045   1.262  15.525 -0.1792  0.1047  0.2718
    3TCq1    C714369   1.985   1.387  15.539  0.0113  0.1847  0.3300
    3TCq1    C814370   1.969   1.167  15.443  0.1135 -0.5431  0.1500
    3TCq1    O414371   1.851   1.194  15.424  0.7811  0.2371 -0.0480
    3TCq1    C914372   2.288   1.265  15.808 -0.9743 -0.0513  0.3293
    3TCq1    O514373   2.339   1.150  15.788 -0.7820 -0.0855  0.2580
    3TCq1    O614374   2.329   1.346  15.886  0.4299  0.0207  0.5788
    3TCq1    H114375   1.917   1.629  15.487 -4.5396  0.5611 -2.0778
    3TCq1    H214376   2.159   1.502  15.802 -1.5064 -0.9270  1.3871
    3TCq1    H314377   2.192   1.128  15.615 -1.1901 -0.0411  2.1462
    3TCq1    H414378   1.917   1.412  15.459  0.5257 -1.5711 -0.6618
    4MPD2     C14379   1.854   0.894  15.415  1.0103  0.1663 -0.0465
    4MPD2    C114380   1.988   0.918  15.425  0.2063  0.6011  0.2205
    4MPD2    C214381   2.068   0.807  15.443  0.2069  0.2702  0.2181
    4MPD2    C314382   2.017   0.680  15.440 -0.3125 -1.6618  0.4982
    4MPD2    C414383   1.882   0.659  15.430 -0.3134 -0.1925  0.4698
    4MPD2    C514384   1.802   0.765  15.422  0.6611 -0.2042  0.2323
    4MPD2     H14385   2.176   0.818  15.453  0.3721 -1.2241  0.0216
    4MPD2    H114386   1.834   0.562  15.420  0.2200 -0.4010 -0.0768
    4MPD2    H214387   1.783   0.974  15.400  2.0267  0.7804 -1.5333
    4MPD2    H314388   1.694   0.761  15.431  0.8015 -1.0355  1.6689
    4MPD2     N14389   2.122   0.581  15.461  0.2220  0.1210  0.0657
    4MPD2    H514390   2.216   0.607  15.491  1.0861 -0.2070 -2.3026
    4MPD2    N114391   2.043   1.050  15.439  0.3839  0.5719  0.0717
    4MPD2    H714392   2.145   1.050  15.439  0.3826 -0.0028 -0.4304
    5TMC2    C114393   2.180   4.493  14.869  0.3996  0.2496 -0.2814
    5TMC2    C214394   2.219   4.363  14.870 -0.0265  0.3749 -0.0126
    5TMC2    C314395   2.333   4.340  14.796  0.1502 -0.0815 -0.6934
    5TMC2    C414396   2.251   4.593  14.807 -0.2336  0.0949  0.1791
    5TMC2    C514397   2.373   4.566  14.746  0.4642  0.1815  0.0784
    5TMC2    C614398   2.410   4.431  14.727 -0.0113 -0.1728  0.4567
    5TMC2     C14399   2.136   4.545  14.997  0.2791 -0.3441  0.0041
    5TMC2     O14400   2.208   4.634  15.034 -0.4837 -0.6672  0.3253
    5TMC2     H14401   2.173   4.280  14.922  0.9348  0.4296  0.9184
    5TMC2    H114402   2.213   4.694  14.812 -1.3054 -0.2820 -0.4543
    5TMC2    H214403   2.498   4.407  14.669  1.4678 -1.6648  3.2950
    5TMC2    C714404   2.479   4.653  14.784  0.0184 -0.5982 -0.6890
    5TMC2    C814405   2.347   4.204  14.742  0.0763  1.2342 -0.4831
    5TMC2    O114406   2.581   4.661  14.715  0.4109 -0.1186 -0.3214
    5TMC2    O214407   2.354   4.098  14.801  0.6729 -0.5920 -0.8252
    5TMC2    O514408   2.329   4.206  14.605 -0.3688  0.0930  0.5571
    5TMC2    H514409   2.299   4.287  14.557 -3.0456 -0.3233  1.5449
    6MPD2     C14410   1.841   4.645  15.408 -0.3437 -0.1840 -0.1372
    6MPD2    C114411   1.971   4.678  15.377 -0.3954  0.1923 -0.5510
    6MPD2    C214412   2.027   4.618  15.266  0.2099 -0.3942  0.0112
    6MPD2    C314413   1.955   4.551  15.171  0.4897 -0.2242  0.5004
    6MPD2    C414414   1.829   4.508  15.205  1.0183  0.5605  0.0850
    6MPD2    C514415   1.776   4.560  15.322  0.1007 -0.2368 -0.2245
    6MPD2     H14416   2.134   4.635  15.257  0.2781 -1.7004 -1.6381
    6MPD2    H114417   1.768   4.451  15.137  1.6086 -0.8728  0.7661
    6MPD2    H214418   1.788   4.693  15.489 -1.1021  2.2672 -2.0905
    6MPD2    H314419   1.672   4.544  15.347  0.1371 -1.0023 -0.5610
    6MPD2     N14420   2.011   4.515  15.046  0.2983  0.3532  0.5695
    6MPD2    H514421   1.950   4.463  14.983 -0.1783  1.9714 -0.3037
    6MPD2    N114422   2.055   0.033  15.453  0.1239 -0.3081 -0.4570
    6MPD2    H714423   2.151   0.051  15.426 -0.3378  0.2361 -1.7273
  945NH4     N114424   1.886   3.618  11.064 -1.0603 -0.0966  0.1869
  945NH4     H214425   1.944   3.557  11.126  0.0340  1.4787  0.6949
  945NH4     H314426   1.807   3.572  11.015 -0.7902 -0.7958  0.4003
  945NH4     H414427   1.944   3.650  10.984  0.7112 -0.4178  1.3430
  945NH4     H514428   1.852   3.700  11.118  0.7681  1.5458 -1.1642
  946SOD     NA14429   2.062   1.006  14.715 -0.3323  0.1409 -0.5806
  947SOD     NA14430   4.095   0.830   3.322  0.5804  0.3138  0.2622
  948SOD     NA14431   0.988   0.034   3.580  0.2715 -0.4410 -0.5418
  949SOD     NA14432   3.287   2.745   9.214 -0.1241  0.3173  0.4248
  950SOD     NA14433   3.863   3.067   1.436 -0.2364  0.3510 -0.1553
  951SOD     NA14434   3.034   4.458  11.207  0.2902 -0.7975 -0.2010
  952SOD     NA14435   0.652   4.116   1.307  0.6776 -0.3058  0.0445
  953SOD     NA14436   0.195   3.484   1.686 -0.5924 -0.0670  0.3322
  954SOD     NA14437   3.976   3.546  12.650 -0.1391  0.4260  0.1850
  955SOD     NA14438   0.853   0.477   7.248 -0.1653  0.1135  0.0107
  956SOD     NA14439   1.418   4.493  14.126 -0.0091  0.0079 -0.6104
  957SOD     NA14440   3.353   0.119  11.430 -0.2093  0.3426  0.0435
  958SOD     NA14441   0.234   3.264   1.387 -0.0083  0.0212 -0.1756
  959SOD     NA14442   3.188   1.167   2.471 -0.6437  0.1434 -0.0855
  960SOD     NA14443   2.546   1.160  15.714  0.2473 -0.1417 -0.1713
  961SOD     NA14444   2.765   3.545  10.528  0.1625  0.1656  0.1498
  962SOD     NA14445   4.606   4.156  14.962 -0.6435 -0.0143  0.0586
  963SOD     NA14446   2.024   3.207   2.399  0.2602  0.0034 -0.2864
  964SOD     NA14447   2.031   3.636  10.687 -0.2002 -0.0272 -0.4937
  965SOD     NA14448   0.929   1.340   2.323  0.2758 -0.0996 -0.7180
  966SOD     NA14449   1.817   0.018   7.146 -0.4822  0.3095  0.1782
  967SOD     NA14450   2.404   3.974  13.307  0.3458  0.8770  0.2569
  968SOD     NA14451   1.343   2.231  11.500 -0.3376 -0.1332  0.6906
  969SOD     NA14452   3.816   3.599  13.024 -0.1158 -0.2219 -0.5093
  970SOD     NA14453   4.691   3.211   4.471  0.4402 -0.0962 -0.1823
  971SOD     NA14454   3.647   4.117  11.880 -0.4213 -0.3379  0.3165
  972SOD     NA14455   0.075   4.020   9.185 -0.4356  0.5687  0.3484
  973SOD     NA14456   1.567   4.413  10.304  0.0228  0.4699 -0.0644
  974SOD     NA14457   3.504   4.335  12.048 -0.3024 -0.9756  0.0841
  975SOD     NA14458   0.213   2.650  13.387  0.8800  0.0508 -0.5197
  976SOD     NA14459   0.543   0.111  13.345 -0.2461 -0.5435  0.5530
  977SOD     NA14460   0.967   0.356  12.985  0.1250  0.4205 -0.0913
  978SOD     NA14461   3.304   4.005  11.811 -0.3767 -0.1763  0.4197
  979SOD     NA14462   2.515   2.808  16.849 -0.6656 -0.0739 -0.4246
  980SOD     NA14463   2.845   4.141  15.432 -0.0351 -0.2952  0.1329
  981SOD     NA14464   3.040   3.905  11.568  0.1415  0.5324  0.6357
  982SOD     NA14465   2.999   0.799   0.892 -0.1425  0.3616  0.0631
  983SOD     NA14466   0.879   4.239   0.812  0.3980 -0.0732 -0.3295
  984SOD     NA14467   3.833   1.522  17.117 -0.8294  0.1900 -0.0853
  985SOD     NA14468   1.686   0.072  11.716 -0.2150 -0.5880 -0.3648
  986SOD     NA14469   3.168   0.837  16.498  0.1446 -0.1671 -0.1440
  987SOD     NA14470   4.202   2.179  17.676  0.2406 -0.4532  0.7294
  988SOD     NA14471   3.205   0.534   0.859  0.4547  0.4663 -0.0553
  989SOD     NA14472   0.027   4.379  17.117 -0.0526 -0.2074 -0.5120
  990SOD     NA14473   2.461   3.585  10.482 -0.2489  0.2932  0.0971
  991SOD     NA14474   4.485   1.738  11.402 -0.5125 -0.1676  0.3132
  992SOD     NA14475   2.105   3.317  15.320  0.1174 -0.2278 -0.1984
  993SOD     NA14476   3.993   3.643  14.382 -0.0656  0.5470  0.1682
  994SOD     NA14477   2.107   3.720  13.189 -0.1020  0.0913 -0.0874
  995SOD     NA14478   3.747   3.796  11.329  0.2903 -0.0694  0.2674
  996SOD     NA14479   2.628   3.760  13.373 -0.1792  0.2686  0.1584
  997SOD     NA14480   4.195   3.545   4.734 -0.1591  0.5343 -0.0960
  998SOD     NA14481   2.795   3.917   7.804  0.1607  0.0119  0.1608
  999SOD     NA14482   3.246   3.060   6.684 -0.1377  0.3850 -0.2246
 1000SOD     NA14483   4.658   2.489  13.618 -0.0402 -0.0393 -0.5670
 1001SOD     NA14484   3.755   3.863  14.206 -0.0184  0.6385 -0.5026
 1002SOD     NA14485   0.337   4.388  15.194  0.0666  0.0770 -0.3475
 1003SOD     NA14486   3.978   1.247  11.147 -0.1817 -0.0523 -0.6696
 1004SOD     NA14487   3.751   3.673   3.263  0.3508 -0.1517  0.0584
 1005SOD     NA14488   4.493   1.008  15.544 -0.3687  0.4592 -0.3514
 1006SOD     NA14489   1.209   2.500  13.860 -0.4544  0.0856  0.0162
 1007SOD     NA14490   2.684   3.990  10.732 -0.4243 -0.0661 -0.0069
 1008SOD     NA14491   2.374   3.775  10.724 -0.0096  0.1668 -0.4649
 1009SOD     NA14492   4.541   0.458  11.167 -0.3124  0.0080  0.0325
 1010SOD     NA14493   2.759   4.276  10.630 -0.0945  0.8240 -0.0952
 1011SOL     OW14494   0.471   1.520   6.179  0.4475  0.1714 -0.1385
 1011SOL    HW114495   0.422   1.558   6.252 -0.8197  1.3620 -1.5931
 1011SOL    HW214496   0.530   1.591   6.152 -0.0216  1.0343  1.1355
 1012SOL     OW14497   1.020   0.807   5.981  0.2655 -0.3924 -0.2529
 1012SOL    HW114498   1.044   0.865   5.909 -2.0907  0.5072 -0.3083
 1012SOL    HW214499   0.931   0.840   5.994  0.5831  0.1019  0.6888
 1013SOL     OW14500   3.581   4.516  16.389  0.2657  0.0018 -0.0481
 1013SOL    HW114501   3.542   4.526  16.302  0.6707  1.2501 -0.0868
 1013SOL    HW214502   3.604   4.424  16.374  1.8458  0.5324 -0.9123
 1014SOL     OW14503   4.462   2.944   5.789 -0.0475 -0.3424 -0.0174
 1014SOL    HW114504   4.479   2.850   5.776 -1.4140 -0.4960 -0.7199
 1014SOL    HW214505   4.549   2.981   5.773  0.0264  0.0019  1.2011
 1015SOL     OW14506   3.017   1.853   9.026  0.3422 -0.1507 -0.4459
 1015SOL    HW114507   3.014   1.759   9.011  1.8115 -0.4287  0.9565
 1015SOL    HW214508   3.096   1.851   9.079  1.4257  0.8244 -2.0276
 1016SOL     OW14509   4.193   0.766  17.109  0.1095  0.2918  0.1247
 1016SOL    HW114510   4.170   0.677  17.081  3.9219  0.0744 -2.3208
 1016SOL    HW214511   4.261   0.801  17.051 -0.1875 -0.1747 -0.5143
 1017SOL     OW14512   4.349   1.316   6.581  0.0439  0.4755 -0.4017
 1017SOL    HW114513   4.295   1.252   6.626 -0.3994  0.5693 -0.7933
 1017SOL    HW214514   4.395   1.361   6.652  0.3571 -2.5408  1.2831
 1018SOL     OW14515   3.596   2.864  16.490 -0.7234 -0.0449 -0.0053
 1018SOL    HW114516   3.636   2.805  16.553  1.4497 -0.7205 -2.0247
 1018SOL    HW214517   3.672   2.867  16.433 -1.8667 -0.7710 -1.5828
 1019SOL     OW14518   3.959   0.872  17.243  0.0544 -0.1664  0.2932
 1019SOL    HW114519   4.029   0.842  17.185 -3.6936  0.7191 -4.6932
 1019SOL    HW214520   3.974   0.826  17.325 -2.4515 -0.6633  0.4832
 1020SOL     OW14521   1.275   3.419   3.601  0.2941  0.5832 -0.3867
 1020SOL    HW114522   1.346   3.402   3.540  0.6692  2.4116 -0.4365
 1020SOL    HW214523   1.202   3.442   3.543 -1.1241  3.0055  2.3491
 1021SOL     OW14524   3.653   2.400   2.187 -0.6449  0.2661 -0.0239
 1021SOL    HW114525   3.679   2.332   2.126  1.1079  1.1289 -0.2459
 1021SOL    HW214526   3.623   2.470   2.129  0.5607  0.5499 -0.3007
 1022SOL     OW14527   3.982   1.336  17.094 -0.8661 -0.0938  0.1663
 1022SOL    HW114528   3.942   1.260  17.052 -2.2377  0.4187  0.5475
 1022SOL    HW214529   4.033   1.295  17.164  1.8643  0.4280 -1.4990
 1023SOL     OW14530   0.886   1.298   8.361 -0.3264 -0.0324  0.3288
 1023SOL    HW114531   0.835   1.366   8.404  0.1655 -0.4909  1.6100
 1023SOL    HW214532   0.938   1.348   8.298 -1.3070 -1.3135 -1.5105
 1024SOL     OW14533   4.251   2.634   2.298 -0.9440  0.5650 -0.6239
 1024SOL    HW114534   4.336   2.591   2.290 -2.2036 -2.0104 -0.4278
 1024SOL    HW214535   4.204   2.579   2.235  1.1645  0.8501 -2.4511
 1025SOL     OW14536   1.654   1.545   1.783  0.0312 -0.1741  0.4563
 1025SOL    HW114537   1.592   1.501   1.842 -2.5425  0.7863 -1.5411
 1025SOL    HW214538   1.732   1.493   1.804 -1.1441 -0.8314  3.1967
 1026SOL     OW14539   3.990   4.273   0.548  0.0721  0.4519 -0.0362
 1026SOL    HW114540   4.042   4.250   0.471  1.3733 -1.0436  1.3039
 1026SOL    HW214541   3.908   4.294   0.503  0.5311  1.0311 -0.6019
 1027SOL     OW14542   2.645   4.518   1.635 -0.0252 -0.6412 -0.4399
 1027SOL    HW114543   2.657   4.608   1.604 -1.5402  0.0897  1.0873
 1027SOL    HW214544   2.713   4.471   1.587  1.1411  0.1911  0.4249
 1028SOL     OW14545   1.062   4.299   8.482  0.1605  0.2442 -0.3939
 1028SOL    HW114546   1.000   4.236   8.446  0.4903 -0.2168 -0.1500
 1028SOL    HW214547   1.023   4.380   8.450  1.1275  1.5148  1.6766
 1029SOL     OW14548   0.263   0.330  14.036 -0.0295  0.0088 -0.6372
 1029SOL    HW114549   0.169   0.324  14.021  0.1818 -0.7946 -1.6241
 1029SOL    HW214550   0.263   0.278  14.116  0.3225 -0.1486 -0.7390
 1030SOL     OW14551   3.772   3.635   5.959  0.7445 -0.1650  0.1525
 1030SOL    HW114552   3.827   3.677   6.026 -0.3214  0.2311  0.7839
 1030SOL    HW214553   3.842   3.577   5.929  1.9190  1.9483 -1.2018
 1031SOL     OW14554   3.629   4.471   2.115 -0.5926  0.0856  0.1556
 1031SOL    HW114555   3.637   4.385   2.157  0.1294 -0.3675 -0.8899
 1031SOL    HW214556   3.598   4.443   2.029  1.4578 -2.1135  0.1338
 1032SOL     OW14557   1.709   2.373   6.147 -0.3510 -0.3920 -0.1776
 1032SOL    HW114558   1.802   2.351   6.138 -0.4818 -1.1241  0.2723
 1032SOL    HW214559   1.682   2.314   6.217  1.1543 -1.4287 -0.4699
 1033SOL     OW14560   0.975   0.141  16.267 -0.1903 -0.4321 -0.4887
 1033SOL    HW114561   0.978   0.226  16.223  0.0351  0.0408  0.4409
 1033SOL    HW214562   0.893   0.107  16.233  0.0618 -0.0124 -1.5021
 1034SOL     OW14563   2.861   4.382  10.852  0.0891 -0.3586 -0.0257
 1034SOL    HW114564   2.854   4.474  10.877 -0.8886  0.0159 -1.6817
 1034SOL    HW214565   2.950   4.362  10.881  0.0658  1.0854  0.9973
 1035SOL     OW14566   2.059   3.846   7.114 -0.6600  0.1985  0.7320
 1035SOL    HW114567   2.008   3.817   7.038  0.9405 -0.6491 -0.0167
 1035SOL    HW214568   2.081   3.939   7.102 -0.9817  0.2643  0.6650
 1036SOL     OW14569   4.669   0.322   5.876  0.0965  0.2240  0.1930
 1036SOL    HW114570   4.708   0.245   5.836 -0.3155  1.0923 -1.9172
 1036SOL    HW214571   0.016   0.371   5.914  1.3217 -1.1457 -0.4246
 1037SOL     OW14572   0.746   2.967   2.748  0.3479 -0.1769 -0.6882
 1037SOL    HW114573   0.814   2.907   2.777  0.6122  0.5816  0.2739
 1037SOL    HW214574   0.785   3.010   2.672  0.1484 -0.5241 -0.9918
 1038SOL     OW14575   2.542   4.629   6.759  0.2795  0.1090 -0.0342
 1038SOL    HW114576   2.505   4.556   6.809  1.5975 -0.8300 -0.4198
 1038SOL    HW214577   2.630   4.594   6.743 -0.5441 -1.3012 -1.5832
 1039SOL     OW14578   4.460   2.566   9.509 -0.4385  0.1102  0.4555
 1039SOL    HW114579   4.387   2.517   9.472  1.4377 -1.7917 -0.7229
 1039SOL    HW214580   4.421   2.623   9.575 -2.2793 -0.1905 -0.3635
 1040SOL     OW14581   1.326   0.595   8.514  0.2624  0.3112  0.0187
 1040SOL    HW114582   1.363   0.654   8.448  0.0362 -1.3102 -1.5326
 1040SOL    HW214583   1.233   0.608   8.498  0.3316  2.5731  1.3883
 1041SOL     OW14584   0.624   0.581   8.795  0.6919  0.2711 -0.2804
 1041SOL    HW114585   0.560   0.650   8.812  0.8715  0.0575  1.2675
 1041SOL    HW214586   0.688   0.625   8.739  1.3111 -0.4752 -0.1580
 1042SOL     OW14587   4.654   0.547  11.361 -0.8378  0.2787  0.0472
 1042SOL    HW114588   0.019   0.517  11.362 -0.3744  1.7198  1.1954
 1042SOL    HW214589   4.613   0.460  11.370 -1.1505  0.5746  1.5549
 1043SOL     OW14590   2.639   0.895   9.357  0.1703  0.5260 -0.4627
 1043SOL    HW114591   2.732   0.878   9.371  0.3651  0.6227 -1.6134
 1043SOL    HW214592   2.628   0.848   9.274 -2.4518  1.0166 -0.4058
 1044SOL     OW14593   3.680   2.940  10.759 -0.0338  0.4806  0.3132
 1044SOL    HW114594   3.699   2.863  10.813  0.0685 -0.5479 -1.1907
 1044SOL    HW214595   3.756   2.933  10.701  1.1683 -2.3427  2.2322
 1045SOL     OW14596   2.007   3.757   8.424 -0.3878 -0.6467 -0.2011
 1045SOL    HW114597   2.076   3.690   8.424 -0.1436 -0.4021  0.8517
 1045SOL    HW214598   1.979   3.737   8.335 -1.3685 -1.7597  0.3341
 1046SOL     OW14599   4.509   2.490  10.632 -0.3945 -0.0876  0.4033
 1046SOL    HW114600   4.477   2.442  10.708  1.0863  0.8912  1.6505
 1046SOL    HW214601   4.431   2.490  10.577 -0.1456 -0.5494  0.0491
 1047SOL     OW14602   1.322   1.755   8.720  0.3232  0.4931 -0.3634
 1047SOL    HW114603   1.246   1.775   8.774  0.2051  1.9426 -1.0551
 1047SOL    HW214604   1.279   1.678   8.682 -2.3237  1.4918  0.5782
 1048SOL     OW14605   0.816   3.817   6.250  0.8633 -0.4239  0.5364
 1048SOL    HW114606   0.860   3.741   6.289  2.2184 -0.4032 -0.9405
 1048SOL    HW214607   0.750   3.828   6.318  0.4126 -0.2420  0.0677
 1049SOL     OW14608   1.949   3.838   4.075  0.1681 -0.3323 -0.3046
 1049SOL    HW114609   1.939   3.917   4.128 -1.7628 -0.3801 -0.5902
 1049SOL    HW214610   1.968   3.781   4.150  0.8573 -1.4994 -1.3648
 1050SOL     OW14611   4.095   1.695  17.613 -0.2623 -0.2651 -0.0139
 1050SOL    HW114612   4.032   1.767  17.604 -0.9344 -0.8145  0.2995
 1050SOL    HW214613   4.032   1.630  17.643  0.0526 -0.5643 -0.0070
 1051SOL     OW14614   1.612   1.044   8.164 -0.2092  0.3081  0.5740
 1051SOL    HW114615   1.668   1.118   8.140  1.1953 -0.9446 -0.0700
 1051SOL    HW214616   1.557   1.093   8.224  1.1390 -0.3154  2.3067
 1052SOL     OW14617   0.945   0.170  16.570 -0.0772  0.5569 -0.0104
 1052SOL    HW114618   0.989   0.168  16.485 -0.4619 -2.8600 -0.1437
 1052SOL    HW214619   0.892   0.091  16.556 -1.8595  2.1825 -2.2708
 1053SOL     OW14620   3.080   0.392   5.682  0.2464  0.8438  0.0034
 1053SOL    HW114621   3.067   0.481   5.650  3.4141  1.5177  0.5661
 1053SOL    HW214622   3.175   0.386   5.689  0.2183 -1.0229 -1.1993
 1054SOL     OW14623   2.546   3.556  17.358  0.2996  0.6338 -0.4297
 1054SOL    HW114624   2.612   3.624  17.368  1.7508 -0.8754  0.2289
 1054SOL    HW214625   2.531   3.562  17.263 -0.2716  3.3411 -0.1729
 1055SOL     OW14626   3.957   1.421   4.782 -0.2017  0.3760 -0.0007
 1055SOL    HW114627   4.001   1.339   4.803  1.1412  0.3299 -2.9579
 1055SOL    HW214628   4.001   1.441   4.699 -3.5225  0.2888 -1.7965
 1056SOL     OW14629   2.480   0.821   6.731 -0.2564 -0.4838 -0.0365
 1056SOL    HW114630   2.491   0.867   6.815 -2.0806  0.0758 -0.1109
 1056SOL    HW214631   2.388   0.797   6.727 -0.7796  1.6772 -0.5580
 1057SOL     OW14632   4.477   3.090  17.693 -0.0206 -0.4792 -0.7332
 1057SOL    HW114633   4.534   3.167  17.695  1.8440 -1.8739  0.3463
 1057SOL    HW214634   4.535   3.035  17.641 -1.4873 -2.1922 -0.5446
 1058SOL     OW14635   2.663   2.144   3.645 -0.3564  0.0550 -0.3694
 1058SOL    HW114636   2.568   2.154   3.642 -0.0598  2.5930 -2.0967
 1058SOL    HW214637   2.697   2.209   3.582 -0.8641  0.8630  0.1874
 1059SOL     OW14638   0.979   1.153   2.462  0.2833  0.0841  0.2568
 1059SOL    HW114639   1.048   1.089   2.445 -0.1536 -0.5193  0.7702
 1059SOL    HW214640   0.932   1.122   2.539  0.4377 -0.0334  0.3047
 1060SOL     OW14641   2.271   1.885   8.810 -0.2435  0.3162  0.4536
 1060SOL    HW114642   2.182   1.881   8.844 -0.4124  1.5597  0.1477
 1060SOL    HW214643   2.254   1.917   8.721 -0.6085 -0.6028  0.1957
 1061SOL     OW14644   3.762   4.066   2.046  0.3800 -0.2537  0.3001
 1061SOL    HW114645   3.834   4.103   1.994  0.8009  0.7786  1.6293
 1061SOL    HW214646   3.690   4.058   1.983  1.6352 -0.6562 -1.0842
 1062SOL     OW14647   0.378   1.962  13.320  0.0414  0.2875 -0.2557
 1062SOL    HW114648   0.434   1.898  13.277 -0.5649 -1.3820  1.4079
 1062SOL    HW214649   0.316   1.895  13.349  0.0980  1.4407  2.4980
 1063SOL     OW14650   1.247   1.423  13.269 -0.5255  0.4469  0.2024
 1063SOL    HW114651   1.197   1.482  13.212  0.0659  0.5703 -0.1801
 1063SOL    HW214652   1.284   1.348  13.223  0.3354  0.0731  1.5048
 1064SOL     OW14653   3.014   2.569   9.008 -0.4367  0.4668 -0.3511
 1064SOL    HW114654   2.958   2.627   8.956 -0.5258 -2.6968 -3.7526
 1064SOL    HW214655   2.952   2.538   9.074 -0.5180  0.2410 -0.5344
 1065SOL     OW14656   2.987   1.595   2.450  0.0432 -0.5637 -0.1761
 1065SOL    HW114657   2.893   1.601   2.438 -0.4543 -0.8471  3.6282
 1065SOL    HW214658   2.991   1.518   2.507 -0.9206  1.3201  2.4374
 1066SOL     OW14659   1.584   0.309  15.173 -0.1075 -0.3264  0.3382
 1066SOL    HW114660   1.627   0.231  15.210 -0.5336 -1.0348 -0.6551
 1066SOL    HW214661   1.589   0.361  15.253  0.9784  2.2534 -1.4455
 1067SOL     OW14662   1.310   3.679  15.661  0.5176 -0.0077 -0.4796
 1067SOL    HW114663   1.347   3.636  15.584  0.2188 -1.5290  0.2335
 1067SOL    HW214664   1.245   3.732  15.614 -2.1306 -0.4267  2.7392
 1068SOL     OW14665   2.964   0.633   5.122 -0.2108  0.1947 -0.0414
 1068SOL    HW114666   2.898   0.662   5.059 -1.3212  0.6062  1.3241
 1068SOL    HW214667   2.946   0.539   5.123  0.1637  0.1134 -0.7976
 1069SOL     OW14668   1.700   1.983   1.109 -0.0546 -0.0720 -0.3341
 1069SOL    HW114669   1.642   1.981   1.185 -0.4312  1.1478 -0.5757
 1069SOL    HW214670   1.736   1.895   1.103  2.0959  0.7897  0.0217
 1070SOL     OW14671   2.000   0.335  10.853  0.0646  0.5604  0.4045
 1070SOL    HW114672   2.022   0.331  10.760 -0.9430  1.4556  0.1258
 1070SOL    HW214673   1.914   0.292  10.851  1.2333 -1.7821 -0.0203
 1071SOL     OW14674   2.790   3.674   4.425  0.1868 -0.1070  0.1381
 1071SOL    HW114675   2.842   3.745   4.387  0.0270  1.5858  3.0654
 1071SOL    HW214676   2.755   3.721   4.500  0.2429 -0.5435  0.4364
 1072SOL     OW14677   3.338   0.759   4.521  0.6355  0.1397 -0.1252
 1072SOL    HW114678   3.431   0.744   4.502  0.4483 -0.4635 -0.5573
 1072SOL    HW214679   3.350   0.782   4.613  0.7712  2.4548 -0.7233
 1073SOL     OW14680   2.429   4.133   7.167 -0.0003  0.4360  0.2308
 1073SOL    HW114681   2.484   4.203   7.201  0.5377 -0.1757  0.6391
 1073SOL    HW214682   2.486   4.076   7.115 -0.8320  0.3234 -0.5523
 1074SOL     OW14683   1.173   1.189  13.610  0.5619 -0.2605 -0.8534
 1074SOL    HW114684   1.167   1.171  13.516 -0.1184 -0.0612 -0.8466
 1074SOL    HW214685   1.132   1.109  13.642  0.8509 -0.7246 -1.6617
 1075SOL     OW14686   4.116   0.972  17.553 -0.8902  0.5123 -0.4026
 1075SOL    HW114687   4.051   0.907  17.581 -0.8917  0.9155  0.5309
 1075SOL    HW214688   4.117   1.037  17.623  1.9374 -0.0401  0.0639
 1076SOL     OW14689   2.940   2.142  13.392  0.4676 -0.3453  0.1104
 1076SOL    HW114690   2.915   2.075  13.456  0.2105 -0.5022 -0.1547
 1076SOL    HW214691   3.031   2.112  13.387  0.8535  0.4655  2.3390
 1077SOL     OW14692   1.178   0.088  11.155 -0.8599 -0.0249  0.1878
 1077SOL    HW114693   1.148   0.176  11.130  1.5290  0.2307 -1.7099
 1077SOL    HW214694   1.273   0.088  11.151 -0.9022 -0.6673 -0.7131
 1078SOL     OW14695   4.708   3.037   9.548  0.3101  0.5207 -0.2293
 1078SOL    HW114696   4.695   2.949   9.584 -0.7296  0.2695 -1.2433
 1078SOL    HW214697   0.074   3.055   9.571  0.1225 -0.1912  1.1214
 1079SOL     OW14698   3.609   2.126   9.457 -0.1541  0.3406 -0.0966
 1079SOL    HW114699   3.575   2.157   9.540  2.4598  1.5241  0.5392
 1079SOL    HW214700   3.669   2.057   9.487 -0.4701  0.8641  1.7439
 1080SOL     OW14701   4.543   1.427   2.336  0.2160 -0.0839  0.5612
 1080SOL    HW114702   4.466   1.388   2.294 -1.2778  0.8520  2.4070
 1080SOL    HW214703   4.607   1.414   2.267 -0.3329 -3.2191  0.6620
 1081SOL     OW14704   4.085   2.311   2.354 -0.3464 -0.1372  0.3563
 1081SOL    HW114705   4.102   2.392   2.306 -1.1357 -0.8529 -1.1211
 1081SOL    HW214706   4.157   2.253   2.330 -0.7165 -0.1268 -0.7582
 1082SOL     OW14707   2.922   0.961   6.081  0.0997 -0.0705 -0.2355
 1082SOL    HW114708   2.990   0.995   6.140 -2.3131 -0.0104  2.4949
 1082SOL    HW214709   2.840   1.003   6.106 -0.4872 -1.1403 -0.3669
 1083SOL     OW14710   0.456   1.743   7.712 -0.6767 -0.4319  0.0868
 1083SOL    HW114711   0.444   1.780   7.625  0.3536 -0.6244 -0.1413
 1083SOL    HW214712   0.500   1.660   7.689 -0.4733  0.5185 -2.9639
 1084SOL     OW14713   4.325   0.458  17.385 -0.1642 -0.4239  0.2433
 1084SOL    HW114714   4.351   0.385  17.329  0.5117 -0.0688  0.0866
 1084SOL    HW214715   4.254   0.481  17.326 -1.2251 -1.7488  1.0063
 1085SOL     OW14716   0.472   1.980   0.001  0.3287 -0.0182  0.1527
 1085SOL    HW114717   0.379   1.977  17.685  0.6692  0.4332 -1.4759
 1085SOL    HW214718   0.488   2.027   0.083 -0.8950  1.0486 -0.2144
 1086SOL     OW14719   2.825   4.705  14.667  0.2879  0.2586 -0.2312
 1086SOL    HW114720   2.801   0.045  14.602 -2.8343  0.6485  1.3133
 1086SOL    HW214721   2.736   4.681  14.692  0.5355  0.0858  0.4893
 1087SOL     OW14722   1.089   2.061   5.410 -0.0180 -0.5950  0.4084
 1087SOL    HW114723   1.116   2.073   5.318  1.5452 -2.1355  0.6564
 1087SOL    HW214724   1.024   2.132   5.415 -1.5927 -2.0247  0.1217
 1088SOL     OW14725   0.689   0.636  14.900  0.2719  0.1711  0.2540
 1088SOL    HW114726   0.683   0.633  14.995 -1.1805  1.7115  0.2258
 1088SOL    HW214727   0.746   0.562  14.880 -0.7921 -0.4764 -0.4028
 1089SOL     OW14728   4.282   0.660   3.225 -0.2853  0.1514 -0.7335
 1089SOL    HW114729   4.303   0.572   3.193 -0.0535 -0.5966  1.4695
 1089SOL    HW214730   4.251   0.710   3.149 -0.9964  1.6038  0.5231
 1090SOL     OW14731   3.607   4.721  12.375  0.4102 -0.0928  0.1517
 1090SOL    HW114732   3.515   0.007  12.351  0.6219 -0.3788 -0.8232
 1090SOL    HW214733   3.602   4.633  12.411  0.1173 -0.3352 -0.4748
 1091SOL     OW14734   1.078   2.091   6.208 -0.0334 -0.4970  0.5323
 1091SOL    HW114735   1.029   2.140   6.273  0.2655  1.2246 -0.5377
 1091SOL    HW214736   1.021   2.022   6.173 -1.6097 -0.2896  2.7268
 1092SOL     OW14737   0.432   4.344   5.864  0.5016  0.4060  0.6606
 1092SOL    HW114738   0.461   4.402   5.794  0.5166 -1.1919 -0.6478
 1092SOL    HW214739   0.341   4.325   5.842  1.3600 -0.3317 -2.1633
 1093SOL     OW14740   0.580   4.515   4.362 -0.7764 -0.5627 -0.1933
 1093SOL    HW114741   0.642   4.580   4.328  1.4146 -1.7512  1.4958
 1093SOL    HW214742   0.577   4.538   4.455 -1.5007 -2.5474  0.2586
 1094SOL     OW14743   0.830   0.186  12.942 -1.1106  0.1342 -0.2191
 1094SOL    HW114744   0.757   0.171  12.883 -0.6613 -1.8082 -0.2823
 1094SOL    HW214745   0.813   0.143  13.026  2.0690 -0.3841  0.1570
 1095SOL     OW14746   2.969   2.888   9.577  0.0488  0.3952  0.5843
 1095SOL    HW114747   2.920   2.806   9.588  0.6606  0.2388  2.0691
 1095SOL    HW214748   2.942   2.931   9.658 -2.0229 -0.3158  0.2778
 1096SOL     OW14749   0.119   3.379   6.148 -0.4393 -0.1929  0.1875
 1096SOL    HW114750   0.115   3.295   6.103  0.4591 -0.8188  1.2863
 1096SOL    HW214751   0.094   3.352   6.236  0.3984 -1.1213  0.1390
 1097SOL     OW14752   1.560   4.588   1.509  0.4022 -0.7665 -0.2381
 1097SOL    HW114753   1.538   4.681   1.502  1.5149 -0.4712  0.1923
 1097SOL    HW214754   1.559   4.556   1.419 -0.8880 -0.7224 -0.2278
 1098SOL     OW14755   0.785   2.601   8.183  0.1120 -0.2218  0.7201
 1098SOL    HW114756   0.816   2.545   8.112 -0.9122  2.4788 -1.8508
 1098SOL    HW214757   0.763   2.538   8.253  2.8582 -2.0375 -0.0679
 1099SOL     OW14758   4.427   2.415   5.846  0.3622 -0.0934  0.0472
 1099SOL    HW114759   4.343   2.369   5.842 -1.5417  3.2209  1.5037
 1099SOL    HW214760   4.432   2.441   5.938 -2.9125 -1.1014  0.4955
 1100SOL     OW14761   1.660   2.250  15.738  0.2520  0.3374  0.3115
 1100SOL    HW114762   1.735   2.310  15.739 -0.5545  1.3876 -1.4456
 1100SOL    HW214763   1.686   2.190  15.808 -1.9269 -0.2171  0.6485
 1101SOL     OW14764   4.127   2.048   6.169 -0.6146  0.2429  0.1760
 1101SOL    HW114765   4.211   2.087   6.143  0.6893 -1.6868  1.4735
 1101SOL    HW214766   4.153   1.958   6.189 -1.4034 -0.2472 -0.9591
 1102SOL     OW14767   2.703   0.111   5.048 -0.2711  0.4407  0.3784
 1102SOL    HW114768   2.700   0.101   4.952 -0.5632 -0.1696  0.4515
 1102SOL    HW214769   2.693   0.023   5.085  2.1332 -1.4629 -3.3840
 1103SOL     OW14770   0.884   3.467   6.266  0.0747  0.0468 -0.4580
 1103SOL    HW114771   0.854   3.496   6.180 -0.0917 -0.7067 -0.6600
 1103SOL    HW214772   0.951   3.404   6.241  0.6642 -0.2976  2.0141
 1104SOL     OW14773   0.394   1.120   6.643 -0.2340  0.5015  0.3632
 1104SOL    HW114774   0.487   1.103   6.657 -0.3938 -1.5996 -1.2087
 1104SOL    HW214775   0.370   1.137   6.734 -0.3056 -1.5277  0.7289
 1105SOL     OW14776   0.263   1.027   8.708 -0.1786 -0.4245 -0.1295
 1105SOL    HW114777   0.197   1.032   8.639  1.7110  1.4688 -1.7672
 1105SOL    HW214778   0.213   1.060   8.783 -1.3900  0.5621 -1.3905
 1106SOL     OW14779   0.876   3.384   3.800 -0.1507 -0.6224  0.0185
 1106SOL    HW114780   0.900   3.330   3.725 -1.4290  0.0549 -0.8765
 1106SOL    HW214781   0.817   3.329   3.851  0.1111 -0.2909  0.6848
 1107SOL     OW14782   3.176   2.609   5.841 -0.1799 -0.1089  0.3535
 1107SOL    HW114783   3.223   2.535   5.879 -1.2907 -0.1483  1.6638
 1107SOL    HW214784   3.133   2.575   5.762 -1.7466  0.6919  0.8505
 1108SOL     OW14785   2.460   1.743  15.179  0.1120  0.1574  0.0994
 1108SOL    HW114786   2.376   1.723  15.221 -1.1070 -0.8968 -2.8029
 1108SOL    HW214787   2.456   1.679  15.107  0.3173  0.8445 -0.5280
 1109SOL     OW14788   1.152   1.326   2.229 -0.0084 -0.6847 -0.4944
 1109SOL    HW114789   1.171   1.306   2.138 -0.4645  0.0578 -0.7532
 1109SOL    HW214790   1.237   1.350   2.265  0.1807  1.9177 -2.6954
 1110SOL     OW14791   2.922   2.353   4.433 -0.4649 -0.7481 -0.0437
 1110SOL    HW114792   2.951   2.308   4.513 -0.5909  1.1323  1.0679
 1110SOL    HW214793   3.003   2.392   4.399  0.1397 -1.4253  0.6146
 1111SOL     OW14794   0.337   4.395   8.865 -0.2478  0.2476  0.1147
 1111SOL    HW114795   0.291   4.389   8.782 -0.7756  1.0524  0.3506
 1111SOL    HW214796   0.428   4.395   8.837 -0.9162  0.0322 -2.0712
 1112SOL     OW14797   3.397   3.451   2.089  0.0050  0.1314  0.3865
 1112SOL    HW114798   3.361   3.515   2.150 -1.0401  0.5537 -0.6744
 1112SOL    HW214799   3.445   3.390   2.145 -1.1880 -0.8627  0.3229
 1113SOL     OW14800   1.016   4.545   3.868 -0.2569 -0.2469 -0.5147
 1113SOL    HW114801   0.966   4.484   3.922  0.2670 -2.3823 -2.4740
 1113SOL    HW214802   1.036   4.495   3.789 -1.5893 -3.0389  0.8973
 1114SOL     OW14803   2.932   4.597   3.757 -0.6716 -0.1829  0.2711
 1114SOL    HW114804   2.949   4.666   3.693 -2.0692  0.8813  1.0475
 1114SOL    HW214805   2.840   4.576   3.743 -0.3822 -1.7328  0.7061
 1115SOL     OW14806   3.727   2.920   2.995  0.0245  0.6922 -0.0503
 1115SOL    HW114807   3.726   2.835   2.951  0.0127  0.8611 -0.3759
 1115SOL    HW214808   3.636   2.946   2.983 -0.3296 -0.8402 -0.6701
 1116SOL     OW14809   2.497   3.812   7.259  0.6399  0.1752  0.5634
 1116SOL    HW114810   2.502   3.748   7.189  1.2568  1.4526 -0.5557
 1116SOL    HW214811   2.584   3.804   7.298  1.1330  0.2498 -0.5493
 1117SOL     OW14812   4.271   2.978  11.363 -0.3615 -0.4955  0.4076
 1117SOL    HW114813   4.275   3.071  11.340  0.1754 -0.2723  1.3933
 1117SOL    HW214814   4.212   2.992  11.438  0.2798  0.9927  0.6391
 1118SOL     OW14815   0.575   1.821   4.051 -0.3159  0.0120 -1.0522
 1118SOL    HW114816   0.501   1.775   4.010 -2.2549  1.8126  0.3733
 1118SOL    HW214817   0.552   1.900   4.003  2.8636  3.3678  2.9444
 1119SOL     OW14818   1.326   2.472   3.225  0.6577 -0.1926  0.0620
 1119SOL    HW114819   1.373   2.446   3.304 -1.1336 -0.7329  0.9540
 1119SOL    HW214820   1.240   2.486   3.265  0.2891 -1.8291 -0.1310
 1120SOL     OW14821   3.908   4.521  15.785 -0.3309  0.3005  0.3657
 1120SOL    HW114822   3.987   4.490  15.740 -1.1273 -0.8555 -0.2361
 1120SOL    HW214823   3.929   4.486  15.871 -0.7611 -2.4207 -0.6316
 1121SOL     OW14824   1.557   0.007   5.072 -0.5978  0.0414 -0.5673
 1121SOL    HW114825   1.497   4.683   5.127 -2.5437  2.6747 -0.3269
 1121SOL    HW214826   1.511   0.086   5.044 -0.7212  0.6402  1.3398
 1122SOL     OW14827   3.472   4.045  16.259 -0.7163 -0.1708  0.0612
 1122SOL    HW114828   3.447   4.015  16.172 -1.3846  1.9111 -0.4709
 1122SOL    HW214829   3.475   4.140  16.246  1.1764 -0.2558 -0.1777
 1123SOL     OW14830   2.153   1.470  13.859  0.0136  0.0066 -0.0394
 1123SOL    HW114831   2.194   1.546  13.901  0.8929 -1.4494  1.7297
 1123SOL    HW214832   2.073   1.455  13.908  0.7334  2.0535  1.7995
 1124SOL     OW14833   3.428   4.422   0.960 -0.1103 -0.4605 -0.1763
 1124SOL    HW114834   3.480   4.384   1.030 -0.9253 -0.2897  0.5318
 1124SOL    HW214835   3.365   4.350   0.955  1.1898 -1.4048 -2.6456
 1125SOL     OW14836   3.033   1.092   3.694  0.4288 -0.4011  0.0218
 1125SOL    HW114837   2.971   1.163   3.685  0.9995 -0.4863 -4.5873
 1125SOL    HW214838   3.115   1.126   3.658  0.0414 -1.3303 -1.7461
 1126SOL     OW14839   2.904   4.045  10.962  0.2510  0.2654 -0.2284
 1126SOL    HW114840   2.845   3.970  10.958 -2.0176  1.9407  1.9820
 1126SOL    HW214841   2.926   4.058  10.870 -1.4286 -1.3332 -0.8396
 1127SOL     OW14842   0.861   4.456   6.568  0.3894 -0.3403  0.1956
 1127SOL    HW114843   0.945   4.488   6.601 -0.3373  0.8277  0.8966
 1127SOL    HW214844   0.880   4.366   6.539 -0.2352 -0.3031 -0.3228
 1128SOL     OW14845   4.620   4.225  13.288 -0.0623 -0.2107 -0.4616
 1128SOL    HW114846   4.577   4.310  13.271  0.4843 -0.1023 -1.3057
 1128SOL    HW214847   4.659   4.232  13.375 -1.1132  0.1891 -0.0197
 1129SOL     OW14848   4.392   2.236  13.342  0.4735 -0.1601  0.0544
 1129SOL    HW114849   4.432   2.149  13.347 -0.0180 -0.4426 -0.8802
 1129SOL    HW214850   4.304   2.215  13.310 -0.1241 -0.9369  2.2398
 1130SOL     OW14851   2.655   2.669   2.598 -0.2907  0.1130 -0.2148
 1130SOL    HW114852   2.572   2.706   2.567 -1.7503  0.5816  4.1804
 1130SOL    HW214853   2.724   2.696   2.538 -0.1131  0.1519  0.0057
 1131SOL     OW14854   3.232   2.567   7.802  0.0079  0.1506  0.2442
 1131SOL    HW114855   3.140   2.541   7.796 -0.4735  1.9002  0.1472
 1131SOL    HW214856   3.270   2.574   7.715 -1.2939 -1.0735 -0.4303
 1132SOL     OW14857   4.315   2.727   6.990 -0.5297 -0.2103 -0.5368
 1132SOL    HW114858   4.338   2.701   7.079  0.1454  2.4794  0.0708
 1132SOL    HW214859   4.220   2.733   7.001 -0.4066  0.7683  0.0126
 1133SOL     OW14860   2.798   0.540  12.228 -0.0522 -0.1375  0.2733
 1133SOL    HW114861   2.791   0.623  12.182  2.8411 -0.3211 -0.5299
 1133SOL    HW214862   2.890   0.540  12.258  0.9415  1.8857 -2.8177
 1134SOL     OW14863   2.302   4.188   1.753  0.1518  0.3869 -0.5265
 1134SOL    HW114864   2.350   4.186   1.836 -0.8507 -1.9027  0.0177
 1134SOL    HW214865   2.357   4.246   1.701  0.9084 -1.8447 -2.1876
 1135SOL     OW14866   4.272   1.318  11.481  0.4498  0.1839 -0.1140
 1135SOL    HW114867   4.247   1.228  11.459  1.5736  0.4569 -2.4894
 1135SOL    HW214868   4.305   1.310  11.571  2.6085 -1.3274 -1.0422
 1136SOL     OW14869   0.713   2.244  12.031  0.3878  0.4828 -0.4550
 1136SOL    HW114870   0.806   2.221  12.028  0.8555  2.1263  1.1671
 1136SOL    HW214871   0.698   2.328  11.989 -0.1017  0.5823 -0.0908
 1137SOL     OW14872   0.979   1.911   2.826 -0.2822  0.4345  0.1606
 1137SOL    HW114873   0.941   1.998   2.811  1.1187  1.0672  0.2692
 1137SOL    HW214874   1.070   1.938   2.818  0.4824 -1.9486  0.9139
 1138SOL     OW14875   4.636   4.245   7.057 -0.0466 -0.6560  0.2574
 1138SOL    HW114876   4.635   4.234   7.152 -0.7324  1.4147  0.4934
 1138SOL    HW214877   4.594   4.165   7.028 -0.9685  0.1308 -0.5691
 1139SOL     OW14878   2.034   1.491   1.291  0.6982 -0.3341  0.6282
 1139SOL    HW114879   1.942   1.471   1.310  1.2689 -4.0611 -0.5513
 1139SOL    HW214880   2.029   1.584   1.314 -3.5735 -1.1804  3.2944
 1140SOL     OW14881   0.316   3.519   8.938 -0.0478  0.1176  0.1736
 1140SOL    HW114882   0.281   3.602   8.905  4.4260  1.6167 -0.8177
 1140SOL    HW214883   0.288   3.512   9.029  1.2974 -3.7890  0.2765
 1141SOL     OW14884   4.301   4.623   9.582 -0.0624 -0.0458  0.4017
 1141SOL    HW114885   4.275   4.536   9.550 -1.1992  0.5976 -0.4316
 1141SOL    HW214886   4.375   4.589   9.631  2.0095  2.2351 -1.1686
 1142SOL     OW14887   3.231   2.266   4.759  0.1347 -0.1141 -1.2627
 1142SOL    HW114888   3.305   2.224   4.716  0.8497 -0.5342  0.4074
 1142SOL    HW214889   3.158   2.224   4.713 -0.2804 -0.3013 -0.4352
 1143SOL     OW14890   3.563   3.526   4.367 -0.0678 -0.1564  0.0909
 1143SOL    HW114891   3.617   3.578   4.307 -2.2464  0.8678 -0.9573
 1143SOL    HW214892   3.488   3.512   4.310 -0.2678 -0.9015  0.5474
 1144SOL     OW14893   2.048   2.260   1.898  0.1428  0.1057  0.8840
 1144SOL    HW114894   2.125   2.298   1.855 -1.6263  1.9068 -0.7115
 1144SOL    HW214895   2.072   2.168   1.888 -1.1644 -0.0847 -0.5144
 1145SOL     OW14896   2.643   3.006   0.842 -0.4005  0.3915 -0.0900
 1145SOL    HW114897   2.724   2.984   0.796  1.1351  1.6579  1.9972
 1145SOL    HW214898   2.582   3.011   0.769  0.6901 -0.3487 -1.0365
 1146SOL     OW14899   4.712   1.538   1.043 -0.5430  0.1225  0.2036
 1146SOL    HW114900   4.707   1.491   0.960  2.0739 -0.4959  0.3969
 1146SOL    HW214901   4.695   1.626   1.011 -1.1598 -0.3439 -0.7346
 1147SOL     OW14902   3.683   2.294  17.499 -0.1160 -0.5102  0.3247
 1147SOL    HW114903   3.733   2.224  17.457  0.5997  0.1799  0.0361
 1147SOL    HW214904   3.738   2.327  17.569  1.6789  3.3132 -2.8702
 1148SOL     OW14905   4.077   0.343   6.179 -0.8450 -0.0693 -0.3486
 1148SOL    HW114906   4.114   0.277   6.238  1.9880  0.8031 -1.1524
 1148SOL    HW214907   4.151   0.403   6.183 -1.6247  0.6896  2.9369
 1149SOL     OW14908   1.030   4.416   7.148  0.5685 -0.2727 -0.0433
 1149SOL    HW114909   1.047   4.506   7.176 -0.7631  0.4332 -1.5171
 1149SOL    HW214910   1.039   4.363   7.227  2.1039  0.6064  0.3716
 1150SOL     OW14911   2.183   4.352   9.908 -0.2119 -0.3741  0.6893
 1150SOL    HW114912   2.234   4.388   9.981 -0.6532 -0.2422  0.9307
 1150SOL    HW214913   2.111   4.306   9.952  0.5949 -0.4926  1.8802
 1151SOL     OW14914   4.609   3.779   4.593 -0.0980  0.4080 -0.3886
 1151SOL    HW114915   4.623   3.748   4.683  0.3678  2.1348  0.1303
 1151SOL    HW214916   4.636   3.870   4.602  1.0790 -0.0991  1.2543
 1152SOL     OW14917   2.293   0.506   6.486 -0.1020  0.1305  0.7043
 1152SOL    HW114918   2.316   0.562   6.412  0.0544 -0.3336  0.4033
 1152SOL    HW214919   2.333   0.425   6.457  1.1565  0.2386  2.1098
 1153SOL     OW14920   4.451   1.957   2.173  0.5046  0.2494 -0.0059
 1153SOL    HW114921   4.542   1.957   2.141 -0.2640 -0.9268 -2.1791
 1153SOL    HW214922   4.411   1.889   2.119 -0.6871  2.9400 -2.4896
 1154SOL     OW14923   0.016   1.664   7.188 -0.2294  0.3156  0.0249
 1154SOL    HW114924   4.716   1.575   7.212 -2.5412  1.5525  2.0772
 1154SOL    HW214925   4.665   1.714   7.161  0.1426  1.0698  0.3576
 1155SOL     OW14926   2.470   3.838   9.520 -0.0613 -0.1407  0.5737
 1155SOL    HW114927   2.424   3.916   9.548  0.3009  0.1962  0.2351
 1155SOL    HW214928   2.427   3.763   9.561 -0.5625 -1.5819 -2.6033
 1156SOL     OW14929   1.219   2.030   8.694  0.4022  0.4542  0.0203
 1156SOL    HW114930   1.152   2.010   8.759  0.9176 -0.2132  0.3437
 1156SOL    HW214931   1.270   1.950   8.684  0.7063  0.7360 -0.7282
 1157SOL     OW14932   2.735   1.623   7.412 -0.0655 -0.0906  0.3283
 1157SOL    HW114933   2.748   1.630   7.317  0.7791 -1.4400  0.3465
 1157SOL    HW214934   2.652   1.574   7.419  0.0527 -0.4570 -0.8023
 1158SOL     OW14935   1.532   0.626  10.190  0.7687 -0.3933 -0.6410
 1158SOL    HW114936   1.503   0.690  10.255  2.3271 -0.3538  0.0053
 1158SOL    HW214937   1.517   0.542  10.232  0.2975 -0.1997 -0.4225
 1159SOL     OW14938   1.193   0.326   8.211 -0.3847 -0.0908 -0.2193
 1159SOL    HW114939   1.124   0.375   8.257 -3.1301 -2.2604 -2.0279
 1159SOL    HW214940   1.265   0.332   8.273 -0.3014 -0.3335 -0.2928
 1160SOL     OW14941   0.313   0.680  16.663 -0.4830 -0.0769 -0.2742
 1160SOL    HW114942   0.289   0.745  16.596  1.3929 -1.4148 -2.2726
 1160SOL    HW214943   0.401   0.711  16.687 -1.5681  1.0037  2.2550
 1161SOL     OW14944   2.031   0.539  14.730 -0.1342 -0.8287  0.4564
 1161SOL    HW114945   2.000   0.453  14.702 -1.0182  0.0135 -1.1586
 1161SOL    HW214946   2.117   0.541  14.689 -0.9132  2.0761 -1.0445
 1162SOL     OW14947   4.143   1.360   4.215 -0.1743  0.5651  0.2401
 1162SOL    HW114948   4.121   1.305   4.290 -0.5877  0.9881  0.4292
 1162SOL    HW214949   4.214   1.308   4.177 -1.9134 -2.5943  1.2795
 1163SOL     OW14950   1.276   1.804  14.200  0.1835 -0.1405  0.2873
 1163SOL    HW114951   1.352   1.839  14.153  1.4204 -0.3409  2.1229
 1163SOL    HW214952   1.241   1.881  14.245  0.3405 -1.1042  2.0843
 1164SOL     OW14953   1.505   2.301   5.474  0.0957  0.1418 -0.5696
 1164SOL    HW114954   1.593   2.324   5.445 -0.1388 -0.4349 -1.7189
 1164SOL    HW214955   1.480   2.242   5.404 -1.7082 -0.3717  0.5020
 1165SOL     OW14956   0.167   2.132   7.483  0.4381 -0.2426  0.1716
 1165SOL    HW114957   0.133   2.054   7.528 -0.2487 -0.1654 -0.2149
 1165SOL    HW214958   0.127   2.123   7.397  0.5023 -2.1819  0.3277
 1166SOL     OW14959   0.892   0.018  12.351 -0.6403  0.8390  0.5193
 1166SOL    HW114960   0.880   0.112  12.334 -0.2906  0.6304 -0.8649
 1166SOL    HW214961   0.830   0.005  12.423 -2.5710 -1.0611 -1.4714
 1167SOL     OW14962   3.762   2.246   4.012  0.2070  0.3550 -0.3824
 1167SOL    HW114963   3.753   2.219   3.921  0.7132 -2.7270  0.4884
 1167SOL    HW214964   3.820   2.322   4.015  0.7534 -0.1469  1.8459
 1168SOL     OW14965   2.759   3.012   4.616  0.3650 -0.1418 -0.5165
 1168SOL    HW114966   2.815   3.057   4.552  2.7059  1.3071  2.5627
 1168SOL    HW214967   2.820   3.017   4.690  1.3336  3.0674 -1.4975
 1169SOL     OW14968   4.709   2.512   6.242  0.3490 -0.2749  0.0398
 1169SOL    HW114969   4.690   2.540   6.331  0.4037 -0.3869  0.0867
 1169SOL    HW214970   0.077   2.495   6.252  0.9495  0.4901 -4.4449
 1170SOL     OW14971   1.737   2.907   2.619 -0.3097 -0.3785  0.4372
 1170SOL    HW114972   1.810   2.898   2.680  0.1116 -0.7015 -0.1115
 1170SOL    HW214973   1.686   2.833   2.653  0.4501 -0.4786  1.3489
 1171SOL     OW14974   0.623   3.351   5.363  0.1294 -0.2225 -0.1458
 1171SOL    HW114975   0.626   3.430   5.308  0.0114  0.8178  1.3254
 1171SOL    HW214976   0.575   3.292   5.305 -0.5783  0.7415 -0.5380
 1172SOL     OW14977   2.032   0.550  11.548 -0.3497  0.5408  0.6854
 1172SOL    HW114978   1.951   0.543  11.498 -0.0922 -0.0502  0.3617
 1172SOL    HW214979   1.995   0.524  11.633  0.3262  0.6177  1.0026
 1173SOL     OW14980   0.612   3.754  11.309  0.2193 -0.8796  0.0744
 1173SOL    HW114981   0.644   3.803  11.385 -2.9795  1.0907  0.1357
 1173SOL    HW214982   0.692   3.737  11.258 -0.9674 -0.9379 -1.7519
 1174SOL     OW14983   1.130   0.671   3.843  0.3249 -0.2546  0.6122
 1174SOL    HW114984   1.222   0.663   3.869  0.4056 -1.8862 -0.1821
 1174SOL    HW214985   1.090   0.639   3.924  1.2804 -1.1241  0.7283
 1175SOL     OW14986   4.558   3.088  15.113  0.5775  0.0924  0.0637
 1175SOL    HW114987   4.512   3.042  15.043  1.8883 -1.2076  0.0717
 1175SOL    HW214988   4.643   3.050  15.093  0.7504  0.8478 -0.6249
 1176SOL     OW14989   2.773   3.979   9.052  0.2597  0.2134 -0.3875
 1176SOL    HW114990   2.790   3.993   8.959 -0.7008  3.1481 -0.1403
 1176SOL    HW214991   2.787   4.070   9.078  0.7890 -0.3427  1.2382
 1177SOL     OW14992   4.354   0.749  16.681  0.1313  0.4698  0.3393
 1177SOL    HW114993   4.327   0.674  16.734  0.1388 -0.8290 -1.4854
 1177SOL    HW214994   4.421   0.716  16.621 -2.5161 -0.3456 -2.1699
 1178SOL     OW14995   0.552   2.695   1.414  0.6598 -0.1795  0.8120
 1178SOL    HW114996   0.634   2.646   1.421  1.4800  1.1166  0.3492
 1178SOL    HW214997   0.499   2.623   1.447 -0.5440  0.2604 -0.1580
 1179SOL     OW14998   0.198   0.930  15.274  0.1368  1.0174  0.2290
 1179SOL    HW114999   0.140   0.912  15.200  1.5174 -0.2635 -0.5468
 1179SOL    HW215000   0.167   0.858  15.328 -3.7329  2.5275  0.0048
 1180SOL     OW15001   1.606   3.703  10.858  0.4035 -0.1714  0.3437
 1180SOL    HW115002   1.649   3.617  10.855  0.4712 -0.1232 -0.1121
 1180SOL    HW215003   1.543   3.689  10.929 -1.0420  1.3006 -0.6297
 1181SOL     OW15004   4.150   0.444   1.267 -0.0045  0.3867 -0.3940
 1181SOL    HW115005   4.182   0.521   1.219  0.4971  0.2532 -0.2717
 1181SOL    HW215006   4.231   0.402   1.293  0.6302  2.0996  0.4253
 1182SOL     OW15007   0.442   0.603   2.791 -0.5705 -0.2393  0.0501
 1182SOL    HW115008   0.536   0.607   2.775 -0.8857 -0.3763 -1.8424
 1182SOL    HW215009   0.413   0.624   2.702 -2.5072 -1.0441  0.4845
 1183SOL     OW15010   4.180   2.077   4.244  0.3365  0.0767  0.1610
 1183SOL    HW115011   4.202   2.169   4.230 -1.2794  0.6194  1.2895
 1183SOL    HW215012   4.119   2.059   4.172  1.6266  1.0790 -1.1957
 1184SOL     OW15013   1.566   1.963   8.999  0.3816 -0.0006 -0.3392
 1184SOL    HW115014   1.536   2.027   8.934  2.8950  1.8507  0.3099
 1184SOL    HW215015   1.584   1.884   8.949  1.0965 -1.1707  1.7512
 1185SOL     OW15016   3.512   3.041   0.572 -0.3673  0.3649  0.5746
 1185SOL    HW115017   3.571   3.109   0.605 -0.1943  0.4782  0.0335
 1185SOL    HW215018   3.486   3.090   0.494  1.3435 -0.0263 -0.2656
 1186SOL     OW15019   0.110   4.010   8.622  0.2546  0.4525  0.5500
 1186SOL    HW115020   0.129   3.917   8.617  2.3076  0.8615  0.4772
 1186SOL    HW215021   0.073   4.028   8.536  0.4895 -0.9245  0.1711
 1187SOL     OW15022   3.737   0.041  17.575 -0.4344 -0.3264 -0.4187
 1187SOL    HW115023   3.778   0.123  17.605 -0.3460 -0.2244 -0.8227
 1187SOL    HW215024   3.732   4.716  17.656  1.8019 -1.2116 -0.8321
 1188SOL     OW15025   2.624   0.056   4.297  0.4913 -0.4128 -0.0059
 1188SOL    HW115026   2.601   4.698   4.256 -1.0538 -0.2980  0.6330
 1188SOL    HW215027   2.640   0.028   4.387  0.3765 -0.5164 -0.0180
 1189SOL     OW15028   4.496   1.144   4.250  0.7970 -0.1442 -0.3330
 1189SOL    HW115029   4.586   1.174   4.239  0.1997  1.8774  0.3495
 1189SOL    HW215030   4.507   1.055   4.283  0.3753  0.4284  1.3610
 1190SOL     OW15031   2.243   2.157  10.422  0.5092  0.7257  0.3055
 1190SOL    HW115032   2.338   2.161  10.432  0.7597  1.9679 -2.4779
 1190SOL    HW215033   2.217   2.080  10.473 -0.7073  0.2619 -0.9914
 1191SOL     OW15034   4.701   4.624  15.000  0.3423  0.4708 -0.3917
 1191SOL    HW115035   0.043   4.686  14.974 -0.7428  2.0576  0.5429
 1191SOL    HW215036   4.631   4.649  14.939 -0.5335  1.6239  1.0753
 1192SOL     OW15037   2.004   0.724  17.207  0.4749 -0.0532  0.1952
 1192SOL    HW115038   1.974   0.652  17.151 -1.4633  0.0945  1.0678
 1192SOL    HW215039   1.930   0.784  17.202 -1.8168 -2.8382  0.6183
 1193SOL     OW15040   1.171   1.978   9.383 -0.0915  0.3809 -0.2532
 1193SOL    HW115041   1.196   2.066   9.354  1.8900  0.1259  0.7233
 1193SOL    HW215042   1.244   1.964   9.443  0.8033  1.1194 -1.1531
 1194SOL     OW15043   2.207   3.530   1.581 -0.2211  0.7955 -0.4874
 1194SOL    HW115044   2.218   3.576   1.665  3.9109  1.5135 -1.4588
 1194SOL    HW215045   2.119   3.564   1.561 -0.2615  0.2168 -1.2764
 1195SOL     OW15046   1.073   1.016  12.247  0.1860 -0.3592 -0.5556
 1195SOL    HW115047   1.083   0.945  12.183 -0.1626 -1.3078  0.4362
 1195SOL    HW215048   1.098   1.091  12.193  0.0013  0.7136  0.8698
 1196SOL     OW15049   3.359   1.153   5.910 -0.1688 -0.7973 -0.1888
 1196SOL    HW115050   3.432   1.118   5.859  2.1201  0.6478  2.0334
 1196SOL    HW215051   3.310   1.071   5.909  0.4538 -1.1780  0.3288
 1197SOL     OW15052   1.460   2.318   6.719 -0.0549  0.0884  0.1862
 1197SOL    HW115053   1.555   2.315   6.729 -0.2873  1.3028  2.6954
 1197SOL    HW215054   1.451   2.407   6.685 -0.8490 -0.2659 -0.5279
 1198SOL     OW15055   0.102   4.130  15.036 -0.4296 -0.3817  0.2983
 1198SOL    HW115056   0.141   4.042  15.041  1.5109  0.5121  0.9049
 1198SOL    HW215057   0.151   4.176  15.103 -0.5092  0.1129  0.0226
 1199SOL     OW15058   2.978   3.624  11.896 -0.1343  0.0587 -0.1500
 1199SOL    HW115059   3.024   3.572  11.831 -1.4990  1.4648 -2.2621
 1199SOL    HW215060   2.896   3.574  11.901  0.9936 -1.7803 -0.1098
 1200SOL     OW15061   1.683   3.767   6.957 -0.0799  0.6841 -0.7043
 1200SOL    HW115062   1.769   3.776   6.918  0.8511 -0.4220  1.0782
 1200SOL    HW215063   1.638   3.719   6.887 -1.9758  0.7502  0.4465
 1201SOL     OW15064   1.303   0.954   0.050 -0.1561  0.0308  0.4535
 1201SOL    HW115065   1.398   0.951   0.052 -0.1917 -1.0404  0.2666
 1201SOL    HW215066   1.299   0.882   0.113 -0.0260 -0.8003 -0.5108
 1202SOL     OW15067   1.554   4.622   4.280 -0.3410 -0.2025 -0.1290
 1202SOL    HW115068   1.595   4.655   4.360  0.2511  0.3605 -0.6706
 1202SOL    HW215069   1.617   4.639   4.210 -1.1851  4.2591  0.1743
 1203SOL     OW15070   0.500   3.534  10.491  0.3460 -0.3935  0.2343
 1203SOL    HW115071   0.580   3.549  10.440 -1.2722  2.0620 -1.6561
 1203SOL    HW215072   0.477   3.442  10.479  0.2920 -0.7744  3.3942
 1204SOL     OW15073   1.428   1.871   2.157  0.1481 -0.5311 -0.0561
 1204SOL    HW115074   1.382   1.921   2.090 -0.5507  0.6028  1.2654
 1204SOL    HW215075   1.473   1.807   2.102 -0.0131 -0.2135 -0.5543
 1205SOL     OW15076   4.132   3.172   4.794  0.5017 -0.2011 -0.3301
 1205SOL    HW115077   4.129   3.092   4.742 -1.7257 -0.3394  0.0219
 1205SOL    HW215078   4.068   3.228   4.750  0.7565 -1.1641 -1.9089
 1206SOL     OW15079   0.321   3.933   8.144  0.4138 -0.0027  0.5383
 1206SOL    HW115080   0.365   3.930   8.059 -1.7669 -2.5809 -0.4958
 1206SOL    HW215081   0.395   3.923   8.204  1.8589 -0.2789 -1.2836
 1207SOL     OW15082   3.499   3.599   5.032 -0.5951  0.1135 -0.3811
 1207SOL    HW115083   3.474   3.529   5.092 -3.0266  0.8784 -0.5059
 1207SOL    HW215084   3.420   3.650   5.015 -0.1286  0.6235 -1.0258
 1208SOL     OW15085   4.671   3.326   6.866  1.0901 -0.4025  0.4778
 1208SOL    HW115086   4.693   3.277   6.946 -1.1850  0.5715  1.7262
 1208SOL    HW215087   4.599   3.274   6.830  2.1240  0.0653 -2.2185
 1209SOL     OW15088   2.651   1.230   0.068  0.3200 -0.3370 -0.5370
 1209SOL    HW115089   2.699   1.148   0.065  1.3701  0.2451  0.7128
 1209SOL    HW215090   2.571   1.202   0.023 -0.6726 -0.7979  1.5127
 1210SOL     OW15091   4.590   1.034   6.783 -0.2636 -0.4083 -0.8474
 1210SOL    HW115092   4.604   1.129   6.787  0.1733 -0.5117  0.1192
 1210SOL    HW215093   4.587   1.005   6.875 -1.4955  1.4074 -0.3144
 1211SOL     OW15094   4.503   0.015   9.841 -0.0296  0.2255  0.0717
 1211SOL    HW115095   4.464   4.666   9.885  1.1731 -0.8560 -0.6874
 1211SOL    HW215096   4.423   0.063   9.821  1.2476  2.5531  0.4706
 1212SOL     OW15097   4.554   4.573   6.050  0.4416  0.0017  0.3213
 1212SOL    HW115098   4.578   4.602   6.137 -1.1224  0.3513  0.6367
 1212SOL    HW215099   4.505   4.649   6.019 -0.3766 -0.0801  1.3974
 1213SOL     OW15100   0.758   2.624   6.804 -0.1652  0.4752 -0.0109
 1213SOL    HW115101   0.825   2.688   6.783  2.8760 -2.5658  0.3458
 1213SOL    HW215102   0.797   2.578   6.879  0.3900 -1.2980 -1.4053
 1214SOL     OW15103   0.462   3.036   5.707 -0.4295 -0.0031 -0.1226
 1214SOL    HW115104   0.450   2.941   5.714 -2.8536  0.3075  0.0118
 1214SOL    HW215105   0.377   3.067   5.675  0.8478  1.7782 -1.7997
 1215SOL     OW15106   2.408   1.607   5.624 -0.2070 -0.1829 -0.1242
 1215SOL    HW115107   2.430   1.582   5.713  1.7162  1.4697 -0.1141
 1215SOL    HW215108   2.490   1.583   5.580  1.2099  1.2850  1.7176
 1216SOL     OW15109   4.335   2.686   5.513 -0.4635 -0.0172 -0.1821
 1216SOL    HW115110   4.273   2.682   5.586  0.4347 -1.5875  0.4882
 1216SOL    HW215111   4.408   2.628   5.533 -0.1231 -0.3985 -2.5406
 1217SOL     OW15112   1.044   3.024   8.357 -0.3147 -0.2273 -0.1701
 1217SOL    HW115113   0.979   2.955   8.349 -0.1444 -0.2862 -1.0183
 1217SOL    HW215114   1.007   3.086   8.294 -0.8664 -1.4230 -1.0081
 1218SOL     OW15115   1.492   3.983   2.649  0.0013  0.4715 -0.4028
 1218SOL    HW115116   1.556   4.028   2.594  0.8435 -1.4939 -1.0228
 1218SOL    HW215117   1.410   4.020   2.617 -0.5824 -0.3885  0.0716
 1219SOL     OW15118   0.555   0.110  12.439 -0.0409  0.2874 -0.2314
 1219SOL    HW115119   0.640   0.086  12.475  0.6046  1.1523 -1.1874
 1219SOL    HW215120   0.537   0.187  12.493 -0.6118 -0.6122  0.8431
 1220SOL     OW15121   0.695   1.309   8.624 -0.0140 -0.1870  0.0058
 1220SOL    HW115122   0.662   1.236   8.676 -0.6907  0.3222  0.2807
 1220SOL    HW215123   0.612   1.355   8.618 -0.5602 -1.5068 -2.6083
 1221SOL     OW15124   0.760   0.481  13.031 -0.0854 -0.1990  0.2805
 1221SOL    HW115125   0.700   0.476  12.957  0.7162 -0.0999 -0.3794
 1221SOL    HW215126   0.723   0.558  13.074  1.9079 -0.0894  1.8240
 1222SOL     OW15127   2.313   2.093   4.622 -0.3104  0.0813  0.7654
 1222SOL    HW115128   2.398   2.118   4.584  0.6649  0.9766  3.5186
 1222SOL    HW215129   2.342   2.012   4.663 -0.2181 -0.9008 -1.2481
 1223SOL     OW15130   3.430   3.925   3.151 -0.3682 -0.0573 -0.1481
 1223SOL    HW115131   3.379   4.005   3.142 -0.5543 -0.0692  0.9040
 1223SOL    HW215132   3.522   3.953   3.153 -0.4053  0.0091  0.4136
 1224SOL     OW15133   3.038   2.994   6.269  0.2344 -0.1453  0.2229
 1224SOL    HW115134   3.130   3.013   6.253  0.0301  1.4764  0.9817
 1224SOL    HW215135   2.997   3.053   6.205  1.1165 -0.9132 -1.0534
 1225SOL     OW15136   3.509   1.752  16.230  0.1440 -0.0397 -0.5035
 1225SOL    HW115137   3.487   1.813  16.160  0.1266  0.8912  0.3083
 1225SOL    HW215138   3.442   1.686  16.213  0.6941 -1.1135  1.5245
 1226SOL     OW15139   3.009   0.246   7.686  0.1753 -0.6609  0.4001
 1226SOL    HW115140   3.044   0.329   7.720  0.3242 -0.5572 -0.0049
 1226SOL    HW215141   2.971   0.267   7.601  0.4546  1.3470  0.7632
 1227SOL     OW15142   1.685   0.428   7.358  0.1960  0.4366 -0.1856
 1227SOL    HW115143   1.647   0.363   7.418  1.2461  1.1551  1.2699
 1227SOL    HW215144   1.756   0.471   7.407 -1.2804 -1.1421  3.3787
 1228SOL     OW15145   1.154   1.254   5.183 -0.2122 -0.0541  0.1377
 1228SOL    HW115146   1.246   1.278   5.173 -1.1405  2.3310 -2.6642
 1228SOL    HW215147   1.152   1.162   5.209  2.1341  0.0295  0.6748
 1229SOL     OW15148   4.104   0.773   5.240 -0.0510 -0.7873  0.4498
 1229SOL    HW115149   4.045   0.714   5.286  0.3453 -0.4264  1.4140
 1229SOL    HW215150   4.039   0.836   5.209  0.3676 -0.4713  0.2000
 1230SOL     OW15151   3.262   2.144   5.296 -0.1868 -0.4397 -0.5701
 1230SOL    HW115152   3.301   2.148   5.209 -0.8083 -0.9610 -0.8704
 1230SOL    HW215153   3.169   2.152   5.276  0.0821  2.8761 -0.4130
 1231SOL     OW15154   2.820   4.670  10.851  0.4917 -0.0778 -0.2778
 1231SOL    HW115155   2.740   4.721  10.838 -0.7445 -2.0114 -0.1098
 1231SOL    HW215156   2.876   4.726  10.796  1.4800 -0.2477  0.5627
 1232SOL     OW15157   3.314   3.092  11.131  0.0654  0.3883 -0.6989
 1232SOL    HW115158   3.401   3.119  11.102 -0.4698  1.8808 -0.9058
 1232SOL    HW215159   3.302   3.149  11.206  2.9601 -2.4330  1.9635
 1233SOL     OW15160   0.911   0.921  14.536 -0.3558 -0.3135  0.1775
 1233SOL    HW115161   0.839   0.911  14.599  0.6510  1.1066  1.5662
 1233SOL    HW215162   0.937   0.829  14.533  2.6176  0.5958 -1.6671
 1234SOL     OW15163   0.110   0.506   6.568  0.0584 -0.2748  0.0631
 1234SOL    HW115164   0.110   0.412   6.588  0.1532 -0.5154 -1.0521
 1234SOL    HW215165   0.136   0.488   6.478 -0.5798 -0.2316 -0.1299
 1235SOL     OW15166   3.535   4.025  11.481  0.6591 -0.9387  0.8508
 1235SOL    HW115167   3.576   3.943  11.507 -0.3463 -1.7530 -0.1267
 1235SOL    HW215168   3.613   4.073  11.454  0.3482 -1.8628 -1.6576
 1236SOL     OW15169   3.868   0.229   0.020 -0.2375  0.1829  0.1055
 1236SOL    HW115170   3.890   0.309  17.677 -0.9189 -0.4376 -1.2339
 1236SOL    HW215171   3.948   0.179   0.028  0.8658  1.9181 -0.0092
 1237SOL     OW15172   0.731   1.228   6.628 -0.3713 -0.3238 -0.1349
 1237SOL    HW115173   0.678   1.285   6.572  1.0339 -1.7595 -2.9411
 1237SOL    HW215174   0.812   1.224   6.578 -0.6184  0.1082 -0.5671
 1238SOL     OW15175   0.108   2.001   7.712 -0.3570  0.6189  0.1841
 1238SOL    HW115176   0.191   2.016   7.758 -0.5546 -1.8429  1.3220
 1238SOL    HW215177   0.096   1.907   7.703 -0.2310  0.6553 -0.3705
 1239SOL     OW15178   1.133   3.817   4.620 -0.5704  0.2210 -0.1847
 1239SOL    HW115179   1.167   3.810   4.531  0.9501 -0.4384  0.4392
 1239SOL    HW215180   1.164   3.737   4.662  0.0275  1.6633  2.1612
 1240SOL     OW15181   2.844   1.696   4.245 -0.2760 -0.1482 -0.1608
 1240SOL    HW115182   2.809   1.785   4.259  1.8774  1.2108 -3.3559
 1240SOL    HW215183   2.913   1.718   4.182  0.1506 -0.5355  0.1795
 1241SOL     OW15184   1.620   1.930   7.526 -0.4154  0.0527 -0.2479
 1241SOL    HW115185   1.580   1.968   7.448  1.8134  2.5196 -0.2034
 1241SOL    HW215186   1.540   1.931   7.579 -0.3659 -1.5828 -0.1524
 1242SOL     OW15187   3.181   0.145   4.031  0.2412 -0.6571  0.0665
 1242SOL    HW115188   3.169   0.233   3.996 -2.0375 -0.8729  0.3144
 1242SOL    HW215189   3.089   0.127   4.048  0.2110 -1.5751 -1.0666
 1243SOL     OW15190   2.793   3.905   1.354 -0.4153  0.1344 -0.0304
 1243SOL    HW115191   2.799   3.924   1.447  1.0212  2.9804 -0.7135
 1243SOL    HW215192   2.811   3.811   1.350 -1.0224 -0.0543  1.9481
 1244SOL     OW15193   2.707   1.241   5.321 -0.5918 -0.1223 -0.0569
 1244SOL    HW115194   2.648   1.313   5.301 -0.1715 -0.0972 -1.1809
 1244SOL    HW215195   2.742   1.268   5.406 -0.6288 -0.5439  0.0913
 1245SOL     OW15196   1.556   0.773  11.774 -0.3909  0.1800 -0.2504
 1245SOL    HW115197   1.597   0.720  11.843 -0.3904 -0.0931 -0.4580
 1245SOL    HW215198   1.503   0.711  11.724 -0.6327  0.7387 -0.6926
 1246SOL     OW15199   0.669   1.621   4.975  0.4578  0.4137  0.1942
 1246SOL    HW115200   0.659   1.708   4.938 -1.2787  0.3300  0.4754
 1246SOL    HW215201   0.589   1.580   4.941  0.2912  0.1842  0.8580
 1247SOL     OW15202   3.287   0.543   9.212 -0.3973 -0.3415 -0.2424
 1247SOL    HW115203   3.330   0.469   9.255  1.4965  1.3600  0.8165
 1247SOL    HW215204   3.316   0.612   9.272  1.1928 -1.2093 -0.0170
 1248SOL     OW15205   1.246   4.250   4.424 -0.1820  0.2812 -0.4325
 1248SOL    HW115206   1.319   4.297   4.383  0.8546 -0.1630  0.9055
 1248SOL    HW215207   1.252   4.160   4.392 -3.0422  0.2208 -0.7413
 1249SOL     OW15208   1.603   4.720  10.708 -0.0319  0.1325 -0.4979
 1249SOL    HW115209   1.627   4.633  10.739 -1.9282 -0.2550 -0.0999
 1249SOL    HW215210   1.540   4.684  10.645 -1.1396 -0.1072  0.7396
 1250SOL     OW15211   0.695   1.704   6.425 -0.1835 -0.4175  0.3722
 1250SOL    HW115212   0.691   1.618   6.383  0.5801  0.8569 -2.3293
 1250SOL    HW215213   0.786   1.728   6.407  0.4191 -1.8540  1.5459
 1251SOL     OW15214   3.712   4.399   6.331  0.1773 -0.1883  0.1540
 1251SOL    HW115215   3.703   4.365   6.241  0.2503  0.0577  0.0530
 1251SOL    HW215216   3.798   4.440   6.327 -0.6928  1.4123 -2.0635
 1252SOL     OW15217   0.956   2.236   6.887  0.2413  0.1713  0.1327
 1252SOL    HW115218   0.875   2.249   6.837  0.3476  0.5075  0.0473
 1252SOL    HW215219   1.012   2.311   6.867 -0.9796  1.4093  1.3615
 1253SOL     OW15220   0.155   3.843   6.523  0.1589 -0.8717  0.6747
 1253SOL    HW115221   0.247   3.840   6.548  0.6570 -0.6280 -1.1519
 1253SOL    HW215222   0.128   3.898   6.596 -1.3507 -2.3791  1.2674
 1254SOL     OW15223   0.763   0.389  14.805 -0.6003 -0.1580 -1.1043
 1254SOL    HW115224   0.757   0.304  14.850 -0.3805 -0.3452 -1.4293
 1254SOL    HW215225   0.688   0.383  14.746 -2.2764 -1.1123  1.1635
 1255SOL     OW15226   3.961   3.353   4.647  0.1164 -0.1004  0.6346
 1255SOL    HW115227   3.921   3.407   4.715 -0.5438  1.0382 -0.6527
 1255SOL    HW215228   3.892   3.359   4.581 -0.9075 -1.7039  1.5893
 1256SOL     OW15229   1.711   0.212   7.063  0.0346  0.5906  0.0495
 1256SOL    HW115230   1.723   0.283   7.126 -0.9485 -1.2109  2.2861
 1256SOL    HW215231   1.695   0.261   6.982  1.3221  0.4490 -0.2832
 1257SOL     OW15232   3.518   3.364   3.145 -0.1053  0.5458  0.3463
 1257SOL    HW115233   3.478   3.358   3.232  1.9684 -0.0894  1.2610
 1257SOL    HW215234   3.451   3.330   3.086  0.3968 -0.1328  0.1581
 1258SOL     OW15235   4.611   0.897   5.075 -0.0966  0.3711 -0.0070
 1258SOL    HW115236   4.639   0.944   4.997 -0.6689 -1.9490 -1.6233
 1258SOL    HW215237   4.546   0.961   5.103 -1.3832 -0.9685  0.0359
 1259SOL     OW15238   4.581   3.988  12.028  0.0002  0.1237  0.0801
 1259SOL    HW115239   4.666   3.957  12.061  0.4597 -0.7353 -1.9096
 1259SOL    HW215240   4.529   3.910  12.012  0.2861 -0.4036  1.7036
 1260SOL     OW15241   0.866   1.060   2.693  0.0121  0.2934 -0.0469
 1260SOL    HW115242   0.890   1.067   2.785  0.4222  1.6156 -0.2494
 1260SOL    HW215243   0.816   0.979   2.689 -0.3201  0.5733 -1.5955
 1261SOL     OW15244   4.643   0.709   5.775  0.4795  0.3104  0.2682
 1261SOL    HW115245   4.703   0.648   5.731 -0.6543 -0.2009 -0.5720
 1261SOL    HW215246   4.593   0.735   5.697  2.1183 -1.0019 -1.2425
 1262SOL     OW15247   3.918   3.086   7.198 -0.2711  0.3473 -0.1749
 1262SOL    HW115248   3.913   3.013   7.137 -0.3797  0.5344 -0.3886
 1262SOL    HW215249   3.968   3.051   7.272  0.2059 -0.9408 -1.1261
 1263SOL     OW15250   3.633   0.379   4.598  0.3878  0.1875  0.4897
 1263SOL    HW115251   3.709   0.381   4.655  1.3403  1.3004 -0.8475
 1263SOL    HW215252   3.570   0.408   4.664  1.5433 -0.8975  2.0587
 1264SOL     OW15253   0.152   4.329   5.338 -0.1157 -0.1756  0.0167
 1264SOL    HW115254   0.190   4.413   5.313  0.5549 -0.5868 -0.3562
 1264SOL    HW215255   0.154   4.341   5.433  2.1648  0.9170 -0.1789
 1265SOL     OW15256   1.239   1.843   6.273  0.0860 -0.4406 -0.1252
 1265SOL    HW115257   1.307   1.841   6.205  0.9417 -0.6793  0.7385
 1265SOL    HW215258   1.201   1.931   6.265  0.5241 -0.4062 -1.8126
 1266SOL     OW15259   0.311   4.125   9.815 -0.0739 -0.0956  0.2883
 1266SOL    HW115260   0.398   4.165   9.826 -0.9347  1.5864  0.9882
 1266SOL    HW215261   0.259   4.179   9.874  2.4191 -0.5014  2.8543
 1267SOL     OW15262   2.212   1.266   5.209 -0.2209 -0.0884  0.1539
 1267SOL    HW115263   2.259   1.310   5.280 -1.9858  1.1937  0.5287
 1267SOL    HW215264   2.172   1.193   5.257 -1.5662  1.5823  1.5992
 1268SOL     OW15265   3.769   4.613  12.901  0.1504  0.1474  0.3133
 1268SOL    HW115266   3.681   4.583  12.927  0.6804 -1.7313 -0.0676
 1268SOL    HW215267   3.751   4.646  12.813 -1.1469 -1.4795 -0.0412
 1269SOL     OW15268   4.527   1.620   5.403 -0.1953  0.0820  0.1250
 1269SOL    HW115269   4.517   1.715   5.398 -1.8072 -0.1416 -1.2242
 1269SOL    HW215270   4.485   1.593   5.484  1.4026 -0.3124  0.8260
 1270SOL     OW15271   2.088   1.261  14.390  0.3708  0.0978 -0.2986
 1270SOL    HW115272   2.016   1.258  14.327  1.4377  0.5253 -1.5423
 1270SOL    HW215273   2.161   1.224  14.339  3.7076  2.1466  3.0541
 1271SOL     OW15274   3.482   2.593  13.932  0.4714  0.0297 -0.0301
 1271SOL    HW115275   3.550   2.535  13.897  0.5591  0.7110 -0.9655
 1271SOL    HW215276   3.431   2.616  13.855 -0.5454 -1.9361  0.0497
 1272SOL     OW15277   3.051   2.067   1.888  0.2014 -0.2271 -0.1860
 1272SOL    HW115278   3.026   2.106   1.972  0.8277 -0.1645 -0.0270
 1272SOL    HW215279   2.966   2.031   1.865  0.0887 -0.8770  1.2611
 1273SOL     OW15280   1.289   0.967   8.084  0.0751  0.1336 -0.2942
 1273SOL    HW115281   1.253   1.053   8.103  2.2875  1.7092 -3.3259
 1273SOL    HW215282   1.218   0.919   8.041 -1.5807  0.0389  2.5377
 1274SOL     OW15283   3.344   1.023   2.369  0.5498  1.0940  0.4067
 1274SOL    HW115284   3.439   1.035   2.358  0.6641 -1.0189 -1.0047
 1274SOL    HW215285   3.325   0.972   2.289  0.6422 -0.4996  1.3964
 1275SOL     OW15286   3.656   2.958  13.185  0.0499 -0.5025 -0.2429
 1275SOL    HW115287   3.649   3.053  13.179  0.2336 -0.4669  0.1046
 1275SOL    HW215288   3.565   2.933  13.205  0.1319  0.1021  0.8942
 1276SOL     OW15289   3.511   2.701   9.313  0.4525 -0.0641  0.2618
 1276SOL    HW115290   3.573   2.694   9.240  3.0420 -0.6426  2.4877
 1276SOL    HW215291   3.489   2.607   9.317 -0.7130  0.2091  0.2244
 1277SOL     OW15292   2.603   2.398   9.734  0.6106 -0.3781  0.5944
 1277SOL    HW115293   2.667   2.461   9.766 -1.8477  3.0180 -1.2169
 1277SOL    HW215294   2.538   2.418   9.801 -0.6027 -2.0369 -0.0844
 1278SOL     OW15295   0.434   4.645  13.335 -0.1616  0.1868  1.2141
 1278SOL    HW115296   0.367   4.662  13.401  0.4548  2.7408  1.1590
 1278SOL    HW215297   0.434   4.549  13.333 -0.2173  0.2489 -2.0164
 1279SOL     OW15298   0.183   0.616  16.898 -0.0227 -0.4930  0.3328
 1279SOL    HW115299   0.240   0.617  16.821 -0.9249 -1.0159 -0.3424
 1279SOL    HW215300   0.245   0.620  16.971 -0.3645  2.1212  0.5033
 1280SOL     OW15301   2.003   1.180   8.884  0.3198  0.5954 -0.0239
 1280SOL    HW115302   2.046   1.122   8.946  3.4349 -0.5068 -3.1903
 1280SOL    HW215303   2.064   1.253   8.878  1.3943 -0.4830 -2.2394
 1281SOL     OW15304   0.122   1.403  12.004 -0.6584 -0.2054 -0.0631
 1281SOL    HW115305   0.214   1.396  12.031 -0.6575 -0.8614 -0.2345
 1281SOL    HW215306   0.102   1.327  11.950 -0.3759 -1.3341  1.4284
 1282SOL     OW15307   1.615   2.835   5.876 -0.5032  0.2084 -0.4582
 1282SOL    HW115308   1.598   2.784   5.797 -0.1080 -3.2120  1.6264
 1282SOL    HW215309   1.659   2.768   5.929  0.1621  0.5294 -0.6048
 1283SOL     OW15310   3.747   2.118   9.046 -0.7858  0.0351 -0.3033
 1283SOL    HW115311   3.716   2.028   9.038 -0.3120 -0.3237  1.7404
 1283SOL    HW215312   3.663   2.162   9.035 -1.4291 -0.6928  1.7251
 1284SOL     OW15313   2.675   0.766  11.289 -0.1679  0.1957 -0.1146
 1284SOL    HW115314   2.595   0.814  11.310 -1.2783 -0.4684 -2.8877
 1284SOL    HW215315   2.725   0.798  11.365 -2.4292  1.4189  0.8616
 1285SOL     OW15316   1.417   4.453  14.361  0.1076 -0.0142  0.1638
 1285SOL    HW115317   1.487   4.438  14.424  1.2666 -0.9117 -1.3354
 1285SOL    HW215318   1.371   4.529  14.397 -4.0773 -1.8536 -1.3484
 1286SOL     OW15319   0.158   2.109   2.752  0.1200  0.2433  0.3642
 1286SOL    HW115320   0.123   2.182   2.700  0.4318  0.2796  0.2055
 1286SOL    HW215321   0.223   2.066   2.697 -0.0823  1.7160 -1.0545
 1287SOL     OW15322   0.114   1.329  12.853  0.4577 -0.0982 -0.0118
 1287SOL    HW115323   0.088   1.343  12.762  0.2955  1.1900  0.2379
 1287SOL    HW215324   0.184   1.264  12.845 -0.9446 -1.6092  0.0141
 1288SOL     OW15325   2.394   4.643   5.686 -0.6126 -0.5352 -0.2583
 1288SOL    HW115326   2.418   4.558   5.651 -0.9636 -0.5468 -0.4744
 1288SOL    HW215327   2.445   4.637   5.767  1.4502  0.8561 -1.4676
 1289SOL     OW15328   3.025   2.753   3.784 -0.2453 -0.3816  0.0203
 1289SOL    HW115329   3.010   2.847   3.772  2.2795 -0.5614 -4.8839
 1289SOL    HW215330   2.973   2.716   3.713 -1.7514 -0.7452  1.3332
 1290SOL     OW15331   3.983   0.670   2.704  0.5461 -0.4449 -0.1522
 1290SOL    HW115332   3.933   0.617   2.641 -0.4085  0.6252 -0.2969
 1290SOL    HW215333   3.915   0.727   2.740  0.5928 -0.4842 -0.0029
 1291SOL     OW15334   1.886   2.529  10.489 -0.3367  0.5956  0.0775
 1291SOL    HW115335   1.970   2.485  10.508 -0.1905  1.9213  2.5442
 1291SOL    HW215336   1.915   2.611  10.450  0.1159  0.0870 -0.6420
 1292SOL     OW15337   1.252   4.611   9.342  0.0539 -0.0399 -0.0531
 1292SOL    HW115338   1.231   4.561   9.263  3.5142 -2.2387  0.4489
 1292SOL    HW215339   1.267   4.695   9.300 -0.1021 -0.4638 -0.9600
 1293SOL     OW15340   4.332   4.424  10.252  0.3255  0.0908 -0.1297
 1293SOL    HW115341   4.274   4.491  10.287  0.8324 -0.4555  1.7093
 1293SOL    HW215342   4.270   4.354  10.234 -0.5808  0.9741 -0.4869
 1294SOL     OW15343   3.272   3.633   2.264 -0.0682 -0.1264 -0.6222
 1294SOL    HW115344   3.306   3.722   2.273 -0.4177 -0.1216  0.6931
 1294SOL    HW215345   3.197   3.643   2.324  1.7997 -2.8919  2.2052
 1295SOL     OW15346   1.877   1.924   3.219 -0.0977  0.0662 -0.2194
 1295SOL    HW115347   1.862   1.922   3.314  0.2888 -2.1719 -0.2160
 1295SOL    HW215348   1.806   1.985   3.198  0.1634  0.1272 -0.9180
 1296SOL     OW15349   1.201   4.644   2.777  0.3209  0.1111  0.1022
 1296SOL    HW115350   1.112   4.613   2.791  1.0367 -1.2057  1.7588
 1296SOL    HW215351   1.231   4.619   2.689  0.2568  0.0030  0.1115
 1297SOL     OW15352   3.967   3.673   6.605  1.2177 -0.0253 -0.1966
 1297SOL    HW115353   4.018   3.752   6.621 -1.5868  1.5988  0.7607
 1297SOL    HW215354   3.989   3.609   6.674  2.7029  1.0457  0.3266
 1298SOL     OW15355   4.066   2.960  12.493  0.1413 -0.3618  0.1819
 1298SOL    HW115356   4.131   2.954  12.563 -2.2666  2.7712  2.7568
 1298SOL    HW215357   4.030   2.875  12.469 -1.2600  0.8247 -1.9304
 1299SOL     OW15358   1.051   0.500  13.710  0.2067  0.6881 -0.0389
 1299SOL    HW115359   1.132   0.548  13.728  1.8119 -1.8771 -0.4157
 1299SOL    HW215360   1.051   0.513  13.615 -1.4525 -1.8399 -0.3883
 1300SOL     OW15361   1.296   2.098  11.312  1.1891  0.3831  0.5339
 1300SOL    HW115362   1.209   2.129  11.286  2.2476  3.2245  0.3272
 1300SOL    HW215363   1.342   2.111  11.229 -0.0876 -0.0310 -0.2375
 1301SOL     OW15364   1.851   1.212   8.203 -0.2289  0.2202  0.0039
 1301SOL    HW115365   1.907   1.169   8.138 -0.4007 -0.1046  0.0699
 1301SOL    HW215366   1.888   1.173   8.282 -0.9485 -0.6610 -0.0910
 1302SOL     OW15367   0.217   4.387   1.342 -0.7851  0.0371  0.2273
 1302SOL    HW115368   0.123   4.374   1.340 -0.4708 -1.6661 -3.8943
 1302SOL    HW215369   0.244   4.378   1.433 -0.3123  0.0099  0.0884
 1303SOL     OW15370   0.558   0.684   2.243 -0.4013  0.5737  0.2184
 1303SOL    HW115371   0.542   0.754   2.306  2.7115  1.0924  0.4700
 1303SOL    HW215372   0.625   0.638   2.293 -0.1351 -0.4182 -1.0390
 1304SOL     OW15373   0.284   1.345   5.798 -0.6321 -0.2550  0.1140
 1304SOL    HW115374   0.281   1.405   5.723  3.1589  2.6131  2.2941
 1304SOL    HW215375   0.302   1.404   5.871 -0.7732 -1.7112  1.3241
 1305SOL     OW15376   3.029   3.172   3.467 -0.4366 -0.1372 -0.4287
 1305SOL    HW115377   2.999   3.185   3.377  0.0440  1.2114 -0.3933
 1305SOL    HW215378   3.105   3.114   3.454  0.6304  1.3195 -0.6539
 1306SOL     OW15379   0.906   2.042   8.527  0.2877 -0.3544 -0.4056
 1306SOL    HW115380   0.863   2.106   8.471 -2.3716 -1.7414  0.0463
 1306SOL    HW215381   0.925   2.095   8.604 -2.1067  1.2553 -0.9316
 1307SOL     OW15382   3.460   1.491   9.990 -0.1431 -0.3616  0.4854
 1307SOL    HW115383   3.433   1.400  10.005 -0.5437 -0.2982  0.1570
 1307SOL    HW215384   3.549   1.467   9.963  0.1337  1.2234  0.0430
 1308SOL     OW15385   4.593   2.385  13.426 -0.1450 -0.7409  0.0678
 1308SOL    HW115386   4.658   2.381  13.356  0.6301  1.5593  0.6397
 1308SOL    HW215387   4.527   2.324  13.393  2.0647 -2.7715 -0.5031
 1309SOL     OW15388   4.013   0.742  15.385 -0.1598  0.2097 -0.1601
 1309SOL    HW115389   3.938   0.780  15.430 -2.3433 -0.8699 -2.8579
 1309SOL    HW215390   4.033   0.660  15.430 -0.2901  0.7738  0.9264
 1310SOL     OW15391   1.419   1.895   6.041  0.1267  0.0042 -0.2157
 1310SOL    HW115392   1.341   1.874   5.990  1.5883 -2.5285 -1.4459
 1310SOL    HW215393   1.416   1.989   6.023  0.2544  0.2870  1.2502
 1311SOL     OW15394   1.997   3.240  17.038  0.1317  0.0147 -0.5915
 1311SOL    HW115395   1.936   3.305  17.001 -0.5708 -0.0152  0.5088
 1311SOL    HW215396   1.945   3.161  17.051 -0.7835  0.7208  0.0696
 1312SOL     OW15397   0.696   3.909   0.780 -0.0705 -0.2407 -0.0921
 1312SOL    HW115398   0.749   3.958   0.842  0.0436  0.2514 -0.5733
 1312SOL    HW215399   0.701   3.828   0.831  0.0420 -1.7046 -2.3943
 1313SOL     OW15400   2.464   0.638   4.815  0.2019 -0.4219  0.1684
 1313SOL    HW115401   2.392   0.594   4.862 -1.1101  1.3115 -0.2568
 1313SOL    HW215402   2.427   0.722   4.790  2.0582  0.5957  0.8246
 1314SOL     OW15403   4.072   4.722   7.843 -0.3987  0.4145  0.1494
 1314SOL    HW115404   3.979   4.700   7.850  0.5782 -4.1083 -1.5082
 1314SOL    HW215405   4.094   0.018   7.934 -1.7524 -0.2331  0.6376
 1315SOL     OW15406   4.309   1.634   4.599 -0.0728 -0.2181  0.6821
 1315SOL    HW115407   4.350   1.669   4.679  0.8702  2.4027 -0.9268
 1315SOL    HW215408   4.379   1.652   4.537 -0.5508  1.2390  0.5587
 1316SOL     OW15409   0.593   4.457   7.972 -0.4022 -0.1402 -0.1956
 1316SOL    HW115410   0.530   4.528   7.986  0.2960  0.3357  0.5644
 1316SOL    HW215411   0.574   4.418   8.058  2.2715  1.3505  1.0707
 1317SOL     OW15412   2.145   2.531   8.981  0.1595 -0.3790 -0.2443
 1317SOL    HW115413   2.156   2.534   9.076  0.7112 -0.6739 -0.3015
 1317SOL    HW215414   2.139   2.439   8.958 -3.2221  0.5771 -3.1417
 1318SOL     OW15415   0.604   3.979  11.453  0.4867  0.8289 -0.5335
 1318SOL    HW115416   0.618   4.047  11.387 -2.0762  2.1541  0.2759
 1318SOL    HW215417   0.513   4.001  11.470  0.4594 -0.6221  1.0864
 1319SOL     OW15418   0.040   1.582   3.821  0.1651 -0.0515  0.4632
 1319SOL    HW115419   0.124   1.538   3.804  1.4700  2.4435  0.3532
 1319SOL    HW215420   0.027   1.556   3.912 -0.9351  0.4563  0.4464
 1320SOL     OW15421   3.865   4.104   8.120 -0.1696  0.4611 -0.5001
 1320SOL    HW115422   3.832   4.131   8.035 -1.0309  1.2978  0.1006
 1320SOL    HW215423   3.810   4.027   8.132 -1.0618  1.3365  0.9625
 1321SOL     OW15424   4.063   0.746   1.990 -0.0346  0.1069  0.0258
 1321SOL    HW115425   4.078   0.725   1.898  4.0479 -0.0191  0.7120
 1321SOL    HW215426   3.981   0.795   1.994  0.3963  0.7820  0.6834
 1322SOL     OW15427   2.642   1.535   6.356  0.2583  0.1739  0.4060
 1322SOL    HW115428   2.686   1.489   6.284  0.5030  0.4541  0.3766
 1322SOL    HW215429   2.602   1.614   6.320  0.4295 -0.2474 -0.7233
 1323SOL     OW15430   4.570   2.894   5.197 -0.2299  0.4723  0.3161
 1323SOL    HW115431   4.586   2.867   5.106  0.9389  1.2929  0.2712
 1323SOL    HW215432   4.485   2.858   5.222 -0.7606  1.4271 -0.1053
 1324SOL     OW15433   4.635   1.890   3.237  0.4395 -0.7168 -0.1760
 1324SOL    HW115434   4.689   1.892   3.316 -0.4606  1.2714  0.3915
 1324SOL    HW215435   4.622   1.796   3.222 -2.9328 -0.3299  0.3156
 1325SOL     OW15436   1.936   0.188   8.850  0.5128  0.0837  1.0370
 1325SOL    HW115437   1.887   0.186   8.768 -0.3989  0.6226  1.5560
 1325SOL    HW215438   1.863   0.228   8.898  0.8792  0.9192  0.8978
 1326SOL     OW15439   3.192   2.218   8.308 -0.2759  0.0978 -0.2328
 1326SOL    HW115440   3.275   2.176   8.287 -0.2629  0.4107 -0.7879
 1326SOL    HW215441   3.165   2.158   8.378 -0.2802  0.8966  0.4456
 1327SOL     OW15442   2.703   1.696  15.943  0.1953  0.2024 -0.1559
 1327SOL    HW115443   2.626   1.735  15.902  0.7072 -0.0926 -1.4198
 1327SOL    HW215444   2.714   1.611  15.899 -1.4636 -0.2151  0.2202
 1328SOL     OW15445   1.105   3.990   5.458 -0.7698  0.0951 -0.7918
 1328SOL    HW115446   1.075   4.046   5.530 -1.8667 -0.5725 -0.7300
 1328SOL    HW215447   1.026   3.996   5.405 -1.8388 -3.6191  0.4375
 1329SOL     OW15448   2.091   2.094  15.389  0.8350 -0.0222 -0.0987
 1329SOL    HW115449   2.162   2.145  15.350 -3.5031  4.4755 -2.0093
 1329SOL    HW215450   2.128   2.013  15.426 -0.5865 -0.8801 -0.5532
 1330SOL     OW15451   2.593   0.478   4.262  0.0901 -0.5953  0.7129
 1330SOL    HW115452   2.541   0.416   4.210  0.1503 -0.3784  0.3982
 1330SOL    HW215453   2.529   0.546   4.281  0.2239  0.1600 -1.5763
 1331SOL     OW15454   4.277   1.380   8.080 -0.0604 -0.4123 -0.2492
 1331SOL    HW115455   4.222   1.408   8.007 -1.3646 -0.3868  0.7666
 1331SOL    HW215456   4.249   1.434   8.153  0.6994  0.1131 -0.3453
 1332SOL     OW15457   4.564   0.768  17.608 -0.1331  0.0964 -0.2133
 1332SOL    HW115458   4.468   0.758  17.603  0.0656 -0.4109 -2.9748
 1332SOL    HW215459   4.588   0.679  17.584 -0.3387  0.4876 -1.8718
 1333SOL     OW15460   1.957   0.135  13.303 -0.1519 -0.5975  0.4930
 1333SOL    HW115461   1.878   0.165  13.258  0.7315  2.7506  1.1891
 1333SOL    HW215462   1.994   0.217  13.336  0.7289 -0.5696 -0.5585
 1334SOL     OW15463   1.441   2.729   4.086  0.1749  0.1988 -0.0924
 1334SOL    HW115464   1.422   2.656   4.027 -2.3109 -0.0847  1.0293
 1334SOL    HW215465   1.531   2.703   4.106 -0.3961 -0.2305  1.8986
 1335SOL     OW15466   1.817   3.997   0.881 -0.3586 -0.6306  0.4357
 1335SOL    HW115467   1.745   4.020   0.822  0.5058  1.3047  0.1627
 1335SOL    HW215468   1.796   3.906   0.904 -1.0872 -0.5780 -0.0157
 1336SOL     OW15469   3.600   3.488   4.053  1.2610  0.3277  0.0855
 1336SOL    HW115470   3.692   3.516   4.054  1.7564 -1.2562 -0.0161
 1336SOL    HW215471   3.549   3.540   3.991  1.9532  1.4658  0.4897
 1337SOL     OW15472   0.362   2.378   3.737 -0.1500 -0.3951  0.1289
 1337SOL    HW115473   0.306   2.433   3.683 -0.4465 -0.2682  0.5603
 1337SOL    HW215474   0.434   2.436   3.761  1.4834 -1.6835 -1.6418
 1338SOL     OW15475   0.076   1.727   7.654  0.2396  0.7876  0.6059
 1338SOL    HW115476   0.118   1.677   7.724  2.1576  2.1035  0.3770
 1338SOL    HW215477   0.117   1.691   7.575 -1.1700  0.2040  0.1399
 1339SOL     OW15478   1.663   0.507  11.577 -0.0151  0.3788 -0.2651
 1339SOL    HW115479   1.728   0.490  11.646  0.0240  2.5293  0.2250
 1339SOL    HW215480   1.725   0.512  11.504  2.1022  0.3655  1.5337
 1340SOL     OW15481   0.791   2.372   2.323 -0.0968 -0.3408 -0.0833
 1340SOL    HW115482   0.869   2.383   2.378 -0.6067  1.1282  0.3544
 1340SOL    HW215483   0.725   2.354   2.389 -0.0815  0.2725  0.0981
 1341SOL     OW15484   2.863   0.762   0.225 -0.5748 -0.2261  0.2134
 1341SOL    HW115485   2.946   0.754   0.274 -0.5681 -0.1173  0.2189
 1341SOL    HW215486   2.870   0.681   0.174  1.8813 -0.5426  1.0358
 1342SOL     OW15487   2.788   4.313  10.350 -0.3592  0.4741  0.3198
 1342SOL    HW115488   2.835   4.238  10.387  1.7746  1.2432 -0.7926
 1342SOL    HW215489   2.860   4.372  10.327 -0.6342  0.8873  0.5231
 1343SOL     OW15490   0.615   2.558   1.114  0.2701  0.1008  0.0229
 1343SOL    HW115491   0.710   2.562   1.118  0.1768  2.4263  0.2925
 1343SOL    HW215492   0.592   2.468   1.136 -0.4316  0.0148 -1.0599
 1344SOL     OW15493   1.794   1.285   5.486 -0.5486  0.1980 -0.4371
 1344SOL    HW115494   1.816   1.194   5.465  0.9003  0.4017  0.2243
 1344SOL    HW215495   1.844   1.321   5.413  0.2539 -2.1858 -1.0560
 1345SOL     OW15496   0.486   2.387  13.393 -0.2666  0.3070 -0.2665
 1345SOL    HW115497   0.509   2.449  13.324 -1.7460 -0.7438 -1.6994
 1345SOL    HW215498   0.445   2.453  13.449 -0.6198 -0.5728  0.5173
 1346SOL     OW15499   2.150   2.051   7.917  0.3482  0.2965  0.5673
 1346SOL    HW115500   2.216   2.120   7.922  1.4379 -0.7947  1.2939
 1346SOL    HW215501   2.086   2.098   7.864 -0.1162 -1.2147 -0.1948
 1347SOL     OW15502   0.659   4.564  14.792 -0.0151  0.0901  0.1676
 1347SOL    HW115503   0.571   4.528  14.790 -0.3576  1.0233 -1.5249
 1347SOL    HW215504   0.685   4.545  14.882  0.5763 -2.5400 -0.5782
 1348SOL     OW15505   2.565   0.787  11.630 -0.1798  0.0436 -0.1674
 1348SOL    HW115506   2.579   0.773  11.724 -1.4373 -1.5062 -0.2103
 1348SOL    HW215507   2.643   0.837  11.608  1.4158 -2.6678 -0.7077
 1349SOL     OW15508   3.532   3.707   9.254 -0.0264  0.5198 -0.8270
 1349SOL    HW115509   3.458   3.755   9.291 -0.4327 -0.4109 -0.4230
 1349SOL    HW215510   3.535   3.750   9.169 -1.9920 -0.7548 -1.5535
 1350SOL     OW15511   1.781   2.187   1.469 -0.7035  0.2055 -0.8664
 1350SOL    HW115512   1.821   2.143   1.545  0.5499 -0.3756 -1.8723
 1350SOL    HW215513   1.695   2.144   1.468 -1.2524  1.2691  0.8187
 1351SOL     OW15514   4.206   4.360  16.104  0.2270  0.1551  0.3122
 1351SOL    HW115515   4.300   4.379  16.101 -0.4184  3.1653 -1.0085
 1351SOL    HW215516   4.214   4.282  16.159 -0.5620 -0.7165 -0.8214
 1352SOL     OW15517   4.568   0.770  15.612  0.5737  0.1059  0.6608
 1352SOL    HW115518   4.513   0.692  15.608 -1.2271  1.4458 -0.8256
 1352SOL    HW215519   4.644   0.733  15.567 -0.1255 -0.3791 -0.1342
 1353SOL     OW15520   2.591   1.808   4.936 -0.0711 -0.0750 -0.6751
 1353SOL    HW115521   2.665   1.799   4.877  2.1711  0.8204  1.9787
 1353SOL    HW215522   2.637   1.848   5.010 -0.8112  2.0820 -1.4023
 1354SOL     OW15523   1.017   2.809   6.270 -0.3344 -0.0370 -0.1085
 1354SOL    HW115524   0.945   2.768   6.318 -0.2331 -2.4703 -2.0158
 1354SOL    HW215525   1.031   2.891   6.317 -0.0932 -1.1485  1.7697
 1355SOL     OW15526   2.725   3.692  12.947 -0.9895  0.3485 -0.3658
 1355SOL    HW115527   2.659   3.710  12.881 -0.9560  1.2255 -0.1633
 1355SOL    HW215528   2.798   3.671  12.888 -1.4527 -1.0864 -0.4080
 1356SOL     OW15529   3.864   0.397  13.781  0.0768  0.3178 -0.6520
 1356SOL    HW115530   3.943   0.424  13.734 -1.4388  0.7824 -2.9839
 1356SOL    HW215531   3.889   0.431  13.867  2.7978 -3.5813  0.0714
 1357SOL     OW15532   3.455   2.902   9.756 -0.3671 -0.2956 -0.5523
 1357SOL    HW115533   3.436   2.936   9.843  1.7776  0.5596 -0.4185
 1357SOL    HW215534   3.472   2.810   9.776  0.3707  0.7286  3.5803
 1358SOL     OW15535   3.367   4.241   9.047 -0.1778  0.0048 -0.7872
 1358SOL    HW115536   3.293   4.229   8.987  1.3689  1.6197 -2.9816
 1358SOL    HW215537   3.340   4.188   9.123  1.2092 -0.3359 -0.5367
 1359SOL     OW15538   1.116   2.672  10.219 -0.1219  0.8262 -0.4645
 1359SOL    HW115539   1.163   2.694  10.139  3.2915 -0.8904  1.0613
 1359SOL    HW215540   1.105   2.577  10.210 -0.9620  0.8832 -0.0994
 1360SOL     OW15541   3.547   2.090   5.438  0.0236 -0.0830  0.5505
 1360SOL    HW115542   3.451   2.091   5.439  0.0268  1.6483 -0.8410
 1360SOL    HW215543   3.563   2.155   5.370  0.4077  0.1712  0.8809
 1361SOL     OW15544   4.447   0.921  14.065  0.5566  0.5637  0.4043
 1361SOL    HW115545   4.494   0.970  14.132  1.2640  1.1812 -0.5459
 1361SOL    HW215546   4.401   0.989  14.017 -1.4481 -1.6781 -0.8710
 1362SOL     OW15547   4.286   0.963   3.883  0.0770  0.0917 -0.0355
 1362SOL    HW115548   4.252   1.050   3.861  1.3926  0.0971 -2.0659
 1362SOL    HW215549   4.351   0.934   3.819 -1.1285 -0.0768 -1.2012
 1363SOL     OW15550   2.466   1.336  12.571 -0.1414 -0.2848  0.1808
 1363SOL    HW115551   2.438   1.377  12.652 -1.4884 -2.7437  0.9451
 1363SOL    HW215552   2.478   1.245  12.598 -2.9929 -1.1847 -1.5444
 1364SOL     OW15553   0.598   2.433   8.369  0.3071 -0.3201  0.5746
 1364SOL    HW115554   0.539   2.394   8.432  2.7400  0.2948  3.2190
 1364SOL    HW215555   0.569   2.523   8.383 -2.7345 -1.1871 -0.2384
 1365SOL     OW15556   4.602   1.303   3.320  0.0769 -0.4734 -0.0558
 1365SOL    HW115557   4.684   1.297   3.270  1.1156 -1.0173  1.7086
 1365SOL    HW215558   4.586   1.398   3.322  0.9880 -0.3475  1.4990
 1366SOL     OW15559   4.702   0.449   8.855  0.3210 -0.7055 -0.2775
 1366SOL    HW115560   0.014   0.385   8.795  1.0131  3.2546 -4.0144
 1366SOL    HW215561   4.687   0.522   8.795 -0.0580 -0.2456  0.3703
 1367SOL     OW15562   2.827   4.435  14.623  0.1030 -0.4780 -0.4515
 1367SOL    HW115563   2.838   4.525  14.654  1.2724 -0.9900  0.6217
 1367SOL    HW215564   2.787   4.393  14.699 -2.7645 -0.0624 -1.7159
 1368SOL     OW15565   1.720   3.589  17.150  0.2180 -0.3945 -0.2439
 1368SOL    HW115566   1.781   3.577  17.223  2.2433 -0.4229 -1.9623
 1368SOL    HW215567   1.694   3.681  17.154  1.2508 -0.1604  1.0710
 1369SOL     OW15568   3.137   3.693   9.073 -0.1247  0.3165 -0.4349
 1369SOL    HW115569   3.056   3.642   9.082 -1.9988  3.4655  0.5149
 1369SOL    HW215570   3.095   3.775   9.047 -1.6127 -0.3614 -0.1962
 1370SOL     OW15571   2.259   4.030   7.751  0.7177  0.2197  0.1776
 1370SOL    HW115572   2.306   4.036   7.668 -0.2740  0.6208 -0.3608
 1370SOL    HW215573   2.232   4.122   7.762 -0.1122  0.0226 -0.2561
 1371SOL     OW15574   1.469   1.607   4.166 -0.1460 -0.5052 -0.0704
 1371SOL    HW115575   1.527   1.532   4.154 -0.9615 -1.7345  3.7410
 1371SOL    HW215576   1.522   1.676   4.125 -0.5725  0.5347  1.1342
 1372SOL     OW15577   1.264   1.882   4.104  0.0336  0.0656  0.1460
 1372SOL    HW115578   1.204   1.837   4.163  0.7290 -1.1328 -0.0600
 1372SOL    HW215579   1.337   1.890   4.166  1.0249  2.0543 -1.2565
 1373SOL     OW15580   2.052   4.184  17.700  0.0704 -0.0679  0.5891
 1373SOL    HW115581   2.133   4.183   0.047 -0.7017  1.9739  1.8016
 1373SOL    HW215582   2.057   4.267  17.653  0.4479 -0.8234 -0.7345
 1374SOL     OW15583   0.287   3.593  17.241  0.4587 -0.1846 -0.1459
 1374SOL    HW115584   0.277   3.678  17.285 -1.8771 -0.0396 -1.0081
 1374SOL    HW215585   0.218   3.546  17.288 -0.2261  0.4164 -0.5601
 1375SOL     OW15586   4.525   1.053  10.656 -0.1623  0.0857  0.1389
 1375SOL    HW115587   4.531   1.070  10.562  2.8317 -1.3947  0.0394
 1375SOL    HW215588   4.534   1.144  10.682 -1.1918 -0.4336  2.3404
 1376SOL     OW15589   1.742   3.845  13.428 -0.8267  0.7887  0.5509
 1376SOL    HW115590   1.738   3.785  13.503  1.2798  0.9981  0.8384
 1376SOL    HW215591   1.665   3.815  13.381  1.2678  0.1335 -2.4873
 1377SOL     OW15592   0.556   1.691   8.537 -0.4403  0.3535 -0.7030
 1377SOL    HW115593   0.500   1.723   8.608  1.1417 -2.1717  1.6694
 1377SOL    HW215594   0.544   1.598   8.556 -0.4235  0.5623  0.3259
 1378SOL     OW15595   2.203   3.178   4.459  0.6375 -0.0125  0.2709
 1378SOL    HW115596   2.171   3.240   4.525  0.1009 -1.4946  1.4046
 1378SOL    HW215597   2.295   3.171   4.484  0.8077 -2.2504 -0.9874
 1379SOL     OW15598   2.506   1.190   1.738  0.9492  0.5685  0.0248
 1379SOL    HW115599   2.537   1.280   1.746  0.8374  0.5714  0.4448
 1379SOL    HW215600   2.412   1.207   1.753  1.4369  2.5738  0.8135
 1380SOL     OW15601   3.463   3.651   0.647  0.1479  0.2254 -0.1660
 1380SOL    HW115602   3.553   3.623   0.664 -0.0259  0.1931  0.6804
 1380SOL    HW215603   3.427   3.562   0.649 -1.0611  0.7449  1.5360
 1381SOL     OW15604   1.033   1.653   1.064  0.1245  0.4392  0.1249
 1381SOL    HW115605   1.113   1.682   1.020 -1.2405  1.6274 -1.5567
 1381SOL    HW215606   1.002   1.584   1.005  0.8333  0.5572 -0.3841
 1382SOL     OW15607   3.205   3.090   5.749  0.4154 -0.0568 -0.3276
 1382SOL    HW115608   3.269   3.132   5.691  0.4562  0.4970  0.1179
 1382SOL    HW215609   3.154   3.042   5.685 -0.5707  4.4276 -2.9301
 1383SOL     OW15610   1.336   3.538   5.992  0.0414 -0.2727 -0.5487
 1383SOL    HW115611   1.369   3.462   5.944  2.2946 -1.1162  2.3254
 1383SOL    HW215612   1.406   3.542   6.057 -0.2053 -0.4413 -0.2759
 1384SOL     OW15613   1.782   1.053   3.114 -0.2688 -0.3115 -0.2927
 1384SOL    HW115614   1.730   1.092   3.044 -0.8977  1.6565  1.2932
 1384SOL    HW215615   1.825   0.970   3.091  2.9360  1.1251  0.4055
 1385SOL     OW15616   2.628   4.648   4.526  0.0536  0.2602  0.1015
 1385SOL    HW115617   2.670   4.588   4.588 -0.7400  1.3686  1.7092
 1385SOL    HW215618   2.577   4.580   4.483 -0.5647  2.5257 -2.7620
 1386SOL     OW15619   2.581   2.755   7.042 -0.0470 -0.1940  0.2558
 1386SOL    HW115620   2.644   2.804   6.990  1.3871 -0.5836  1.6194
 1386SOL    HW215621   2.641   2.722   7.110  0.7685  1.1423  0.1742
 1387SOL     OW15622   0.106   3.945   3.538 -0.2374 -0.5039  0.2836
 1387SOL    HW115623   0.186   3.894   3.527 -0.3326 -1.2951  3.3723
 1387SOL    HW215624   0.075   3.944   3.447  1.7622 -0.6063 -0.4007
 1388SOL     OW15625   4.111   0.571   2.208  0.0158 -0.5988 -0.1070
 1388SOL    HW115626   4.206   0.557   2.200  0.4416  1.9343  0.5588
 1388SOL    HW215627   4.086   0.624   2.132 -0.6607 -0.4900  0.1999
 1389SOL     OW15628   2.305   0.676   3.356 -0.2872  0.3357 -0.5157
 1389SOL    HW115629   2.232   0.627   3.318  1.8729 -1.6074 -2.1496
 1389SOL    HW215630   2.268   0.758   3.390 -2.3671 -0.1556 -1.5863
 1390SOL     OW15631   0.964   0.287   1.192 -0.0772  0.2936 -0.2584
 1390SOL    HW115632   0.985   0.257   1.281 -1.6682 -1.4304 -0.4353
 1390SOL    HW215633   1.041   0.262   1.142  0.8193  0.7715  0.8959
 1391SOL     OW15634   3.708   0.597   2.359  0.3132  1.0433  0.0705
 1391SOL    HW115635   3.765   0.671   2.340 -1.4493  2.1494 -0.8498
 1391SOL    HW215636   3.757   0.552   2.428  0.6556  1.3378  0.0222
 1392SOL     OW15637   3.286   4.145   0.140 -0.0579 -0.6639  0.3526
 1392SOL    HW115638   3.275   4.126   0.047 -2.0262 -0.8389  0.6264
 1392SOL    HW215639   3.209   4.201   0.150  0.8486  0.5272  0.7273
 1393SOL     OW15640   4.688   4.699   8.108  0.5289 -0.8090 -0.1201
 1393SOL    HW115641   0.047   0.016   8.122  0.4422 -1.1983  1.6720
 1393SOL    HW215642   4.637   4.716   8.188  1.3224 -1.8039  0.5969
 1394SOL     OW15643   1.585   3.129   5.414  0.2239 -0.2899  0.4864
 1394SOL    HW115644   1.546   3.216   5.407  0.3550 -0.2505  0.2593
 1394SOL    HW215645   1.526   3.079   5.470 -0.7107 -0.8767 -1.0319
 1395SOL     OW15646   1.842   3.195   7.047  0.3367  0.2395  0.7892
 1395SOL    HW115647   1.838   3.165   7.138 -0.4495  0.6237  0.8788
 1395SOL    HW215648   1.749   3.182   7.029  0.8893  0.2341 -1.9681
 1396SOL     OW15649   2.277   2.834   5.685 -0.4292 -0.4801 -0.4238
 1396SOL    HW115650   2.345   2.789   5.634  2.5110 -0.8615  3.7885
 1396SOL    HW215651   2.272   2.783   5.766  1.0212 -1.0499 -0.6845
 1397SOL     OW15652   2.680   2.435   7.161  0.7101 -0.3619 -0.2377
 1397SOL    HW115653   2.736   2.462   7.234 -0.2687 -0.3018  0.4958
 1397SOL    HW215654   2.612   2.385   7.207  0.5228 -0.5509 -0.7226
 1398SOL     OW15655   2.310   2.776   5.226 -0.0295 -0.2445 -0.0864
 1398SOL    HW115656   2.286   2.784   5.318  1.0993 -0.0620  0.1862
 1398SOL    HW215657   2.333   2.868   5.215 -2.0641  0.4329  1.2274
 1399SOL     OW15658   0.257   0.757   8.707  0.3193 -0.1688 -0.4292
 1399SOL    HW115659   0.270   0.852   8.714  0.1177 -0.1947  0.2982
 1399SOL    HW215660   0.312   0.726   8.779  1.4080  0.5809 -0.9378
 1400SOL     OW15661   1.758   2.459   7.887 -0.3263  0.0414  0.3978
 1400SOL    HW115662   1.670   2.496   7.891 -0.3920  0.0181 -0.8992
 1400SOL    HW215663   1.770   2.430   7.797  1.6437  0.1154  0.6473
 1401SOL     OW15664   1.987   0.160   7.220 -0.4019 -0.0312 -0.0467
 1401SOL    HW115665   2.073   0.174   7.259 -0.0056 -1.5768 -0.3835
 1401SOL    HW215666   1.980   0.224   7.149 -0.5292 -1.0387 -0.9216
 1402SOL     OW15667   0.618   0.431   3.550  0.0890 -0.2723  0.1414
 1402SOL    HW115668   0.603   0.342   3.583  0.2916  0.1230  1.3158
 1402SOL    HW215669   0.579   0.487   3.617  3.1517 -0.7457  2.3134
 1403SOL     OW15670   0.599   2.478   9.322 -0.0055  0.2838  0.2129
 1403SOL    HW115671   0.683   2.454   9.281 -0.3385  1.3825 -1.1089
 1403SOL    HW215672   0.630   2.491   9.412  0.9470  0.3009 -0.1145
 1404SOL     OW15673   0.588   1.002   7.027  0.4818 -0.6207  0.2140
 1404SOL    HW115674   0.592   1.005   6.932 -1.7144 -0.6179  0.1104
 1404SOL    HW215675   0.498   1.031   7.042  0.4270 -0.1936 -0.9527
 1405SOL     OW15676   3.531   3.685   3.302  0.1843  0.1896 -0.3386
 1405SOL    HW115677   3.474   3.761   3.288  0.7378  1.1605  2.5121
 1405SOL    HW215678   3.466   3.619   3.327  1.8632 -2.0773 -2.0428
 1406SOL     OW15679   1.540   4.080   7.679 -0.0362  0.0603 -0.0772
 1406SOL    HW115680   1.553   4.075   7.584  0.1758 -3.2760  0.1224
 1406SOL    HW215681   1.581   4.164   7.699 -0.1125  0.2077 -0.5360
 1407SOL     OW15682   4.377   2.169  10.146  0.4331  0.0075  0.3946
 1407SOL    HW115683   4.392   2.251  10.192 -0.4024  0.4990 -0.2262
 1407SOL    HW215684   4.294   2.183  10.100  0.1316 -1.7554  0.3765
 1408SOL     OW15685   2.297   1.738   5.955 -0.7048  0.0061  0.2280
 1408SOL    HW115686   2.210   1.728   5.917  0.2408 -0.9313 -1.6793
 1408SOL    HW215687   2.294   1.833   5.943  0.2414  0.0410  0.2779
 1409SOL     OW15688   1.667   2.652  10.358 -0.2237  0.4430 -0.4441
 1409SOL    HW115689   1.723   2.727  10.335  0.0487  0.1655 -0.6795
 1409SOL    HW215690   1.729   2.580  10.365 -1.8614 -0.9631 -0.2551
 1410SOL     OW15691   2.689   0.767  11.016 -0.1329  0.0242 -0.6333
 1410SOL    HW115692   2.679   0.672  11.007 -0.2458  0.0293 -0.5666
 1410SOL    HW215693   2.663   0.779  11.107  2.9826  0.0306  0.2326
 1411SOL     OW15694   1.742   0.034   4.777  0.3185  0.6013 -0.5096
 1411SOL    HW115695   1.798   4.692   4.815  0.0877  0.7577  0.1110
 1411SOL    HW215696   1.792   0.112   4.803 -0.2966  0.9249 -0.2998
 1412SOL     OW15697   2.861   1.558  12.982  0.2436 -0.0787 -0.1176
 1412SOL    HW115698   2.891   1.646  12.963 -2.3775  0.7307 -0.5241
 1412SOL    HW215699   2.912   1.523  13.055  1.2873 -1.8776 -1.7196
 1413SOL     OW15700   0.858   3.605   3.298 -0.1776 -0.6395  0.7047
 1413SOL    HW115701   0.906   3.686   3.280  1.6675 -2.1830 -1.3454
 1413SOL    HW215702   0.793   3.601   3.229  0.2823  1.7215  0.1367
 1414SOL     OW15703   4.084   2.409   8.467 -0.3086  0.4781  0.0140
 1414SOL    HW115704   4.007   2.370   8.509  0.3150 -1.0508 -0.2501
 1414SOL    HW215705   4.126   2.326   8.447 -1.1811  0.3858 -1.4884
 1415SOL     OW15706   1.155   4.485   3.403  0.2159  0.4600 -0.2592
 1415SOL    HW115707   1.200   4.532   3.473  3.0018 -1.8885 -0.4833
 1415SOL    HW215708   1.215   4.493   3.329  1.0294  0.0581  0.3517
 1416SOL     OW15709   3.493   0.714   3.046  0.2686  0.2971  0.2645
 1416SOL    HW115710   3.456   0.778   3.106 -4.3869 -2.2538  0.0934
 1416SOL    HW215711   3.425   0.721   2.979 -0.6434 -3.0125  0.8537
 1417SOL     OW15712   1.193   0.315   4.575  0.1448 -0.3031 -0.7876
 1417SOL    HW115713   1.221   0.274   4.494  0.8608 -2.6397  0.6620
 1417SOL    HW215714   1.198   0.246   4.641 -0.8906  0.5606  0.2038
 1418SOL     OW15715   3.703   2.532   1.503  0.6996 -0.4710  1.0237
 1418SOL    HW115716   3.676   2.564   1.416 -1.9148 -1.8764  1.2948
 1418SOL    HW215717   3.778   2.478   1.478  0.3345 -0.3880 -0.2517
 1419SOL     OW15718   4.010   3.489   5.291  0.1799 -0.9631 -0.0455
 1419SOL    HW115719   4.073   3.547   5.334 -2.3689  0.4275  1.8398
 1419SOL    HW215720   3.941   3.495   5.358 -0.5911  1.2308 -1.0249
 1420SOL     OW15721   3.798   2.687   7.088 -0.5954 -0.0172 -0.0260
 1420SOL    HW115722   3.872   2.658   7.035 -0.0384 -0.7055  1.1266
 1420SOL    HW215723   3.726   2.706   7.028 -1.4538 -0.0297  0.9946
 1421SOL     OW15724   2.074   4.479  11.674 -0.0104 -0.5687  0.5922
 1421SOL    HW115725   2.066   4.410  11.741  1.8671 -0.1953  1.2113
 1421SOL    HW215726   2.092   4.426  11.596  1.7332  2.1874 -0.8607
 1422SOL     OW15727   2.617   4.083   5.528 -0.3291  0.1397  0.5493
 1422SOL    HW115728   2.574   4.096   5.612  1.0483  2.0894  0.9652
 1422SOL    HW215729   2.585   4.155   5.473  1.9079 -0.3844 -1.4237
 1423SOL     OW15730   0.300   3.063   4.483  0.2695 -0.3006  0.4735
 1423SOL    HW115731   0.359   3.048   4.556 -0.7592 -2.6690  0.8322
 1423SOL    HW215732   0.354   3.037   4.408  1.9260  1.5631  1.0132
 1424SOL     OW15733   0.581   3.886   5.146  0.4733  0.0165 -0.7059
 1424SOL    HW115734   0.498   3.839   5.151  0.8245 -0.6387 -0.9530
 1424SOL    HW215735   0.609   3.866   5.057 -1.6039  1.8684 -1.7904
 1425SOL     OW15736   1.586   2.134   4.544  0.1125 -0.0386 -0.0769
 1425SOL    HW115737   1.589   2.222   4.507 -0.8665 -0.7330 -1.8365
 1425SOL    HW215738   1.676   2.122   4.573  0.4163  1.8201 -0.2813
 1426SOL     OW15739   2.805   4.638  16.847  0.1160 -0.1884  0.0313
 1426SOL    HW115740   2.856   4.616  16.769 -0.0156 -0.4663  0.0236
 1426SOL    HW215741   2.724   4.626  16.797  0.4986 -1.3302 -0.3170
 1427SOL     OW15742   2.099   0.037  14.566 -0.8595 -0.0772 -0.4977
 1427SOL    HW115743   2.038   0.053  14.495  2.0771  1.2524 -2.6914
 1427SOL    HW215744   2.181   0.076  14.537 -1.9078  1.8617 -0.8316
 1428SOL     OW15745   3.025   0.837  17.447  0.0516 -0.1463  0.5609
 1428SOL    HW115746   3.088   0.802  17.511  1.1598  1.5494  0.3887
 1428SOL    HW215747   3.076   0.896  17.392 -0.7853  0.1792  0.1424
 1429SOL     OW15748   4.360   3.325   5.923 -0.0346 -0.4125  0.5470
 1429SOL    HW115749   4.292   3.283   5.976 -0.9636 -0.2215 -0.4986
 1429SOL    HW215750   4.423   3.354   5.989 -0.6067  1.3964  0.2989
 1430SOL     OW15751   2.603   0.330  12.220 -0.1332 -0.6017 -0.0486
 1430SOL    HW115752   2.557   0.367  12.295  0.0595  0.9579 -0.7066
 1430SOL    HW215753   2.677   0.390  12.222 -0.4443 -0.1794 -1.3217
 1431SOL     OW15754   1.015   0.151   1.451  0.7203  0.3512  0.2521
 1431SOL    HW115755   0.926   0.174   1.478  1.3322  0.0931  2.5469
 1431SOL    HW215756   1.017   0.055   1.457 -2.2186  0.3685  1.7021
 1432SOL     OW15757   3.535   0.366   6.339  0.3432  0.2154 -0.0524
 1432SOL    HW115758   3.520   0.287   6.391  2.0520  0.3006  0.5667
 1432SOL    HW215759   3.610   0.336   6.287 -0.1453  1.1737 -1.2946
 1433SOL     OW15760   0.805   4.098   6.285 -0.2801 -0.7255  0.6894
 1433SOL    HW115761   0.843   4.027   6.233  0.7464  0.0723  0.3493
 1433SOL    HW215762   0.713   4.072   6.275 -0.8985  1.0103  1.8988
 1434SOL     OW15763   0.383   2.262   1.525  0.5314 -1.1057  0.5057
 1434SOL    HW115764   0.405   2.224   1.440 -1.9455  2.0816 -1.5486
 1434SOL    HW215765   0.386   2.356   1.504 -0.7757 -1.3682 -0.8558
 1435SOL     OW15766   2.138   2.414  10.419  0.0389  0.0759  0.1488
 1435SOL    HW115767   2.142   2.429  10.513  0.8222 -0.2991  0.1716
 1435SOL    HW215768   2.162   2.321  10.423  1.0465  0.3505  0.2886
 1436SOL     OW15769   4.685   4.116   2.670  0.6137 -0.4320 -0.0749
 1436SOL    HW115770   0.034   4.160   2.710  0.9032 -0.6636 -0.3574
 1436SOL    HW215771   4.697   4.024   2.693  1.7246  0.4848  2.9788
 1437SOL     OW15772   1.290   4.682   3.944 -0.0011 -0.4565 -0.6575
 1437SOL    HW115773   1.318   4.594   3.916  1.2726 -0.4395  0.5516
 1437SOL    HW215774   1.196   4.668   3.931 -0.1101  0.1327 -0.4944
 1438SOL     OW15775   0.473   4.204   9.043 -0.2279  0.0855  0.0610
 1438SOL    HW115776   0.404   4.218   8.978 -1.4646  1.7561  1.6989
 1438SOL    HW215777   0.459   4.274   9.107  1.0907  0.4855 -0.0845
 1439SOL     OW15778   0.026   4.474  12.081 -0.5562 -0.6783  0.4449
 1439SOL    HW115779   0.096   4.493  12.143  1.0418  1.1213 -1.8916
 1439SOL    HW215780   4.718   4.391  12.114  1.3539 -1.8834 -0.6442
 1440SOL     OW15781   1.957   0.882   6.724 -0.0949 -0.1928  0.1925
 1440SOL    HW115782   1.907   0.937   6.784  0.5064  1.2500 -0.6244
 1440SOL    HW215783   1.889   0.827   6.685  0.2911 -0.1313 -0.5625
 1441SOL     OW15784   2.204   3.938   0.394 -0.6353  0.1381 -0.6670
 1441SOL    HW115785   2.223   3.847   0.419  1.2632  0.0937 -2.2002
 1441SOL    HW215786   2.131   3.954   0.453  0.2557 -2.8537  1.2486
 1442SOL     OW15787   2.541   1.735   4.064 -0.3394 -0.1216  0.3862
 1442SOL    HW115788   2.582   1.736   3.978 -0.6121  1.1764  0.2753
 1442SOL    HW215789   2.455   1.774   4.051  0.1592  0.9920  0.4137
 1443SOL     OW15790   4.599   1.742   9.736  0.1943  0.1781  0.4186
 1443SOL    HW115791   4.654   1.806   9.691  1.2826  0.6766  2.4512
 1443SOL    HW215792   4.562   1.805   9.797  2.1448  0.5386  1.2188
 1444SOL     OW15793   0.234   2.919   0.973  0.2481  0.0782 -0.4656
 1444SOL    HW115794   0.309   2.863   0.951 -1.2825 -2.0462 -0.2540
 1444SOL    HW215795   0.208   2.938   0.883 -0.5416  0.8331 -0.0732
 1445SOL     OW15796   0.434   4.223   7.914  0.1623 -0.5536  0.2069
 1445SOL    HW115797   0.474   4.311   7.916  0.3073 -0.6410  1.8351
 1445SOL    HW215798   0.395   4.224   8.002 -0.2313  2.0569  0.0095
 1446SOL     OW15799   4.464   1.582   7.675 -0.9247  0.1141 -0.0289
 1446SOL    HW115800   4.506   1.572   7.761 -3.0092  1.6898  1.1860
 1446SOL    HW215801   4.387   1.636   7.694  0.2091  1.4565  0.8063
 1447SOL     OW15802   3.878   3.271   2.588  0.1971 -0.1927 -0.2323
 1447SOL    HW115803   3.910   3.308   2.670  0.4165 -0.4986 -0.1788
 1447SOL    HW215804   3.916   3.184   2.597 -0.0808 -0.1622  1.2146
 1448SOL     OW15805   0.923   0.933  12.661  0.1683 -0.2496  0.4438
 1448SOL    HW115806   0.919   0.860  12.599 -1.3126  1.5866 -1.6166
 1448SOL    HW215807   1.001   0.980  12.633 -1.2006  0.2237 -2.5202
 1449SOL     OW15808   1.156   1.678  14.514  0.5528 -0.4315  0.0255
 1449SOL    HW115809   1.079   1.654  14.564  0.5464  0.0366  0.2349
 1449SOL    HW215810   1.220   1.639  14.573  1.0145 -1.2329 -0.9975
 1450SOL     OW15811   0.563   4.472   6.865  0.5123  0.0065  0.1665
 1450SOL    HW115812   0.645   4.457   6.912  1.1349  1.5388 -0.4460
 1450SOL    HW215813   0.559   4.399   6.803 -0.9577  0.3074 -0.0936
 1451SOL     OW15814   1.834   1.361   3.421  0.6248  0.1050 -0.5768
 1451SOL    HW115815   1.804   1.273   3.444  1.7607  0.0485  0.6652
 1451SOL    HW215816   1.815   1.358   3.327 -0.3785 -0.0890 -0.3762
 1452SOL     OW15817   1.278   0.352  16.135  0.2976 -0.3970 -0.7529
 1452SOL    HW115818   1.241   0.405  16.064 -1.9050  0.1787  0.8328
 1452SOL    HW215819   1.361   0.329  16.092  0.8199 -1.7106  1.0143
 1453SOL     OW15820   4.515   0.711   8.959 -0.0655  0.0188  0.1727
 1453SOL    HW115821   4.582   0.696   9.025 -1.3375 -0.9740  1.2543
 1453SOL    HW215822   4.534   0.643   8.894 -1.3886  2.0575 -2.3526
 1454SOL     OW15823   4.422   1.721  14.483 -0.3180 -0.3427 -0.7190
 1454SOL    HW115824   4.472   1.796  14.450 -0.8122  0.0365 -0.5898
 1454SOL    HW215825   4.414   1.674  14.400 -1.3501 -0.3124 -0.6257
 1455SOL     OW15826   0.519   4.402   8.219  0.6379 -0.3564  0.2813
 1455SOL    HW115827   0.500   4.475   8.278  0.4056 -2.0571  2.2777
 1455SOL    HW215828   0.441   4.347   8.221 -0.3712  1.1005  1.1258
 1456SOL     OW15829   1.661   0.037   5.556 -0.4338  0.6749  0.0141
 1456SOL    HW115830   1.666   4.668   5.569 -2.9137  0.8059  1.9178
 1456SOL    HW215831   1.723   0.066   5.623  1.2071 -0.8549 -0.8313
 1457SOL     OW15832   0.192   2.134  12.960  0.2666  0.5334 -0.6022
 1457SOL    HW115833   0.100   2.122  12.984  0.1190  1.1327 -0.8673
 1457SOL    HW215834   0.177   2.178  12.876 -1.5125 -1.8221 -1.5199
 1458SOL     OW15835   0.687   2.932  12.829  0.4976 -0.3737 -0.3684
 1458SOL    HW115836   0.778   2.961  12.835  1.2211 -2.6361 -0.3519
 1458SOL    HW215837   0.649   2.995  12.768  0.4814  1.6030  1.7050
 1459SOL     OW15838   1.024   2.007   8.890 -0.8028 -0.0216  0.0017
 1459SOL    HW115839   0.963   2.078   8.908 -1.2199 -0.4834  0.3912
 1459SOL    HW215840   1.060   1.988   8.977  1.3685  0.7759 -0.7080
 1460SOL     OW15841   0.760   3.099  16.175 -0.2538  0.1127 -0.0057
 1460SOL    HW115842   0.824   3.042  16.130 -0.3198  0.5740 -0.6735
 1460SOL    HW215843   0.805   3.108  16.259  1.0162  2.0723 -0.8781
 1461SOL     OW15844   1.031   1.784  16.720 -0.2392 -0.4752  0.2941
 1461SOL    HW115845   1.030   1.795  16.625 -1.5965 -0.0027  0.3695
 1461SOL    HW215846   1.081   1.703  16.734 -1.7857 -1.7086 -1.2239
 1462SOL     OW15847   3.534   2.975   3.831  0.0344  0.2213 -0.1491
 1462SOL    HW115848   3.603   3.006   3.772  0.4510 -0.9288 -0.2528
 1462SOL    HW215849   3.525   2.884   3.803  2.7035 -0.5331  1.4131
 1463SOL     OW15850   3.873   0.814   2.312  0.2527 -0.0760  0.1198
 1463SOL    HW115851   3.879   0.903   2.346  5.4769 -0.6879  0.9021
 1463SOL    HW215852   3.905   0.830   2.223 -1.5276  1.4694 -0.2385
 1464SOL     OW15853   3.099   3.280   5.159 -0.3482 -0.0229  0.4680
 1464SOL    HW115854   3.138   3.362   5.190  3.0634 -1.2101 -0.6204
 1464SOL    HW215855   3.122   3.290   5.067 -0.7535  4.3128  0.8624
 1465SOL     OW15856   1.727   2.345   9.787 -0.1109  0.2726  0.3253
 1465SOL    HW115857   1.680   2.422   9.819  1.3315  0.8944  0.9308
 1465SOL    HW215858   1.679   2.272   9.825 -0.9156  0.8610  0.4558
 1466SOL     OW15859   4.047   1.045  11.250  0.5715 -0.0675 -0.2647
 1466SOL    HW115860   4.099   1.037  11.330  1.4071 -1.7708 -0.9893
 1466SOL    HW215861   4.061   0.961  11.207  1.1366 -0.3769  0.5245
 1467SOL     OW15862   0.165   0.882   0.145 -0.0616  0.5440  0.1951
 1467SOL    HW115863   0.100   0.947   0.119  1.8685  1.8877 -1.3461
 1467SOL    HW215864   0.241   0.937   0.166  0.6417 -0.6334  0.7265
 1468SOL     OW15865   1.099   3.501   1.799  0.1197  0.1869 -0.3267
 1468SOL    HW115866   1.004   3.493   1.811  0.2009  0.5118  0.5010
 1468SOL    HW215867   1.115   3.473   1.709  0.8193  0.5782 -0.3235
 1469SOL     OW15868   4.531   4.521   5.335 -0.0558  0.1941 -0.3694
 1469SOL    HW115869   4.585   4.451   5.372 -0.3657  0.4978  0.6693
 1469SOL    HW215870   4.484   4.480   5.263 -0.2597  1.5599 -1.0235
 1470SOL     OW15871   3.581   1.583   7.441  0.0638  0.6638  0.0968
 1470SOL    HW115872   3.571   1.498   7.398 -1.2724  2.1808 -2.6227
 1470SOL    HW215873   3.544   1.635   7.369 -1.5340 -0.7383 -0.1161
 1471SOL     OW15874   0.431   3.190   7.106  1.0894  0.3955  0.5098
 1471SOL    HW115875   0.455   3.255   7.039  0.6408 -1.5793 -1.5836
 1471SOL    HW215876   0.487   3.234   7.170  0.0458  0.3217  1.4602
 1472SOL     OW15877   2.930   2.453   1.072 -0.1192 -0.2895  0.3438
 1472SOL    HW115878   2.939   2.516   1.143 -1.0357  1.8765 -1.5038
 1472SOL    HW215879   2.971   2.495   0.996  0.4376 -0.8724  0.3119
 1473SOL     OW15880   2.641   2.359  16.043 -0.0327  0.1697 -0.1850
 1473SOL    HW115881   2.565   2.402  16.004  1.6346  2.4429 -0.9043
 1473SOL    HW215882   2.610   2.329  16.129  1.1299 -1.4638 -0.3392
 1474SOL     OW15883   2.303   0.846   7.270 -0.8660 -0.0174 -0.0169
 1474SOL    HW115884   2.336   0.798   7.194 -3.4016 -0.0984 -1.0604
 1474SOL    HW215885   2.290   0.772   7.330  0.8646  1.4115  2.1066
 1475SOL     OW15886   0.314   2.174   4.737  0.0846 -0.0355 -0.1053
 1475SOL    HW115887   0.231   2.179   4.690  0.0708  0.2138 -0.0515
 1475SOL    HW215888   0.341   2.264   4.721 -0.1480  0.0464 -0.0225
 1476SOL     OW15889   2.761   1.104   2.057  0.4428  0.9944  0.2694
 1476SOL    HW115890   2.667   1.106   2.076  0.1580 -0.3465 -1.0270
 1476SOL    HW215891   2.785   1.012   2.049 -0.8400  0.7465 -0.7204
 1477SOL     OW15892   1.600   1.199   2.972 -0.0349  0.2610  0.4295
 1477SOL    HW115893   1.518   1.248   2.964 -0.1714  0.2404  1.6433
 1477SOL    HW215894   1.608   1.144   2.895  0.5396  1.9105 -0.6743
 1478SOL     OW15895   3.372   2.487  15.290 -0.7055 -0.3684 -0.6686
 1478SOL    HW115896   3.328   2.417  15.241 -1.2166  0.7081 -1.7477
 1478SOL    HW215897   3.448   2.434  15.316 -0.2403  0.0293 -1.2219
 1479SOL     OW15898   3.950   1.086   4.786  0.2239  0.2973 -0.3890
 1479SOL    HW115899   3.985   1.023   4.723 -0.9702 -0.1112 -0.6493
 1479SOL    HW215900   3.997   1.060   4.865  0.0018  0.3437 -0.2436
 1480SOL     OW15901   4.451   3.752  10.353 -0.1942  0.3326  0.0594
 1480SOL    HW115902   4.423   3.783  10.267  0.4508  0.7736  0.0092
 1480SOL    HW215903   4.474   3.838  10.388  0.1103 -0.2971  1.4368
 1481SOL     OW15904   2.830   0.360   1.080 -0.1756  0.0154 -0.0984
 1481SOL    HW115905   2.786   0.437   1.115  2.1538 -0.0665  2.9321
 1481SOL    HW215906   2.871   0.395   1.001  0.9267 -1.1749 -0.0614
 1482SOL     OW15907   2.468   0.921   9.785 -0.1250 -0.0178  0.0697
 1482SOL    HW115908   2.395   0.904   9.725 -0.3831 -1.6564  0.8406
 1482SOL    HW215909   2.420   0.977   9.846  0.5049 -2.4585  2.7827
 1483SOL     OW15910   4.493   3.649   8.736  0.1225 -0.4413  0.2345
 1483SOL    HW115911   4.562   3.616   8.795  0.0566  0.7140  0.9582
 1483SOL    HW215912   4.500   3.589   8.662  1.8594  0.7183 -0.5573
 1484SOL     OW15913   4.539   3.997   7.167 -0.0410 -0.0195  0.1670
 1484SOL    HW115914   4.586   3.970   7.246  1.4777  1.5653 -0.1711
 1484SOL    HW215915   4.455   3.952   7.174  0.0880 -0.5819 -1.7307
 1485SOL     OW15916   4.400   4.152   5.259  0.2353  0.4659 -0.3518
 1485SOL    HW115917   4.471   4.203   5.297 -0.7008 -0.1799  2.3116
 1485SOL    HW215918   4.433   4.066   5.231 -0.6723  0.5723 -1.7729
 1486SOL     OW15919   4.497   0.868   7.875  0.0253  0.1072 -0.3600
 1486SOL    HW115920   4.491   0.839   7.967 -0.9673  1.2611 -0.0552
 1486SOL    HW215921   4.537   0.953   7.890 -0.2249  0.4079 -1.4350
 1487SOL     OW15922   1.258   0.614   5.983 -0.2525 -0.0463  0.0068
 1487SOL    HW115923   1.203   0.692   5.993 -2.0701 -1.3938  0.6252
 1487SOL    HW215924   1.314   0.634   5.908  1.8851  1.0874  1.9223
 1488SOL     OW15925   2.098   2.874   7.728 -0.4425 -0.1548  0.2179
 1488SOL    HW115926   2.074   2.933   7.800 -2.4162  1.0299 -1.4168
 1488SOL    HW215927   2.082   2.787   7.765 -0.9035  0.3684  1.2644
 1489SOL     OW15928   4.435   2.533   1.331 -0.1797  0.0444  0.2948
 1489SOL    HW115929   4.420   2.510   1.239 -1.1541 -0.5684  0.6091
 1489SOL    HW215930   4.346   2.564   1.345 -0.2113  0.5211 -0.9469
 1490SOL     OW15931   1.539   4.667  12.312  0.4483  0.0423 -0.2799
 1490SOL    HW115932   1.513   0.024  12.273  3.9742  0.3899 -1.8415
 1490SOL    HW215933   1.589   4.625  12.242  0.2543  0.0263 -0.4093
 1491SOL     OW15934   1.132   4.009   7.528 -0.0635 -0.5018  0.3152
 1491SOL    HW115935   1.123   4.077   7.595 -0.2240 -1.1197  0.9261
 1491SOL    HW215936   1.224   3.988   7.540 -0.4194 -2.4834 -0.3454
 1492SOL     OW15937   2.387   0.356   4.595 -0.1746 -0.0327  0.2937
 1492SOL    HW115938   2.387   0.290   4.665  0.7332  0.0284  0.3528
 1492SOL    HW215939   2.478   0.379   4.575 -1.4827  2.4260 -2.6877
 1493SOL     OW15940   3.111   1.878   3.621  0.0975 -0.9159 -0.2124
 1493SOL    HW115941   3.170   1.933   3.569 -0.3556  0.8471  1.1414
 1493SOL    HW215942   3.027   1.910   3.588 -0.0380 -0.6904  0.3506
 1494SOL     OW15943   1.127   3.083   1.739  0.6470 -0.1906  0.2594
 1494SOL    HW115944   1.047   3.082   1.791  1.2687 -0.3812  1.2063
 1494SOL    HW215945   1.193   3.121   1.796 -1.0089  0.1442  1.9757
 1495SOL     OW15946   1.052   4.217   7.377  0.4069 -0.1038  0.6383
 1495SOL    HW115947   0.959   4.223   7.354  0.7698  0.5386 -0.6046
 1495SOL    HW215948   1.055   4.129   7.414 -3.3376 -0.2883  0.5060
 1496SOL     OW15949   1.324   4.130   2.946  0.4728 -0.0096  0.6324
 1496SOL    HW115950   1.291   4.045   2.975  0.9513 -0.6024 -0.5811
 1496SOL    HW215951   1.413   4.104   2.925  0.7018  1.9327 -0.8427
 1497SOL     OW15952   3.240   1.566   0.681 -0.6085  0.4025 -0.5635
 1497SOL    HW115953   3.219   1.650   0.722  0.0618  1.3951 -2.2444
 1497SOL    HW215954   3.217   1.511   0.755  0.8446  0.4699 -0.0569
 1498SOL     OW15955   1.644   4.332   3.833  0.1917 -0.2425  0.1315
 1498SOL    HW115956   1.618   4.249   3.793 -0.2911 -0.5786  1.1523
 1498SOL    HW215957   1.566   4.379   3.864 -1.8317 -3.8569  0.5433
 1499SOL     OW15958   4.199   1.639  16.312  0.2509 -0.0790  0.5890
 1499SOL    HW115959   4.263   1.601  16.252  0.7225  0.2041  0.9092
 1499SOL    HW215960   4.210   1.728  16.279 -0.1420 -0.9180 -1.7888
 1500SOL     OW15961   2.798   0.911  11.499 -0.1741  0.2404  0.1628
 1500SOL    HW115962   2.873   0.858  11.525  0.3736  1.4928  1.0866
 1500SOL    HW215963   2.839   0.997  11.501  0.4094 -0.0751  1.8558
 1501SOL     OW15964   0.641   3.637   8.316  0.3949 -0.2984 -0.3754
 1501SOL    HW115965   0.676   3.566   8.370  1.8272  0.4314 -0.3391
 1501SOL    HW215966   0.551   3.608   8.299  0.4379  1.7082 -4.1032
 1502SOL     OW15967   2.479   2.803  17.072  0.9513  0.1363  0.3666
 1502SOL    HW115968   2.424   2.725  17.068  3.6416 -1.6932 -1.0703
 1502SOL    HW215969   2.455   2.823  17.163 -0.0750 -0.3270  0.1945
 1503SOL     OW15970   3.618   4.498   5.049  0.4490  0.1946 -0.3499
 1503SOL    HW115971   3.524   4.512   5.058  0.5554  0.8816 -0.2338
 1503SOL    HW215972   3.623   4.404   5.067  1.0271  0.4044  0.5933
 1504SOL     OW15973   1.640   4.468   4.594  0.3889  0.5479  0.0791
 1504SOL    HW115974   1.734   4.453   4.596  0.0011 -2.1503 -1.6611
 1504SOL    HW215975   1.623   4.500   4.682 -0.3218 -0.8290  0.4417
 1505SOL     OW15976   3.524   0.879   2.571 -0.2887  0.2908 -0.5557
 1505SOL    HW115977   3.524   0.967   2.533  0.0032  0.4098 -0.2738
 1505SOL    HW215978   3.488   0.897   2.658  2.6645  0.7073  0.5476
 1506SOL     OW15979   0.176   1.368   9.642 -0.0225 -0.1477 -0.0084
 1506SOL    HW115980   0.178   1.443   9.583  0.3540 -0.5919 -0.5566
 1506SOL    HW215981   0.100   1.396   9.694 -0.3847  0.0384 -0.6467
 1507SOL     OW15982   3.392   2.320  14.041  0.6740  0.1064 -0.5612
 1507SOL    HW115983   3.465   2.312  14.103  0.0591 -2.4775 -0.1885
 1507SOL    HW215984   3.436   2.304  13.958 -2.9365 -1.6621 -2.1180
 1508SOL     OW15985   4.377   1.696   5.024 -0.0583 -0.0319  0.0621
 1508SOL    HW115986   4.317   1.705   4.949  0.8935  2.2284 -0.3994
 1508SOL    HW215987   4.313   1.691   5.095 -1.2900 -1.0582 -1.1014
 1509SOL     OW15988   4.585   0.036   3.443  0.7519 -0.5094  0.4534
 1509SOL    HW115989   4.494   0.029   3.412  0.9040 -0.9310  0.1037
 1509SOL    HW215990   4.565   0.069   3.531 -1.0619  2.9400 -1.2280
 1510SOL     OW15991   2.607   1.767  14.774  0.1928  0.0702  0.3526
 1510SOL    HW115992   2.542   1.771  14.704  0.3228 -0.8835  0.1711
 1510SOL    HW215993   2.559   1.721  14.843  2.4731 -1.9841  0.5754
 1511SOL     OW15994   0.786   0.168   0.992  0.2545 -0.3392  0.4547
 1511SOL    HW115995   0.845   0.206   1.057 -1.0305 -0.6424  1.8014
 1511SOL    HW215996   0.722   0.131   1.053  0.2116  0.1298  0.6881
 1512SOL     OW15997   4.274   1.369   3.131  0.5001 -0.2727 -0.0585
 1512SOL    HW115998   4.349   1.386   3.075  0.0972 -3.1484 -1.4509
 1512SOL    HW215999   4.219   1.307   3.082 -1.2206  0.1500  1.3205
 1513SOL     OW16000   4.436   2.826   3.344  0.0198 -0.0282  0.5201
 1513SOL    HW116001   4.382   2.885   3.398 -2.6717 -1.2799 -0.8154
 1513SOL    HW216002   4.395   2.853   3.262 -1.1412  0.7165  1.3330
 1514SOL     OW16003   3.241   4.401  17.553 -0.2550 -1.1144 -0.4313
 1514SOL    HW116004   3.152   4.436  17.544  0.0425 -0.3672 -0.4123
 1514SOL    HW216005   3.233   4.305  17.556  0.3715 -1.1861 -1.0936
 1515SOL     OW16006   4.467   0.653   7.371  0.0526  0.0749  0.1869
 1515SOL    HW116007   4.515   0.695   7.300  0.6176 -0.9208 -0.0167
 1515SOL    HW216008   4.470   0.560   7.346  2.8311 -0.0620  0.9965
 1516SOL     OW16009   1.347   1.619   5.978  0.6539  0.1372 -0.2955
 1516SOL    HW116010   1.395   1.589   6.056  0.5108 -0.2667 -0.3632
 1516SOL    HW216011   1.263   1.658   6.002  1.0743  0.4447  0.6735
 1517SOL     OW16012   4.683   1.648  12.040  0.0353  0.5801 -0.7364
 1517SOL    HW116013   0.003   1.703  12.104  2.8126 -2.9457  0.3200
 1517SOL    HW216014   0.028   1.594  12.005  0.4132 -0.2601  1.3484
 1518SOL     OW16015   0.410   0.215   1.245  0.2792 -0.8606  0.9936
 1518SOL    HW116016   0.436   0.189   1.157  1.1120 -0.5153  1.1420
 1518SOL    HW216017   0.474   0.285   1.260 -0.0127 -0.2700 -0.5110
 1519SOL     OW16018   2.538   0.188   3.903 -0.1659  0.5589  0.6202
 1519SOL    HW116019   2.487   0.232   3.971 -2.9661 -0.3249 -0.8858
 1519SOL    HW216020   2.473   0.166   3.836  0.6814 -0.0814  0.0053
 1520SOL     OW16021   3.035   0.660   0.709  0.5656 -0.1305 -0.1923
 1520SOL    HW116022   3.103   0.635   0.647  2.1747  0.1134  1.4730
 1520SOL    HW216023   2.966   0.672   0.644  0.2510 -0.0440  0.1582
 1521SOL     OW16024   3.001   1.401   7.597 -0.1383  0.5935  0.3494
 1521SOL    HW116025   2.999   1.381   7.503  1.3637 -1.5071  0.7602
 1521SOL    HW216026   3.033   1.490   7.584  0.1204  0.4746  0.1506
 1522SOL     OW16027   2.662   1.974   8.429  0.2764  0.0684  0.1062
 1522SOL    HW116028   2.717   2.029   8.485  0.4971  1.7753 -1.7532
 1522SOL    HW216029   2.658   1.900   8.489  1.7111 -0.5567 -0.5465
 1523SOL     OW16030   1.976   0.021  10.964  0.4026 -0.2151 -0.6283
 1523SOL    HW116031   2.030   0.060  10.895  1.0488  1.1856  0.6571
 1523SOL    HW216032   2.023   4.668  10.992 -0.8912 -0.4543  0.8544
 1524SOL     OW16033   0.318   1.396  11.782  0.4113  0.5324 -0.4540
 1524SOL    HW116034   0.300   1.484  11.817  2.9456  1.2009 -0.8735
 1524SOL    HW216035   0.226   1.379  11.759 -0.1754 -0.1411  2.4203
 1525SOL     OW16036   1.869   0.531  15.701 -0.2675 -0.1163  0.4344
 1525SOL    HW116037   1.909   0.523  15.614 -1.2348  2.4808 -0.2313
 1525SOL    HW216038   1.939   0.493  15.755 -0.1751 -0.9470 -0.2605
 1526SOL     OW16039   3.710   1.360   2.280  0.0923 -0.2032  0.7497
 1526SOL    HW116040   3.799   1.388   2.261 -0.1961  0.8465  0.9627
 1526SOL    HW216041   3.688   1.307   2.203  1.1063  0.7936 -0.2251
 1527SOL     OW16042   1.483   0.889   6.616  0.1135  0.4732 -0.1480
 1527SOL    HW116043   1.468   0.859   6.527 -0.1784  0.8428 -0.2250
 1527SOL    HW216044   1.438   0.829   6.677 -3.7357  1.9942 -1.4516
 1528SOL     OW16045   2.691   2.409   5.632  0.1433  0.0966 -0.1876
 1528SOL    HW116046   2.631   2.416   5.557  2.2358  0.0362 -1.8618
 1528SOL    HW216047   2.665   2.495   5.665 -1.4749 -0.8213  0.8970
 1529SOL     OW16048   4.119   3.163  11.019 -0.4016 -0.2127  0.6632
 1529SOL    HW116049   4.167   3.196  11.094 -1.2782  1.1493  0.6203
 1529SOL    HW216050   4.033   3.193  11.048 -1.0787  0.3284 -1.8827
 1530SOL     OW16051   1.209   1.672   3.412  0.5180 -0.0142 -0.4448
 1530SOL    HW116052   1.156   1.595   3.430  0.6314  0.1639  0.6561
 1530SOL    HW216053   1.211   1.721   3.494  1.3532  0.0418 -0.4975
 1531SOL     OW16054   4.246   1.773   8.327 -0.1891  0.1465  0.1417
 1531SOL    HW116055   4.324   1.823   8.350 -0.2575  0.5579 -0.5242
 1531SOL    HW216056   4.176   1.838   8.331  0.3255  0.7681 -1.1319
 1532SOL     OW16057   3.940   2.795   7.959  0.6653  0.4429  0.1807
 1532SOL    HW116058   3.873   2.726   7.964  0.4330  0.4994 -2.1935
 1532SOL    HW216059   4.023   2.758   7.986  0.3865  0.6682  1.3448
 1533SOL     OW16060   4.040   0.490  15.485 -0.1457  0.0980  0.6196
 1533SOL    HW116061   3.972   0.446  15.536  0.9949 -2.1398  0.2245
 1533SOL    HW216062   4.077   0.411  15.446 -2.1333 -0.3336 -0.3828
 1534SOL     OW16063   0.053   1.801   9.351 -0.0706  0.1818 -0.4568
 1534SOL    HW116064   0.036   1.828   9.441  0.1138  0.6228 -0.5510
 1534SOL    HW216065   4.694   1.830   9.316  1.2403  0.6971 -3.2420
 1535SOL     OW16066   1.268   1.731   0.981  0.2884  0.1376  0.8355
 1535SOL    HW116067   1.337   1.670   1.006  0.8094 -0.5128 -2.3116
 1535SOL    HW216068   1.328   1.800   0.955 -0.5131  0.6264  0.2925
 1536SOL     OW16069   4.493   1.594   4.287  0.5263  0.1119 -0.3292
 1536SOL    HW116070   4.478   1.687   4.307  1.7413 -0.0985  1.5140
 1536SOL    HW216071   4.555   1.573   4.357 -1.7062 -2.4347  0.8861
 1537SOL     OW16072   3.350   4.312   9.512  0.1534 -0.6568  0.0848
 1537SOL    HW116073   3.444   4.297   9.505  0.6266  1.6707  1.3346
 1537SOL    HW216074   3.311   4.231   9.545 -2.5711  0.8183  0.5585
 1538SOL     OW16075   4.315   2.908   4.913 -0.2059  0.1016 -0.2215
 1538SOL    HW116076   4.225   2.899   4.945 -0.2906 -0.7168 -0.7062
 1538SOL    HW216077   4.338   3.001   4.914 -0.7219  0.2313 -1.0114
 1539SOL     OW16078   0.663   2.193  16.098 -0.5860  0.2251 -0.4135
 1539SOL    HW116079   0.592   2.232  16.047 -2.2558  0.4716  2.0863
 1539SOL    HW216080   0.696   2.270  16.145  0.8095 -0.8199  0.3380
 1540SOL     OW16081   3.252   0.068   4.866  0.5052  0.5671  0.2868
 1540SOL    HW116082   3.264   0.122   4.944  0.6294  2.6485 -1.1972
 1540SOL    HW216083   3.190   0.128   4.824 -0.8229 -1.1935 -0.2987
 1541SOL     OW16084   4.230   1.657   0.643  0.0300  0.3421 -0.0343
 1541SOL    HW116085   4.289   1.643   0.717 -1.4078  0.5572  1.1371
 1541SOL    HW216086   4.212   1.563   0.638 -0.1707  0.2740  2.1207
 1542SOL     OW16087   2.779   1.248   6.582 -0.2864 -0.3041 -0.0923
 1542SOL    HW116088   2.713   1.246   6.512  0.1568 -0.0572 -0.5129
 1542SOL    HW216089   2.848   1.202   6.535 -0.3724 -2.1027  1.5490
 1543SOL     OW16090   0.705   3.151  10.977  0.2976 -0.2276  0.2093
 1543SOL    HW116091   0.640   3.087  11.008  1.0301 -0.6949  0.7846
 1543SOL    HW216092   0.775   3.139  11.041  1.3552 -1.6917 -1.2253
 1544SOL     OW16093   3.268   4.361   1.479 -0.2446  0.2196 -0.1130
 1544SOL    HW116094   3.210   4.392   1.409  0.9249 -0.7260 -1.4876
 1544SOL    HW216095   3.227   4.389   1.561 -0.5369  1.2185 -0.6014
 1545SOL     OW16096   3.844   4.548   0.361 -0.0376  0.0245  0.5008
 1545SOL    HW116097   3.812   4.467   0.402 -0.1759  0.0981  0.5381
 1545SOL    HW216098   3.762   4.593   0.342 -0.6540 -1.7219 -1.1051
 1546SOL     OW16099   2.370   1.048  14.882  0.4536 -0.1269  0.9381
 1546SOL    HW116100   2.284   1.088  14.892 -1.1448 -3.2358 -0.1807
 1546SOL    HW216101   2.373   0.990  14.958 -1.7235 -2.0372 -0.4205
 1547SOL     OW16102   0.495   0.601  14.672 -0.2450  0.2891 -0.9672
 1547SOL    HW116103   0.541   0.611  14.755 -1.0405  0.8820 -0.5953
 1547SOL    HW216104   0.492   0.693  14.646  2.4243  0.8049  0.5681
 1548SOL     OW16105   2.388   0.717   7.038  0.5579 -0.2859  0.5305
 1548SOL    HW116106   2.310   0.681   6.995 -0.1199 -0.0672  1.5828
 1548SOL    HW216107   2.440   0.636   7.037 -1.7361 -1.7960  2.9996
 1549SOL     OW16108   4.686   0.553   4.399  0.0609 -0.2857 -0.0468
 1549SOL    HW116109   0.039   0.600   4.427 -0.1463 -0.4534  0.8216
 1549SOL    HW216110   4.710   0.551   4.307  0.1369  1.1969 -0.0498
 1550SOL     OW16111   2.886   4.037   7.042  0.2776  0.2621  0.0357
 1550SOL    HW116112   2.975   4.071   7.052  0.6945 -0.5408 -0.9933
 1550SOL    HW216113   2.855   4.095   6.972  0.3026  1.9447  1.4054
 1551SOL     OW16114   0.818   2.040   4.352 -0.4740  0.1043 -0.0833
 1551SOL    HW116115   0.882   2.061   4.420 -2.6416  1.0750  1.6806
 1551SOL    HW216116   0.831   2.108   4.286 -0.3232 -0.1512 -0.3209
 1552SOL     OW16117   1.670   4.167   6.313  0.1185 -0.2188 -0.2702
 1552SOL    HW116118   1.625   4.178   6.229  1.1882  0.9397 -0.7078
 1552SOL    HW216119   1.613   4.107   6.361 -0.0005  0.4924  0.4760
 1553SOL     OW16120   1.143   1.009   2.282 -0.1225  0.1427 -0.3104
 1553SOL    HW116121   1.237   1.023   2.267  0.1938 -1.0071  0.6182
 1553SOL    HW216122   1.100   1.088   2.249  0.0741 -0.2919 -1.6029
 1554SOL     OW16123   3.870   4.439   8.912  0.0300  0.4924  0.2367
 1554SOL    HW116124   3.784   4.406   8.883  0.2354  0.8526 -0.8050
 1554SOL    HW216125   3.843   4.506   8.975 -0.3619  0.8312 -0.2889
 1555SOL     OW16126   4.193   1.305  11.071 -0.3147 -0.5578 -0.2775
 1555SOL    HW116127   4.208   1.296  10.977 -2.1468  2.3740 -0.8625
 1555SOL    HW216128   4.220   1.396  11.082 -1.3260 -0.5082  1.9495
 1556SOL     OW16129   0.583   0.065  16.765 -0.2076  0.4646 -0.1446
 1556SOL    HW116130   0.541   0.145  16.733 -0.0476  0.7700  0.4138
 1556SOL    HW216131   0.642   0.103  16.830 -1.0234  0.7165  0.4519
 1557SOL     OW16132   0.233   0.700   5.587  0.2880  0.1316 -0.7208
 1557SOL    HW116133   0.161   0.747   5.629  2.0009  0.5592  1.7586
 1557SOL    HW216134   0.271   0.755   5.518  1.1536 -0.3903 -0.6652
 1558SOL     OW16135   4.534   1.909  11.923  0.4763 -0.8460 -0.2281
 1558SOL    HW116136   4.623   1.943  11.916 -0.0355  0.4608 -0.4468
 1558SOL    HW216137   4.543   1.829  11.974  0.0568  0.1207  1.3639
 1559SOL     OW16138   1.595   2.030   1.603  0.4454 -0.0230 -0.4062
 1559SOL    HW116139   1.554   1.971   1.666 -0.7981  0.5705 -0.6665
 1559SOL    HW216140   1.626   1.973   1.533  0.5912  0.2054 -0.5286
 1560SOL     OW16141   2.565   3.829   5.382 -0.2429  0.1676 -0.5756
 1560SOL    HW116142   2.623   3.766   5.425 -1.1890 -1.0993 -1.1731
 1560SOL    HW216143   2.589   3.913   5.420 -1.9476  0.4443 -0.1336
 1561SOL     OW16144   1.466   1.779   3.135  0.3019  0.0985 -0.4202
 1561SOL    HW116145   1.536   1.764   3.198  0.1511  0.0567 -0.2630
 1561SOL    HW216146   1.452   1.685   3.126 -0.3863  0.1612 -0.0227
 1562SOL     OW16147   0.228   0.883   7.728 -0.0380 -0.2926  0.5580
 1562SOL    HW116148   0.303   0.843   7.773  0.5674 -1.2034 -1.2545
 1562SOL    HW216149   0.202   0.930   7.807 -2.0423  2.6075 -1.8615
 1563SOL     OW16150   1.046   0.084   0.356 -0.8606  0.2910  0.0109
 1563SOL    HW116151   1.104   0.008   0.347 -1.1879 -0.0376  0.6975
 1563SOL    HW216152   0.972   0.060   0.300  0.1285 -2.5559 -0.0687
 1564SOL     OW16153   2.018   2.968   6.222 -0.0746 -0.0117 -0.3276
 1564SOL    HW116154   1.937   2.944   6.267  0.8517  0.1952  1.4831
 1564SOL    HW216155   2.075   2.980   6.298  0.2737 -0.1287 -0.5707
 1565SOL     OW16156   2.504   2.248  12.408 -0.9592  0.0808  0.0144
 1565SOL    HW116157   2.558   2.197  12.469 -2.3085  1.6658  2.5179
 1565SOL    HW216158   2.537   2.334  12.434  2.6604 -1.6302  1.2278
 1566SOL     OW16159   4.180   0.813   8.418 -0.4150  0.3754  0.1977
 1566SOL    HW116160   4.132   0.785   8.495 -0.6894 -2.3144 -0.9621
 1566SOL    HW216161   4.201   0.906   8.429  1.8524 -0.4119  2.4626
 1567SOL     OW16162   1.758   1.186   7.660 -0.0799  0.4631 -0.6162
 1567SOL    HW116163   1.785   1.099   7.691  0.6653  0.1332 -2.1625
 1567SOL    HW216164   1.704   1.219   7.731  1.1330  0.6047  0.2438
 1568SOL     OW16165   2.307   1.098   7.484 -0.2342  0.0918  0.1703
 1568SOL    HW116166   2.397   1.127   7.471 -0.1058 -1.3237 -2.1810
 1568SOL    HW216167   2.297   1.048   7.403 -3.4544 -0.7718  1.1103
 1569SOL     OW16168   1.263   0.948   6.153 -0.5857  0.0752 -0.0588
 1569SOL    HW116169   1.290   1.017   6.093 -2.0338  1.1312  0.4959
 1569SOL    HW216170   1.170   0.946   6.130 -1.2313  2.8676  2.3432
 1570SOL     OW16171   1.979   2.887   3.055  0.2011 -0.2479 -0.3936
 1570SOL    HW116172   2.026   2.938   3.121 -0.1423  0.2781 -0.5580
 1570SOL    HW216173   2.046   2.865   2.989  0.2920  0.1326 -0.4250
 1571SOL     OW16174   4.158   1.850   7.099  0.2982  0.0884 -0.4990
 1571SOL    HW116175   4.195   1.764   7.076 -1.5194 -0.9484  0.4513
 1571SOL    HW216176   4.229   1.909   7.075  0.7786  0.0695  0.9207
 1572SOL     OW16177   1.058   2.658   7.886 -0.4139 -0.6576  0.1421
 1572SOL    HW116178   0.974   2.614   7.896 -1.2026  0.9265  0.4651
 1572SOL    HW216179   1.085   2.658   7.978  0.6529 -0.9956 -0.1688
 1573SOL     OW16180   2.018   2.120   9.277 -0.2589  0.0224  0.2389
 1573SOL    HW116181   2.110   2.115   9.304  0.4839  1.3778 -2.0266
 1573SOL    HW216182   1.978   2.076   9.351  0.6265 -1.5940 -0.2438
 1574SOL     OW16183   3.162   4.127   6.425 -0.1265  0.6159  0.7850
 1574SOL    HW116184   3.208   4.100   6.345 -2.6638 -1.3555 -0.0093
 1574SOL    HW216185   3.102   4.191   6.387 -0.9247 -1.5977 -1.6350
 1575SOL     OW16186   3.071   2.853   9.193  0.1625 -0.0301  0.4294
 1575SOL    HW116187   2.997   2.803   9.228  0.4599 -1.5071 -1.0564
 1575SOL    HW216188   3.037   2.938   9.165  0.9593  1.0058  2.6206
 1576SOL     OW16189   3.027   0.176  10.793 -0.2139  0.0155  0.3476
 1576SOL    HW116190   3.084   0.230  10.739  0.7592 -0.0252  1.3430
 1576SOL    HW216191   3.092   0.153  10.860 -0.6133  0.4969  0.8963
 1577SOL     OW16192   3.915   1.476  11.092 -0.1778 -0.1698 -0.5364
 1577SOL    HW116193   3.831   1.521  11.104  0.3564  1.0021 -1.2175
 1577SOL    HW216194   3.944   1.506  11.006 -0.1752 -1.8539 -1.1307
 1578SOL     OW16195   1.606   0.813   6.973  0.4229  0.3223  0.4001
 1578SOL    HW116196   1.536   0.762   6.933  0.6378 -1.0539  1.7703
 1578SOL    HW216197   1.578   0.815   7.065  1.5214  3.6872  0.6694
 1579SOL     OW16198   2.845   0.690  13.086 -0.0698  0.5842 -0.7200
 1579SOL    HW116199   2.827   0.676  13.179  0.0216 -1.1922 -0.9826
 1579SOL    HW216200   2.825   0.784  13.084  0.3515  0.6407 -1.9514
 1580SOL     OW16201   1.757   0.730  10.045 -0.3111  0.3822 -0.0457
 1580SOL    HW116202   1.716   0.741   9.959  0.8274  2.4254 -0.3185
 1580SOL    HW216203   1.711   0.651  10.073 -2.3928  1.5545 -0.1294
 1581SOL     OW16204   1.548   3.386   4.943  0.1676  0.3590  0.2952
 1581SOL    HW116205   1.457   3.389   4.972  0.3620 -0.4941  0.9589
 1581SOL    HW216206   1.537   3.349   4.855 -0.1387  1.1691 -0.0076
 1582SOL     OW16207   2.393   2.912  13.511  0.4545  0.3885  0.1708
 1582SOL    HW116208   2.301   2.926  13.489  0.5585  0.3299 -0.3051
 1582SOL    HW216209   2.416   3.005  13.513  0.1036  0.4924 -0.5610
 1583SOL     OW16210   2.147   3.836   1.025  0.2333  0.0348 -0.5829
 1583SOL    HW116211   2.196   3.917   1.040 -2.8181  1.7969 -0.1110
 1583SOL    HW216212   2.128   3.800   1.112  0.0745  2.0602  0.2146
 1584SOL     OW16213   1.591   1.112   6.720 -0.7042 -0.1485  0.2286
 1584SOL    HW116214   1.569   1.022   6.696 -0.3158  0.0666 -0.8873
 1584SOL    HW216215   1.522   1.129   6.785 -1.0001  0.9775 -0.3806
 1585SOL     OW16216   1.352   4.610  17.230 -0.2545  0.1534  0.2542
 1585SOL    HW116217   1.348   4.649  17.318 -1.7753 -2.1216  1.2006
 1585SOL    HW216218   1.276   4.660  17.199 -0.0338  1.4980  1.8596
 1586SOL     OW16219   0.401   4.120   0.014  0.4922  0.3815  0.3889
 1586SOL    HW116220   0.328   4.153   0.065 -0.7986  1.1624 -1.9937
 1586SOL    HW216221   0.473   4.125   0.078  1.3966 -1.2152 -0.4962
 1587SOL     OW16222   2.022   0.632   6.436 -0.4287 -0.7365 -0.6252
 1587SOL    HW116223   2.038   0.586   6.353  0.7405 -0.2135 -0.6789
 1587SOL    HW216224   2.110   0.651   6.468 -0.9804  0.8168 -0.0165
 1588SOL     OW16225   4.454   0.027   4.336 -0.5683  0.2100  0.1032
 1588SOL    HW116226   4.454   0.121   4.317 -0.8758  0.1570 -0.1562
 1588SOL    HW216227   4.385   0.032   4.402  1.7453 -0.4438  2.5561
 1589SOL     OW16228   1.542   0.269   7.596  0.1501  0.2597  0.1761
 1589SOL    HW116229   1.455   0.235   7.576  1.1411  0.2052 -4.1113
 1589SOL    HW216230   1.525   0.317   7.678  0.6076  0.4831  0.1400
 1590SOL     OW16231   4.218   1.334   4.920  0.3009 -0.4340  0.4158
 1590SOL    HW116232   4.274   1.386   4.862 -0.3233 -0.0336  0.1681
 1590SOL    HW216233   4.258   1.248   4.913 -1.2744 -1.1808  0.5761
 1591SOL     OW16234   0.534   2.538   6.329 -0.5478 -0.3732 -0.0138
 1591SOL    HW116235   0.574   2.470   6.274  2.8447  2.4869 -1.0964
 1591SOL    HW216236   0.599   2.545   6.399 -2.9185 -0.4883  2.1683
 1592SOL     OW16237   1.509   0.392   9.136  0.0615 -0.4666 -0.7474
 1592SOL    HW116238   1.448   0.370   9.206 -1.4102 -2.9483 -2.8192
 1592SOL    HW216239   1.565   0.460   9.173  1.4295 -1.5455 -0.8693
 1593SOL     OW16240   1.430   2.111  11.050 -0.4538  0.1930  0.3859
 1593SOL    HW116241   1.404   2.085  10.962 -2.9872  1.0147  0.8917
 1593SOL    HW216242   1.452   2.024  11.083  0.6684  0.0906 -0.6236
 1594SOL     OW16243   1.290   1.192   2.845  0.1941  0.3806 -0.0785
 1594SOL    HW116244   1.311   1.112   2.798  1.0072  0.9139 -0.6197
 1594SOL    HW216245   1.280   1.250   2.770 -0.2338  1.6774  0.9786
 1595SOL     OW16246   0.151   0.161   3.871 -0.7337  0.8343  0.2273
 1595SOL    HW116247   0.159   0.085   3.928  0.7109  0.8074  0.0048
 1595SOL    HW216248   0.057   0.164   3.853 -0.8798  0.1189  0.8703
 1596SOL     OW16249   3.215   1.631   7.787  0.3069 -0.0938 -0.2719
 1596SOL    HW116250   3.127   1.669   7.795  0.5828  0.1974  1.2220
 1596SOL    HW216251   3.260   1.660   7.866  0.2672  0.9839 -0.6364
 1597SOL     OW16252   2.573   2.963   7.639 -0.3164  0.2863 -0.3172
 1597SOL    HW116253   2.561   3.034   7.576 -1.0058 -0.0558 -0.5646
 1597SOL    HW216254   2.493   2.963   7.691  1.6432  3.5636  2.6258
 1598SOL     OW16255   3.510   0.715   3.679  0.0659 -0.8987  0.6728
 1598SOL    HW116256   3.463   0.784   3.726  0.3347 -0.8586  0.8848
 1598SOL    HW216257   3.472   0.710   3.591  2.2226  2.2278 -0.4634
 1599SOL     OW16258   2.692   3.031   4.061  0.0496 -0.1982  0.2260
 1599SOL    HW116259   2.767   3.069   4.016 -1.9881  3.1676 -0.3343
 1599SOL    HW216260   2.629   3.005   3.993  0.0725  0.4889 -0.0614
 1600SOL     OW16261   2.466   0.626   5.693 -0.6523  0.1188  0.1038
 1600SOL    HW116262   2.483   0.557   5.758  0.5163 -1.3980 -1.8124
 1600SOL    HW216263   2.546   0.677   5.706 -1.1319  1.1345 -0.9595
 1601SOL     OW16264   0.190   3.860  15.009  0.7489 -0.1942 -0.3131
 1601SOL    HW116265   0.270   3.873  15.060  0.2166 -1.2172  0.7727
 1601SOL    HW216266   0.208   3.789  14.948  2.6349  1.1338 -1.3201
 1602SOL     OW16267   4.325   1.519   2.027  0.1531 -0.2680  0.1235
 1602SOL    HW116268   4.316   1.458   2.100 -1.1189  2.2030  2.0087
 1602SOL    HW216269   4.245   1.504   1.978 -0.4973  3.1120  0.1970
 1603SOL     OW16270   1.516   3.019  12.296  0.0806 -0.2968  0.0665
 1603SOL    HW116271   1.579   3.001  12.227 -0.9466 -1.4684 -0.5504
 1603SOL    HW216272   1.538   3.111  12.315  0.0586 -0.4062  0.6205
 1604SOL     OW16273   1.761   3.067   2.970  0.4861 -0.5880 -0.3774
 1604SOL    HW116274   1.829   3.009   3.001 -0.9850 -2.0656  0.0778
 1604SOL    HW216275   1.824   3.122   2.922  0.4177  0.8636  1.1828
 1605SOL     OW16276   1.651   0.086   3.455  0.3297  0.1980 -0.1085
 1605SOL    HW116277   1.729   0.056   3.502  1.2779  2.1391 -0.4629
 1605SOL    HW216278   1.658   0.179   3.477  1.2506  0.4974 -1.6632
 1606SOL     OW16279   3.609   3.041   2.726 -0.3683 -0.3104 -0.1727
 1606SOL    HW116280   3.667   2.997   2.789  0.0298 -1.0068 -1.0154
 1606SOL    HW216281   3.543   2.974   2.708 -0.3198 -0.3153 -0.3325
 1607SOL     OW16282   2.238   0.575  17.230  0.8858 -0.3095 -0.2179
 1607SOL    HW116283   2.191   0.507  17.181 -1.4970  1.6435 -0.6542
 1607SOL    HW216284   2.176   0.647  17.241  1.0226  0.2907 -3.6035
 1608SOL     OW16285   1.633   1.735  16.814  0.0544  0.2659 -0.4980
 1608SOL    HW116286   1.585   1.776  16.742 -2.8387 -1.2152  0.5489
 1608SOL    HW216287   1.725   1.737  16.789  0.0545 -0.1342 -0.5315
 1609SOL     OW16288   3.589   2.898   5.173  0.5802  0.3801 -0.8451
 1609SOL    HW116289   3.560   2.966   5.111  0.8007  0.6650 -0.6385
 1609SOL    HW216290   3.510   2.880   5.223 -0.5921 -2.2733 -3.6592
 1610SOL     OW16291   4.489   0.942   1.193 -0.6980 -0.0999 -0.1174
 1610SOL    HW116292   4.500   0.861   1.241 -1.2040  0.1022  0.3414
 1610SOL    HW216293   4.409   0.969   1.239 -1.4831  0.0903 -1.5901
 1611SOL     OW16294   3.551   1.958   3.034  0.2893 -0.3607  0.2985
 1611SOL    HW116295   3.582   2.030   2.979 -0.3666  0.1310  0.5671
 1611SOL    HW216296   3.598   1.893   2.982  0.4206 -0.9295  1.1369
 1612SOL     OW16297   2.186   3.789   7.622  0.4638  0.6108 -0.4379
 1612SOL    HW116298   2.172   3.859   7.686  0.1665  0.1230  0.0401
 1612SOL    HW216299   2.105   3.806   7.574  0.8519  0.2679 -1.2028
 1613SOL     OW16300   1.119   2.721   9.584 -0.0271 -0.0971 -0.2379
 1613SOL    HW116301   1.200   2.672   9.598 -0.9836 -1.3218  1.0118
 1613SOL    HW216302   1.152   2.800   9.542 -0.1431  0.4959  0.7889
 1614SOL     OW16303   1.487   1.959   3.598 -0.0637  0.4631  0.0633
 1614SOL    HW116304   1.495   2.010   3.679  2.4206  0.7573 -0.3656
 1614SOL    HW216305   1.407   2.001   3.567  0.2801  0.7981 -0.3702
 1615SOL     OW16306   2.510   3.261   4.980 -0.3552  0.6926 -0.6870
 1615SOL    HW116307   2.563   3.231   4.906  0.2253 -0.4444  0.1759
 1615SOL    HW216308   2.576   3.312   5.027 -0.9197  0.5432  0.2598
 1616SOL     OW16309   3.611   3.896  17.046 -0.0135  0.2934 -0.0098
 1616SOL    HW116310   3.632   3.811  17.007 -0.4836 -0.5045  1.5084
 1616SOL    HW216311   3.526   3.912  17.006  1.1613  2.5919 -1.5688
 1617SOL     OW16312   3.023   4.487   1.453 -0.4841 -0.2837  0.1396
 1617SOL    HW116313   2.949   4.428   1.467 -0.1403 -0.0515  2.8288
 1617SOL    HW216314   3.022   4.495   1.357 -3.5669 -1.2091  0.0896
 1618SOL     OW16315   0.727   0.084   0.504  0.0108  0.1941 -0.1003
 1618SOL    HW116316   0.713   0.131   0.586 -1.8838 -0.7569  0.1259
 1618SOL    HW216317   0.792   0.020   0.534 -0.1490 -0.9518 -2.1713
 1619SOL     OW16318   0.058   1.933   2.389 -0.2837  0.2398  0.4608
 1619SOL    HW116319   0.130   1.954   2.331 -0.4035  0.7789  0.5027
 1619SOL    HW216320   0.099   1.878   2.456 -0.4382 -0.8003 -0.3104
 1620SOL     OW16321   1.363   4.490  11.854  0.1921  0.1189  0.4314
 1620SOL    HW116322   1.318   4.522  11.932  0.5992 -0.9777  1.1236
 1620SOL    HW216323   1.371   4.397  11.876  1.1556 -0.4119 -2.1514
 1621SOL     OW16324   0.490   0.217  14.294  0.3032  0.5273  0.4104
 1621SOL    HW116325   0.553   0.246  14.228  0.2348  0.7616  0.4495
 1621SOL    HW216326   0.474   0.295  14.347  1.2627  0.5192  0.7057
 1622SOL     OW16327   0.131   1.345  12.571 -0.1203  0.2954  0.1552
 1622SOL    HW116328   0.116   1.438  12.555 -1.7046  0.2441  1.3334
 1622SOL    HW216329   0.188   1.325  12.497 -0.3993 -3.5007  0.9389
 1623SOL     OW16330   3.987   1.602   6.146  0.4697 -0.1972 -0.2934
 1623SOL    HW116331   4.066   1.549   6.142 -0.1276 -1.1621  0.7695
 1623SOL    HW216332   3.926   1.529   6.156 -1.7160  1.5539 -0.8137
 1624SOL     OW16333   3.667   3.234  13.193  0.0976 -0.3643 -0.7060
 1624SOL    HW116334   3.746   3.281  13.164  0.0794 -0.9763 -1.7726
 1624SOL    HW216335   3.605   3.268  13.128 -0.9098 -0.0413  0.4296
 1625SOL     OW16336   0.141   3.938  12.094 -0.3838 -0.0588 -0.4634
 1625SOL    HW116337   0.191   3.935  12.013 -0.4279 -1.4263 -0.4328
 1625SOL    HW216338   0.185   4.017  12.125  0.5110 -0.6073 -0.3610
 1626SOL     OW16339   2.886   0.007   9.065  0.1986  0.1183  0.0907
 1626SOL    HW116340   2.935   0.005   9.147 -3.4206 -0.6373  2.2084
 1626SOL    HW216341   2.821   0.075   9.083 -0.4135  0.1915 -2.2914
 1627SOL     OW16342   1.929   3.874  13.200 -0.5893  0.0549  0.2395
 1627SOL    HW116343   1.900   3.958  13.166 -1.7832 -0.8004 -0.8857
 1627SOL    HW216344   1.853   3.817  13.188 -1.3236  0.9356  0.7893
 1628SOL     OW16345   4.024   1.527   5.852  0.0080 -0.4998 -0.0403
 1628SOL    HW116346   3.992   1.438   5.865 -2.1143 -0.0262 -2.0062
 1628SOL    HW216347   4.015   1.560   5.941  0.8734 -1.6637  0.4751
 1629SOL     OW16348   4.121   3.094   9.258 -0.1529  0.0645 -0.5948
 1629SOL    HW116349   4.145   3.005   9.285 -0.9508  0.4823  1.5013
 1629SOL    HW216350   4.130   3.089   9.163 -1.7581  0.8293 -0.7980
 1630SOL     OW16351   3.359   0.916  17.484 -0.3631 -0.6764  0.1469
 1630SOL    HW116352   3.378   0.822  17.485  1.0438 -0.3858 -0.2141
 1630SOL    HW216353   3.403   0.940  17.402 -2.3041  2.2975 -0.0403
 1631SOL     OW16354   0.012   3.624   3.990  0.2515  0.1783  0.2649
 1631SOL    HW116355   0.029   3.692   3.925  1.7667 -1.2526 -0.8617
 1631SOL    HW216356   0.048   3.548   3.943  0.9384  0.2594  0.6566
 1632SOL     OW16357   3.156   0.776   6.232 -0.1029  0.0236 -0.3217
 1632SOL    HW116358   3.233   0.724   6.256 -1.3564 -1.3130  0.8362
 1632SOL    HW216359   3.098   0.742   6.300  0.3229  1.1430  0.6135
 1633SOL     OW16360   3.279   2.499   8.319  0.3974 -0.2300 -0.1332
 1633SOL    HW116361   3.258   2.407   8.306  2.4705 -0.7250 -0.0121
 1633SOL    HW216362   3.317   2.525   8.235 -3.0351  1.0459 -1.2893
 1634SOL     OW16363   2.269   1.240   4.007  0.2859  0.1433  0.3283
 1634SOL    HW116364   2.350   1.290   4.015  1.0909 -0.8610 -1.5997
 1634SOL    HW216365   2.257   1.212   4.098 -1.0491  2.4857  0.8807
 1635SOL     OW16366   4.603   2.834   6.205 -0.1557  0.6239  0.0006
 1635SOL    HW116367   4.590   2.925   6.233  1.1391  0.6312  0.5520
 1635SOL    HW216368   4.534   2.788   6.253 -0.6228 -0.4939 -1.7471
 1636SOL     OW16369   1.991   4.368   7.336  0.3372  0.5989 -0.4971
 1636SOL    HW116370   1.995   4.284   7.289  0.4383 -1.5516  3.3324
 1636SOL    HW216371   1.990   4.349   7.430  5.2182  0.3034 -0.4883
 1637SOL     OW16372   0.849   2.173   9.033 -0.1303  0.4279  0.6005
 1637SOL    HW116373   0.821   2.098   9.086  0.7311 -0.6130 -0.4255
 1637SOL    HW216374   0.805   2.240   9.085  0.3119  0.3840  1.0276
 1638SOL     OW16375   4.697   1.777   0.892 -0.3536  0.0930 -0.1142
 1638SOL    HW116376   0.063   1.789   0.869 -0.2838  2.1834  1.1848
 1638SOL    HW216377   4.647   1.844   0.844 -1.4930  1.4616  2.9527
 1639SOL     OW16378   2.472   0.197   7.233  0.6886 -0.1430 -0.2400
 1639SOL    HW116379   2.552   0.245   7.210  0.3273 -0.5370 -2.3134
 1639SOL    HW216380   2.470   0.140   7.156  1.8743 -1.3647  0.6346
 1640SOL     OW16381   3.734   0.503   5.607 -0.2198 -0.1109  0.4018
 1640SOL    HW116382   3.662   0.533   5.663 -0.7114  1.8502 -1.2848
 1640SOL    HW216383   3.706   0.412   5.600 -2.3497  0.5308  0.6484
 1641SOL     OW16384   2.061   0.983   6.350  0.8562  0.4866  0.0210
 1641SOL    HW116385   2.025   0.920   6.412  0.3768 -1.5024 -2.2556
 1641SOL    HW216386   2.070   1.058   6.408 -1.0004  0.1332  0.7431
 1642SOL     OW16387   3.836   0.231   8.485 -0.1663 -0.3211  0.6523
 1642SOL    HW116388   3.879   0.203   8.404 -1.4510  0.4768 -0.3094
 1642SOL    HW216389   3.744   0.241   8.459  0.3099 -1.3134 -1.4659
 1643SOL     OW16390   1.689   0.307   8.938  0.2037 -0.0585 -0.2492
 1643SOL    HW116391   1.621   0.324   9.003 -0.5269  2.5630 -1.6965
 1643SOL    HW216392   1.714   0.399   8.933 -1.8396  0.5649  1.0347
 1644SOL     OW16393   1.902   1.743   8.346  0.0313  0.0856 -0.1884
 1644SOL    HW116394   1.923   1.817   8.289  0.5739  0.3564  0.3575
 1644SOL    HW216395   1.912   1.782   8.433  2.8310 -1.0610 -0.0145
 1645SOL     OW16396   3.379   4.506   7.307  0.2268 -0.2637  0.0054
 1645SOL    HW116397   3.321   4.454   7.362  2.8444 -1.7922  1.2987
 1645SOL    HW216398   3.350   4.585   7.352 -1.2060 -0.3498 -0.7615
 1646SOL     OW16399   2.283   4.322  12.031  0.1901 -0.4036 -0.4448
 1646SOL    HW116400   2.220   4.251  12.029 -0.1097 -0.2994  5.5107
 1646SOL    HW216401   2.228   4.390  11.992 -0.9811 -1.5606 -0.7959
 1647SOL     OW16402   0.726   2.755   3.561 -0.1799 -0.2477  0.0178
 1647SOL    HW116403   0.783   2.809   3.616 -0.5650 -1.1778  1.3331
 1647SOL    HW216404   0.788   2.727   3.494  0.9331 -0.6547  1.2151
 1648SOL     OW16405   3.718   0.692   5.931 -0.2509 -0.4988 -0.0302
 1648SOL    HW116406   3.747   0.687   6.022 -0.1325 -1.7702 -0.1412
 1648SOL    HW216407   3.798   0.667   5.885 -1.1584  0.1119 -1.9089
 1649SOL     OW16408   4.431   3.697   5.094 -0.1236  0.7645  0.1593
 1649SOL    HW116409   4.485   3.772   5.119 -1.1372  2.5108 -2.9825
 1649SOL    HW216410   4.408   3.661   5.180 -1.4646 -1.6002 -1.1814
 1650SOL     OW16411   3.432   4.115   8.799 -0.1363 -0.1724  0.3523
 1650SOL    HW116412   3.344   4.143   8.773  0.4238  1.5623  0.3279
 1650SOL    HW216413   3.417   4.101   8.893  2.5212 -1.1132  0.6273
 1651SOL     OW16414   2.999   2.520   3.983  0.1301  0.4178 -0.1142
 1651SOL    HW116415   3.009   2.454   3.914 -1.6465  3.6148 -3.3878
 1651SOL    HW216416   2.947   2.587   3.939 -1.0821 -0.4728 -0.0434
 1652SOL     OW16417   0.564   1.151  11.213  0.2190 -0.0459 -0.4334
 1652SOL    HW116418   0.495   1.130  11.150 -0.0599  2.4927 -0.9495
 1652SOL    HW216419   0.640   1.145  11.155 -0.7042  2.8311 -1.9143
 1653SOL     OW16420   2.990   2.146  14.212 -0.2122  0.1820  0.1673
 1653SOL    HW116421   3.038   2.072  14.250 -1.1081 -0.2343  0.4880
 1653SOL    HW216422   2.965   2.191  14.292 -0.3778 -0.4371  0.4643
 1654SOL     OW16423   2.514   1.769   6.271 -0.2811 -0.0789  0.1254
 1654SOL    HW116424   2.450   1.712   6.228 -0.6407 -0.7113  1.5153
 1654SOL    HW216425   2.469   1.852   6.287  0.4483  0.2590  0.4193
 1655SOL     OW16426   3.772   0.118   4.544  0.3836 -0.2683 -0.1778
 1655SOL    HW116427   3.708   0.092   4.610  0.4617 -1.4772 -0.5639
 1655SOL    HW216428   3.716   0.183   4.502 -2.4269 -1.9729  0.8748
 1656SOL     OW16429   0.364   0.423   8.817  0.3147 -0.0908 -0.5876
 1656SOL    HW116430   0.440   0.479   8.835 -0.0715 -0.0475  0.9333
 1656SOL    HW216431   0.311   0.455   8.890 -0.6878 -1.9133 -0.5088
 1657SOL     OW16432   1.757   3.962  13.812 -0.2612 -0.7755 -0.7356
 1657SOL    HW116433   1.699   3.923  13.878  0.9903 -0.7598  0.3839
 1657SOL    HW216434   1.820   3.892  13.793  0.1301 -0.1258 -1.7808
 1658SOL     OW16435   2.839   1.199   1.799  0.0644  0.5428 -0.1014
 1658SOL    HW116436   2.833   1.293   1.817  1.5683  0.6630 -0.2072
 1658SOL    HW216437   2.830   1.163   1.888 -1.1111 -1.4819 -1.0565
 1659SOL     OW16438   4.325   0.188   5.399 -0.0852 -0.1121  0.5365
 1659SOL    HW116439   4.381   0.158   5.471  0.1845 -1.4476 -0.2128
 1659SOL    HW216440   4.253   0.226   5.450 -0.9465  0.3441 -1.0387
 1660SOL     OW16441   1.956   0.876   9.156 -0.1573 -0.2672 -0.1934
 1660SOL    HW116442   1.987   0.914   9.238  0.7988 -0.2560 -0.5622
 1660SOL    HW216443   1.873   0.921   9.140  0.7310  1.6164  0.4876
 1661SOL     OW16444   1.438   1.259  10.163 -0.1225  0.4547  0.4722
 1661SOL    HW116445   1.379   1.186  10.145 -0.3240 -0.0079  3.0130
 1661SOL    HW216446   1.423   1.328  10.099  1.4863 -0.2804 -0.6808
 1662SOL     OW16447   0.174   4.251   0.146 -0.2285  0.0738 -0.3479
 1662SOL    HW116448   0.120   4.306   0.088 -0.1570  0.2879 -0.2114
 1662SOL    HW216449   0.132   4.264   0.232 -1.6267  1.0219 -1.1613
 1663SOL     OW16450   1.044   2.215  16.937  0.2809 -0.4881 -0.6272
 1663SOL    HW116451   1.001   2.164  17.006 -1.0374 -2.0456 -2.6161
 1663SOL    HW216452   1.127   2.218  16.985  1.7162 -2.0935 -3.0230
 1664SOL     OW16453   1.310   0.161   5.361 -0.0865  0.4996 -0.2973
 1664SOL    HW116454   1.327   0.214   5.283 -1.4092  1.2239 -0.0885
 1664SOL    HW216455   1.222   0.127   5.349 -0.8701  3.0268 -1.7023
 1665SOL     OW16456   4.575   4.145   5.629  0.2482 -0.3487  0.1711
 1665SOL    HW116457   4.617   4.060   5.639  0.8800  0.1010  1.2820
 1665SOL    HW216458   4.621   4.194   5.697  0.0293  1.3543 -0.8802
 1666SOL     OW16459   2.710   1.121   6.122  0.1951  0.2377 -0.0306
 1666SOL    HW116460   2.616   1.107   6.119  0.2921 -0.5675  0.6873
 1666SOL    HW216461   2.714   1.164   6.208 -2.5286 -0.0963  0.2415
 1667SOL     OW16462   3.856   2.632   8.574 -0.6107 -0.5255  0.4685
 1667SOL    HW116463   3.861   2.552   8.520 -0.0029 -0.6026  0.6339
 1667SOL    HW216464   3.803   2.609   8.649  0.4791  0.6856  1.6076
 1668SOL     OW16465   1.032   1.585   5.319  0.3808  0.2324  0.0513
 1668SOL    HW116466   0.993   1.568   5.233 -1.5249 -1.2707  1.2182
 1668SOL    HW216467   0.961   1.621   5.372 -1.3072 -1.1125 -1.3231
 1669SOL     OW16468   3.011   4.267   0.091  0.2572  0.3912 -0.3800
 1669SOL    HW116469   2.926   4.240   0.126 -0.2129 -0.8537 -2.4836
 1669SOL    HW216470   2.979   4.303   0.008 -1.3491  1.2648  0.6148
 1670SOL     OW16471   3.244   3.501   4.741 -0.0357  0.1268 -0.3864
 1670SOL    HW116472   3.175   3.510   4.675  0.1866  1.5847 -0.4245
 1670SOL    HW216473   3.312   3.562   4.711  0.3411 -0.2956 -0.3958
 1671SOL     OW16474   4.172   1.371   2.480  0.1324  0.4066 -0.1964
 1671SOL    HW116475   4.142   1.459   2.457  2.1585  0.7897 -1.3411
 1671SOL    HW216476   4.249   1.398   2.528  0.7076 -2.8302  0.6483
 1672SOL     OW16477   3.615   1.155   7.354 -0.4669 -0.1012  0.4207
 1672SOL    HW116478   3.592   1.104   7.276 -0.4731  1.4191 -0.5652
 1672SOL    HW216479   3.529   1.189   7.377 -0.8293 -1.3875  1.0003
 1673SOL     OW16480   3.155   0.902  14.284  0.2333 -0.1302 -0.3937
 1673SOL    HW116481   3.198   0.970  14.233 -0.1622  1.0947  0.9086
 1673SOL    HW216482   3.209   0.889  14.362 -0.7411 -0.1775  0.2746
 1674SOL     OW16483   1.023   0.624   8.128 -0.7815  0.2205 -0.4462
 1674SOL    HW116484   1.045   0.607   8.220  0.2731 -0.8112 -0.8889
 1674SOL    HW216485   0.935   0.591   8.115 -0.5092 -0.9319  0.5699
 1675SOL     OW16486   4.588   3.970   5.878 -0.1718  0.1502 -0.3338
 1675SOL    HW116487   4.522   3.901   5.880  0.9803 -0.8096  3.8530
 1675SOL    HW216488   4.645   3.933   5.946 -2.0514 -0.4950  0.8635
 1676SOL     OW16489   4.209   2.755   8.008 -0.2143 -0.2001  0.3335
 1676SOL    HW116490   4.195   2.673   8.055  0.7348 -0.2053  0.6122
 1676SOL    HW216491   4.282   2.794   8.056  0.0597 -3.1552  2.3078
 1677SOL     OW16492   1.925   4.454   8.895  0.3877  0.2729 -0.3136
 1677SOL    HW116493   1.833   4.459   8.920  0.0592 -3.2279 -0.8111
 1677SOL    HW216494   1.922   4.512   8.819 -4.8767  1.5274  0.9132
 1678SOL     OW16495   0.800   3.055   6.644  0.3935  0.6504 -0.2736
 1678SOL    HW116496   0.760   3.075   6.559 -1.4552 -2.1139 -0.0595
 1678SOL    HW216497   0.881   3.105   6.652 -0.7190  2.5129 -0.5574
 1679SOL     OW16498   2.403   3.272   4.180 -0.3498  0.1097  0.2867
 1679SOL    HW116499   2.435   3.308   4.263  0.4937  3.8194 -1.6560
 1679SOL    HW216500   2.481   3.296   4.131 -1.6148  2.3285 -0.6750
 1680SOL     OW16501   4.494   0.321  15.406  0.0555 -0.5283  0.4684
 1680SOL    HW116502   4.522   0.273  15.484 -0.3115 -0.6304  0.5380
 1680SOL    HW216503   4.570   0.321  15.348 -0.6756 -0.9806 -0.4943
 1681SOL     OW16504   4.220   0.901   6.804  0.1854  0.0805  0.7389
 1681SOL    HW116505   4.175   0.822   6.773  1.7626 -0.3026 -0.5972
 1681SOL    HW216506   4.234   0.891   6.898  0.2977  1.0431  0.8258
 1682SOL     OW16507   2.985   4.674  15.637  0.0627 -0.2678  0.4632
 1682SOL    HW116508   2.978   4.684  15.542 -0.6122  1.0019  0.6430
 1682SOL    HW216509   2.893   4.681  15.661 -0.2068  0.1030 -0.6858
 1683SOL     OW16510   4.434   0.255  16.932 -0.0475 -0.0020  0.3043
 1683SOL    HW116511   4.389   0.280  17.013  0.6402 -1.0428  1.0119
 1683SOL    HW216512   4.523   0.247  16.966 -0.5580  0.9954  1.8682
 1684SOL     OW16513   3.349   1.748   1.120  0.3854 -0.7971 -0.0654
 1684SOL    HW116514   3.433   1.777   1.155  0.0690  0.6970 -0.5181
 1684SOL    HW216515   3.374   1.660   1.095 -0.7438 -0.3769 -2.7344
 1685SOL     OW16516   1.036   1.305  13.400 -0.1917 -0.3873 -0.3367
 1685SOL    HW116517   0.982   1.379  13.427 -1.9885 -1.4165 -1.1072
 1685SOL    HW216518   1.113   1.342  13.356 -0.3914 -0.5362 -0.8154
 1686SOL     OW16519   3.402   3.408   6.917  0.4048 -0.4074 -0.2318
 1686SOL    HW116520   3.389   3.438   6.827  0.3026  0.6851  0.1426
 1686SOL    HW216521   3.314   3.384   6.945  0.1756 -0.5810 -1.0840
 1687SOL     OW16522   1.258   4.017   5.705  0.4227 -0.0083 -0.0706
 1687SOL    HW116523   1.179   4.056   5.669 -0.4138 -1.6693 -0.0410
 1687SOL    HW216524   1.224   3.950   5.765 -0.1609  0.1579 -0.2177
 1688SOL     OW16525   2.752   4.503   9.013 -0.2514  0.0236  0.2019
 1688SOL    HW116526   2.821   4.556   9.052  0.3919  0.2824 -1.3082
 1688SOL    HW216527   2.691   4.562   8.968  1.6319  0.1647 -2.1295
 1689SOL     OW16528   2.232   1.086   4.973  0.5650  0.4018 -0.3025
 1689SOL    HW116529   2.225   1.016   5.038 -0.7594 -0.0225 -0.9019
 1689SOL    HW216530   2.245   1.155   5.038  1.5363 -0.5858  0.5324
 1690SOL     OW16531   3.829   0.866   1.996 -0.0623 -0.5337 -0.6697
 1690SOL    HW116532   3.739   0.842   2.018  0.2133 -1.2393 -0.3114
 1690SOL    HW216533   3.823   0.919   1.917 -0.3204  2.0324  1.0527
 1691SOL     OW16534   2.785   1.144   2.605  0.3433  0.7553 -0.6376
 1691SOL    HW116535   2.736   1.161   2.524  0.0244  1.0969 -0.3734
 1691SOL    HW216536   2.789   1.049   2.593 -1.0153  0.3573  2.1110
 1692SOL     OW16537   4.303   4.284   1.439 -0.2005  0.1456 -0.2136
 1692SOL    HW116538   4.315   4.228   1.362  1.4913  2.0427 -1.3429
 1692SOL    HW216539   4.388   4.273   1.483  0.2584  2.2630 -0.5876
 1693SOL     OW16540   2.532   2.046   9.212 -0.3725  0.0537  0.0832
 1693SOL    HW116541   2.460   1.983   9.219  2.0178 -2.9141 -2.0604
 1693SOL    HW216542   2.613   2.003   9.183 -0.3502  0.3125 -0.2413
 1694SOL     OW16543   0.458   1.052   4.156  0.4783  0.7661  0.4860
 1694SOL    HW116544   0.382   0.996   4.174  0.7561 -0.2800 -1.6148
 1694SOL    HW216545   0.405   1.104   4.096 -1.0656  0.9194  1.9760
 1695SOL     OW16546   4.726   1.848   3.721  0.0057  0.3906 -0.4917
 1695SOL    HW116547   4.633   1.869   3.730  0.1888  0.3846  1.4017
 1695SOL    HW216548   0.007   1.757   3.747  0.4431  0.3341 -0.8131
 1696SOL     OW16549   1.147   1.240   6.674 -0.3513 -0.3082  0.4265
 1696SOL    HW116550   1.071   1.215   6.726 -1.3771 -1.7197 -1.7565
 1696SOL    HW216551   1.110   1.312   6.623  0.0526  2.0519  3.4535
 1697SOL     OW16552   2.473   0.204   6.536  0.0922 -0.2747 -0.0718
 1697SOL    HW116553   2.508   0.214   6.624  0.0228  3.9101 -0.5347
 1697SOL    HW216554   2.519   0.271   6.486 -2.3961 -0.1273 -2.1786
 1698SOL     OW16555   1.517   3.332  13.692  0.2080 -0.7603 -0.5827
 1698SOL    HW116556   1.470   3.392  13.750  1.8082  1.6757 -1.7920
 1698SOL    HW216557   1.504   3.375  13.607 -1.5613  1.2645  0.7160
 1699SOL     OW16558   3.811   2.783   0.273 -0.2815  0.2576  0.5407
 1699SOL    HW116559   3.812   2.833   0.191  0.0961  0.2691  0.5502
 1699SOL    HW216560   3.900   2.806   0.298 -0.7917 -0.0965  2.6932
 1700SOL     OW16561   1.492   3.977  13.590 -1.0628  0.4093  0.0606
 1700SOL    HW116562   1.438   3.967  13.512 -2.4435  2.0851  0.7990
 1700SOL    HW216563   1.575   3.945  13.554 -1.9360  0.2833 -1.8006
 1701SOL     OW16564   0.334   0.489   7.186 -0.2763  0.3020  0.2174
 1701SOL    HW116565   0.318   0.578   7.156  0.3306  0.5734  0.6992
 1701SOL    HW216566   0.358   0.501   7.278  1.5928 -0.8183 -0.1232
 1702SOL     OW16567   1.979   1.832   4.307 -0.0318 -0.4829 -0.4568
 1702SOL    HW116568   2.030   1.783   4.243 -0.0148 -0.4022 -0.5053
 1702SOL    HW216569   2.049   1.887   4.341  0.0988 -0.0633 -1.3972
 1703SOL     OW16570   0.350   2.246  15.967  0.3444  0.3100 -0.0600
 1703SOL    HW116571   0.382   2.325  16.010  0.7103 -0.3383  0.8487
 1703SOL    HW216572   0.297   2.286  15.897 -0.4542 -0.0393  0.3377
 1704SOL     OW16573   2.457   3.924   1.811 -0.8909 -0.3672 -0.4744
 1704SOL    HW116574   2.371   3.882   1.803 -2.1966  2.0091  0.9884
 1704SOL    HW216575   2.493   3.902   1.726  0.3556 -1.2980  0.2974
 1705SOL     OW16576   3.413   0.333  16.891  0.3344  0.3403  0.1104
 1705SOL    HW116577   3.411   0.256  16.834  1.5976 -0.1625  0.7411
 1705SOL    HW216578   3.369   0.291  16.965 -0.0137  1.9143  0.7929
 1706SOL     OW16579   3.923   4.510   5.723  0.5303  0.3002  0.4261
 1706SOL    HW116580   3.984   4.570   5.679 -0.3095  2.8461  2.7491
 1706SOL    HW216581   3.842   4.517   5.673  0.0463 -1.3457  0.9679
 1707SOL     OW16582   4.058   3.796  14.583 -0.1264 -0.5017 -0.2893
 1707SOL    HW116583   4.066   3.878  14.631 -1.3638 -0.7678  0.3644
 1707SOL    HW216584   4.148   3.765  14.568 -0.2786 -1.6993  1.2402
 1708SOL     OW16585   1.279   0.969   1.028  0.6926  0.0730  0.0911
 1708SOL    HW116586   1.331   1.027   0.973 -0.0817  0.3301 -0.3707
 1708SOL    HW216587   1.227   1.034   1.075  0.1828 -0.8914  0.8816
 1709SOL     OW16588   1.806   2.429   0.357 -0.3020 -0.9342 -0.5755
 1709SOL    HW116589   1.779   2.521   0.356 -1.3160 -1.2333 -0.8214
 1709SOL    HW216590   1.728   2.390   0.395 -0.1411 -0.4704  0.2189
 1710SOL     OW16591   0.943   0.124   7.802  0.3623  0.3935  0.7777
 1710SOL    HW116592   0.901   0.038   7.797  1.6082 -0.2210  0.7992
 1710SOL    HW216593   1.027   0.100   7.763 -1.3146 -1.2017 -1.8560
 1711SOL     OW16594   2.663   1.865   2.967 -0.2913 -0.1643  0.3511
 1711SOL    HW116595   2.691   1.880   3.058  1.6390 -2.4740  0.1108
 1711SOL    HW216596   2.738   1.820   2.931  1.1921  2.9322 -0.4494
 1712SOL     OW16597   0.099   2.865  12.825  0.0786 -0.1290  0.0160
 1712SOL    HW116598   0.194   2.879  12.825 -0.0736  0.9038  0.4519
 1712SOL    HW216599   0.081   2.921  12.750  2.7275  0.0379 -0.4927
 1713SOL     OW16600   0.038   0.919   9.222  0.1962 -0.2261  0.2064
 1713SOL    HW116601   0.045   0.838   9.171  0.5874  0.1425 -0.3225
 1713SOL    HW216602   4.671   0.939   9.214 -0.3586 -2.6888  0.3771
 1714SOL     OW16603   3.487   1.019  17.270 -0.6820 -0.1890 -0.6013
 1714SOL    HW116604   3.487   0.936  17.222 -1.2756  1.5199 -3.6130
 1714SOL    HW216605   3.480   1.084  17.200  0.9094  1.9703  1.2479
 1715SOL     OW16606   4.494   1.333  10.071 -0.5299  0.1321 -0.0259
 1715SOL    HW116607   4.438   1.408  10.053 -0.5646  0.6473  2.1988
 1715SOL    HW216608   4.428   1.274  10.108 -0.3278 -1.0122 -1.4985
 1716SOL     OW16609   4.243   3.283   4.092  0.9980  0.0831  0.4678
 1716SOL    HW116610   4.331   3.246   4.092 -0.1984 -2.8435 -1.4622
 1716SOL    HW216611   4.246   3.332   4.010 -1.7413  1.7030  1.3241
 1717SOL     OW16612   1.494   2.281   1.682 -0.2535  0.2833  0.3674
 1717SOL    HW116613   1.528   2.206   1.634 -1.1215 -0.3831  0.7815
 1717SOL    HW216614   1.514   2.253   1.772 -1.8592 -0.1296  0.5932
 1718SOL     OW16615   3.279   3.995  15.566  0.1643  0.0284 -0.4181
 1718SOL    HW116616   3.291   4.088  15.585  0.2592  0.0407 -0.5357
 1718SOL    HW216617   3.349   3.991  15.501 -0.4606  0.5163 -1.1268
 1719SOL     OW16618   4.210   3.918   6.447 -0.2803 -0.1933  0.5428
 1719SOL    HW116619   4.271   3.846   6.428 -1.2136 -1.2389  1.4578
 1719SOL    HW216620   4.229   3.929   6.541 -1.4703  0.6504  0.6727
 1720SOL     OW16621   2.488   0.690  14.705  0.6587  0.3864 -0.6357
 1720SOL    HW116622   2.510   0.647  14.787  0.1352  2.8927  0.8114
 1720SOL    HW216623   2.558   0.754  14.693  1.0547  0.3923  1.7950
 1721SOL     OW16624   0.485   1.859   6.466 -0.3846  0.6187  0.7778
 1721SOL    HW116625   0.570   1.828   6.435 -0.5428 -0.2919  1.2616
 1721SOL    HW216626   0.435   1.804   6.407  0.9446  0.0681  0.1687
 1722SOL     OW16627   4.277   3.866  10.603  0.1017  0.0868 -0.2666
 1722SOL    HW116628   4.323   3.932  10.655  0.9848 -1.2385  0.6220
 1722SOL    HW216629   4.193   3.910  10.588 -0.9235 -1.1062  2.0132
 1723SOL     OW16630   4.130   1.643   7.401 -0.2805 -0.2347 -0.5255
 1723SOL    HW116631   4.061   1.619   7.339  0.7043 -1.5271 -1.1024
 1723SOL    HW216632   4.078   1.619   7.478 -0.6736  1.5265 -0.2303
 1724SOL     OW16633   3.927   2.385  14.404 -0.9439 -0.7189 -0.1572
 1724SOL    HW116634   3.880   2.366  14.486 -1.0139 -1.1511 -0.2933
 1724SOL    HW216635   4.017   2.362  14.426 -0.8837 -0.2525  0.0678
 1725SOL     OW16636   2.976   1.882   5.935 -0.1799 -0.0014 -0.2304
 1725SOL    HW116637   2.969   1.901   6.028 -0.1305 -2.1645  0.2273
 1725SOL    HW216638   2.910   1.812   5.932  2.7648 -2.7917 -0.5425
 1726SOL     OW16639   2.468   0.038   2.857 -0.3401  0.3434 -0.1323
 1726SOL    HW116640   2.387   0.036   2.908 -0.4902  2.4991 -0.3093
 1726SOL    HW216641   2.433   0.092   2.787 -2.4186  0.4327  0.9766
 1727SOL     OW16642   1.048   2.939   1.528 -0.0758 -0.3660 -0.2680
 1727SOL    HW116643   1.056   3.007   1.595  0.2812  1.3018 -2.0054
 1727SOL    HW216644   1.077   2.864   1.578  3.0045 -0.3515 -1.9937
 1728SOL     OW16645   1.595   2.089   4.044  0.1054 -0.0601 -0.1298
 1728SOL    HW116646   1.543   2.061   3.969 -0.0779  2.2961 -0.8829
 1728SOL    HW216647   1.653   2.151   3.998 -0.5236  0.0303 -0.7949
 1729SOL     OW16648   0.513   2.562  12.855 -0.6434  0.2463 -0.3110
 1729SOL    HW116649   0.424   2.528  12.865 -1.2366  1.6842 -0.6172
 1729SOL    HW216650   0.566   2.500  12.805 -1.0894  0.5189 -1.1270
 1730SOL     OW16651   4.149   3.081  15.442  0.3201 -0.7388  0.3301
 1730SOL    HW116652   4.229   3.130  15.460 -0.2740  0.4458 -0.1796
 1730SOL    HW216653   4.098   3.151  15.399 -0.5426 -2.1119 -0.8741
 1731SOL     OW16654   2.911   1.754   3.137 -0.3299  0.2986 -0.0360
 1731SOL    HW116655   2.988   1.742   3.081 -1.2921 -0.2239 -1.2430
 1731SOL    HW216656   2.847   1.684   3.124 -1.7264  0.9900  3.0495
 1732SOL     OW16657   4.313   0.546   0.594  0.1516 -0.1141 -0.0956
 1732SOL    HW116658   4.326   0.640   0.593  2.1552 -0.4040 -1.1182
 1732SOL    HW216659   4.267   0.538   0.677 -1.4551 -0.6686 -1.0243
 1733SOL     OW16660   4.467   4.397   4.770 -0.0872  0.3306 -0.2104
 1733SOL    HW116661   4.491   4.465   4.707  1.9549  0.0199  0.2392
 1733SOL    HW216662   4.475   4.319   4.715  1.6800  0.9927 -0.8615
 1734SOL     OW16663   4.182   3.767   7.803 -0.8355  0.1621 -0.6368
 1734SOL    HW116664   4.249   3.835   7.816  0.5449 -1.2173 -0.5677
 1734SOL    HW216665   4.165   3.788   7.711 -0.1362 -1.2267 -1.0817
 1735SOL     OW16666   2.311   2.430  16.492  0.0423 -0.5491 -0.5727
 1735SOL    HW116667   2.359   2.347  16.492  0.9708 -0.0020  0.7613
 1735SOL    HW216668   2.261   2.422  16.573  0.3806  0.7798 -0.2348
 1736SOL     OW16669   1.664   3.319   7.440 -0.5578  0.4330  0.8564
 1736SOL    HW116670   1.595   3.257   7.414  0.7257 -1.2574  1.4364
 1736SOL    HW216671   1.691   3.357   7.357  0.8213 -1.4848  0.4159
 1737SOL     OW16672   1.924   0.317   4.054 -0.3170  0.5373 -0.2326
 1737SOL    HW116673   1.910   0.293   4.146 -1.1968 -0.9611 -0.7536
 1737SOL    HW216674   1.943   0.410   4.065 -1.5838  1.0135 -2.0895
 1738SOL     OW16675   3.133   3.505   9.355  0.0919 -0.3085 -0.2958
 1738SOL    HW116676   3.044   3.540   9.366  0.2946  0.2623 -0.4673
 1738SOL    HW216677   3.114   3.419   9.319  0.2145 -0.4198 -0.0926
 1739SOL     OW16678   1.915   2.010   4.072 -0.1649 -0.1448 -0.4309
 1739SOL    HW116679   1.957   1.946   4.129  0.7855  1.1613  0.3404
 1739SOL    HW216680   1.880   2.075   4.133 -0.5269 -1.7456  1.0928
 1740SOL     OW16681   0.099   1.145   7.366  0.8633 -0.1663  0.1941
 1740SOL    HW116682   0.079   1.132   7.458 -1.3658  0.5192 -0.1882
 1740SOL    HW216683   0.118   1.239   7.366  0.8014 -0.1698  2.3686
 1741SOL     OW16684   4.701   3.287  12.914 -0.4410  0.1053 -0.3387
 1741SOL    HW116685   4.713   3.339  12.835  0.4876 -0.7595 -0.7807
 1741SOL    HW216686   0.053   3.230  12.904 -0.4031  0.0216  0.3703
 1742SOL     OW16687   2.471   3.506  17.622  0.5289  0.0381 -1.0528
 1742SOL    HW116688   2.473   3.513  17.527  1.5900  1.0551 -0.9559
 1742SOL    HW216689   2.510   3.591  17.644  0.5359  0.1004 -1.3127
 1743SOL     OW16690   3.933   0.584   0.344 -0.0529 -0.1397  0.0488
 1743SOL    HW116691   3.978   0.648   0.399 -0.6583  1.3093 -1.1457
 1743SOL    HW216692   3.938   0.505   0.399 -1.7964  0.4712  1.1057
 1744SOL     OW16693   4.223   4.402   4.915  0.1457  0.5490 -0.7362
 1744SOL    HW116694   4.161   4.415   4.843 -0.5058 -0.1945 -0.3156
 1744SOL    HW216695   4.302   4.394   4.863  0.3259 -1.0961 -0.2130
 1745SOL     OW16696   2.545   4.690  13.532  0.0684 -0.1725  0.0061
 1745SOL    HW116697   2.495   4.624  13.580  0.1746 -0.1614  0.1312
 1745SOL    HW216698   2.632   4.678  13.571  0.1635 -0.5239 -0.3192
 1746SOL     OW16699   3.758   4.067   6.406 -0.0615 -0.0231 -0.6631
 1746SOL    HW116700   3.850   4.087   6.391 -0.2061 -0.1021 -1.6587
 1746SOL    HW216701   3.736   4.142   6.461 -0.2647  0.1621 -0.9938
 1747SOL     OW16702   1.228   2.019   0.386  0.4448 -0.0499 -0.3461
 1747SOL    HW116703   1.237   1.928   0.413 -0.3446  0.3181  1.2003
 1747SOL    HW216704   1.295   2.052   0.446 -0.3431 -1.4187  1.2906
 1748SOL     OW16705   2.927   3.297   4.752 -0.1137 -0.3112  0.0675
 1748SOL    HW116706   3.005   3.242   4.741  0.8618  1.6839 -2.9316
 1748SOL    HW216707   2.953   3.377   4.707  0.7153 -0.4518  0.2895
 1749SOL     OW16708   0.920   3.058  12.876  0.0875  0.4139  0.2765
 1749SOL    HW116709   0.912   3.150  12.902 -0.7799  0.1290  1.0078
 1749SOL    HW216710   0.983   3.079  12.807 -0.7557 -1.9981 -1.2219
 1750SOL     OW16711   3.447   0.024  17.579 -0.0461  0.1613  0.0520
 1750SOL    HW116712   3.533   0.063  17.560  0.4095 -0.7763  0.1872
 1750SOL    HW216713   3.391   0.067  17.515  1.0917  1.7255  0.0944
 1751SOL     OW16714   0.608   4.668   4.618 -0.2815 -0.3149  0.3473
 1751SOL    HW116715   0.628   4.599   4.682  0.2016 -0.8365 -0.3720
 1751SOL    HW216716   0.658   0.016   4.654  0.0464 -0.3848  0.0351
 1752SOL     OW16717   3.564   3.754   7.135 -0.3306 -0.2503 -0.4588
 1752SOL    HW116718   3.623   3.808   7.188 -2.5780  0.1061  1.7195
 1752SOL    HW216719   3.478   3.786   7.162 -0.1673  0.0192 -0.2577
 1753SOL     OW16720   3.436   0.985   2.830  0.2894  0.7237  0.6118
 1753SOL    HW116721   3.349   0.995   2.868  0.1158 -0.1094  0.4257
 1753SOL    HW216722   3.489   0.994   2.909 -1.3953  4.3971  1.3183
 1754SOL     OW16723   1.675   2.115   3.247  0.3037 -0.3922 -0.4806
 1754SOL    HW116724   1.627   2.141   3.168  0.3827 -0.7864 -0.6542
 1754SOL    HW216725   1.644   2.174   3.316  0.2104 -3.5727  2.1959
 1755SOL     OW16726   3.256   0.545   1.672 -0.3201 -0.4095 -0.3567
 1755SOL    HW116727   3.213   0.543   1.757 -0.5840  3.4922 -0.4299
 1755SOL    HW216728   3.210   0.469   1.635 -0.2086 -0.7676  0.2367
 1756SOL     OW16729   0.759   0.034  14.628  0.1142  0.3310  0.4589
 1756SOL    HW116730   0.717   4.708  14.696  1.5155 -2.2139 -0.6151
 1756SOL    HW216731   0.719   0.121  14.630 -0.3946  0.0641  1.8518
 1757SOL     OW16732   2.907   3.352   5.424 -0.2848 -0.3740 -0.0146
 1757SOL    HW116733   2.914   3.290   5.351 -1.5201 -0.2220 -0.2590
 1757SOL    HW216734   2.995   3.347   5.461  0.2728  1.0212 -1.1715
 1758SOL     OW16735   1.270   3.999   0.353  0.4396  0.1072 -0.4762
 1758SOL    HW116736   1.299   4.011   0.262 -0.8248  0.2143 -0.8612
 1758SOL    HW216737   1.205   3.934   0.327  0.6593 -0.6333  0.8064
 1759SOL     OW16738   1.721   2.726   7.454 -0.1327  0.1702  0.3003
 1759SOL    HW116739   1.715   2.665   7.380 -0.5939  1.7500 -0.9547
 1759SOL    HW216740   1.805   2.700   7.492  0.7076  0.8080 -1.1430
 1760SOL     OW16741   4.107   1.186   7.316 -0.5333 -0.1954 -0.5779
 1760SOL    HW116742   4.033   1.164   7.259 -0.3776  1.2154 -1.3080
 1760SOL    HW216743   4.076   1.152   7.401  0.3407 -0.7844 -0.4911
 1761SOL     OW16744   1.196   3.189   9.287  0.0863 -0.3191  0.3497
 1761SOL    HW116745   1.187   3.284   9.298  1.9383 -0.2710  1.4717
 1761SOL    HW216746   1.288   3.176   9.262  0.4751 -0.7111  2.0149
 1762SOL     OW16747   4.170   1.636  13.470 -0.7159 -0.4315 -0.0138
 1762SOL    HW116748   4.121   1.595  13.398 -1.9465 -1.0458  1.1851
 1762SOL    HW216749   4.259   1.610  13.445 -0.4529 -0.3143  0.7923
 1763SOL     OW16750   2.902   0.264   9.943  0.0275  0.4978 -0.4499
 1763SOL    HW116751   2.863   0.235   9.860  1.7373  0.2226 -1.1451
 1763SOL    HW216752   2.936   0.184   9.983  2.2891  3.2503  3.0485
 1764SOL     OW16753   3.563   2.670   2.207 -0.6989 -0.1606  0.8429
 1764SOL    HW116754   3.539   2.762   2.194  0.5638  0.2635  1.5274
 1764SOL    HW216755   3.532   2.637   2.123 -0.3377 -0.3765  0.7939
 1765SOL     OW16756   4.644   1.674   6.165  0.0920 -0.0214  0.6616
 1765SOL    HW116757   4.667   1.583   6.147  3.2930  0.0280  4.4305
 1765SOL    HW216758   0.003   1.718   6.168  0.6136 -0.9488 -0.6703
 1766SOL     OW16759   2.591   0.897   8.089  0.1733 -0.6170  0.3061
 1766SOL    HW116760   2.555   0.951   8.019 -0.8492 -0.6713  0.7813
 1766SOL    HW216761   2.594   0.952   8.168  0.2897 -1.1159  0.6493
 1767SOL     OW16762   2.009   3.573   8.678 -0.0867  0.1495  0.1716
 1767SOL    HW116763   1.998   3.623   8.597 -0.0154 -1.5977 -0.9035
 1767SOL    HW216764   1.930   3.522   8.660 -0.1710 -0.0715  1.1759
 1768SOL     OW16765   2.352   0.082   4.355 -0.2500  0.1528  0.6124
 1768SOL    HW116766   2.321   0.002   4.311  0.5540  0.6412 -0.8235
 1768SOL    HW216767   2.447   0.076   4.343 -0.3911 -0.0570 -0.4557
 1769SOL     OW16768   1.608   1.602   1.476  0.1031 -0.0323 -0.7159
 1769SOL    HW116769   1.617   1.594   1.571  1.1286  2.2043 -0.6197
 1769SOL    HW216770   1.541   1.533   1.479 -1.1789  1.1936 -1.1730
 1770SOL     OW16771   4.308   4.024   8.288  0.2343 -0.1953  0.3583
 1770SOL    HW116772   4.336   4.108   8.323 -1.3246 -0.0643  1.2989
 1770SOL    HW216773   4.314   3.971   8.367 -0.5799  0.8511  1.1169
 1771SOL     OW16774   2.507   1.375   0.750  0.5518 -0.1713  0.3612
 1771SOL    HW116775   2.548   1.445   0.700 -0.2036 -1.3139 -1.8990
 1771SOL    HW216776   2.418   1.388   0.717  0.6065  0.0327  0.2975
 1772SOL     OW16777   3.809   0.252   4.825 -0.0194 -0.1504 -0.3165
 1772SOL    HW116778   3.831   0.165   4.792  0.6853  0.3039 -1.0541
 1772SOL    HW216779   3.887   0.275   4.876 -0.4442 -1.0196  0.7329
 1773SOL     OW16780   4.685   0.633   8.181 -0.0708  0.0011 -0.1118
 1773SOL    HW116781   4.657   0.579   8.255 -1.1576 -0.0697 -0.5779
 1773SOL    HW216782   4.608   0.639   8.125 -0.2191  1.3076  0.2306
 1774SOL     OW16783   2.661   3.952   1.105  0.1679  0.4843  0.3631
 1774SOL    HW116784   2.745   3.970   1.062 -0.0730 -1.0504 -0.7633
 1774SOL    HW216785   2.686   3.920   1.191  0.1145 -0.4113  0.0478
 1775SOL     OW16786   2.849   2.527  13.341  0.4360 -0.2758  0.5754
 1775SOL    HW116787   2.791   2.453  13.324  1.3920 -0.7937 -0.4392
 1775SOL    HW216788   2.856   2.575  13.258  0.0628 -0.0330  0.6864
 1776SOL     OW16789   1.368   1.799   3.867 -0.1319  0.0187  0.1686
 1776SOL    HW116790   1.353   1.818   3.960  1.2538 -0.8455  0.5736
 1776SOL    HW216791   1.328   1.878   3.831  0.4313  0.1890 -0.0798
 1777SOL     OW16792   3.531   2.988   7.164  0.6936 -0.3491  0.4020
 1777SOL    HW116793   3.514   3.006   7.256  0.3047 -0.9954  0.4526
 1777SOL    HW216794   3.568   2.901   7.177  4.6665  1.0938 -0.9552
 1778SOL     OW16795   1.440   4.417  15.998 -0.3883  0.2275 -0.4917
 1778SOL    HW116796   1.356   4.416  16.044 -0.0242  1.9136  0.2388
 1778SOL    HW216797   1.441   4.509  15.972  1.2035  0.3350 -0.0846
 1779SOL     OW16798   2.079   1.345   9.215 -0.1767 -0.3307 -0.5122
 1779SOL    HW116799   2.165   1.327   9.251  0.8281  0.6009 -2.4359
 1779SOL    HW216800   2.038   1.259   9.230 -0.1776 -0.2815 -0.2335
 1780SOL     OW16801   4.466   1.653  11.016 -0.5225  0.5824 -0.0387
 1780SOL    HW116802   4.540   1.685  11.066 -0.0370 -3.9087  2.1577
 1780SOL    HW216803   4.502   1.585  10.958  0.0667  1.1294 -0.3087
 1781SOL     OW16804   0.172   2.830   6.513 -0.3090  0.3165 -0.1552
 1781SOL    HW116805   0.242   2.799   6.455 -0.0190 -0.1879  0.4580
 1781SOL    HW216806   0.196   2.770   6.584  1.8528  0.7955 -0.4793
 1782SOL     OW16807   2.172   3.504  11.043 -0.2001  0.0630  0.1633
 1782SOL    HW116808   2.165   3.570  11.112  1.4589  0.9558 -0.5104
 1782SOL    HW216809   2.201   3.427  11.092 -0.9356  2.0465  3.6987
 1783SOL     OW16810   4.692   2.850  13.077  0.2462  0.4218 -0.0876
 1783SOL    HW116811   4.683   2.939  13.044  0.1391  0.2380 -0.5679
 1783SOL    HW216812   0.051   2.817  13.047 -0.5323 -1.1566 -0.5625
 1784SOL     OW16813   2.871   2.747   5.772 -0.3147  0.3734  0.3390
 1784SOL    HW116814   2.919   2.701   5.702  0.2896 -0.7011  1.4596
 1784SOL    HW216815   2.942   2.750   5.837  0.0291 -0.1885 -0.0100
 1785SOL     OW16816   1.427   1.405   5.160 -0.8079 -0.2676 -0.0879
 1785SOL    HW116817   1.424   1.430   5.067  2.3913  0.1759 -0.0701
 1785SOL    HW216818   1.506   1.352   5.160 -1.5502 -1.3640  0.0713
 1786SOL     OW16819   1.453   2.218   3.117  0.0917  0.1387  0.3251
 1786SOL    HW116820   1.377   2.162   3.132  0.4729 -0.8991 -1.5612
 1786SOL    HW216821   1.411   2.303   3.132 -0.0843  0.0512  0.3234
 1787SOL     OW16822   3.034   4.430   0.570 -0.3452 -0.0082 -0.2626
 1787SOL    HW116823   3.122   4.403   0.594 -0.2001  0.1250 -0.6614
 1787SOL    HW216824   3.040   4.466   0.482  2.0088 -1.8119 -0.8186
 1788SOL     OW16825   1.081   2.420   7.613  0.4216  0.1132 -0.0489
 1788SOL    HW116826   0.987   2.402   7.624 -0.2308  1.5031 -3.3146
 1788SOL    HW216827   1.109   2.329   7.621  1.4951  0.1395 -3.2995
 1789SOL     OW16828   4.083   4.688   5.578  0.1043  0.4879 -0.7252
 1789SOL    HW116829   4.071   0.051   5.545 -3.7169  0.7326  1.2970
 1789SOL    HW216830   4.105   4.649   5.494  3.2883 -1.0574  0.8282
 1790SOL     OW16831   0.905   3.258   4.887  0.2280  0.1393 -0.4154
 1790SOL    HW116832   0.987   3.209   4.885 -0.0171 -0.3090  0.4823
 1790SOL    HW216833   0.931   3.321   4.955 -0.3088  2.5377 -2.4327
 1791SOL     OW16834   2.855   3.236   3.255  0.3715  0.0724 -0.6338
 1791SOL    HW116835   2.867   3.326   3.224 -0.6292 -0.0139 -1.2600
 1791SOL    HW216836   2.762   3.218   3.239  0.4868 -1.4997  0.5216
 1792SOL     OW16837   1.901   1.043  13.980 -0.6574  0.6065 -0.3030
 1792SOL    HW116838   1.970   1.074  13.922 -1.5475  3.3041  0.0476
 1792SOL    HW216839   1.935   0.966  14.026 -1.6070 -0.4496 -1.3832
 1793SOL     OW16840   0.649   1.033   2.132  0.4132 -0.1602  0.2993
 1793SOL    HW116841   0.592   0.959   2.150 -0.0126  0.2142  0.4815
 1793SOL    HW216842   0.596   1.069   2.062 -1.1811 -2.3393  0.3895
 1794SOL     OW16843   2.928   0.345   8.106  0.2435 -0.8956 -0.0498
 1794SOL    HW116844   2.845   0.391   8.086  1.9778  1.9595 -0.7510
 1794SOL    HW216845   2.907   0.254   8.085 -1.6295 -1.0729  2.5971
 1795SOL     OW16846   3.817   0.527  12.817  0.5615  0.1078 -0.4884
 1795SOL    HW116847   3.819   0.481  12.733 -0.6111 -1.4418  0.3262
 1795SOL    HW216848   3.762   0.604  12.808  1.2745  0.3617 -2.7769
 1796SOL     OW16849   3.514   2.002   6.210 -0.0998 -0.3074  0.3118
 1796SOL    HW116850   3.529   1.942   6.137 -0.5110 -2.5189  2.0706
 1796SOL    HW216851   3.424   2.028   6.189  0.4765  0.0259 -1.7446
 1797SOL     OW16852   2.684   0.021   5.402  0.0224  0.4196 -0.1324
 1797SOL    HW116853   2.615   0.088   5.400 -0.1434  0.3302  2.3286
 1797SOL    HW216854   2.697   0.028   5.497  0.8176  0.2418 -0.2360
 1798SOL     OW16855   0.808   0.896   9.370 -0.8186 -0.4658 -0.3669
 1798SOL    HW116856   0.878   0.863   9.426 -0.2982  3.1066  1.0934
 1798SOL    HW216857   0.854   0.937   9.296  1.6519 -3.4828 -0.5091
 1799SOL     OW16858   0.581   0.384   1.360  0.5893  0.1447  0.2779
 1799SOL    HW116859   0.665   0.419   1.390  1.1612  0.3397 -1.5455
 1799SOL    HW216860   0.541   0.471   1.358 -2.1007 -1.1419 -2.1705
 1800SOL     OW16861   2.452   3.681   9.954 -0.5903 -0.2080  0.2220
 1800SOL    HW116862   2.474   3.765   9.914  0.2216 -2.0299 -3.1074
 1800SOL    HW216863   2.513   3.623   9.909  1.5566  1.6927  0.6401
 1801SOL     OW16864   0.775   0.695   3.791  0.2966 -0.2752 -0.4670
 1801SOL    HW116865   0.798   0.604   3.810  0.1338  0.2005  2.0462
 1801SOL    HW216866   0.772   0.688   3.696 -0.9561 -1.7976 -0.3228
 1802SOL     OW16867   0.499   1.572  13.312 -0.0177 -0.0874 -0.0593
 1802SOL    HW116868   0.473   1.574  13.404 -0.5940  0.4770 -0.2366
 1802SOL    HW216869   0.529   1.663  13.319  1.2983 -0.6295  1.3979
 1803SOL     OW16870   2.385   2.840   3.534  0.3274  0.3937  0.1480
 1803SOL    HW116871   2.475   2.836   3.567 -0.3638 -1.2874  1.8307
 1803SOL    HW216872   2.365   2.747   3.544 -1.8011  0.9215  0.8215
 1804SOL     OW16873   1.666   3.059   3.895  0.2781 -0.2386 -0.0501
 1804SOL    HW116874   1.592   3.110   3.926  2.1060  0.1419  3.6875
 1804SOL    HW216875   1.718   3.061   3.976  1.0736 -1.6994 -0.5150
 1805SOL     OW16876   1.161   1.827   7.331 -0.3662  0.2653 -0.0962
 1805SOL    HW116877   1.069   1.836   7.358  0.1556  0.4620  1.6369
 1805SOL    HW216878   1.212   1.835   7.411 -0.7020  3.3048 -0.2066
 1806SOL     OW16879   3.156   3.340   3.183 -0.1158  0.2167  0.0381
 1806SOL    HW116880   3.189   3.281   3.115  2.1906  2.4147 -0.7380
 1806SOL    HW216881   3.217   3.323   3.255 -0.0276 -2.4502 -0.6752
 1807SOL     OW16882   2.278   3.405   6.909 -0.1022  0.0794 -0.5371
 1807SOL    HW116883   2.265   3.500   6.909  0.5039  0.1572  0.3717
 1807SOL    HW216884   2.241   3.383   6.994  0.0863 -0.6461 -0.6472
 1808SOL     OW16885   0.609   2.334   6.158 -0.3962  0.2561  0.3534
 1808SOL    HW116886   0.621   2.249   6.202 -1.0500 -0.7569 -1.4455
 1808SOL    HW216887   0.587   2.306   6.070  2.2274 -0.4386 -0.0879
 1809SOL     OW16888   4.106   1.573  16.573 -0.3716  0.6899  0.3670
 1809SOL    HW116889   4.152   1.500  16.614  2.1251  0.8811 -2.1886
 1809SOL    HW216890   4.175   1.612  16.520  1.4735 -2.8922  0.1825
 1810SOL     OW16891   2.685   4.291   4.981 -0.2369 -0.3281 -0.3685
 1810SOL    HW116892   2.612   4.231   4.995 -0.2080 -0.6110 -1.4927
 1810SOL    HW216893   2.756   4.236   4.947  0.3472  0.3638 -0.2665
 1811SOL     OW16894   0.552   2.631  14.851 -0.5527 -0.4717 -0.9441
 1811SOL    HW116895   0.542   2.536  14.839  0.3672 -0.8214  0.9996
 1811SOL    HW216896   0.535   2.658  14.761  2.6533 -1.1135 -1.7460
 1812SOL     OW16897   1.074   1.059   5.838 -0.2571 -0.3964 -0.2249
 1812SOL    HW116898   1.078   1.017   5.752  0.6298 -0.9127  0.0618
 1812SOL    HW216899   1.028   1.138   5.811 -0.6040 -0.4444  0.2325
 1813SOL     OW16900   2.933   3.861   7.996 -0.3818 -0.1035 -0.3122
 1813SOL    HW116901   2.963   3.930   8.055 -0.2810 -0.6155  0.2386
 1813SOL    HW216902   3.015   3.813   7.985 -2.2335 -2.7533 -2.6360
 1814SOL     OW16903   2.285   0.879   6.128  0.4092  0.1226 -0.1248
 1814SOL    HW116904   2.192   0.873   6.151  0.3536 -0.7510 -0.5460
 1814SOL    HW216905   2.281   0.908   6.036  0.8863 -0.2586 -0.2672
 1815SOL     OW16906   3.580   2.487   3.944  0.1359  0.1212  0.6207
 1815SOL    HW116907   3.578   2.453   4.034 -0.6118  0.4011  0.7087
 1815SOL    HW216908   3.493   2.471   3.906  0.3854 -0.7300  0.4101
 1816SOL     OW16909   3.049   2.034  17.371 -0.1321  0.0796  0.2407
 1816SOL    HW116910   3.021   2.114  17.326 -0.3947 -0.2330 -0.1508
 1816SOL    HW216911   3.032   1.970  17.302  1.6461 -0.4659  0.3194
 1817SOL     OW16912   3.289   2.996  15.792 -0.5831  0.2408  0.2748
 1817SOL    HW116913   3.312   3.036  15.876  0.8893 -1.1537  0.5393
 1817SOL    HW216914   3.304   2.905  15.816 -0.8190 -0.4316 -2.1715
 1818SOL     OW16915   3.079   1.698   4.652  0.3275  0.3157  0.3346
 1818SOL    HW116916   3.014   1.639   4.615 -0.5664  1.4123  0.1726
 1818SOL    HW216917   3.091   1.756   4.577 -1.3226 -0.3788 -0.4614
 1819SOL     OW16918   1.933   4.074   6.253 -0.0310  0.5731  0.1008
 1819SOL    HW116919   1.859   4.130   6.276 -0.7197  0.0854 -0.9265
 1819SOL    HW216920   2.004   4.105   6.308  1.3050 -0.1620 -1.1896
 1820SOL     OW16921   2.495   2.228   2.164  0.2901  0.1909  0.4717
 1820SOL    HW116922   2.505   2.207   2.071 -2.5240 -0.8115  0.4052
 1820SOL    HW216923   2.538   2.149   2.197 -0.7475 -1.1310 -1.3571
 1821SOL     OW16924   0.240   4.134   6.176 -0.2004  0.8767  0.5678
 1821SOL    HW116925   0.234   4.040   6.193  2.2450  0.4174 -1.1515
 1821SOL    HW216926   0.233   4.133   6.081 -1.8365  2.0092  0.6727
 1822SOL     OW16927   0.429   1.678   3.782  0.4579  0.6159  0.1559
 1822SOL    HW116928   0.441   1.742   3.713  2.4168  1.6617  1.4637
 1822SOL    HW216929   0.488   1.608   3.753  0.4137  1.3205 -1.6327
 1823SOL     OW16930   3.883   2.125   3.225 -0.2635 -0.2702 -0.3961
 1823SOL    HW116931   3.893   2.036   3.258 -3.4233 -1.6210 -3.1206
 1823SOL    HW216932   3.870   2.097   3.134  0.2610  1.9771 -1.1812
 1824SOL     OW16933   4.279   0.974   0.805 -0.4572 -0.4130  0.4293
 1824SOL    HW116934   4.188   0.967   0.774 -0.1236 -0.6996 -0.4930
 1824SOL    HW216935   4.318   0.901   0.756 -1.7892  0.1118 -1.4267
 1825SOL     OW16936   3.983   2.825   5.469 -0.4490 -0.4458  0.5055
 1825SOL    HW116937   3.935   2.854   5.546 -0.8981  1.9168 -0.6765
 1825SOL    HW216938   3.927   2.759   5.426 -1.4778 -0.1511  1.3971
 1826SOL     OW16939   2.611   0.391  15.486  0.2636  0.9053 -0.3001
 1826SOL    HW116940   2.604   0.486  15.499  1.2216  0.9490 -0.1319
 1826SOL    HW216941   2.702   0.366  15.500 -0.6925 -1.9058  0.9471
 1827SOL     OW16942   0.399   1.676   2.018 -0.5964 -0.3982 -0.1467
 1827SOL    HW116943   0.341   1.714   1.952  0.0166  0.2057 -0.3464
 1827SOL    HW216944   0.460   1.747   2.040 -2.6575  0.4475  2.7762
 1828SOL     OW16945   0.148   2.010  11.981  0.6249  0.7327 -0.0358
 1828SOL    HW116946   0.113   1.995  11.893 -0.4926 -1.7921  0.8320
 1828SOL    HW216947   0.229   2.056  11.960  1.9852 -1.8730 -0.5185
 1829SOL     OW16948   2.313   2.700  14.084 -0.5314 -0.0977  0.0100
 1829SOL    HW116949   2.273   2.785  14.071 -1.1038 -0.1038  1.6881
 1829SOL    HW216950   2.245   2.643  14.049  0.0886  1.4669 -3.6810
 1830SOL     OW16951   3.264   0.142   0.231 -0.1306 -0.0679 -0.2864
 1830SOL    HW116952   3.319   0.069   0.204 -0.2481  1.0133 -3.5527
 1830SOL    HW216953   3.304   0.222   0.197 -0.0095 -0.0608 -0.1275
 1831SOL     OW16954   0.893   1.823   5.119 -0.0393 -0.1617  0.3632
 1831SOL    HW116955   0.975   1.797   5.079  0.3262  0.9789  0.3551
 1831SOL    HW216956   0.850   1.838   5.035 -0.4780 -0.8774  0.4613
 1832SOL     OW16957   2.888   0.174   6.208 -0.0454 -0.3440  0.4429
 1832SOL    HW116958   2.878   0.269   6.209  1.1023 -0.2163 -1.6896
 1832SOL    HW216959   2.977   0.171   6.241 -0.1824  1.3333  0.9363
 1833SOL     OW16960   1.042   3.738   5.652  0.4823 -0.1543 -0.4924
 1833SOL    HW116961   1.102   3.720   5.724  0.1836 -0.8543 -0.4164
 1833SOL    HW216962   0.988   3.810   5.683  0.3019 -0.0433 -1.0704
 1834SOL     OW16963   4.493   1.172  16.694  0.3080 -0.7468  0.6205
 1834SOL    HW116964   4.522   1.133  16.776  2.2106 -1.2989 -0.3163
 1834SOL    HW216965   4.553   1.247  16.696 -2.5905  1.5661  1.1355
 1835SOL     OW16966   4.515   1.251   5.045 -0.2095 -0.0184  0.2150
 1835SOL    HW116967   4.533   1.328   5.098 -1.7866  0.5384 -0.0761
 1835SOL    HW216968   4.445   1.212   5.097  0.0669 -1.3121 -0.3766
 1836SOL     OW16969   3.547   4.630   8.606 -0.4266 -0.6405 -0.4810
 1836SOL    HW116970   3.557   4.700   8.670 -0.3875 -1.8726  0.8604
 1836SOL    HW216971   3.638   4.628   8.576 -0.1493  0.8673  0.2404
 1837SOL     OW16972   3.298   3.118  16.372 -0.2956 -0.2790  0.3047
 1837SOL    HW116973   3.223   3.142  16.317  2.8064  1.8413 -2.9644
 1837SOL    HW216974   3.360   3.175  16.327 -1.2054 -1.7497 -2.7894
 1838SOL     OW16975   2.242   1.214   5.939  0.5015 -0.3173 -0.1146
 1838SOL    HW116976   2.187   1.269   5.883 -0.2919  0.2001  1.1578
 1838SOL    HW216977   2.325   1.199   5.894  0.0956  0.1974 -1.0249
 1839SOL     OW16978   2.584   0.169   8.859  0.4191  0.2177  0.6250
 1839SOL    HW116979   2.636   0.197   8.934 -0.2800 -1.8697  1.8917
 1839SOL    HW216980   2.531   0.248   8.848  0.0765 -0.4874 -2.8448
 1840SOL     OW16981   1.212   2.909   9.185 -0.4898 -0.2091  0.4710
 1840SOL    HW116982   1.188   2.922   9.093 -0.9064 -2.4009  0.2732
 1840SOL    HW216983   1.202   2.995   9.226 -0.2873 -0.7338  1.5996
 1841SOL     OW16984   3.228   2.826   4.902  0.2478  0.5012 -0.0076
 1841SOL    HW116985   3.319   2.848   4.884  0.4089 -0.6013 -0.6103
 1841SOL    HW216986   3.197   2.808   4.812  1.2526 -2.1640  0.1829
 1842SOL     OW16987   0.818   0.895   8.063 -0.2744  0.0287  0.0972
 1842SOL    HW116988   0.837   0.954   8.135 -1.2260 -2.5874  2.4845
 1842SOL    HW216989   0.725   0.881   8.083 -0.8529  4.4533  0.3055
 1843SOL     OW16990   3.512   3.781   3.596 -0.4021  0.1833 -0.3789
 1843SOL    HW116991   3.459   3.735   3.530 -0.7035 -2.2162  1.5266
 1843SOL    HW216992   3.591   3.727   3.589 -2.0432 -2.1764 -0.9130
 1844SOL     OW16993   4.001   1.718   2.869 -0.1583  0.0309 -0.0699
 1844SOL    HW116994   3.961   1.655   2.809  2.9789 -0.5369 -1.5526
 1844SOL    HW216995   4.092   1.688   2.880  0.7918  2.6276 -0.9406
 1845SOL     OW16996   3.666   3.268   5.153 -0.7316  0.5074 -0.0053
 1845SOL    HW116997   3.697   3.304   5.069 -0.3723  0.2880  0.0330
 1845SOL    HW216998   3.578   3.238   5.126 -0.5609 -0.4520  0.4988
 1846SOL     OW16999   3.921   4.156  11.617 -0.1733  0.0997 -0.2461
 1846SOL    HW117000   3.931   4.171  11.711 -1.1578 -0.5155 -0.0336
 1846SOL    HW217001   3.948   4.238  11.578 -0.2101 -0.3526 -1.2357
 1847SOL     OW17002   3.050   2.957   6.755 -0.0688 -0.0463 -0.3957
 1847SOL    HW117003   2.977   2.950   6.815 -0.8636  2.2508 -1.1069
 1847SOL    HW217004   3.006   2.930   6.674  1.1524  1.0661 -1.4426
 1848SOL     OW17005   1.631   2.486   3.711  0.0396 -0.3890  0.0131
 1848SOL    HW117006   1.600   2.556   3.654  0.9940 -0.7266 -0.9330
 1848SOL    HW217007   1.724   2.497   3.690 -0.6165 -1.0895 -3.2568
 1849SOL     OW17008   1.509   2.976   2.881  0.0365  0.2243  0.3042
 1849SOL    HW117009   1.528   2.884   2.862  0.5753  0.2697  0.6065
 1849SOL    HW217010   1.598   3.011   2.881 -0.7518  2.2420 -0.3882
 1850SOL     OW17011   1.043   0.227   6.945  0.1694 -0.6570  0.0207
 1850SOL    HW117012   1.085   0.162   6.888 -0.4488 -2.1493  1.2680
 1850SOL    HW217013   1.035   0.304   6.889  2.5089  1.5484  2.7195
 1851SOL     OW17014   0.514   3.534   1.797  0.2282 -0.3124  0.2063
 1851SOL    HW117015   0.439   3.475   1.807 -1.5410  2.2035  1.6792
 1851SOL    HW217016   0.480   3.609   1.846 -0.4074  0.6097 -1.6310
 1852SOL     OW17017   4.239   0.064   1.991 -0.2266  0.3170  0.2991
 1852SOL    HW117018   4.293   4.719   2.027 -0.6910 -0.3620 -0.3317
 1852SOL    HW217019   4.286   0.086   1.911 -1.7278  0.6412 -0.4990
 1853SOL     OW17020   3.458   0.144   3.892 -0.3097  0.0859  0.8156
 1853SOL    HW117021   3.371   0.164   3.924  0.6298  3.7210  1.0602
 1853SOL    HW217022   3.445   0.053   3.867 -0.4817  0.2936  0.1705
 1854SOL     OW17023   1.944   1.750   3.759 -0.2226  0.2904  0.4222
 1854SOL    HW117024   1.850   1.750   3.778 -0.1876 -2.7912  0.5534
 1854SOL    HW217025   1.956   1.685   3.690 -1.8739 -2.6625  2.9636
 1855SOL     OW17026   3.999   0.403   3.473 -0.0332  0.2946 -0.8040
 1855SOL    HW117027   4.057   0.330   3.451 -1.2840 -0.3641 -1.9217
 1855SOL    HW217028   3.915   0.382   3.432  0.4566 -0.4511 -1.4538
 1856SOL     OW17029   3.387   3.991   5.084  0.3128  0.0651  0.2166
 1856SOL    HW117030   3.411   3.935   5.010  0.4910 -1.1902  1.2250
 1856SOL    HW217031   3.293   4.009   5.071  0.4722  0.1598 -0.8691
 1857SOL     OW17032   1.445   1.729   9.205  0.3107  0.5245 -0.6613
 1857SOL    HW117033   1.534   1.731   9.239 -0.3242  0.0327  1.0268
 1857SOL    HW217034   1.444   1.818   9.169  0.3882  0.2837 -1.2522
 1858SOL     OW17035   0.445   0.084   2.536 -0.6858 -0.5742 -0.0709
 1858SOL    HW117036   0.449   0.034   2.618 -0.8230 -2.4032 -1.1922
 1858SOL    HW217037   0.366   0.133   2.557  1.1996  1.9835  1.1089
 1859SOL     OW17038   1.900   2.832   8.860  0.2640  0.4491  0.5929
 1859SOL    HW117039   1.901   2.743   8.894  0.0559  0.2549  0.0935
 1859SOL    HW217040   1.967   2.872   8.916  0.1619  1.2059  0.1787
 1860SOL     OW17041   2.181   1.198  13.204  0.1288  0.3290  0.6565
 1860SOL    HW117042   2.108   1.135  13.206  1.8087 -1.5684  1.9867
 1860SOL    HW217043   2.208   1.202  13.296  3.4758 -1.3534 -0.2744
 1861SOL     OW17044   3.895   4.288   6.146  0.5054  0.1107 -0.4155
 1861SOL    HW117045   3.983   4.280   6.183  0.2308  2.0802  0.6659
 1861SOL    HW217046   3.877   4.199   6.117  1.6170  0.4751 -2.2087
 1862SOL     OW17047   0.308   1.216   2.677 -0.2764  0.2960 -0.2646
 1862SOL    HW117048   0.328   1.258   2.593 -1.1877  0.0675 -0.5918
 1862SOL    HW217049   0.259   1.285   2.721  1.7920  0.8505  1.2084
 1863SOL     OW17050   4.124   4.491   0.237  0.0330 -0.1746  0.2436
 1863SOL    HW117051   4.174   4.514   0.315 -0.6948 -0.8971  0.9213
 1863SOL    HW217052   4.035   4.500   0.270 -0.6306 -1.9260 -1.0819
 1864SOL     OW17053   4.061   1.121   0.494  0.2185 -0.0945  0.4679
 1864SOL    HW117054   4.007   1.188   0.453 -0.7280 -0.2809  1.4242
 1864SOL    HW217055   3.993   1.082   0.549 -1.0355  2.7819  0.9397
 1865SOL     OW17056   2.433   0.739  15.839  0.0547  0.2167 -0.6421
 1865SOL    HW117057   2.389   0.810  15.792 -1.5453  0.3408  1.0426
 1865SOL    HW217058   2.373   0.737  15.914 -0.8065 -0.2584 -1.3467
 1866SOL     OW17059   4.261   3.813   8.479 -0.5767 -0.0050 -0.3781
 1866SOL    HW117060   4.264   3.833   8.573  1.8858  0.5116 -0.5758
 1866SOL    HW217061   4.235   3.721   8.481 -1.1704  0.1671 -0.0585
 1867SOL     OW17062   4.560   0.433  13.947 -0.4038  0.3723  0.3161
 1867SOL    HW117063   4.561   0.503  13.882  0.8283 -0.2142 -0.2808
 1867SOL    HW217064   4.467   0.422  13.967 -0.4695 -0.7369 -0.6742
 1868SOL     OW17065   2.105   3.949   3.005 -0.4148 -0.3715 -0.0954
 1868SOL    HW117066   2.027   3.971   3.056  0.7852 -0.5423  1.7988
 1868SOL    HW217067   2.151   3.893   3.067  1.1488  1.8299  0.7173
 1869SOL     OW17068   2.236   1.359   7.908 -0.3415 -0.5983 -0.0805
 1869SOL    HW117069   2.251   1.271   7.873  3.2117  0.4471 -1.2523
 1869SOL    HW217070   2.151   1.355   7.952  0.1821 -1.7721  0.8195
 1870SOL     OW17071   4.235   2.408  15.934 -0.0572  0.2161 -0.2562
 1870SOL    HW117072   4.266   2.428  16.022 -1.7936 -0.0383  0.4061
 1870SOL    HW217073   4.143   2.434  15.933  0.5332  2.4047  1.5313
 1871SOL     OW17074   4.302   4.085   9.053  0.6917  0.4227  0.4290
 1871SOL    HW117075   4.207   4.098   9.061  0.8168  2.3274 -1.1277
 1871SOL    HW217076   4.297   3.990   9.061 -1.2395  0.3716 -1.3783
 1872SOL     OW17077   1.415   2.899   4.314  0.6536 -0.2863  0.0722
 1872SOL    HW117078   1.374   2.829   4.366 -0.0664 -1.2966 -1.8349
 1872SOL    HW217079   1.413   2.861   4.226  0.6202 -1.8438  0.7435
 1873SOL     OW17080   4.605   1.602   1.939 -0.8268  0.1432 -0.2206
 1873SOL    HW117081   4.518   1.569   1.958  0.1470 -0.9475  2.2495
 1873SOL    HW217082   4.601   1.667   2.009 -0.0571  0.2229 -0.2517
 1874SOL     OW17083   3.976   2.861   4.275  0.2479  0.7474 -0.1931
 1874SOL    HW117084   3.916   2.795   4.310 -0.9327  0.5817 -2.5366
 1874SOL    HW217085   4.021   2.800   4.216 -0.5172 -1.2360  1.2723
 1875SOL     OW17086   1.110   0.621   4.801 -0.1240  0.0990  0.0163
 1875SOL    HW117087   1.025   0.578   4.803 -0.2790  0.1983 -4.0862
 1875SOL    HW217088   1.112   0.644   4.708 -1.7165 -2.3102 -0.6275
 1876SOL     OW17089   1.287   2.647   4.333 -0.3432 -0.0355  0.0477
 1876SOL    HW117090   1.213   2.608   4.287 -0.2399  1.7596 -1.6519
 1876SOL    HW217091   1.359   2.626   4.274  2.0124  0.3025  2.7830
 1877SOL     OW17092   4.721   2.156   5.453 -0.2306 -0.2111 -0.2630
 1877SOL    HW117093   4.645   2.180   5.400  0.1613 -3.0849 -2.1157
 1877SOL    HW217094   4.695   2.198   5.535 -1.5465  0.1555 -0.8549
 1878SOL     OW17095   2.226   1.604  10.498 -0.1487 -0.1361  0.0850
 1878SOL    HW117096   2.279   1.524  10.506 -2.3792 -1.2429  3.4729
 1878SOL    HW217097   2.249   1.638  10.411 -1.4001 -0.8652 -0.5280
 1879SOL     OW17098   2.595   2.395  16.743  0.4919 -0.1725 -0.0706
 1879SOL    HW117099   2.571   2.381  16.834  0.4602  1.0947  0.1027
 1879SOL    HW217100   2.604   2.490  16.736  0.0286  0.0657  2.6564
 1880SOL     OW17101   0.917   3.065   3.884  0.8425 -0.4659  0.2266
 1880SOL    HW117102   0.867   2.985   3.866 -0.0092  0.3625 -1.0783
 1880SOL    HW217103   0.930   3.069   3.979  1.3241  1.9592  0.0520
 1881SOL     OW17104   2.024   1.296  17.627 -0.0231  0.7074 -0.2703
 1881SOL    HW117105   2.010   1.293  17.532 -0.4079 -1.2916 -0.1586
 1881SOL    HW217106   1.977   1.378  17.639  2.2812  1.7645  1.5663
 1882SOL     OW17107   4.602   4.416  10.276 -0.1564 -0.2919  0.1829
 1882SOL    HW117108   4.632   4.483  10.214  0.4960 -0.9406 -0.1990
 1882SOL    HW217109   4.507   4.419  10.267 -0.2652  0.0482  1.4790
 1883SOL     OW17110   2.061   0.236   3.681 -0.1978  0.3004 -0.2420
 1883SOL    HW117111   2.078   0.277   3.597 -1.4525  1.1153 -0.0981
 1883SOL    HW217112   2.134   0.174   3.671 -1.2437 -1.2396  1.5490
 1884SOL     OW17113   0.649   4.218   3.933  0.2280 -0.3921  0.1293
 1884SOL    HW117114   0.733   4.175   3.950  0.8202  1.0480  0.8085
 1884SOL    HW217115   0.640   4.279   4.007 -2.0489 -0.7274  0.1369
 1885SOL     OW17116   4.399   4.001   0.564 -0.3376  0.0359  0.7271
 1885SOL    HW117117   4.348   3.930   0.602 -0.2175 -1.2035 -1.4596
 1885SOL    HW217118   4.483   3.957   0.578  0.6560  2.0304  1.1402
 1886SOL     OW17119   2.490   3.287   2.659  0.3053  0.0437 -0.2144
 1886SOL    HW117120   2.536   3.278   2.742  1.8251  1.1925 -0.9327
 1886SOL    HW217121   2.404   3.320   2.682  0.0206 -1.0815  0.3273
 1887SOL     OW17122   1.591   0.513  15.367 -0.1572  0.2475 -0.2141
 1887SOL    HW117123   1.536   0.542  15.440 -0.0384  0.5900 -0.2584
 1887SOL    HW217124   1.630   0.594  15.333  0.8280 -0.4750 -0.8080
 1888SOL     OW17125   3.061   4.588   7.391 -0.1567  0.3764  0.3257
 1888SOL    HW117126   3.126   4.655   7.368 -1.2870  0.8291 -1.4601
 1888SOL    HW217127   3.119   4.543   7.453  0.3433  0.9330  0.2635
 1889SOL     OW17128   0.687   1.652  16.436  0.2204  0.1218 -0.1352
 1889SOL    HW117129   0.613   1.637  16.377 -0.5890 -0.0081  0.9081
 1889SOL    HW217130   0.752   1.599  16.390  0.6250  0.5707 -0.0769
 1890SOL     OW17131   3.726   1.405  17.302 -0.0074 -0.0202  0.0015
 1890SOL    HW117132   3.633   1.395  17.325 -0.1007  2.0202  0.4455
 1890SOL    HW217133   3.755   1.315  17.284  0.5027  0.4386 -1.4642
 1891SOL     OW17134   1.934   1.026   3.879  0.3304 -0.4573 -0.3698
 1891SOL    HW117135   1.959   1.099   3.823  0.8073  1.5813  2.4870
 1891SOL    HW217136   1.841   1.048   3.888  0.5388 -0.7250  2.5465
 1892SOL     OW17137   3.809   0.209   2.429  0.1469 -0.7284  0.1344
 1892SOL    HW117138   3.842   0.127   2.392  3.0866  0.0527  1.0497
 1892SOL    HW217139   3.840   0.258   2.353 -0.5515  0.6018  0.7084
 1893SOL     OW17140   2.840   3.897  12.040  0.2246  0.3082 -0.1820
 1893SOL    HW117141   2.845   3.839  12.116  1.0333  1.0649  0.3318
 1893SOL    HW217142   2.915   3.954  12.057 -0.0011  0.6104 -0.1992
 1894SOL     OW17143   1.941   3.805   7.987  0.3778  0.7026 -1.0492
 1894SOL    HW117144   1.930   3.876   7.924  1.0552  2.4676  0.8033
 1894SOL    HW217145   1.958   3.731   7.930 -1.2523 -0.8088  0.4124
 1895SOL     OW17146   0.795   0.221   8.640 -0.3528 -0.3228  0.0528
 1895SOL    HW117147   0.831   0.133   8.652 -0.3923 -0.3013  0.3316
 1895SOL    HW217148   0.708   0.210   8.678 -0.0891 -0.2303  0.6870
 1896SOL     OW17149   0.342   1.892   5.200 -0.0245 -0.7531  0.0951
 1896SOL    HW117150   0.295   1.941   5.133 -1.0692 -0.3885  1.1030
 1896SOL    HW217151   0.431   1.917   5.176 -0.4755  0.6568 -0.1099
 1897SOL     OW17152   3.111   0.469   1.911 -0.1853  0.1588 -0.3103
 1897SOL    HW117153   3.068   0.386   1.891  1.8768 -0.5250 -1.9197
 1897SOL    HW217154   3.058   0.502   1.983 -0.6621 -1.5676  0.1308
 1898SOL     OW17155   3.057   4.270   1.245  0.9317  0.1844 -0.5500
 1898SOL    HW117156   3.035   4.188   1.289  3.1725  0.6729  1.5123
 1898SOL    HW217157   3.028   4.236   1.161  1.9798 -1.9901 -0.0229
 1899SOL     OW17158   0.200   4.091  16.037 -0.5207  0.0594  0.2667
 1899SOL    HW117159   0.218   4.078  15.944 -1.6971 -0.4164  0.1099
 1899SOL    HW217160   0.278   4.144  16.057 -0.6553  0.3484  0.0152
 1900SOL     OW17161   1.875   0.791   5.668 -0.0847 -0.5478  0.1183
 1900SOL    HW117162   1.939   0.786   5.596  0.3914 -2.4654  0.6810
 1900SOL    HW217163   1.932   0.780   5.744 -0.2667 -1.2407  0.1527
 1901SOL     OW17164   3.837   1.692  13.997  0.2997 -0.7507 -0.0121
 1901SOL    HW117165   3.751   1.652  14.002 -0.0119 -0.1901 -0.7548
 1901SOL    HW217166   3.826   1.756  13.927  0.4668  0.6056  1.2022
 1902SOL     OW17167   3.592   2.719   7.267  0.5270 -0.2888  0.5174
 1902SOL    HW117168   3.609   2.685   7.355  0.5826 -1.6863 -0.0268
 1902SOL    HW217169   3.676   2.717   7.221  0.7100  0.0126  0.8424
 1903SOL     OW17170   2.172   2.628   6.392  0.0162 -0.3596 -0.3110
 1903SOL    HW117171   2.223   2.657   6.468 -0.5915 -0.1770  0.0231
 1903SOL    HW217172   2.094   2.591   6.434  0.3778 -0.2645  0.4389
 1904SOL     OW17173   2.915   3.857   3.359  0.0839  1.0114 -0.0690
 1904SOL    HW117174   2.986   3.836   3.420  0.2002 -1.7300 -1.1718
 1904SOL    HW217175   2.950   3.930   3.309  0.6488 -0.6034 -2.0152
 1905SOL     OW17176   2.776   3.608   8.064 -0.2761 -0.1068 -0.4802
 1905SOL    HW117177   2.804   3.693   8.029 -1.7758  0.1193 -1.1534
 1905SOL    HW217178   2.857   3.571   8.099 -0.6298 -0.4576 -0.0338
 1906SOL     OW17179   4.681   4.284   2.930 -0.5159 -0.7285  0.0522
 1906SOL    HW117180   0.044   4.256   2.911  1.0649  2.6780  2.4718
 1906SOL    HW217181   4.630   4.206   2.952 -0.1280 -1.2826 -1.0035
 1907SOL     OW17182   2.501   2.743  12.578 -0.0764  0.0588 -0.4375
 1907SOL    HW117183   2.416   2.700  12.570 -0.9975  1.6184  0.9693
 1907SOL    HW217184   2.527   2.715  12.666  0.6481  1.1937 -0.2848
 1908SOL     OW17185   0.101   1.193  11.814  0.1780  0.1228 -0.2896
 1908SOL    HW117186   0.040   1.173  11.743  1.6925 -0.4483 -1.4151
 1908SOL    HW217187   0.136   1.108  11.839  1.2111  0.1794 -1.6248
 1909SOL     OW17188   3.463   2.565  13.058 -0.1994 -0.9712  0.0359
 1909SOL    HW117189   3.502   2.478  13.050 -0.5255 -1.0580 -0.5352
 1909SOL    HW217190   3.423   2.553  13.144  0.2300 -0.1969  0.3532
 1910SOL     OW17191   4.215   4.498  16.888  0.9855 -0.5456  0.6369
 1910SOL    HW117192   4.285   4.562  16.904  0.5299  0.1263 -0.0281
 1910SOL    HW217193   4.136   4.536  16.927  1.1766  1.1287 -0.5983
 1911SOL     OW17194   2.064   4.454   0.103 -0.2682  0.1353  0.1599
 1911SOL    HW117195   2.158   4.456   0.118 -0.3322  3.1143  0.0335
 1911SOL    HW217196   2.049   4.480   0.012 -2.1898  0.4606  0.5796
 1912SOL     OW17197   3.440   0.874   3.908 -0.4825 -0.1316 -0.1825
 1912SOL    HW117198   3.350   0.901   3.894 -0.9817 -0.9550  1.4431
 1912SOL    HW217199   3.419   0.847   3.997 -0.6181  2.2147  0.4967
 1913SOL     OW17200   1.833   3.761   1.036 -0.1893 -0.8770  0.4124
 1913SOL    HW117201   1.760   3.699   1.034  0.2054 -1.4173  2.1792
 1913SOL    HW217202   1.911   3.716   1.004 -1.9070 -0.9466 -3.5847
 1914SOL     OW17203   2.380   0.882   5.871 -0.4098  0.5586  0.4038
 1914SOL    HW117204   2.447   0.930   5.822 -0.1526 -0.1449  0.0754
 1914SOL    HW217205   2.440   0.826   5.919 -2.6266 -1.1131  1.1697
 1915SOL     OW17206   4.539   4.533   1.478 -0.2716  0.1421  1.0068
 1915SOL    HW117207   4.448   4.529   1.506 -1.1465  0.9613 -1.7078
 1915SOL    HW217208   4.562   4.444   1.506 -2.7788 -0.7453  0.2078
 1916SOL     OW17209   4.126   3.174   6.342  0.0139 -0.3073  0.2196
 1916SOL    HW117210   4.204   3.138   6.384  0.6921 -0.5844 -1.2728
 1916SOL    HW217211   4.056   3.128   6.390 -1.1020  1.8319  0.6141
 1917SOL     OW17212   3.896   2.753  15.040 -0.1428 -0.0801  0.2080
 1917SOL    HW117213   3.829   2.794  14.985 -0.7002  0.6434  1.4136
 1917SOL    HW217214   3.853   2.673  15.069  1.2022 -0.1644  1.9955
 1918SOL     OW17215   0.248   2.028   4.317 -0.2504 -0.8112 -0.3098
 1918SOL    HW117216   0.181   2.009   4.250  1.5062 -0.8735 -2.0458
 1918SOL    HW217217   0.230   1.954   4.375 -0.0714 -0.1138  0.6298
 1919SOL     OW17218   3.597   4.012   5.260  0.0431 -0.1068  0.0769
 1919SOL    HW117219   3.537   3.993   5.189  0.7216 -2.0059 -0.0142
 1919SOL    HW217220   3.659   3.939   5.254  2.1836  1.5332  2.0837
 1920SOL     OW17221   1.340   2.873  11.315 -0.3165  0.6178 -0.4393
 1920SOL    HW117222   1.304   2.940  11.256 -2.0968 -0.0499 -0.1068
 1920SOL    HW217223   1.282   2.880  11.390 -0.7607  1.1657 -0.8268
 1921SOL     OW17224   0.251   0.768   7.481  0.2927 -0.2604  0.0564
 1921SOL    HW117225   0.232   0.809   7.565 -1.0964 -0.5955 -0.1032
 1921SOL    HW217226   0.176   0.711   7.464 -0.2678  1.1509 -2.2009
 1922SOL     OW17227   1.861   1.425   5.273  0.0020 -0.0546 -0.1621
 1922SOL    HW117228   1.943   1.420   5.225  0.7756  0.6331  1.1102
 1922SOL    HW217229   1.839   1.517   5.286 -1.7592 -0.4247 -0.4183
 1923SOL     OW17230   0.630   3.304   0.459  0.4761  0.3092 -0.1467
 1923SOL    HW117231   0.545   3.262   0.469 -0.2122  1.8588  0.5357
 1923SOL    HW217232   0.672   3.260   0.532  1.8269 -0.5132 -1.4172
 1924SOL     OW17233   3.618   3.362   9.535  0.1139  0.7190  0.0145
 1924SOL    HW117234   3.608   3.440   9.591  2.1824  0.5782  0.6072
 1924SOL    HW217235   3.556   3.381   9.465 -0.4010  0.2910  0.3602
 1925SOL     OW17236   3.459   3.243   9.793  1.1300  0.4630 -0.3202
 1925SOL    HW117237   3.366   3.222   9.784  1.1940 -0.3086  0.8721
 1925SOL    HW217238   3.498   3.179   9.733  0.7766 -1.9838  2.0995
 1926SOL     OW17239   3.636   4.168   3.841  0.0542 -0.5094 -0.3570
 1926SOL    HW117240   3.728   4.150   3.821 -0.0306  0.5348 -1.6965
 1926SOL    HW217241   3.607   4.191   3.753  2.2223 -1.7301 -1.3654
 1927SOL     OW17242   2.876   4.619   1.070 -0.6022 -0.0885  0.2889
 1927SOL    HW117243   2.957   4.594   1.116  0.9928  1.3702 -1.7132
 1927SOL    HW217244   2.899   4.601   0.979 -0.4027 -0.2297  0.3668
 1928SOL     OW17245   3.668   4.559   3.586 -0.1690  0.4316 -0.0867
 1928SOL    HW117246   3.752   4.526   3.554  0.4064  2.5699 -0.7775
 1928SOL    HW217247   3.673   4.635   3.528 -0.0599 -0.3300 -1.0702
 1929SOL     OW17248   0.286   2.424  12.856  0.5098  0.3567 -0.3639
 1929SOL    HW117249   0.246   2.340  12.834  0.9602 -0.1286  0.6583
 1929SOL    HW217250   0.220   2.491  12.842  2.0328  2.0118  0.3546
 1930SOL     OW17251   2.246   4.652   8.310  0.3827  0.4997  0.4829
 1930SOL    HW117252   2.175   4.691   8.258 -1.5505 -1.5060  1.6193
 1930SOL    HW217253   2.239   4.693   8.396 -1.5016  0.0382  0.5675
 1931SOL     OW17254   2.238   0.893   3.507  0.6453 -0.2740  0.6953
 1931SOL    HW117255   2.194   0.895   3.592  0.5558 -1.2556  0.6622
 1931SOL    HW217256   2.220   0.976   3.462 -2.0424 -0.4980  1.3188
 1932SOL     OW17257   2.949   1.569   8.489  0.2803 -0.2638 -0.0748
 1932SOL    HW117258   2.901   1.645   8.522  1.6584 -0.3108  2.0087
 1932SOL    HW217259   2.879   1.512   8.458  0.3562 -0.2425 -0.2860
 1933SOL     OW17260   2.797   1.825  14.970  0.4126 -0.3566  0.1683
 1933SOL    HW117261   2.787   1.793  14.881 -0.2436 -0.4881  0.2915
 1933SOL    HW217262   2.747   1.905  14.952  0.5669 -0.4837 -0.8089
 1934SOL     OW17263   2.418   3.041   6.111 -0.3661 -0.5176  0.0399
 1934SOL    HW117264   2.508   3.046   6.142 -0.2695 -1.1239 -0.1331
 1934SOL    HW217265   2.384   2.995   6.188 -0.8115 -0.5857 -0.2019
 1935SOL     OW17266   1.184   3.313   3.252 -0.0348 -0.0585 -0.0907
 1935SOL    HW117267   1.174   3.222   3.279  1.4024 -0.2298 -0.1039
 1935SOL    HW217268   1.123   3.345   3.318 -0.7706  2.0789 -1.8144
 1936SOL     OW17269   1.761   0.079   8.386  0.1898  0.1196 -0.0879
 1936SOL    HW117270   1.751   0.020   8.460  0.2261  1.0279  0.6337
 1936SOL    HW217271   1.743   0.012   8.319  0.3273 -1.4761  1.4841
 1937SOL     OW17272   1.970   0.598  14.051  0.5579 -0.1443  0.3979
 1937SOL    HW117273   2.048   0.565  14.097  0.4833 -1.5268 -0.4700
 1937SOL    HW217274   1.912   0.614  14.126 -1.2958 -0.6840 -0.9231
 1938SOL     OW17275   1.363   4.194  10.799 -0.3300 -0.4202 -0.2831
 1938SOL    HW117276   1.292   4.254  10.823 -0.4214 -0.4759 -0.4117
 1938SOL    HW217277   1.361   4.200  10.704  0.7960 -0.9337 -0.3274
 1939SOL     OW17278   1.510   3.281   9.755  0.0577 -0.5330  0.1376
 1939SOL    HW117279   1.468   3.205   9.715 -1.5497  1.6373 -2.2944
 1939SOL    HW217280   1.441   3.346   9.755 -1.4790 -2.1582  1.9829
 1940SOL     OW17281   1.962   3.573   6.225 -0.0922 -0.0344 -0.1478
 1940SOL    HW117282   1.939   3.613   6.308 -0.0021  0.1342 -0.2051
 1940SOL    HW217283   2.055   3.551   6.229 -0.3633 -1.0669  0.6183
 1941SOL     OW17284   0.073   0.722   1.150  0.0375 -0.1496  0.0984
 1941SOL    HW117285   0.093   0.629   1.136  0.9485  0.2159 -0.9915
 1941SOL    HW217286   0.002   0.713   1.214 -1.5511 -2.1606 -1.9596
 1942SOL     OW17287   1.782   3.192   5.794 -0.1022  0.4557  0.2340
 1942SOL    HW117288   1.809   3.160   5.880  1.3841  0.2947 -0.2928
 1942SOL    HW217289   1.694   3.156   5.779 -0.4422  0.9033  1.1810
 1943SOL     OW17290   0.386   1.224  14.378 -0.4330  0.1361 -0.0393
 1943SOL    HW117291   0.292   1.237  14.390 -0.4388 -0.8584  1.0425
 1943SOL    HW217292   0.397   1.160  14.449  0.0743 -0.8481 -0.9973
 1944SOL     OW17293   2.364   2.278   9.183 -0.2670  0.4441 -0.0496
 1944SOL    HW117294   2.340   2.195   9.225 -3.1764  1.5854  0.5688
 1944SOL    HW217295   2.459   2.287   9.187 -0.1516 -0.6176 -0.5018
 1945SOL     OW17296   2.893   0.305   7.447 -0.1501 -0.7994 -0.2345
 1945SOL    HW117297   2.819   0.364   7.460  0.6797 -0.0650  1.1239
 1945SOL    HW217298   2.856   0.223   7.413 -1.8409  0.1711 -0.7379
 1946SOL     OW17299   2.107   0.195   2.676 -0.0274  0.5359 -0.8822
 1946SOL    HW117300   2.095   0.175   2.583  0.1363 -1.5871 -0.4569
 1946SOL    HW217301   2.025   0.233   2.706  0.3558  1.7606 -1.3690
 1947SOL     OW17302   1.214   0.078  16.546  0.4617 -0.0531 -0.5346
 1947SOL    HW117303   1.152   0.109  16.612  1.1544  2.4625 -1.0487
 1947SOL    HW217304   1.267   0.156  16.533 -1.5198  1.3614 -0.1677
 1948SOL     OW17305   2.163   3.431   6.038 -0.0807  0.4536  0.1456
 1948SOL    HW117306   2.247   3.457   6.075 -0.4913  0.4624  1.0742
 1948SOL    HW217307   2.144   3.347   6.081 -0.6051 -0.3270 -1.5895
 1949SOL     OW17308   2.240   1.194   4.281  0.0246 -0.4669 -0.1901
 1949SOL    HW117309   2.324   1.229   4.309  0.1351 -1.7964  1.1443
 1949SOL    HW217310   2.182   1.220   4.353  2.5006 -1.9672  2.3251
 1950SOL     OW17311   4.149   3.230   7.854 -0.5181  0.5380 -0.4747
 1950SOL    HW117312   4.105   3.213   7.771 -2.0115 -1.4389  0.7138
 1950SOL    HW217313   4.109   3.170   7.917  0.2489  0.4521 -0.0559
 1951SOL     OW17314   1.195   0.576   0.780 -0.2885  0.7282  0.1349
 1951SOL    HW117315   1.258   0.606   0.845  1.2535 -1.0427 -0.5030
 1951SOL    HW217316   1.245   0.534   0.709 -1.3001  2.6668 -1.7154
 1952SOL     OW17317   4.331   0.086  14.024  0.0031 -0.2594 -0.2418
 1952SOL    HW117318   4.238   0.071  14.007  0.3177 -0.8482 -1.4268
 1952SOL    HW217319   4.328   0.180  14.011 -2.6479 -0.3315 -0.2305
 1953SOL     OW17320   1.861   1.417   9.041  0.1915  0.5688  0.0794
 1953SOL    HW117321   1.885   1.360   8.968 -0.5856  1.9296 -1.2363
 1953SOL    HW217322   1.937   1.389   9.093  0.5160 -0.1445 -0.7726
 1954SOL     OW17323   2.764   1.467   6.096  0.4764  0.2122 -0.3405
 1954SOL    HW117324   2.844   1.508   6.062  2.0749 -0.6126  2.5160
 1954SOL    HW217325   2.707   1.462   6.019  1.8273  0.9366 -1.3888
 1955SOL     OW17326   1.941   0.833   4.664 -0.2563 -0.1389  0.1543
 1955SOL    HW117327   1.973   0.875   4.744 -0.1316 -1.9334  1.0456
 1955SOL    HW217328   1.846   0.842   4.669 -0.1393  0.9131  0.4811
 1956SOL     OW17329   0.772   3.374   8.452 -0.2212  0.3091  0.2721
 1956SOL    HW117330   0.734   3.297   8.409 -0.3134  0.2037  0.5396
 1956SOL    HW217331   0.793   3.334   8.537  0.9100 -0.7990 -0.5335
 1957SOL     OW17332   3.106   0.805   3.398  0.0074  0.1898 -0.1324
 1957SOL    HW117333   3.111   0.761   3.313 -1.2998 -1.7771  0.8028
 1957SOL    HW217334   3.055   0.881   3.373 -1.2880 -0.5349  0.3205
 1958SOL     OW17335   0.009   0.244   0.890 -0.5341 -0.2348  1.1019
 1958SOL    HW117336   0.066   0.279   0.959  0.4045  0.0830  0.1611
 1958SOL    HW217337   0.039   0.286   0.809 -0.5845  0.5478  1.4913
 1959SOL     OW17338   3.210   3.629   6.384  0.0317 -0.1819 -0.5314
 1959SOL    HW117339   3.250   3.543   6.369 -0.7116 -0.4383 -1.0481
 1959SOL    HW217340   3.216   3.671   6.299  2.3391  0.2757 -0.1497
 1960SOL     OW17341   1.787   4.144   2.166 -0.1553  0.1925 -0.4673
 1960SOL    HW117342   1.855   4.180   2.223 -0.3154 -0.9697  0.4623
 1960SOL    HW217343   1.811   4.051   2.160 -0.2249 -0.1249  4.5363
 1961SOL     OW17344   3.115   0.441   6.333 -0.4678  0.0889  0.3559
 1961SOL    HW117345   3.190   0.494   6.304  0.6820 -1.9141 -0.3040
 1961SOL    HW217346   3.161   0.404   6.408  1.8909  0.4508 -0.9079
 1962SOL     OW17347   3.948   3.733   7.924 -0.2505  0.0541  0.4705
 1962SOL    HW117348   3.943   3.738   8.019 -1.7837  3.1623  0.2243
 1962SOL    HW217349   4.040   3.749   7.904 -0.0707 -1.0890  0.3970
 1963SOL     OW17350   1.862   1.189   7.184  0.0490 -0.3337 -0.2288
 1963SOL    HW117351   1.849   1.096   7.164  0.6154 -0.7885  1.4534
 1963SOL    HW217352   1.796   1.205   7.252  0.0872 -1.0368 -0.0249
 1964SOL     OW17353   0.608   1.312  15.234 -0.3183  0.0497  0.2181
 1964SOL    HW117354   0.573   1.225  15.253 -1.5277  0.0466 -2.0597
 1964SOL    HW217355   0.689   1.314  15.284  0.2096 -1.4526 -0.5741
 1965SOL     OW17356   0.959   2.121  12.403  0.2052  0.1636  0.4789
 1965SOL    HW117357   0.878   2.148  12.361 -0.0890 -1.8472 -0.2192
 1965SOL    HW217358   0.968   2.200  12.457 -0.6088 -0.8832  2.1437
 1966SOL     OW17359   3.651   0.403   8.897  0.1466  0.9143  0.0675
 1966SOL    HW117360   3.626   0.467   8.831 -1.5619  1.2764  1.0519
 1966SOL    HW217361   3.620   0.442   8.979 -2.5791 -1.1002  0.0067
 1967SOL     OW17362   3.435   1.308   3.768 -0.4783  0.1584  0.4253
 1967SOL    HW117363   3.357   1.272   3.811  0.2035 -1.2334  0.4768
 1967SOL    HW217364   3.512   1.268   3.809 -1.2119 -1.3689  0.2981
 1968SOL     OW17365   0.034   2.703   9.021  0.2100  0.4225  0.2588
 1968SOL    HW117366   0.117   2.659   9.039 -0.6458 -0.5713  1.8052
 1968SOL    HW217367   4.705   2.667   9.091 -2.0494  2.4675 -0.4415
 1969SOL     OW17368   1.574   0.295   1.660  0.5833  0.0072  0.1911
 1969SOL    HW117369   1.573   0.234   1.587 -1.6467 -0.6858  0.8139
 1969SOL    HW217370   1.620   0.367   1.616  0.3964  0.3100  0.4878
 1970SOL     OW17371   2.768   4.531   6.598 -0.2175 -0.7331 -0.2035
 1970SOL    HW117372   2.725   4.448   6.581  0.8580 -1.1747 -0.7419
 1970SOL    HW217373   2.709   4.596   6.560  0.9130  0.6275  0.3111
 1971SOL     OW17374   4.241   4.043  17.259 -0.2456 -0.4390 -0.3015
 1971SOL    HW117375   4.163   4.074  17.214  0.1958  0.3174 -0.5532
 1971SOL    HW217376   4.242   4.094  17.340  1.7048  1.1665 -1.3366
 1972SOL     OW17377   3.487   1.099   6.725 -0.1201 -0.0177 -0.6151
 1972SOL    HW117378   3.510   1.143   6.644  0.2275  0.3888 -0.2985
 1972SOL    HW217379   3.438   1.029   6.683 -0.4949  0.0395 -0.2788
 1973SOL     OW17380   2.737   1.736  12.021 -0.1518  0.4750  0.4544
 1973SOL    HW117381   2.683   1.792  12.077 -0.0024  0.2192  0.8462
 1973SOL    HW217382   2.677   1.721  11.947  1.5277  0.9944 -1.0037
 1974SOL     OW17383   2.988   4.301   2.218 -0.0278  0.3970  0.0309
 1974SOL    HW117384   2.919   4.242   2.187 -1.7573  2.3806  0.0698
 1974SOL    HW217385   3.024   4.251   2.291  1.6675  1.1686 -0.2968
 1975SOL     OW17386   1.958   1.623   6.508  0.3307 -0.3533  0.4399
 1975SOL    HW117387   1.938   1.608   6.600  0.2871 -0.7592  0.3625
 1975SOL    HW217388   1.974   1.534   6.477 -0.8515 -0.1535 -0.7551
 1976SOL     OW17389   4.128   0.625   7.593 -0.1876  0.7683  0.3023
 1976SOL    HW117390   4.111   0.570   7.670  2.7915  0.9617  1.0715
 1976SOL    HW217391   4.206   0.671   7.623 -0.4011  1.1621  0.2513
 1977SOL     OW17392   1.886   3.169   3.450 -0.5554 -0.0182 -0.1914
 1977SOL    HW117393   1.827   3.195   3.522 -0.5830 -1.3305  0.2569
 1977SOL    HW217394   1.843   3.086   3.430 -0.9395 -0.2672  1.5986
 1978SOL     OW17395   0.275   1.008   4.937  0.0692  0.1155 -0.1508
 1978SOL    HW117396   0.262   1.069   4.864 -1.1188 -0.8460 -0.7426
 1978SOL    HW217397   0.361   0.973   4.914 -0.4115 -0.2123 -1.4421
 1979SOL     OW17398   3.655   0.747  12.802 -0.5641  0.3724  0.2741
 1979SOL    HW117399   3.582   0.803  12.774  1.5477  0.9897 -4.0757
 1979SOL    HW217400   3.623   0.766  12.890  0.0741 -0.6774  0.7252
 1980SOL     OW17401   4.437   1.823   3.878  0.4660  0.1578  0.5193
 1980SOL    HW117402   4.426   1.739   3.923 -0.8953  0.3956  0.6098
 1980SOL    HW217403   4.351   1.831   3.837  0.7996  0.9600 -0.0149
 1981SOL     OW17404   3.687   0.299   5.951  0.2138  0.0183 -0.5208
 1981SOL    HW117405   3.719   0.358   6.020 -2.1368 -2.8871  3.0495
 1981SOL    HW217406   3.751   0.228   5.960 -0.3021 -0.7530 -2.9465
 1982SOL     OW17407   2.457   3.447  16.079  0.2256 -0.1777  0.6929
 1982SOL    HW117408   2.436   3.530  16.037  1.0215 -0.9613 -1.2563
 1982SOL    HW217409   2.535   3.431  16.026 -1.1770 -1.3220 -1.0412
 1983SOL     OW17410   2.894   4.564   2.242  0.0261 -0.1609 -0.1411
 1983SOL    HW117411   2.913   4.473   2.263 -1.7469 -0.5774 -0.3533
 1983SOL    HW217412   2.922   4.576   2.152 -1.9783 -0.0473 -0.7460
 1984SOL     OW17413   4.128   2.423   3.079  0.0201 -0.4174 -0.3846
 1984SOL    HW117414   4.098   2.434   2.989  0.3284  0.2663 -0.4108
 1984SOL    HW217415   4.119   2.511   3.116 -1.0552  0.1057 -1.8961
 1985SOL     OW17416   4.009   2.875   3.410  0.1564 -0.2019  0.1995
 1985SOL    HW117417   3.969   2.940   3.467  3.4875  1.6035  0.4540
 1985SOL    HW217418   4.054   2.939   3.354 -1.4292  0.6155 -0.1478
 1986SOL     OW17419   1.320   2.443   5.875  0.2946 -0.0454  0.0106
 1986SOL    HW117420   1.317   2.535   5.901 -0.7907 -0.3894  1.0734
 1986SOL    HW217421   1.227   2.421   5.881  0.5604 -0.2169  3.3257
 1987SOL     OW17422   3.221   3.029   5.272  0.6171  0.2093  0.0241
 1987SOL    HW117423   3.257   3.053   5.358  1.4461 -0.2837 -0.1872
 1987SOL    HW217424   3.169   3.103   5.239  0.3491  0.3792  0.8216
 1988SOL     OW17425   0.828   4.621  10.952 -0.2681 -0.0961  0.4856
 1988SOL    HW117426   0.821   4.692  10.887 -0.5743 -0.4122  0.1698
 1988SOL    HW217427   0.919   4.594  10.952 -0.9905 -2.5583 -1.3358
 1989SOL     OW17428   0.801   1.452   9.583  0.6962 -0.0132 -0.6657
 1989SOL    HW117429   0.884   1.419   9.617  0.4627 -0.5198 -0.5879
 1989SOL    HW217430   0.819   1.546   9.595 -0.7710  0.1898  0.0218
 1990SOL     OW17431   0.548   2.127   2.815  0.2757 -0.1162 -0.0422
 1990SOL    HW117432   0.644   2.133   2.809  0.4337 -1.7225  0.7935
 1990SOL    HW217433   0.518   2.150   2.727 -2.3598 -1.1811  0.5898
 1991SOL     OW17434   3.071   1.210  17.439 -0.4401  0.2376  0.4809
 1991SOL    HW117435   3.113   1.139  17.390  3.1877  2.3111  0.6060
 1991SOL    HW217436   3.114   1.282  17.395  0.0548  0.3088  1.0769
 1992SOL     OW17437   3.247   0.394   6.600  0.7840 -0.2516  0.2424
 1992SOL    HW117438   3.337   0.425   6.595  0.2661  1.3576  0.9181
 1992SOL    HW217439   3.241   0.409   6.694 -3.3567  0.4406 -0.1186
 1993SOL     OW17440   2.719   4.068  10.177  0.2721  0.1195 -0.0878
 1993SOL    HW117441   2.712   4.110  10.091  0.6205  0.5601  0.0984
 1993SOL    HW217442   2.633   4.074  10.217  1.2294 -2.2080  2.2927
 1994SOL     OW17443   4.575   3.602   5.583 -0.4146 -0.3754  0.0095
 1994SOL    HW117444   4.650   3.608   5.642  0.2601 -4.5703 -0.4063
 1994SOL    HW217445   4.502   3.566   5.634 -0.2725 -0.4412  0.1675
 1995SOL     OW17446   2.547   2.376   2.855 -0.6369  0.2148  0.3069
 1995SOL    HW117447   2.589   2.456   2.885 -0.6841  0.1425  0.5708
 1995SOL    HW217448   2.616   2.313   2.877  2.3316  3.1837 -0.5561
 1996SOL     OW17449   3.426   0.910   1.290  0.4851 -0.2256 -0.6390
 1996SOL    HW117450   3.399   0.845   1.355 -1.9682  0.6559 -0.7762
 1996SOL    HW217451   3.420   0.989   1.343 -2.9444 -0.7237 -0.2542
 1997SOL     OW17452   0.080   3.093   4.307 -0.0571 -0.5244  0.8147
 1997SOL    HW117453   0.156   3.083   4.365  0.9757  0.6869 -0.3242
 1997SOL    HW217454   0.061   3.003   4.280  0.7021 -0.9149  1.5802
 1998SOL     OW17455   3.295   0.700   1.938 -0.3272 -0.2938  0.2206
 1998SOL    HW117456   3.223   0.657   1.983 -1.4597  0.0193 -1.2903
 1998SOL    HW217457   3.365   0.642   1.969 -1.6366 -1.2149  1.4669
 1999SOL     OW17458   4.445   1.989   9.862 -0.0861 -0.6879  0.4966
 1999SOL    HW117459   4.397   1.917   9.903  0.9387 -1.3866  0.4675
 1999SOL    HW217460   4.374   2.037   9.820  0.2294 -0.4966  0.1825
 2000SOL     OW17461   0.618   0.178  17.334 -0.5247  0.2340  0.2831
 2000SOL    HW117462   0.618   0.088  17.302  2.1572  0.7777 -1.2219
 2000SOL    HW217463   0.680   0.172  17.406 -2.5446  1.8208  2.1418
 2001SOL     OW17464   1.773   0.486  12.017 -0.3595 -0.1430  0.6501
 2001SOL    HW117465   1.778   0.578  12.040 -0.6651 -0.5475  2.3327
 2001SOL    HW217466   1.816   0.447  12.093 -1.1311  0.9557  1.6334
 2002SOL     OW17467   3.377   2.615   7.585 -0.2433 -0.0713 -0.1664
 2002SOL    HW117468   3.363   2.646   7.495  2.3269  3.1889  0.5577
 2002SOL    HW217469   3.427   2.682   7.631 -0.9982  0.5096 -0.1748
 2003SOL     OW17470   0.821   2.767   8.529  0.4770 -0.0866  0.1250
 2003SOL    HW117471   0.833   2.673   8.517  3.3029  0.1947  0.6189
 2003SOL    HW217472   0.901   2.785   8.579  0.3150 -1.5121  0.8970
 2004SOL     OW17473   1.774   2.345  13.057  0.4005  0.7756  0.5679
 2004SOL    HW117474   1.712   2.405  13.014 -0.3330 -0.3139  0.0870
 2004SOL    HW217475   1.730   2.304  13.132  0.6319  0.1273  0.3495
 2005SOL     OW17476   3.377   2.784  14.283 -0.1147 -0.0199 -0.1663
 2005SOL    HW117477   3.339   2.869  14.262  1.4297  0.5287 -0.6914
 2005SOL    HW217478   3.443   2.776  14.214 -1.8920  0.9782 -2.0267
 2006SOL     OW17479   2.268   2.066   8.568  0.2324  0.0637  0.4393
 2006SOL    HW117480   2.285   2.118   8.646 -0.0215  0.0765  0.4862
 2006SOL    HW217481   2.173   2.078   8.575 -0.3542 -2.5176 -3.1746
 2007SOL     OW17482   0.769   0.055  16.100 -0.6710  0.7488  0.2996
 2007SOL    HW117483   0.714   4.718  16.146  0.1757  0.5953  1.0950
 2007SOL    HW217484   0.747   0.028  16.011  0.5422  1.7627 -0.3250
 2008SOL     OW17485   1.075   3.977   8.956  0.5477 -0.7638 -0.0746
 2008SOL    HW117486   1.068   3.901   9.014  0.4021 -1.9772 -1.7000
 2008SOL    HW217487   1.165   4.007   8.975  0.0980  0.0325  0.8245
 2009SOL     OW17488   3.452   3.431  11.058 -0.3346  0.7732 -0.2557
 2009SOL    HW117489   3.398   3.461  10.985 -0.2621  1.1032 -0.1701
 2009SOL    HW217490   3.381   3.413  11.119  0.4040  1.1106  0.6859
 2010SOL     OW17491   3.924   3.385   7.341 -0.0301  0.5711  0.0374
 2010SOL    HW117492   3.902   3.317   7.278  1.4049 -1.2932  1.5269
 2010SOL    HW217493   3.991   3.337   7.390  1.4618  1.8877 -0.6753
 2011SOL     OW17494   4.084   2.480   9.712 -0.0065  0.0016 -0.2715
 2011SOL    HW117495   4.073   2.413   9.645 -0.4740 -0.5235  0.3254
 2011SOL    HW217496   4.015   2.545   9.696  1.3032  1.1043 -1.3640
 2012SOL     OW17497   4.115   1.560   8.193  0.2054 -0.2516 -0.5510
 2012SOL    HW117498   4.176   1.632   8.207 -0.6160  0.4984 -0.8432
 2012SOL    HW217499   4.063   1.545   8.272  2.6814  1.8951  1.4871
 2013SOL     OW17500   3.280   1.023  16.444  0.2558 -0.6726 -0.3792
 2013SOL    HW117501   3.255   1.046  16.354 -0.3185 -0.3542 -0.1346
 2013SOL    HW217502   3.279   1.110  16.482 -2.6430 -0.6756 -0.4590
 2014SOL     OW17503   4.482   4.048   1.374  0.2735  0.0551 -0.1940
 2014SOL    HW117504   4.558   4.024   1.427  0.2981  0.5237 -0.0141
 2014SOL    HW217505   4.408   4.026   1.431  0.9303 -0.2879  0.5216
 2015SOL     OW17506   1.973   0.649  13.791 -0.4833  0.4571  0.5685
 2015SOL    HW117507   1.948   0.602  13.871 -0.0372  0.1378  0.5189
 2015SOL    HW217508   1.930   0.733  13.806 -2.2923 -0.2869 -0.3851
 2016SOL     OW17509   4.645   0.487  16.852 -0.0986  0.3012  0.0885
 2016SOL    HW117510   4.712   0.544  16.889  1.9984 -2.4454  0.5062
 2016SOL    HW217511   4.652   0.412  16.911 -1.2428 -0.2901 -0.5375
 2017SOL     OW17512   3.202   2.155   7.177 -0.3427  0.3801  0.1190
 2017SOL    HW117513   3.213   2.064   7.206  0.5498 -0.1062 -1.7600
 2017SOL    HW217514   3.107   2.156   7.173 -0.3793  1.2301  1.1610
 2018SOL     OW17515   4.263   0.676  15.295 -0.0388  0.3101 -0.1449
 2018SOL    HW117516   4.184   0.688  15.241 -1.0937  1.4746  1.6769
 2018SOL    HW217517   4.276   0.583  15.312  1.5699  1.0009  2.4053
 2019SOL     OW17518   0.523   0.152   3.650  0.0126  0.1514  0.3367
 2019SOL    HW117519   0.515   0.057   3.640  4.0209 -0.1639  0.4094
 2019SOL    HW217520   0.437   0.183   3.620 -0.5930 -0.8933  1.0171
 2020SOL     OW17521   3.947   3.978   3.578 -0.0588  0.2738 -0.8617
 2020SOL    HW117522   3.989   3.913   3.635 -2.5831 -1.9266 -1.5195
 2020SOL    HW217523   3.911   4.037   3.645  0.6398  2.0840 -2.0597
 2021SOL     OW17524   0.329   3.728   5.110  0.3926 -0.6471 -0.6289
 2021SOL    HW117525   0.328   3.634   5.091 -2.1062 -0.0454 -3.4631
 2021SOL    HW217526   0.323   3.772   5.026 -0.2279  0.4982  0.0170
 2022SOL     OW17527   1.999   3.118  15.405 -0.1528 -0.4189  0.4714
 2022SOL    HW117528   1.926   3.181  15.398  1.5500  1.6613  1.5915
 2022SOL    HW217529   1.946   3.052  15.449 -0.4694 -0.1838  0.4522
 2023SOL     OW17530   1.486   3.650   9.654 -0.7067 -0.2259  0.5092
 2023SOL    HW117531   1.415   3.590   9.629 -2.3556  1.4688  1.0868
 2023SOL    HW217532   1.437   3.731   9.669  0.5061  1.0129 -2.2110
 2024SOL     OW17533   1.139   0.816   5.683 -0.0368  0.4471 -0.0536
 2024SOL    HW117534   1.231   0.836   5.700 -0.9940  2.9100  2.2983
 2024SOL    HW217535   1.134   0.728   5.721  0.3627 -1.0555 -3.5070
 2025SOL     OW17536   2.987   1.020   5.389  0.1958 -0.0700 -0.0147
 2025SOL    HW117537   2.975   1.114   5.376  1.1320  0.2078  1.0968
 2025SOL    HW217538   3.023   0.992   5.305 -2.6811 -2.6666 -0.3990
 2026SOL     OW17539   4.526   0.814  15.869  0.2008  0.5505  0.5680
 2026SOL    HW117540   4.533   0.812  15.773  1.6691  0.9873  0.6639
 2026SOL    HW217541   4.603   0.867  15.889 -0.0849  1.3915 -0.5793
 2027SOL     OW17542   3.632   0.827  11.031 -0.4790  0.4166 -0.0367
 2027SOL    HW117543   3.569   0.862  10.969  2.5284 -0.5354 -3.6542
 2027SOL    HW217544   3.591   0.804  11.114 -0.1805 -0.5678 -0.1593
 2028SOL     OW17545   1.541   4.063   9.170  0.0751  0.5313 -0.4537
 2028SOL    HW117546   1.592   3.993   9.211  1.1165  0.9776 -0.9818
 2028SOL    HW217547   1.594   4.140   9.191 -0.5142  1.1208 -1.1340
 2029SOL     OW17548   1.020   1.102  17.139  0.2141  0.6013  0.5999
 2029SOL    HW117549   1.068   1.185  17.136  0.9505  0.1467 -0.1575
 2029SOL    HW217550   0.951   1.141  17.192 -1.3356 -0.3948 -0.6978
 2030SOL     OW17551   1.797   0.770  11.347 -0.0971 -0.3375 -0.8690
 2030SOL    HW117552   1.864   0.782  11.280  0.3090 -1.7383 -0.7046
 2030SOL    HW217553   1.807   0.679  11.373 -1.6521 -0.1412  0.4261
 2031SOL     OW17554   4.067   4.563   9.210 -0.4861 -0.3214 -0.0241
 2031SOL    HW117555   4.064   4.578   9.116 -0.8915 -3.3971 -0.5093
 2031SOL    HW217556   3.981   4.589   9.242 -0.5905 -2.3044  1.3006
 2032SOL     OW17557   1.888   4.169   8.070 -0.0119  0.1159 -0.4384
 2032SOL    HW117558   1.948   4.226   8.117  0.0717 -0.0133 -0.3898
 2032SOL    HW217559   1.836   4.133   8.142  0.5713 -1.5795 -0.8711
 2033SOL     OW17560   1.495   4.657   6.143  0.2014  0.1781  0.0595
 2033SOL    HW117561   1.573   4.706   6.166  0.5682 -0.0393 -0.7059
 2033SOL    HW217562   1.539   4.574   6.126  0.9352  0.7871 -0.9640
 2034SOL     OW17563   3.606   1.571   2.747  0.3165 -0.2130  0.5256
 2034SOL    HW117564   3.598   1.520   2.666  0.6786  0.4252  0.0927
 2034SOL    HW217565   3.697   1.599   2.745 -0.9158  3.7910  0.5504
 2035SOL     OW17566   4.416   4.247   8.392  0.3189 -0.0176  0.8038
 2035SOL    HW117567   4.480   4.296   8.341  0.7169  0.6484  1.9414
 2035SOL    HW217568   4.374   4.323   8.432 -0.0282 -0.3336  1.0363
 2036SOL     OW17569   4.104   0.082  17.412  0.7826  0.8578  0.4780
 2036SOL    HW117570   4.129   0.149  17.475 -0.0237 -0.0038  1.7103
 2036SOL    HW217571   4.049   0.137  17.356 -0.2336 -1.2569 -0.6281
 2037SOL     OW17572   2.954   1.986   7.994  0.4648 -0.3618  0.2445
 2037SOL    HW117573   2.972   2.069   7.950 -0.0091  0.6842  2.0330
 2037SOL    HW217574   2.858   1.984   8.000  0.3875 -0.1503 -1.0324
 2038SOL     OW17575   4.514   2.483  12.641  0.2475 -0.0786 -0.0543
 2038SOL    HW117576   4.538   2.392  12.625  0.6000  0.4394 -2.4397
 2038SOL    HW217577   4.512   2.473  12.737  0.9725  0.5700  0.0289
 2039SOL     OW17578   1.300   1.183   5.993  0.0505 -0.5844 -0.3076
 2039SOL    HW117579   1.244   1.136   5.931 -0.0432  0.3973 -0.9649
 2039SOL    HW217580   1.390   1.165   5.969  0.7589  1.6433  0.6968
 2040SOL     OW17581   1.510   3.415   3.801  0.6066 -0.5473 -0.1833
 2040SOL    HW117582   1.524   3.369   3.718 -0.2498  2.3400 -1.9155
 2040SOL    HW217583   1.416   3.399   3.804  0.8386 -1.6535  1.0056
 2041SOL     OW17584   4.198   2.993   3.741 -0.1048  0.2005  0.7850
 2041SOL    HW117585   4.211   3.087   3.745  2.3550 -0.0266 -1.3879
 2041SOL    HW217586   4.223   2.979   3.649  0.0935  0.5169  0.7912
 2042SOL     OW17587   3.492   1.739   3.773 -0.2696  0.0483  0.0514
 2042SOL    HW117588   3.421   1.690   3.730  0.0083 -2.0496  2.0307
 2042SOL    HW217589   3.571   1.693   3.746 -1.5776 -1.2467 -1.5804
 2043SOL     OW17590   0.689   4.481  12.366 -0.4314 -0.0540 -0.1573
 2043SOL    HW117591   0.679   4.495  12.460 -0.0558  0.0938 -0.1397
 2043SOL    HW217592   0.783   4.481  12.349 -0.3886  2.8219 -0.0704
 2044SOL     OW17593   1.923   2.052   9.857 -0.2960 -0.0025 -0.1417
 2044SOL    HW117594   1.904   2.145   9.850  0.6402  0.0545 -1.8181
 2044SOL    HW217595   2.016   2.047   9.835 -0.3882 -0.2616 -0.4630
 2045SOL     OW17596   2.361   1.134  14.352  0.0023  0.0336  0.3119
 2045SOL    HW117597   2.430   1.133  14.285 -0.4318 -2.3357 -0.1201
 2045SOL    HW217598   2.420   1.165  14.420 -1.5266 -1.0731  2.1250
 2046SOL     OW17599   4.167   2.639  13.280 -0.1988  0.0482 -0.1408
 2046SOL    HW117600   4.099   2.705  13.289 -1.2731 -0.8791 -1.5255
 2046SOL    HW217601   4.125   2.567  13.234 -0.9970 -0.7928  1.9258
 2047SOL     OW17602   2.193   0.089   5.570 -0.5864 -0.2168  0.2291
 2047SOL    HW117603   2.221   0.176   5.542 -1.2649 -0.1864 -0.3479
 2047SOL    HW217604   2.268   0.055   5.619  1.1647  2.5825 -0.4803
 2048SOL     OW17605   1.046   0.249   8.546  0.4145 -0.2789  0.3202
 2048SOL    HW117606   0.955   0.226   8.565  1.0149 -1.5193  1.6726
 2048SOL    HW217607   1.089   0.197   8.613  0.2022 -1.6051 -0.5678
 2049SOL     OW17608   2.434   1.259  16.885  0.2029 -0.2603  0.1456
 2049SOL    HW117609   2.515   1.243  16.933 -1.3040  0.1367  2.8422
 2049SOL    HW217610   2.441   1.201  16.809 -0.9425  0.5206 -0.5486
 2050SOL     OW17611   3.972   3.611   3.220 -0.1841  0.0248 -0.5047
 2050SOL    HW117612   4.017   3.612   3.135 -0.2456 -4.0932 -0.5918
 2050SOL    HW217613   4.019   3.666   3.282 -3.4803  1.2933  0.8686
 2051SOL     OW17614   0.472   2.646   4.884 -0.3290  0.7462 -0.7957
 2051SOL    HW117615   0.507   2.626   4.971  1.3155  2.5806 -1.0439
 2051SOL    HW217616   0.504   2.735   4.869 -0.1032  0.4530 -2.0641
 2052SOL     OW17617   2.800   3.800   3.618  0.5527  0.1922 -0.6651
 2052SOL    HW117618   2.869   3.836   3.563  0.2873  0.8031 -0.5945
 2052SOL    HW217619   2.720   3.828   3.574 -0.2768  0.8669  1.2351
 2053SOL     OW17620   3.535   2.777   2.603 -0.4446 -0.1079 -0.1834
 2053SOL    HW117621   3.535   2.686   2.630  1.9775 -0.3090 -0.8765
 2053SOL    HW217622   3.470   2.766   2.533 -0.2442 -1.3222 -0.1702
 2054SOL     OW17623   2.276   0.869  14.676 -0.1921  0.4716  0.3789
 2054SOL    HW117624   2.330   0.947  14.694 -0.7529  1.0375 -0.3908
 2054SOL    HW217625   2.344   0.807  14.648 -1.2132 -0.0098 -0.9870
 2055SOL     OW17626   4.356   1.075   7.246 -0.1517 -0.2003  0.0751
 2055SOL    HW117627   4.408   1.127   7.308  0.9951 -0.2938 -0.8142
 2055SOL    HW217628   4.277   1.126   7.267  0.1157  0.7893 -1.3046
 2056SOL     OW17629   1.598   1.046   2.763  0.4819 -0.3563  0.3175
 2056SOL    HW117630   1.693   1.039   2.753  0.5211  0.1929  0.3307
 2056SOL    HW217631   1.584   1.094   2.681 -1.5804 -0.8405  0.3643
 2057SOL     OW17632   3.234   2.887   3.167  0.1269 -0.7331 -0.3131
 2057SOL    HW117633   3.267   2.851   3.250  0.7007  0.3706 -0.0669
 2057SOL    HW217634   3.167   2.951   3.193  0.7271 -0.0764 -0.3998
 2058SOL     OW17635   0.844   2.970   4.544  0.2297  0.0076  0.0861
 2058SOL    HW117636   0.913   3.012   4.596 -1.1788  0.7037  1.3958
 2058SOL    HW217637   0.858   3.006   4.457 -0.0134 -1.3289 -0.4955
 2059SOL     OW17638   3.380   1.328   5.466  0.0623 -0.3357  0.0414
 2059SOL    HW117639   3.392   1.270   5.391  1.9815 -1.1804  0.9951
 2059SOL    HW217640   3.412   1.413   5.436  0.1391 -1.5365 -3.1881
 2060SOL     OW17641   2.444   0.137   5.302 -0.1519 -0.0997  0.0584
 2060SOL    HW117642   2.378   0.181   5.356  1.3099 -1.0727  2.6292
 2060SOL    HW217643   2.453   0.206   5.235 -0.8053 -0.0160  0.0532
 2061SOL     OW17644   0.166   0.397  14.765 -0.0254  0.0607  0.3466
 2061SOL    HW117645   0.235   0.365  14.706 -0.1438  0.6079 -0.0880
 2061SOL    HW217646   0.094   0.334  14.765  1.3179 -1.4834  0.9501
 2062SOL     OW17647   1.175   3.896  11.579 -0.8066 -0.3612  0.0170
 2062SOL    HW117648   1.104   3.881  11.518  0.1747 -1.3572 -0.8842
 2062SOL    HW217649   1.189   3.805  11.606 -1.2279  0.6526  3.6749
 2063SOL     OW17650   0.371   2.081   0.489 -0.3535  0.5354  0.0193
 2063SOL    HW117651   0.448   2.027   0.507 -1.8771 -1.6326  0.0445
 2063SOL    HW217652   0.345   2.105   0.578 -1.1861 -2.6747  0.6308
 2064SOL     OW17653   1.394   0.426   6.790 -0.8292  0.1657  0.6427
 2064SOL    HW117654   1.373   0.373   6.713  0.6631 -0.0500  0.3928
 2064SOL    HW217655   1.375   0.361   6.858  0.7333 -0.2832  0.6391
 2065SOL     OW17656   2.509   0.078   6.997  0.0220 -0.2341 -0.1202
 2065SOL    HW117657   2.534   0.122   6.915 -0.7125  0.1437 -0.1464
 2065SOL    HW217658   2.547   4.717   6.985 -1.0701 -0.8787  1.0900
 2066SOL     OW17659   3.732   4.621   3.871  0.2850  0.1305 -0.6683
 2066SOL    HW117660   3.702   4.631   3.781 -3.0913 -0.6199  0.3910
 2066SOL    HW217661   3.679   4.545   3.897 -0.1046  0.0436 -1.7251
 2067SOL     OW17662   4.138   1.524   3.892  0.1444  0.1950  0.4047
 2067SOL    HW117663   4.220   1.505   3.848 -1.3315 -4.0665 -0.5211
 2067SOL    HW217664   4.087   1.444   3.887  1.3453 -0.6070  1.0088
 2068SOL     OW17665   0.968   4.719  17.334  0.4357  0.1128  0.3650
 2068SOL    HW117666   0.938   0.068  17.386 -0.8017  0.1472 -0.4017
 2068SOL    HW217667   1.035   0.026  17.274 -0.1350 -1.2208 -0.9833
 2069SOL     OW17668   1.124   1.751   4.291 -0.2557  0.2382  0.8492
 2069SOL    HW117669   1.128   1.796   4.376 -1.1315  1.7993  0.0828
 2069SOL    HW217670   1.038   1.710   4.301 -0.2483 -0.3921 -1.7897
 2070SOL     OW17671   1.084   4.149   3.402 -0.5955  0.3409  0.0989
 2070SOL    HW117672   1.108   4.241   3.393 -4.0288  1.3970  1.6851
 2070SOL    HW217673   1.038   4.127   3.321  0.1782 -1.1763  0.0710
 2071SOL     OW17674   1.147   1.771  14.829 -0.0226 -0.5290 -0.4860
 2071SOL    HW117675   1.181   1.685  14.805 -2.5216 -1.2048 -1.5431
 2071SOL    HW217676   1.094   1.793  14.753 -0.3478  1.0663  0.1974
 2072SOL     OW17677   3.631   1.686   6.434 -0.0243 -0.3758 -0.1544
 2072SOL    HW117678   3.706   1.653   6.484 -0.0482 -0.5260 -0.2170
 2072SOL    HW217679   3.613   1.599   6.399  2.1603 -1.5471  1.6032
 2073SOL     OW17680   0.469   1.508  17.463  0.3532 -0.2204  0.1099
 2073SOL    HW117681   0.491   1.583  17.408 -0.7096 -0.0760 -0.1205
 2073SOL    HW217682   0.387   1.530  17.509  0.9264 -2.5981  2.2581
 2074SOL     OW17683   1.338   0.469   4.796 -0.0831 -0.2450  0.3036
 2074SOL    HW117684   1.269   0.517   4.841  0.7690  0.3973  0.9481
 2074SOL    HW217685   1.284   0.427   4.729  0.2727 -0.5598  0.2105
 2075SOL     OW17686   0.550   0.219   8.726 -0.2357  0.3736  0.1051
 2075SOL    HW117687   0.467   0.253   8.760 -1.1050  0.5150 -2.2029
 2075SOL    HW217688   0.514   0.130   8.729  2.0947 -0.7181 -4.3501
 2076SOL     OW17689   2.345   4.392   8.282 -0.0299 -0.0479  0.7721
 2076SOL    HW117690   2.376   4.419   8.368 -2.6337 -2.7908  2.5559
 2076SOL    HW217691   2.317   4.479   8.252  0.0547 -0.4072 -0.3720
 2077SOL     OW17692   1.561   3.516  12.021  0.2450  0.2613 -0.2984
 2077SOL    HW117693   1.521   3.544  11.939 -2.7148  0.3780  1.1794
 2077SOL    HW217694   1.600   3.434  11.990 -1.2720 -0.2242 -0.9349
 2078SOL     OW17695   4.333   2.964   4.561 -0.0117 -0.8094  0.1223
 2078SOL    HW117696   4.281   3.012   4.497  1.3116 -1.4877 -1.4815
 2078SOL    HW217697   4.261   2.929   4.612 -1.2543  1.7889  0.1738
 2079SOL     OW17698   1.273   4.113   5.252 -0.3765  0.2612 -0.1254
 2079SOL    HW117699   1.328   4.092   5.328 -0.6031  0.0834 -0.0108
 2079SOL    HW217700   1.192   4.075   5.285  0.2226 -2.2570 -1.6083
 2080SOL     OW17701   0.457   1.738   4.452  0.2629  0.0184  0.1649
 2080SOL    HW117702   0.522   1.764   4.388 -0.8276  2.3898  0.0271
 2080SOL    HW217703   0.450   1.645   4.429 -2.0100 -0.1011  1.3606
 2081SOL     OW17704   2.470   1.870   7.763  0.4417  0.1645 -0.5337
 2081SOL    HW117705   2.405   1.889   7.695 -1.7761 -0.6831  1.3767
 2081SOL    HW217706   2.449   1.778   7.778  0.5956 -0.0639 -1.6861
 2082SOL     OW17707   3.491   2.904   0.090 -0.4808  0.3944  0.3513
 2082SOL    HW117708   3.514   2.812   0.101 -1.2266  0.1903  0.2360
 2082SOL    HW217709   3.571   2.937   0.050 -2.0521  1.6094 -1.8117
 2083SOL     OW17710   4.427   4.155  14.559 -0.0259 -0.3793 -0.2960
 2083SOL    HW117711   4.407   4.246  14.540  0.5218 -0.3334 -0.6568
 2083SOL    HW217712   4.516   4.146  14.525  1.3077 -1.6666  3.5225
 2084SOL     OW17713   2.966   1.622   6.902  0.0414 -0.3322  0.4029
 2084SOL    HW117714   2.890   1.620   6.844  0.4529  0.6669 -0.1869
 2084SOL    HW217715   2.996   1.713   6.902 -1.6217  0.2146  0.9872
 2085SOL     OW17716   4.422   2.700   8.573  0.0626 -0.2503 -0.2521
 2085SOL    HW117717   4.513   2.729   8.564  0.4675 -0.7729  2.1969
 2085SOL    HW217718   4.426   2.669   8.664  1.3047 -1.7285 -0.8129
 2086SOL     OW17719   1.656   1.268  14.057 -0.3640  0.1524  0.0188
 2086SOL    HW117720   1.601   1.216  13.999  0.6319 -2.1881  1.1833
 2086SOL    HW217721   1.737   1.263  14.006 -0.2561  0.1311  0.1929
 2087SOL     OW17722   3.237   0.971   7.822  0.3250  0.1387  0.2372
 2087SOL    HW117723   3.150   1.011   7.821 -0.4380 -1.5985 -2.3431
 2087SOL    HW217724   3.289   1.040   7.780 -1.4982  0.0683 -2.1339
 2088SOL     OW17725   3.500   0.814   9.167  0.3060 -0.8206  0.4635
 2088SOL    HW117726   3.433   0.777   9.223 -1.1723  1.0513 -0.0850
 2088SOL    HW217727   3.582   0.774   9.198 -0.1206 -1.3167  0.9358
 2089SOL     OW17728   2.452   1.630   4.574  0.0632  0.0447 -0.1010
 2089SOL    HW117729   2.506   1.644   4.496  1.0213 -1.3990  0.3047
 2089SOL    HW217730   2.437   1.720   4.603 -1.1469 -0.4164  0.7238
 2090SOL     OW17731   1.613   1.518   5.486  0.0640 -0.4068  0.1129
 2090SOL    HW117732   1.660   1.435   5.478  1.1255  0.0787  1.2123
 2090SOL    HW217733   1.527   1.500   5.449  0.2147  0.3777 -0.6258
 2091SOL     OW17734   0.477   1.150   5.720 -0.3265 -0.2032  0.3532
 2091SOL    HW117735   0.475   1.119   5.629  0.2852 -1.1168  0.6576
 2091SOL    HW217736   0.403   1.210   5.727  0.4847  0.8243  0.2279
 2092SOL     OW17737   2.651   4.520   3.604 -0.2551 -0.2285  0.7921
 2092SOL    HW117738   2.705   4.599   3.597 -0.8192  0.2167  1.3963
 2092SOL    HW217739   2.625   4.523   3.511  2.0010  3.1358  0.2715
 2093SOL     OW17740   2.669   3.415   3.473 -0.2730  0.1680 -0.2662
 2093SOL    HW117741   2.746   3.466   3.450 -0.0829  0.6407  1.4603
 2093SOL    HW217742   2.602   3.460   3.421 -1.5274  1.3643  2.4045
 2094SOL     OW17743   0.154   0.972  12.890 -0.2781  0.0514 -0.1802
 2094SOL    HW117744   0.176   0.881  12.909 -1.9200 -0.1790  0.6435
 2094SOL    HW217745   0.195   0.986  12.805 -1.5030 -1.8429 -1.0717
 2095SOL     OW17746   2.433   1.408  13.158  0.0979 -0.5348  0.3765
 2095SOL    HW117747   2.339   1.398  13.169 -0.3308  0.1752 -2.4787
 2095SOL    HW217748   2.467   1.332  13.111  1.5012  1.6183 -2.1736
 2096SOL     OW17749   1.254   2.323   2.923  0.3803 -0.2404  0.5780
 2096SOL    HW117750   1.279   2.393   2.862  0.4170  1.7633  2.9119
 2096SOL    HW217751   1.334   2.272   2.939  0.4821 -0.3590 -0.2830
 2097SOL     OW17752   3.490   3.705   3.912  0.2010 -0.6256  0.1308
 2097SOL    HW117753   3.493   3.799   3.923  1.8766 -0.5409 -1.0262
 2097SOL    HW217754   3.482   3.694   3.817 -0.6996  0.1513  0.1231
 2098SOL     OW17755   0.035   0.089   4.752 -0.2672 -0.1231  0.5403
 2098SOL    HW117756   4.667   0.110   4.761 -0.5513 -1.1576 -0.0003
 2098SOL    HW217757   0.085   0.165   4.720  0.0016 -0.1817  0.8282
 2099SOL     OW17758   0.426   0.752  13.796 -0.0614 -0.2206 -0.5324
 2099SOL    HW117759   0.428   0.688  13.868 -1.3986  0.3741  0.0206
 2099SOL    HW217760   0.344   0.795  13.817  0.2044 -0.5405  1.1305
 2100SOL     OW17761   2.810   4.653   9.449  0.2956  0.1057 -0.2551
 2100SOL    HW117762   2.749   4.598   9.399 -0.3738 -0.1544  0.8370
 2100SOL    HW217763   2.766   0.012   9.444  1.4736  0.7233 -0.0220
 2101SOL     OW17764   1.695   2.693   4.491 -0.5558 -0.2945  0.2944
 2101SOL    HW117765   1.714   2.766   4.433 -2.1425  0.3780  0.6048
 2101SOL    HW217766   1.731   2.723   4.574  2.0888  2.0868 -1.7461
 2102SOL     OW17767   1.172   1.949  13.328  0.2768  0.6500  0.1574
 2102SOL    HW117768   1.232   1.949  13.253 -1.2429  3.0870 -1.0734
 2102SOL    HW217769   1.212   1.896  13.397 -0.7950 -1.1545 -0.5846
 2103SOL     OW17770   1.596   3.175  11.293 -0.0443  0.0227 -0.3739
 2103SOL    HW117771   1.582   3.254  11.242 -4.6284 -0.1832  0.6269
 2103SOL    HW217772   1.664   3.138  11.237  1.3526  0.0681  1.2743
 2104SOL     OW17773   0.873   0.938   3.848  0.0140 -0.1556 -0.7874
 2104SOL    HW117774   0.824   0.861   3.818 -0.7873  0.5433 -1.2436
 2104SOL    HW217775   0.945   0.893   3.893 -0.2770 -0.3463 -0.5104
 2105SOL     OW17776   1.339   2.632   1.254  0.4132  0.0770  0.5585
 2105SOL    HW117777   1.312   2.704   1.197 -0.4585 -0.4070  0.3564
 2105SOL    HW217778   1.260   2.625   1.307  0.2550 -0.6286  0.2365
 2106SOL     OW17779   1.901   0.718   7.008 -0.4376  0.1624  0.0752
 2106SOL    HW117780   1.913   0.656   6.936 -1.2561  1.5231 -1.2290
 2106SOL    HW217781   1.823   0.767   6.981  0.4701  2.2589  1.2581
 2107SOL     OW17782   3.708   1.301   1.668 -0.3418 -0.3968 -0.2489
 2107SOL    HW117783   3.688   1.213   1.700  4.5017 -2.0519 -1.7992
 2107SOL    HW217784   3.764   1.343   1.732  0.2949 -1.7630  0.0953
 2108SOL     OW17785   2.010   2.514  10.189  0.2517  0.5208  0.3958
 2108SOL    HW117786   2.051   2.481  10.269  1.0179  0.8270  0.1391
 2108SOL    HW217787   2.005   2.608  10.203 -1.2014  0.3551  0.9862
 2109SOL     OW17788   4.179   0.130   8.463  0.1029 -0.2691 -0.0544
 2109SOL    HW117789   4.144   0.099   8.380  0.9613  1.3103 -0.9910
 2109SOL    HW217790   4.108   0.105   8.523  1.4213  0.1573  1.6849
 2110SOL     OW17791   4.564   2.005   5.749 -0.1807  0.3764 -0.2338
 2110SOL    HW117792   4.602   1.917   5.740 -2.0321 -0.3786 -0.6428
 2110SOL    HW217793   4.476   1.970   5.762  0.9597 -1.5279  2.3476
 2111SOL     OW17794   4.464   2.362  12.908  0.3382 -0.5503 -0.5272
 2111SOL    HW117795   4.521   2.285  12.909  1.0457 -0.0148  0.1241
 2111SOL    HW217796   4.493   2.422  12.976  0.2680 -0.4772 -0.5610
 2112SOL     OW17797   3.696   4.725   1.988  0.1693  0.1279  0.2450
 2112SOL    HW117798   3.675   4.638   1.953 -0.5347  0.6556 -0.6370
 2112SOL    HW217799   3.765   4.698   2.049 -0.2682  2.0727  1.6058
 2113SOL     OW17800   2.024   3.504   4.997  0.4503 -0.3447 -0.2647
 2113SOL    HW117801   1.978   3.544   5.070  1.2624 -0.6919  0.4271
 2113SOL    HW217802   2.113   3.505   5.032  1.0598  1.4858 -1.8694
 2114SOL     OW17803   0.324   2.437  14.144  0.1563  0.2795  0.6572
 2114SOL    HW117804   0.325   2.472  14.233 -0.1645 -1.9445  1.5289
 2114SOL    HW217805   0.276   2.504  14.094 -2.7791 -2.2597  0.1002
 2115SOL     OW17806   2.017   4.609   8.567 -0.0332 -0.4707  0.3220
 2115SOL    HW117807   2.100   4.572   8.598 -0.6207 -0.9103  1.3707
 2115SOL    HW217808   2.042   4.690   8.524 -2.8266  1.2104  1.8871
 2116SOL     OW17809   1.353   4.263   8.402  0.7599 -0.5960 -0.1988
 2116SOL    HW117810   1.266   4.260   8.442  1.6097  0.5843  1.7305
 2116SOL    HW217811   1.398   4.190   8.443  1.2299  1.6140  3.1646
 2117SOL     OW17812   2.222   4.152   0.223 -0.1012  0.3733 -0.3589
 2117SOL    HW117813   2.243   4.104   0.303  0.4394  0.7229 -0.2857
 2117SOL    HW217814   2.129   4.171   0.233 -0.4363 -0.2288 -2.2772
 2118SOL     OW17815   1.734   2.309   3.902 -0.5615  0.0282  0.0003
 2118SOL    HW117816   1.794   2.355   3.960 -0.0997 -0.2720 -0.2454
 2118SOL    HW217817   1.692   2.375   3.847 -0.8940 -1.7586 -1.9186
 2119SOL     OW17818   1.299   4.607   8.630 -0.3561 -0.3827  0.5890
 2119SOL    HW117819   1.342   4.525   8.654  2.0702  0.6709 -0.1974
 2119SOL    HW217820   1.374   4.666   8.628 -1.7807  1.4403  1.4493
 2120SOL     OW17821   0.459   3.970   7.869  0.4979  0.0933  0.0504
 2120SOL    HW117822   0.450   4.062   7.891  1.1073  0.2264 -0.2743
 2120SOL    HW217823   0.378   3.956   7.820 -0.1094  1.1907  0.7416
 2121SOL     OW17824   1.615   3.608   7.150 -0.0696  0.1607 -0.0445
 2121SOL    HW117825   1.667   3.654   7.084  0.2498  0.9242  0.7445
 2121SOL    HW217826   1.683   3.565   7.202  0.8093  2.2025  0.5008
 2122SOL     OW17827   2.387   1.242   6.932 -0.3635  0.1900 -0.6482
 2122SOL    HW117828   2.375   1.148   6.941  0.6294  0.0309 -0.9865
 2122SOL    HW217829   2.474   1.242   6.891  0.0103 -0.4670  0.1474
 2123SOL     OW17830   0.405   3.820   6.661 -0.0106 -0.0021  0.0429
 2123SOL    HW117831   0.339   3.802   6.728 -0.6448 -1.4230 -0.9697
 2123SOL    HW217832   0.437   3.907   6.685 -0.5587 -0.0163  0.8536
 2124SOL     OW17833   3.841   3.610   3.927  0.2144 -0.7010 -1.0829
 2124SOL    HW117834   3.922   3.631   3.972 -0.0806  0.2629 -1.0089
 2124SOL    HW217835   3.844   3.699   3.893 -0.1210  0.0791  0.9887
 2125SOL     OW17836   0.043   0.702  15.382  0.0327  0.7579 -0.2156
 2125SOL    HW117837   0.090   0.627  15.343 -0.3240  1.5197 -2.1240
 2125SOL    HW217838   4.710   0.739  15.316  1.1880  1.1535 -1.0441
 2126SOL     OW17839   0.434   1.819   5.951 -0.0948  0.2451 -0.3603
 2126SOL    HW117840   0.410   1.886   6.015 -2.4650 -0.9875  0.0359
 2126SOL    HW217841   0.423   1.863   5.867  1.4666  2.4759  0.5977
 2127SOL     OW17842   3.156   3.599   3.670  0.3007 -0.0445  0.7251
 2127SOL    HW117843   3.091   3.602   3.740 -1.2366  1.5374 -0.7988
 2127SOL    HW217844   3.236   3.583   3.720  1.6236  1.4783 -0.9019
 2128SOL     OW17845   3.873   4.264  16.271  0.8867  0.5801 -0.0358
 2128SOL    HW117846   3.856   4.313  16.352 -1.9986  0.6251 -0.6864
 2128SOL    HW217847   3.796   4.207  16.275  1.5547 -0.2814  0.5050
 2129SOL     OW17848   1.850   4.525   7.173  0.7634 -0.1981  0.6581
 2129SOL    HW117849   1.903   4.470   7.230 -0.6159 -0.6099  1.5292
 2129SOL    HW217850   1.790   4.460   7.138  0.7643  0.7603 -1.1515
 2130SOL     OW17851   1.595   4.187  16.473 -0.0877 -0.1403  0.2116
 2130SOL    HW117852   1.619   4.102  16.438 -0.4268 -0.0047 -0.3538
 2130SOL    HW217853   1.503   4.193  16.447  0.1375 -3.4241 -1.3459
 2131SOL     OW17854   0.411   1.805   3.413 -0.0126 -0.0500 -0.8083
 2131SOL    HW117855   0.361   1.859   3.352 -2.2875 -0.7256  0.4629
 2131SOL    HW217856   0.403   1.855   3.495 -1.2291 -1.9221  0.2126
 2132SOL     OW17857   0.047   2.106   3.073 -0.1265  0.2670  0.6081
 2132SOL    HW117858   0.005   2.121   2.989 -1.1653 -0.4489  1.0021
 2132SOL    HW217859   0.025   2.018   3.103 -2.5945  0.6278 -0.1254
 2133SOL     OW17860   2.841   2.240  16.349 -0.1122  0.0079 -0.0742
 2133SOL    HW117861   2.749   2.222  16.328  0.0036  0.0283 -0.5909
 2133SOL    HW217862   2.823   2.326  16.387 -2.3357  0.8505 -3.0173
 2134SOL     OW17863   2.401   3.899  17.095  0.2162 -0.1853 -0.1011
 2134SOL    HW117864   2.450   3.902  17.013  1.9387 -0.1535  0.9337
 2134SOL    HW217865   2.314   3.914  17.058  0.2693 -0.1667 -0.2187
 2135SOL     OW17866   0.976   2.560   6.035 -0.2228  0.5136 -0.8511
 2135SOL    HW117867   0.882   2.560   6.016 -0.8786 -1.7117  2.3119
 2135SOL    HW217868   1.015   2.600   5.958  0.3766  0.5241 -0.5403
 2136SOL     OW17869   3.699   2.167   2.030 -0.1579  0.1945 -0.0734
 2136SOL    HW117870   3.638   2.153   1.958  0.1738  1.4435 -0.6010
 2136SOL    HW217871   3.767   2.213   1.980 -0.0827 -1.9599 -1.9419
 2137SOL     OW17872   0.907   3.155   9.279 -0.7624  0.2072  0.2267
 2137SOL    HW117873   0.996   3.187   9.262 -1.0070  0.3177 -0.8116
 2137SOL    HW217874   0.905   3.176   9.372 -0.6562 -1.7675  0.6826
 2138SOL     OW17875   0.809   1.397   3.925  0.2888  0.3064  0.5884
 2138SOL    HW117876   0.843   1.457   3.859  0.1051 -1.1974 -0.8690
 2138SOL    HW217877   0.866   1.322   3.907  0.7395  0.8201 -0.1143
 2139SOL     OW17878   2.392   3.572  12.985  0.3114  0.0209  0.1945
 2139SOL    HW117879   2.337   3.650  12.991  0.9946  0.4619  0.7465
 2139SOL    HW217880   2.434   3.587  12.900  0.3769  2.8221  0.6947
 2140SOL     OW17881   2.561   4.225  16.299 -0.6351  0.5825 -0.3099
 2140SOL    HW117882   2.591   4.274  16.376 -1.1802  0.7436 -0.1954
 2140SOL    HW217883   2.572   4.293  16.233 -0.1413 -0.7739 -1.6053
 2141SOL     OW17884   1.833   0.075  12.839  0.7176 -0.1584 -0.2793
 2141SOL    HW117885   1.810   0.038  12.754 -2.0749  0.1787  0.3286
 2141SOL    HW217886   1.839   0.165  12.806  0.5899 -1.5140 -3.9394
 2142SOL     OW17887   1.985   4.445  12.240 -0.5805 -0.5949  0.7820
 2142SOL    HW117888   2.078   4.456  12.259 -0.5690  1.0812 -0.1928
 2142SOL    HW217889   1.994   4.447  12.145  1.4172  0.8188  1.0059
 2143SOL     OW17890   4.653   3.025   9.121 -0.0465  0.1695 -0.4684
 2143SOL    HW117891   4.658   2.994   9.031 -0.3820 -1.6491  0.1460
 2143SOL    HW217892   0.011   3.070   9.132  0.2337 -0.4380 -0.1280
 2144SOL     OW17893   0.572   2.154   4.074  0.6050  0.4391 -0.0018
 2144SOL    HW117894   0.641   2.174   4.012 -1.4405 -2.2970 -3.1533
 2144SOL    HW217895   0.509   2.117   4.012  0.4021  0.7558  0.0150
 2145SOL     OW17896   1.207   3.017   3.768  0.0531  0.0043 -0.6725
 2145SOL    HW117897   1.207   3.020   3.863 -1.2198 -3.2407 -0.5681
 2145SOL    HW217898   1.134   3.077   3.751  1.4009  1.9708  0.6400
 2146SOL     OW17899   4.709   1.107   3.051 -0.2196  0.4121 -0.1740
 2146SOL    HW117900   0.054   1.046   3.028  0.7749  0.2528  3.3838
 2146SOL    HW217901   0.039   1.172   3.094 -0.7871  2.1486 -2.0783
 2147SOL     OW17902   2.374   1.838   9.811 -0.5282  0.2811  0.3571
 2147SOL    HW117903   2.360   1.825   9.904 -3.9144 -2.2667 -0.5118
 2147SOL    HW217904   2.453   1.784   9.799  0.4635  2.1770 -1.5837
 2148SOL     OW17905   1.248   3.470   9.812 -0.1119  0.3962 -0.1854
 2148SOL    HW117906   1.252   3.468   9.717 -0.0572  2.0288 -0.2223
 2148SOL    HW217907   1.203   3.387   9.828  1.6032 -0.4025  0.4679
 2149SOL     OW17908   1.914   4.353  12.937  0.1121 -0.1154 -0.4227
 2149SOL    HW117909   1.844   4.417  12.952  0.4326 -0.4433  2.4618
 2149SOL    HW217910   1.987   4.390  12.987 -0.9138  1.2725  0.0735
 2150SOL     OW17911   3.481   0.832   7.860  0.0048  0.0921  0.1147
 2150SOL    HW117912   3.440   0.836   7.947 -0.8666  1.8549 -0.3660
 2150SOL    HW217913   3.443   0.914   7.828  2.4385  0.8655 -0.7420
 2151SOL     OW17914   4.028   2.464  16.354 -0.0305 -0.2595 -0.1010
 2151SOL    HW117915   3.945   2.488  16.314  0.2926  0.9996 -0.0264
 2151SOL    HW217916   4.028   2.532  16.422  0.5354  1.3983 -1.7408
 2152SOL     OW17917   0.507   3.351   8.775 -0.5862 -0.1101  0.0426
 2152SOL    HW117918   0.437   3.403   8.813  0.5084  0.5854  1.1057
 2152SOL    HW217919   0.476   3.355   8.685  1.7301  0.1831 -0.7484
 2153SOL     OW17920   1.244   2.789  12.644 -0.2023 -0.1731 -0.2868
 2153SOL    HW117921   1.240   2.867  12.589  1.6085 -0.4250 -0.7774
 2153SOL    HW217922   1.169   2.736  12.615 -1.0494  1.8477 -1.7926
 2154SOL     OW17923   4.430   2.356   3.659  0.2306  0.2427 -0.3162
 2154SOL    HW117924   4.439   2.448   3.634  2.5940  0.3049  0.7399
 2154SOL    HW217925   4.369   2.332   3.589 -0.3091  1.6926 -0.3621
 2155SOL     OW17926   4.696   0.526   3.252 -0.7292 -1.0166 -0.5934
 2155SOL    HW117927   4.699   0.554   3.160  0.9244  2.5851  0.5514
 2155SOL    HW217928   4.652   0.602   3.290  0.6218 -0.9817  0.8818
 2156SOL     OW17929   2.146   0.229   3.964 -0.0526  0.1860 -0.1931
 2156SOL    HW117930   2.058   0.247   3.996  1.0799  1.6243  2.1052
 2156SOL    HW217931   2.145   0.278   3.882 -0.3095  0.8241  0.1960
 2157SOL     OW17932   1.152   2.141   4.027 -0.0121  0.2497  0.0019
 2157SOL    HW117933   1.195   2.058   4.049 -1.0891 -0.0970  0.8090
 2157SOL    HW217934   1.134   2.130   3.933 -0.1675 -0.8177  0.1578
 2158SOL     OW17935   3.504   1.858   7.776  0.1074 -0.1854 -0.2075
 2158SOL    HW117936   3.437   1.837   7.711 -0.1702 -3.1057  1.0438
 2158SOL    HW217937   3.465   1.815   7.852 -1.5851  1.3137 -0.2228
 2159SOL     OW17938   2.503   4.635  12.185 -0.2002 -0.6278 -0.4052
 2159SOL    HW117939   2.592   4.639  12.221 -0.1174 -0.9955 -0.5660
 2159SOL    HW217940   2.459   4.585  12.253 -0.5690  0.9122  0.4747
 2160SOL     OW17941   3.244   2.912   0.291 -0.3037 -0.7594 -0.3417
 2160SOL    HW117942   3.242   3.002   0.257 -1.1815 -0.6263  0.0428
 2160SOL    HW217943   3.325   2.870   0.264 -0.7872 -1.5815 -0.5193
 2161SOL     OW17944   3.014   3.026  12.493 -0.2549  0.3650 -0.0586
 2161SOL    HW117945   3.073   3.014  12.568 -1.6553 -0.6775  0.8727
 2161SOL    HW217946   2.943   2.971  12.527  0.2635 -1.1278 -1.4116
 2162SOL     OW17947   2.887   2.257  17.583 -0.4631  0.5273  0.2140
 2162SOL    HW117948   2.813   2.248  17.523 -0.3765  1.5856 -0.0602
 2162SOL    HW217949   2.951   2.188  17.567 -0.0686  0.9993 -0.2431
 2163SOL     OW17950   0.056   0.508   2.587 -0.2051  0.1509  0.4204
 2163SOL    HW117951   0.018   0.535   2.504  1.2063 -0.0242 -0.2920
 2163SOL    HW217952   4.712   0.487   2.649 -0.6269  2.1095  0.6166
 2164SOL     OW17953   1.861   1.446  13.973 -1.4386 -0.1418 -0.2952
 2164SOL    HW117954   1.890   1.527  14.015 -1.2125  0.4804 -1.6317
 2164SOL    HW217955   1.817   1.483  13.896 -2.0637 -2.0183 -0.8405
 2165SOL     OW17956   3.546   0.791  13.055 -0.4273 -0.2048 -0.0346
 2165SOL    HW117957   3.622   0.819  13.106  0.4041  0.3085 -1.5689
 2165SOL    HW217958   3.495   0.754  13.128 -0.8557  2.5116  1.0651
 2166SOL     OW17959   1.653   2.290  12.484  0.0833 -0.6012 -0.1003
 2166SOL    HW117960   1.738   2.334  12.485  0.9289 -2.2534  0.3853
 2166SOL    HW217961   1.663   2.236  12.405 -0.8857  0.2737 -0.8160
 2167SOL     OW17962   3.806   3.872   2.211 -0.0022 -0.9737  0.1634
 2167SOL    HW117963   3.802   3.935   2.139  0.7517 -0.0037  0.9637
 2167SOL    HW217964   3.898   3.870   2.236  0.0689 -0.8721 -0.0879
 2168SOL     OW17965   1.278   3.558   8.732  0.2535  0.2613 -0.0283
 2168SOL    HW117966   1.206   3.590   8.787  0.6324 -0.4042  0.8755
 2168SOL    HW217967   1.254   3.466   8.719  0.1536  0.3516 -0.4486
 2169SOL     OW17968   0.690   2.258   6.809  0.0658 -0.1300  0.6235
 2169SOL    HW117969   0.657   2.175   6.774  1.0109 -0.9188  1.6230
 2169SOL    HW217970   0.613   2.314   6.795  0.6949  0.9649  1.5729
 2170SOL     OW17971   0.796   0.844   5.786 -0.5088 -0.1611  0.5363
 2170SOL    HW117972   0.703   0.829   5.769 -0.7758  0.6641  1.2740
 2170SOL    HW217973   0.838   0.758   5.782 -1.8760 -0.6757 -2.0447
 2171SOL     OW17974   4.005   1.829   5.954  0.4902 -0.0861 -0.3347
 2171SOL    HW117975   3.936   1.891   5.981  0.8289  0.3218 -0.3996
 2171SOL    HW217976   4.030   1.789   6.037 -1.3310  0.0583  0.2828
 2172SOL     OW17977   2.229   0.397   0.377 -0.6668  0.0088  0.1316
 2172SOL    HW117978   2.291   0.465   0.402 -1.1012  0.3220  0.3508
 2172SOL    HW217979   2.283   0.320   0.359 -0.7574  0.0027 -0.1155
 2173SOL     OW17980   3.862   3.579   9.309 -0.2128 -0.0802 -0.4525
 2173SOL    HW117981   3.825   3.525   9.238 -1.2569 -1.8686  1.4418
 2173SOL    HW217982   3.793   3.581   9.376 -0.1910  0.4190 -0.4464
 2174SOL     OW17983   2.756   2.370   6.699 -0.0791  0.3150  0.5593
 2174SOL    HW117984   2.715   2.291   6.736  1.5433 -1.2448 -1.0135
 2174SOL    HW217985   2.798   2.399   6.780  0.4672 -0.0724  0.4142
 2175SOL     OW17986   4.601   3.630  10.008  0.0459 -0.5496  0.0331
 2175SOL    HW117987   4.654   3.631   9.927 -0.5009  0.1336 -0.3153
 2175SOL    HW217988   4.559   3.716  10.010 -0.3357 -0.7524  0.4242
 2176SOL     OW17989   1.760   3.788   8.750 -0.5412  0.6742 -0.4365
 2176SOL    HW117990   1.785   3.766   8.840  0.2987 -0.1784 -0.8812
 2176SOL    HW217991   1.674   3.750   8.731  0.1518 -1.7440  1.2870
 2177SOL     OW17992   4.351   3.610   7.330  0.0126  0.3348  0.0160
 2177SOL    HW117993   4.341   3.606   7.234 -3.9632  3.2633  0.3193
 2177SOL    HW217994   4.402   3.530   7.343  2.2344  1.4853 -1.4633
 2178SOL     OW17995   2.581   4.576   3.333  0.0460  0.0183  0.1938
 2178SOL    HW117996   2.619   4.519   3.267  1.2204  1.3815 -0.3151
 2178SOL    HW217997   2.494   4.537   3.345 -0.9165  1.9302 -0.4326
 2179SOL     OW17998   1.111   2.534   4.174  0.3191 -0.0749  0.3164
 2179SOL    HW117999   1.113   2.510   4.081  0.0419 -0.9951  0.5499
 2179SOL    HW218000   1.098   2.451   4.219 -1.6430  0.9611  1.6560
 2180SOL     OW18001   1.159   3.609  10.032  0.7216  0.2399 -0.3128
 2180SOL    HW118002   1.167   3.694   9.987  0.1919 -0.3076 -1.4476
 2180SOL    HW218003   1.187   3.556   9.957 -0.4967 -1.1140  0.1855
 2181SOL     OW18004   0.594   0.529   7.621  0.1052 -0.1496 -0.6603
 2181SOL    HW118005   0.532   0.498   7.687  3.3381 -0.0859  2.3537
 2181SOL    HW218006   0.640   0.599   7.666 -1.3941 -1.3695  2.8204
 2182SOL     OW18007   2.377   0.028   6.153 -0.3559  0.5435 -0.2653
 2182SOL    HW118008   2.353   0.036   6.061  1.8999  1.3375 -0.7745
 2182SOL    HW218009   2.472   0.033   6.146 -0.3094  1.5382  1.0951
 2183SOL     OW18010   1.608   4.646   7.062  0.2625 -0.7238  0.4788
 2183SOL    HW118011   1.564   4.648   6.977  0.8743  0.1820  0.1875
 2183SOL    HW218012   1.625   4.552   7.056  1.1122 -0.4596 -1.0419
 2184SOL     OW18013   2.678   2.974   5.571 -0.4983  0.0379  0.2675
 2184SOL    HW118014   2.769   2.958   5.545 -0.1153 -0.7135  2.0402
 2184SOL    HW218015   2.693   3.031   5.647  1.3624  1.0977 -0.8828
 2185SOL     OW18016   2.040   3.842   5.142  0.2860  0.2520 -0.3013
 2185SOL    HW118017   1.946   3.856   5.136  0.6426  2.3498 -1.0702
 2185SOL    HW218018   2.050   3.773   5.208 -2.8026  0.7221  0.6252
 2186SOL     OW18019   0.718   1.944   7.543  0.0674  0.1568  0.0600
 2186SOL    HW118020   0.688   1.930   7.633  1.1285  1.4958  0.6151
 2186SOL    HW218021   0.812   1.953   7.560  0.6838  0.0940 -3.2897
 2187SOL     OW18022   2.182   2.705   4.975  0.3429  0.1183 -0.3683
 2187SOL    HW118023   2.158   2.617   5.005 -0.6229  0.3966 -0.3337
 2187SOL    HW218024   2.220   2.738   5.057  3.0751 -3.9999  0.0308
 2188SOL     OW18025   2.942   3.114   2.984 -0.3436 -0.2043  0.8269
 2188SOL    HW118026   2.885   3.165   3.042 -0.6448  1.0643 -0.5755
 2188SOL    HW218027   2.906   3.155   2.905  0.8366  0.6039  0.7149
 2189SOL     OW18028   3.891   4.693   8.370  0.5462  0.3270  0.2834
 2189SOL    HW118029   3.797   4.686   8.352  0.7715 -0.0628 -0.6845
 2189SOL    HW218030   3.906   4.641   8.449  0.7440 -0.9890 -0.6169
 2190SOL     OW18031   1.437   1.422   8.825 -0.2639 -0.1182 -0.9509
 2190SOL    HW118032   1.377   1.387   8.891 -1.1547  0.4016 -1.4909
 2190SOL    HW218033   1.374   1.429   8.754 -0.7196  0.7421 -0.4683
 2191SOL     OW18034   3.609   3.144   4.317  0.2165  0.4099 -0.2256
 2191SOL    HW118035   3.571   3.163   4.231 -0.5482 -2.4665 -0.5089
 2191SOL    HW218036   3.675   3.081   4.287 -0.7729 -0.7897  0.1513
 2192SOL     OW18037   0.723   2.529   5.899  0.1960 -0.5798 -0.2312
 2192SOL    HW118038   0.640   2.542   5.946 -0.4978 -2.2135 -0.9901
 2192SOL    HW218039   0.723   2.437   5.873  1.5826 -0.7556  0.3893
 2193SOL     OW18040   2.173   3.187   6.159  0.0569 -0.0383  0.1884
 2193SOL    HW118041   2.246   3.155   6.107  0.2292 -0.2911  0.5867
 2193SOL    HW218042   2.130   3.102   6.175 -0.2213  0.5044  2.3827
 2194SOL     OW18043   1.435   3.805   6.543  0.5806  0.4640  0.1485
 2194SOL    HW118044   1.449   3.730   6.485  2.2989 -2.3381  4.1872
 2194SOL    HW218045   1.340   3.808   6.533  0.8295 -1.0578 -2.7507
 2195SOL     OW18046   0.045   1.993   8.117  0.6058  0.4227  0.7427
 2195SOL    HW118047   0.115   2.009   8.054  0.5392 -0.1963  0.5140
 2195SOL    HW218048   0.042   1.897   8.110  1.6483  0.4455 -0.0428
 2196SOL     OW18049   2.759   2.760   7.241  0.1648  0.1976 -0.1044
 2196SOL    HW118050   2.698   2.714   7.299  2.6505 -1.5758  1.0678
 2196SOL    HW218051   2.839   2.769   7.293  0.3283 -0.8546 -0.1742
 2197SOL     OW18052   3.907   3.230   9.543 -0.1534  0.4146 -0.5757
 2197SOL    HW118053   3.845   3.302   9.543 -0.5514  0.0846  3.4536
 2197SOL    HW218054   3.989   3.270   9.514  0.7843 -1.8242 -1.0561
 2198SOL     OW18055   4.415   2.709   4.248  0.4404  0.0945  0.0512
 2198SOL    HW118056   4.436   2.616   4.258 -2.5692 -0.4413  1.6455
 2198SOL    HW218057   4.450   2.729   4.335 -1.2891 -1.8379  1.2055
 2199SOL     OW18058   3.640   2.265  11.284  0.1037 -0.0540  0.2334
 2199SOL    HW118059   3.596   2.342  11.321 -1.1211 -0.8637  0.4447
 2199SOL    HW218060   3.569   2.201  11.283  0.2531 -0.2458  2.7217
 2200SOL     OW18061   0.677   4.034  15.087 -0.3354  0.2776 -0.3444
 2200SOL    HW118062   0.622   4.076  15.021 -0.7539 -2.1259 -1.5514
 2200SOL    HW218063   0.703   4.099  15.152  0.0362  0.3049 -0.5240
 2201SOL     OW18064   3.311   0.373   2.397 -0.5593 -0.4558 -0.2079
 2201SOL    HW118065   3.373   0.447   2.392 -2.3932  1.1758  1.3793
 2201SOL    HW218066   3.312   0.334   2.310 -1.4707  1.4687 -1.0742
 2202SOL     OW18067   2.770   3.409   3.813  0.2583 -0.2837 -0.3983
 2202SOL    HW118068   2.830   3.337   3.833  0.4772 -0.1256 -0.4902
 2202SOL    HW218069   2.795   3.418   3.721 -0.2419  1.2170 -0.3849
 2203SOL     OW18070   0.418   1.413   4.880 -0.1403  0.3171  0.3587
 2203SOL    HW118071   0.347   1.472   4.904 -0.0363  0.7283 -0.3606
 2203SOL    HW218072   0.364   1.336   4.860  1.9489 -0.8896 -0.7040
 2204SOL     OW18073   1.304   4.497   4.883 -0.0712  0.3782  0.7198
 2204SOL    HW118074   1.392   4.532   4.897  0.6732 -0.8384 -0.8984
 2204SOL    HW218075   1.315   4.454   4.798  0.4877  0.8515  0.5532
 2205SOL     OW18076   0.113   2.804   4.669 -0.4178 -0.4901 -0.6013
 2205SOL    HW118077   0.130   2.740   4.738 -1.5145 -1.2553 -1.0436
 2205SOL    HW218078   0.187   2.781   4.612  0.1490 -1.3131  0.4721
 2206SOL     OW18079   3.077   0.719   7.421  0.6141  0.3501  0.1626
 2206SOL    HW118080   3.023   0.796   7.440  0.0291 -0.0103 -0.0376
 2206SOL    HW218081   3.137   0.756   7.357 -1.1616  3.0170  0.0275
 2207SOL     OW18082   0.526   0.839   8.160 -0.2762 -0.5366 -0.2389
 2207SOL    HW118083   0.477   0.921   8.166  2.0535  0.7013  2.2865
 2207SOL    HW218084   0.527   0.806   8.250 -0.9408  0.7708  0.2483
 2208SOL     OW18085   3.878   2.126   1.512  0.3491 -0.1923  0.4249
 2208SOL    HW118086   3.856   2.169   1.595 -0.2164 -2.0575  1.2260
 2208SOL    HW218087   3.952   2.179   1.482  1.6332 -2.1838  0.0768
 2209SOL     OW18088   2.555   2.993   3.386  0.6713  0.1495 -0.0470
 2209SOL    HW118089   2.616   3.034   3.447 -3.3483  2.0098  2.7002
 2209SOL    HW218090   2.486   2.950   3.437  0.4472  1.0592  0.4101
 2210SOL     OW18091   2.476   1.163   5.785 -0.6812  0.3075 -0.0261
 2210SOL    HW118092   2.513   1.119   5.709  0.9551  1.1817  0.2580
 2210SOL    HW218093   2.427   1.232   5.740  0.5285  0.8418 -0.5108
 2211SOL     OW18094   3.057   1.857   6.613  0.1819 -0.3450 -0.5178
 2211SOL    HW118095   3.079   1.924   6.677  1.2353 -0.6692 -0.5382
 2211SOL    HW218096   3.049   1.918   6.539  1.2999  0.9268  0.4157
 2212SOL     OW18097   1.264   4.540  15.729  0.6981 -0.0296  0.9103
 2212SOL    HW118098   1.188   4.577  15.773  0.8488  0.3481  0.8552
 2212SOL    HW218099   1.343   4.570  15.774  0.4513  1.1943  0.5246
 2213SOL     OW18100   4.008   0.808  14.074  0.2519 -0.1440 -0.7265
 2213SOL    HW118101   4.074   0.851  14.127 -1.2822 -0.2365  1.2778
 2213SOL    HW218102   3.969   0.883  14.030  0.8300  1.0421  0.8211
 2214SOL     OW18103   1.527   1.883   8.164  0.0616 -0.5067  0.0876
 2214SOL    HW118104   1.579   1.824   8.109 -0.9014  0.8666 -2.2990
 2214SOL    HW218105   1.560   1.971   8.145  0.6594 -1.0383 -1.3001
 2215SOL     OW18106   2.315   2.423   6.650  0.5486 -0.2450  0.0889
 2215SOL    HW118107   2.383   2.468   6.599  0.0466 -0.8136 -1.0789
 2215SOL    HW218108   2.279   2.373   6.577  1.1450  1.8306 -1.6240
 2216SOL     OW18109   2.198   1.185   6.193  0.1683 -0.8215 -0.9463
 2216SOL    HW118110   2.112   1.142   6.203 -0.7097  1.1315 -0.0136
 2216SOL    HW218111   2.205   1.212   6.102  0.5946 -0.7879 -0.8999
 2217SOL     OW18112   0.519   2.028   9.836  0.5058  0.1160 -0.3566
 2217SOL    HW118113   0.596   1.999   9.787  2.4240  0.7462  2.2920
 2217SOL    HW218114   0.455   1.988   9.777 -1.1885  0.6540  1.1483
 2218SOL     OW18115   4.608   0.070   0.249  0.6946 -0.0265  0.2974
 2218SOL    HW118116   4.644   0.096   0.164 -1.2992 -2.2899 -1.2380
 2218SOL    HW218117   4.601   4.701   0.233 -0.3630  0.2466 -0.9489
 2219SOL     OW18118   1.979   0.814  14.813 -0.1818 -0.1217  0.7751
 2219SOL    HW118119   1.985   0.719  14.802 -1.4944  0.0668 -1.4903
 2219SOL    HW218120   1.987   0.823  14.908  0.2619 -0.2345  0.7451
 2220SOL     OW18121   1.335   4.086   4.764  0.3030 -0.6134  0.2598
 2220SOL    HW118122   1.255   4.129   4.734  1.4732  0.3646 -1.5142
 2220SOL    HW218123   1.328   4.118   4.854  2.1272 -0.0321  0.2058
 2221SOL     OW18124   0.625   3.868  12.029  0.4756 -0.1254 -0.4787
 2221SOL    HW118125   0.714   3.837  12.043 -0.4775 -1.9201  1.7562
 2221SOL    HW218126   0.585   3.783  12.048 -1.3336  0.6665 -0.6963
 2222SOL     OW18127   2.182   2.254   8.931  0.4211 -0.7479 -0.2330
 2222SOL    HW118128   2.139   2.168   8.932  3.4302 -2.2588  1.4273
 2222SOL    HW218129   2.237   2.249   9.009  0.7484  0.6628 -0.3732
 2223SOL     OW18130   3.893   1.722   5.253  0.2217 -0.8131 -0.1071
 2223SOL    HW118131   3.967   1.726   5.192 -0.5367 -1.9786 -1.1135
 2223SOL    HW218132   3.948   1.762   5.321  0.6556 -0.6302 -0.5618
 2224SOL     OW18133   2.800   4.299   0.439 -0.5683  0.4964  0.2641
 2224SOL    HW118134   2.739   4.354   0.487 -1.0136  0.2236  0.0128
 2224SOL    HW218135   2.854   4.369   0.403 -0.4373 -0.3100 -1.1240
 2225SOL     OW18136   2.995   2.779   2.189 -0.0096 -0.5127  0.2244
 2225SOL    HW118137   2.960   2.788   2.101 -1.3852 -0.5353  0.7658
 2225SOL    HW218138   3.058   2.851   2.196 -1.1218  0.3935  1.0069
 2226SOL     OW18139   1.362   1.002   7.418  0.5157  0.2113  0.1581
 2226SOL    HW118140   1.335   1.079   7.468  0.8976  0.8326 -0.6061
 2226SOL    HW218141   1.416   0.954   7.480  0.4018  0.1808  0.2345
 2227SOL     OW18142   4.572   4.596   2.259 -0.7387 -0.0807  0.3753
 2227SOL    HW118143   4.658   4.615   2.224 -1.7850  2.1596 -0.9322
 2227SOL    HW218144   4.564   4.666   2.324 -0.9084  0.8098 -0.6044
 2228SOL     OW18145   1.690   3.154   8.381  0.8514  0.1105  0.0466
 2228SOL    HW118146   1.750   3.225   8.404  2.0467 -1.1712  0.9143
 2228SOL    HW218147   1.745   3.079   8.406 -0.2737 -0.7691 -0.0999
 2229SOL     OW18148   0.365   0.417   3.128 -0.3703 -0.0923 -0.7863
 2229SOL    HW118149   0.282   0.371   3.115 -0.0167 -1.3306  1.4480
 2229SOL    HW218150   0.397   0.360   3.198 -0.8039  0.9312  0.2425
 2230SOL     OW18151   2.839   4.042   5.920 -0.1282 -0.3114  0.5385
 2230SOL    HW118152   2.908   4.097   5.882  0.1690 -0.8099  0.3656
 2230SOL    HW218153   2.765   4.091   5.884  0.2577 -0.1927 -0.1009
 2231SOL     OW18154   1.221   2.831   2.139 -0.1643  0.0245 -0.2669
 2231SOL    HW118155   1.202   2.738   2.152  2.4662 -0.4959 -0.2779
 2231SOL    HW218156   1.131   2.864   2.129  0.5068  1.7107 -0.7017
 2232SOL     OW18157   4.183   3.670  15.639  0.0722 -0.5030  0.1113
 2232SOL    HW118158   4.158   3.755  15.676  0.3312 -0.1118 -0.6208
 2232SOL    HW218159   4.269   3.660  15.681  0.4438  0.6964 -0.3655
 2233SOL     OW18160   2.694   1.297   2.785 -0.3423  0.3844 -0.0520
 2233SOL    HW118161   2.619   1.344   2.749 -1.8896 -1.6166  0.6225
 2233SOL    HW218162   2.727   1.237   2.718 -1.4438 -0.7516  0.4268
 2234SOL     OW18163   2.771   3.838   7.223  0.1995 -0.0544  0.0824
 2234SOL    HW118164   2.863   3.820   7.240 -0.4393 -1.3932  2.2080
 2234SOL    HW218165   2.784   3.883   7.140 -0.4702 -0.9937 -0.5229
 2235SOL     OW18166   0.927   1.360   2.814  0.0601 -0.1877  0.2074
 2235SOL    HW118167   0.985   1.312   2.873 -2.1989  0.9554  3.3785
 2235SOL    HW218168   0.964   1.447   2.824  1.0242 -0.3619 -1.7709
 2236SOL     OW18169   2.719   1.907  14.001 -0.8533 -0.4306 -0.4961
 2236SOL    HW118170   2.669   1.987  13.985 -0.2624 -0.4972 -2.6720
 2236SOL    HW218171   2.680   1.838  13.948  1.1553 -0.0652 -2.4594
 2237SOL     OW18172   1.728   2.786   7.737  0.5157 -0.2241  0.1241
 2237SOL    HW118173   1.670   2.788   7.661  2.3650  3.1456 -1.1959
 2237SOL    HW218174   1.793   2.849   7.706 -0.4798  0.4821 -0.5546
 2238SOL     OW18175   1.278   1.428   1.769 -0.8747  0.1089 -0.0192
 2238SOL    HW118176   1.269   1.521   1.749 -3.6422 -0.1379  0.0187
 2238SOL    HW218177   1.351   1.411   1.709  0.3725  0.3747  1.4377
 2239SOL     OW18178   0.753   4.261   3.463  0.2628  0.2160  0.1042
 2239SOL    HW118179   0.707   4.306   3.534 -3.1996  0.8228 -2.4875
 2239SOL    HW218180   0.734   4.169   3.482  0.4215  0.2513  0.4210
 2240SOL     OW18181   2.833   4.106   0.820  0.5136  0.4790 -0.6019
 2240SOL    HW118182   2.858   4.097   0.728 -3.1495 -2.0179 -1.3698
 2240SOL    HW218183   2.860   4.021   0.855  0.2464  1.0496  0.9602
 2241SOL     OW18184   4.416   2.767   6.434  0.4985  0.6494 -0.5757
 2241SOL    HW118185   4.341   2.754   6.376 -0.7117  0.2100  1.0967
 2241SOL    HW218186   4.384   2.723   6.513  3.0323  0.0311  0.1064
 2242SOL     OW18187   1.788   3.233   3.696  0.4446 -0.2290 -0.5941
 2242SOL    HW118188   1.739   3.169   3.748 -1.3008  1.2300 -0.4497
 2242SOL    HW218189   1.866   3.256   3.746 -0.0104  3.1689 -1.4613
 2243SOL     OW18190   1.397   2.526   7.352  0.2060 -0.4109  0.0186
 2243SOL    HW118191   1.385   2.610   7.307 -0.1561 -0.8516 -0.7067
 2243SOL    HW218192   1.395   2.459   7.284  0.6289 -0.5810  0.1749
 2244SOL     OW18193   2.973   4.461   7.010  0.4934 -0.7700 -0.3342
 2244SOL    HW118194   2.916   4.401   6.963 -1.6726  0.5330  0.6118
 2244SOL    HW218195   3.051   4.407   7.020  1.1478  0.3578  0.6121
 2245SOL     OW18196   2.890   1.840  12.953 -0.0566  0.5981  0.2704
 2245SOL    HW118197   2.974   1.875  12.925  0.9015 -1.7966  0.1574
 2245SOL    HW218198   2.872   1.875  13.040 -3.3472  1.6519 -0.8155
 2246SOL     OW18199   4.442   4.000  16.815  0.2796  0.0352 -0.0442
 2246SOL    HW118200   4.372   4.057  16.847  2.3507  1.0093  2.7031
 2246SOL    HW218201   4.504   4.001  16.888  1.3357 -1.9160 -0.9199
 2247SOL     OW18202   2.901   2.512  11.278 -0.0652 -0.3438 -0.4015
 2247SOL    HW118203   2.938   2.537  11.194 -0.2574 -0.1781 -0.4349
 2247SOL    HW218204   2.849   2.588  11.303 -1.5471 -1.1059 -1.1731
 2248SOL     OW18205   2.359   2.559   3.580 -0.3944 -0.3571  0.2607
 2248SOL    HW118206   2.327   2.478   3.540 -1.8192  0.2830  0.1124
 2248SOL    HW218207   2.308   2.555   3.660 -1.5894 -3.4529 -0.6785
 2249SOL     OW18208   0.956   1.406   5.511 -0.0870  0.1735  0.7166
 2249SOL    HW118209   0.899   1.482   5.521 -1.2136 -0.5484 -0.1489
 2249SOL    HW218210   0.958   1.384   5.417 -0.8869 -0.0496  0.7467
 2250SOL     OW18211   3.740   3.173   8.162 -0.4206  0.2395 -0.3068
 2250SOL    HW118212   3.737   3.228   8.240 -0.9569 -1.5120  0.9006
 2250SOL    HW218213   3.721   3.239   8.095 -1.3081  1.0954  0.7940
 2251SOL     OW18214   0.402   4.470   4.170  0.2574 -0.0828 -0.2295
 2251SOL    HW118215   0.428   4.545   4.118  1.6024  0.1642  0.7884
 2251SOL    HW218216   0.471   4.472   4.237 -1.4070 -2.8887  1.5646
 2252SOL     OW18217   0.432   1.419   7.344  0.3410  0.2144 -0.8707
 2252SOL    HW118218   0.390   1.370   7.415 -1.5230 -0.5883 -2.5231
 2252SOL    HW218219   0.355   1.421   7.287  1.2607 -1.0539 -2.1894
 2253SOL     OW18220   3.718   4.534   5.557  0.2802  0.1387  0.0594
 2253SOL    HW118221   3.625   4.547   5.574 -0.3419 -0.1115 -3.1564
 2253SOL    HW218222   3.739   4.601   5.493 -0.2494  1.3888  1.2040
 2254SOL     OW18223   1.235   4.209   8.680 -0.7307  0.2076 -0.2699
 2254SOL    HW118224   1.157   4.247   8.639 -0.1363  1.8646  0.1359
 2254SOL    HW218225   1.249   4.116   8.662 -2.0660 -0.1746  0.7088
 2255SOL     OW18226   2.100   0.084  10.743 -0.1861 -0.5909 -0.1143
 2255SOL    HW118227   2.122   0.173  10.718 -0.9211 -0.9069 -1.8384
 2255SOL    HW218228   2.168   0.038  10.693 -0.9432 -0.0841 -1.5995
 2256SOL     OW18229   2.730   3.779   6.823  0.7564  0.5606 -0.2507
 2256SOL    HW118230   2.714   3.688   6.848 -2.5228  1.5079  1.0727
 2256SOL    HW218231   2.779   3.778   6.740  0.6425  2.4064 -0.3379
 2257SOL     OW18232   1.874   0.959   7.754 -0.0844  0.4258  0.4455
 2257SOL    HW118233   1.831   0.876   7.774 -2.7285  1.6070 -0.3525
 2257SOL    HW218234   1.887   0.941   7.661  0.6967  0.2315  0.5879
 2258SOL     OW18235   0.446   4.610   5.521  0.4596 -0.1523  0.2328
 2258SOL    HW118236   0.480   4.627   5.609  0.0271  0.8104  0.2122
 2258SOL    HW218237   0.504   4.538   5.497 -0.2510 -0.7683  0.3640
 2259SOL     OW18238   1.898   4.155  15.140 -0.5723 -0.1370  0.3119
 2259SOL    HW118239   1.916   4.076  15.089  1.9910  0.1653  0.7518
 2259SOL    HW218240   1.981   4.188  15.174  0.3746 -1.4580 -0.7652
 2260SOL     OW18241   2.548   1.187   7.511  0.4565 -0.3249 -0.3219
 2260SOL    HW118242   2.617   1.193   7.577 -0.6448 -0.9755  0.8757
 2260SOL    HW218243   2.539   1.280   7.493 -1.8418 -0.6517 -0.8124
 2261SOL     OW18244   2.644   1.460   7.829  0.0359 -0.6595  0.1456
 2261SOL    HW118245   2.695   1.403   7.772  0.2056 -0.4816  0.1219
 2261SOL    HW218246   2.676   1.547   7.807 -0.3233 -0.9072 -1.3622
 2262SOL     OW18247   2.048   3.512  13.242 -0.0352  0.1081 -0.4711
 2262SOL    HW118248   1.993   3.459  13.184 -1.5503  0.3491  0.7669
 2262SOL    HW218249   2.065   3.448  13.311  0.1623  1.0397  0.3452
 2263SOL     OW18250   2.152   2.369   7.735  0.3410  0.2405 -0.6741
 2263SOL    HW118251   2.133   2.297   7.674 -1.6460 -0.1372  0.3960
 2263SOL    HW218252   2.196   2.322   7.806 -1.2218 -0.5191 -0.2159
 2264SOL     OW18253   2.501   0.241  10.533  0.5368  0.2382  0.2928
 2264SOL    HW118254   2.420   0.237  10.584 -0.1709 -0.6543 -0.8849
 2264SOL    HW218255   2.544   0.318  10.570  0.0697  0.6631 -0.0388
 2265SOL     OW18256   2.592   0.020   8.420  0.5204 -0.2786  0.5081
 2265SOL    HW118257   2.676   0.058   8.444  1.0418 -0.6312 -0.7806
 2265SOL    HW218258   2.544   0.092   8.378  1.6331 -0.1144 -0.4686
 2266SOL     OW18259   2.508   0.467   3.439 -0.6462 -0.2605  0.0054
 2266SOL    HW118260   2.445   0.520   3.389 -0.4097  0.6950  0.7115
 2266SOL    HW218261   2.545   0.533   3.498 -1.0955 -0.4020  0.4468
 2267SOL     OW18262   1.115   3.044   8.930  0.0075 -0.2589  0.1581
 2267SOL    HW118263   1.068   3.108   8.876  1.3963  0.0408 -0.7022
 2267SOL    HW218264   1.207   3.062   8.910  0.1871 -0.6726  0.6261
 2268SOL     OW18265   2.246   0.550  14.539 -0.3438  0.0517 -0.6968
 2268SOL    HW118266   2.259   0.636  14.499  1.7156 -1.1641 -2.6646
 2268SOL    HW218267   2.337   0.529  14.561  0.3081  2.4993 -1.0035
 2269SOL     OW18268   2.873   2.169   0.792  0.1283  0.2959 -0.0453
 2269SOL    HW118269   2.911   2.254   0.772 -0.7669  0.5749 -0.5619
 2269SOL    HW218270   2.793   2.188   0.840  0.8576 -1.7273  1.9836
 2270SOL     OW18271   4.202   1.380   7.599 -0.3136 -0.1144 -0.2786
 2270SOL    HW118272   4.202   1.287   7.619  0.8734 -0.1923 -0.6559
 2270SOL    HW218273   4.282   1.391   7.547  0.9738 -0.7947  1.5653
 2271SOL     OW18274   3.054   2.353   0.192  0.4143 -0.5458  0.3057
 2271SOL    HW118275   3.135   2.356   0.243  1.8363 -0.6016 -1.9281
 2271SOL    HW218276   3.047   2.263   0.159 -0.1213 -0.4045  0.0443
 2272SOL     OW18277   0.619   3.628   3.635 -0.3128  0.1343  0.1884
 2272SOL    HW118278   0.659   3.581   3.562 -0.5368 -0.5030  0.4772
 2272SOL    HW218279   0.529   3.611   3.609  0.6209  0.3791 -3.2388
 2273SOL     OW18280   2.541   2.247  16.275 -0.0750  0.3389 -0.1156
 2273SOL    HW118281   2.518   2.221  16.364  4.5680 -3.7489 -0.0813
 2273SOL    HW218282   2.466   2.209  16.229 -0.1027 -0.9474  1.0187
 2274SOL     OW18283   0.844   1.161   9.037 -0.1994  0.3481 -0.2430
 2274SOL    HW118284   0.875   1.111   9.113  1.1418  0.4988 -0.6913
 2274SOL    HW218285   0.820   1.234   9.094 -1.5358  0.1372 -0.5389
 2275SOL     OW18286   2.646   3.527   9.831  0.4378 -0.2045 -0.2601
 2275SOL    HW118287   2.721   3.485   9.874 -0.0925 -2.8711 -2.0100
 2275SOL    HW218288   2.688   3.603   9.790 -0.9263  1.5984  1.7082
 2276SOL     OW18289   2.238   3.049  14.685 -0.4257  0.3896 -0.2687
 2276SOL    HW118290   2.146   3.067  14.704 -0.0629  0.2856  1.5509
 2276SOL    HW218291   2.255   2.969  14.734 -1.4173  0.4656  0.1977
 2277SOL     OW18292   0.346   4.297   7.242 -0.3932  1.1262  0.0321
 2277SOL    HW118293   0.441   4.307   7.234 -0.7016  1.3624 -3.3322
 2277SOL    HW218294   0.313   4.284   7.153 -0.8410 -1.4248  0.5702
 2278SOL     OW18295   1.739   2.616   2.448  0.3256 -0.2267  0.1763
 2278SOL    HW118296   1.809   2.672   2.413 -1.6589  2.5581  0.6488
 2278SOL    HW218297   1.757   2.531   2.409  1.5796  0.5218 -0.8832
 2279SOL     OW18298   0.938   1.551   2.212 -0.4776  0.2464  0.4063
 2279SOL    HW118299   0.986   1.605   2.275 -0.8934  0.2759  0.6982
 2279SOL    HW218300   0.952   1.601   2.131 -3.9199 -0.2742 -0.5113
 2280SOL     OW18301   2.119   0.181   4.908 -0.6131 -0.3546  0.2481
 2280SOL    HW118302   2.054   0.197   4.840 -0.2948  0.3855  0.1101
 2280SOL    HW218303   2.094   0.258   4.960 -1.4788 -0.7291  0.3840
 2281SOL     OW18304   0.643   0.916  13.743 -0.6559 -0.1815  0.6274
 2281SOL    HW118305   0.577   0.847  13.744  0.1161 -0.9082  1.4496
 2281SOL    HW218306   0.598   0.988  13.700 -1.6988 -1.2267 -0.0487
 2282SOL     OW18307   1.882   3.300   2.551 -0.3132  0.1445 -0.5582
 2282SOL    HW118308   1.855   3.342   2.633  0.3609  1.7897 -1.1837
 2282SOL    HW218309   1.801   3.311   2.500 -0.1194 -0.0425 -0.9041
 2283SOL     OW18310   1.809   4.045   9.476 -0.8941  0.3903  0.2809
 2283SOL    HW118311   1.893   4.000   9.482 -1.1859 -0.3109 -0.9177
 2283SOL    HW218312   1.757   3.965   9.466 -0.4781  0.1490  0.0364
 2284SOL     OW18313   1.340   2.944   1.652  0.0055  0.5501  0.1925
 2284SOL    HW118314   1.260   2.988   1.681  0.3921  1.3082  0.0991
 2284SOL    HW218315   1.307   2.854   1.645  2.7441 -0.4894  0.5166
 2285SOL     OW18316   4.444   0.153   6.764 -0.9261 -0.2145 -0.5417
 2285SOL    HW118317   4.531   0.192   6.778 -0.7078 -1.0889  0.5593
 2285SOL    HW218318   4.456   0.072   6.814 -0.0137  0.1844 -0.0992
 2286SOL     OW18319   2.845   1.372   9.009 -0.6346  0.0104  0.1343
 2286SOL    HW118320   2.904   1.346   8.938  2.4743  4.2303  1.1708
 2286SOL    HW218321   2.885   1.331   9.086 -0.5039 -1.5538 -0.7638
 2287SOL     OW18322   4.217   2.122   4.815 -0.3507  0.0074 -0.9745
 2287SOL    HW118323   4.160   2.047   4.797 -1.2831  0.1908  1.2384
 2287SOL    HW218324   4.295   2.081   4.777 -0.4753 -2.9655  1.9629
 2288SOL     OW18325   1.394   4.412   3.891  0.1076  0.0419  0.1823
 2288SOL    HW118326   1.355   4.352   3.827  0.5965 -0.5782  0.4622
 2288SOL    HW218327   1.344   4.381   3.967  0.2495  0.0169  0.2660
 2289SOL     OW18328   3.985   2.650  17.702  0.0970 -0.0013  0.3582
 2289SOL    HW118329   4.060   2.708   0.005 -0.2163  0.2621  1.4696
 2289SOL    HW218330   3.920   2.718  17.683  0.1260  0.0642  0.4906
 2290SOL     OW18331   0.406   1.741   8.740  0.1916  0.2419  0.0821
 2290SOL    HW118332   0.328   1.794   8.754  1.1525  1.4862  0.7319
 2290SOL    HW218333   0.467   1.771   8.807  0.0573 -1.9886  1.1892
 2291SOL     OW18334   3.137   1.970   3.882  1.1956 -0.2176 -0.4421
 2291SOL    HW118335   3.126   1.947   3.790 -2.2115 -2.6886  0.5844
 2291SOL    HW218336   3.233   1.961   3.886  1.2169  0.1675 -0.0888
 2292SOL     OW18337   4.577   0.279   7.772  0.1533  0.3376 -0.0849
 2292SOL    HW118338   4.581   0.334   7.693  1.2037  0.2739 -0.0760
 2292SOL    HW218339   4.483   0.261   7.777  0.5525 -2.0695 -1.3061
 2293SOL     OW18340   0.147   2.464   0.715 -0.1498  0.7019  0.1365
 2293SOL    HW118341   0.220   2.509   0.758  0.5775 -2.0109  1.7380
 2293SOL    HW218342   0.127   2.400   0.783  2.0461 -0.5058 -0.3393
 2294SOL     OW18343   4.476   0.867   3.053 -0.0579  0.0111  0.3427
 2294SOL    HW118344   4.508   0.890   2.966 -2.0510 -0.1273 -0.4300
 2294SOL    HW218345   4.468   0.954   3.091 -0.2989 -1.4000  3.5339
 2295SOL     OW18346   3.214   2.138  13.425 -0.0763 -0.1164 -0.2145
 2295SOL    HW118347   3.210   2.091  13.509  2.7063 -0.1497 -0.0962
 2295SOL    HW218348   3.304   2.169  13.434 -0.6207  1.2970  0.3831
 2296SOL     OW18349   4.413   4.154   1.993 -0.7227 -0.8445  0.3268
 2296SOL    HW118350   4.490   4.096   1.999  0.2335  0.4860  0.9070
 2296SOL    HW218351   4.351   4.121   2.058  0.2886  0.9826  2.2167
 2297SOL     OW18352   0.942   2.145   4.613  0.8474  0.2160  0.2965
 2297SOL    HW118353   1.002   2.218   4.624 -1.3296  2.1048 -0.4256
 2297SOL    HW218354   0.862   2.194   4.632 -0.4406 -1.1075 -1.6952
 2298SOL     OW18355   0.831   3.071  11.399 -0.4162 -0.1952 -0.2666
 2298SOL    HW118356   0.843   3.073  11.305 -3.0829 -4.1184 -0.6914
 2298SOL    HW218357   0.890   2.999  11.421  0.3846  0.5512  0.0390
 2299SOL     OW18358   2.614   3.691  11.634  0.0573  0.2001 -0.0745
 2299SOL    HW118359   2.554   3.766  11.640  1.0646  1.0033 -0.1184
 2299SOL    HW218360   2.589   3.644  11.713  0.5275  1.6969  0.9743
 2300SOL     OW18361   2.935   4.377   4.352  0.0468 -0.4590  0.5506
 2300SOL    HW118362   2.949   4.464   4.388  0.6780 -0.6701  0.8024
 2300SOL    HW218363   2.846   4.396   4.321  0.1203  0.1555  0.7265
 2301SOL     OW18364   4.194   0.287  17.558  0.2730  0.1223  0.2245
 2301SOL    HW118365   4.163   0.341  17.630 -1.3175 -0.8496  0.2562
 2301SOL    HW218366   4.252   0.348  17.511 -0.6049  0.1268 -0.8448
 2302SOL     OW18367   0.045   1.896   5.403 -0.5067 -0.3458 -0.0070
 2302SOL    HW118368   4.684   1.887   5.364 -0.2761 -1.7200 -0.2142
 2302SOL    HW218369   0.033   1.990   5.416  3.5776  0.3047 -1.0002
 2303SOL     OW18370   1.984   1.802  15.993 -0.7909 -0.4454 -0.7266
 2303SOL    HW118371   1.954   1.723  15.950 -1.7923 -0.0136 -0.8166
 2303SOL    HW218372   1.975   1.870  15.925 -0.5546 -1.2631 -1.5739
 2304SOL     OW18373   2.685   3.117   7.071  0.1773  0.3177  0.8101
 2304SOL    HW118374   2.697   3.053   7.000 -0.4826 -0.1552  1.1237
 2304SOL    HW218375   2.702   3.203   7.032 -0.8119  0.2129  0.1415
 2305SOL     OW18376   3.206   1.445   8.447  0.1785  0.2796  0.2744
 2305SOL    HW118377   3.147   1.519   8.464  1.2374  1.1885  0.0033
 2305SOL    HW218378   3.149   1.373   8.475  1.4481 -0.5270  0.7749
 2306SOL     OW18379   3.517   3.036  12.120  0.2765  0.7201 -0.4807
 2306SOL    HW118380   3.501   3.034  12.025  0.6003  0.1980 -0.5241
 2306SOL    HW218381   3.457   3.106  12.144 -0.2104  0.6845 -1.5779
 2307SOL     OW18382   0.748   1.882   7.096 -0.3138  0.4883 -0.2964
 2307SOL    HW118383   0.698   1.964   7.096 -1.0072  0.0604  0.9937
 2307SOL    HW218384   0.706   1.840   7.171  1.1876  2.1080  1.4536
 2308SOL     OW18385   0.890   1.327  11.285  0.4623  0.3051  0.0403
 2308SOL    HW118386   0.823   1.395  11.292  0.4359  0.3209 -0.3548
 2308SOL    HW218387   0.862   1.256  11.342 -0.6517 -0.2824 -1.2417
 2309SOL     OW18388   1.485   4.258   8.158  0.3733 -0.0548  0.1640
 2309SOL    HW118389   1.445   4.265   8.245  0.7068  1.0424  0.2290
 2309SOL    HW218390   1.476   4.164   8.140 -1.3489  0.3671 -1.2064
 2310SOL     OW18391   3.143   2.152  13.943 -0.5281 -0.0191 -0.0475
 2310SOL    HW118392   3.057   2.189  13.961  0.0799  1.3599  0.0234
 2310SOL    HW218393   3.205   2.209  13.988  0.4806  1.0430 -2.7589
 2311SOL     OW18394   1.533   2.435  15.938  0.1781 -0.3318  0.7984
 2311SOL    HW118395   1.622   2.470  15.933 -0.1008  0.2258 -0.4436
 2311SOL    HW218396   1.518   2.376  15.865 -0.6806  0.0291  0.6819
 2312SOL     OW18397   0.329   3.594   4.704  0.3460 -0.1047 -0.3629
 2312SOL    HW118398   0.356   3.502   4.710  1.0607  0.2197  1.5123
 2312SOL    HW218399   0.279   3.615   4.783  1.1968  1.0078 -0.1175
 2313SOL     OW18400   3.941   3.480   6.846  0.3860  0.1952 -0.0115
 2313SOL    HW118401   3.994   3.406   6.817 -2.3458 -1.0389 -1.9302
 2313SOL    HW218402   3.894   3.427   6.910  1.1343  0.5062  0.7839
 2314SOL     OW18403   1.249   4.352   1.075 -0.1705  0.2589  0.0030
 2314SOL    HW118404   1.299   4.278   1.041  1.2623  0.8417  0.8663
 2314SOL    HW218405   1.266   4.354   1.169  1.2551  0.6916 -0.2633
 2315SOL     OW18406   1.991   4.468   2.795  0.0080  0.2087  0.0696
 2315SOL    HW118407   1.925   4.534   2.772 -1.7562 -1.8296 -0.7451
 2315SOL    HW218408   2.066   4.513   2.755 -0.3404  0.3565 -0.4252
 2316SOL     OW18409   3.176   0.116   6.242  0.1704 -0.2047 -1.8060
 2316SOL    HW118410   3.235   0.098   6.315  1.9161 -0.4005 -3.2486
 2316SOL    HW218411   3.209   0.203   6.222  2.1689 -0.4592  0.3858
 2317SOL     OW18412   4.247   4.240   0.459 -0.0564 -0.6149  0.1783
 2317SOL    HW118413   4.260   4.299   0.533  0.5957  0.8431 -1.0962
 2317SOL    HW218414   4.296   4.163   0.489 -0.1448 -1.6074 -2.2583
 2318SOL     OW18415   0.254   2.858   9.122  0.4094  0.4089  0.4595
 2318SOL    HW118416   0.259   2.872   9.217  0.2440 -0.4769  0.6045
 2318SOL    HW218417   0.174   2.804   9.118  1.4736 -1.2396  1.2104
 2319SOL     OW18418   1.513   3.253  17.227 -0.0335 -0.0754  0.0494
 2319SOL    HW118419   1.446   3.189  17.249 -0.8562 -0.1271 -2.6436
 2319SOL    HW218420   1.518   3.297  17.312 -0.8096 -0.7134  0.4294
 2320SOL     OW18421   2.427   3.562  15.338  0.6118 -0.4599  0.0132
 2320SOL    HW118422   2.347   3.538  15.293 -0.0427  0.1844  0.8405
 2320SOL    HW218423   2.486   3.486  15.334  0.4565 -0.5327 -0.7155
 2321SOL     OW18424   3.794   1.231   0.137 -0.0488 -0.1790 -0.3247
 2321SOL    HW118425   3.832   1.263   0.056 -1.2650  2.6700  0.2371
 2321SOL    HW218426   3.721   1.176   0.108  0.4953 -0.7352 -0.6346
 2322SOL     OW18427   0.792   1.262   3.101  0.2911  0.1311  0.2125
 2322SOL    HW118428   0.751   1.347   3.083 -0.4687 -0.1342  0.7124
 2322SOL    HW218429   0.865   1.270   3.038  0.1059  1.6243  0.1700
 2323SOL     OW18430   3.696   0.498  10.076 -0.1644  0.2129 -0.0810
 2323SOL    HW118431   3.760   0.494  10.004  0.4529  0.6060  0.4439
 2323SOL    HW218432   3.620   0.498  10.018  0.2994  1.4980 -0.6878
 2324SOL     OW18433   1.432   2.133   2.276  0.9043  0.3850  1.2290
 2324SOL    HW118434   1.437   2.045   2.238  0.2536  0.9210 -0.1278
 2324SOL    HW218435   1.516   2.170   2.249 -0.0774  1.3176 -0.5732
 2325SOL     OW18436   1.744   4.671   4.080  0.4109  0.2506 -0.1010
 2325SOL    HW118437   1.752   0.038   4.105 -1.0752 -0.4995  3.1725
 2325SOL    HW218438   1.721   4.675   3.987 -1.5093  0.2129  0.3736
 2326SOL     OW18439   3.726   1.089  15.438 -0.0368 -0.0648  0.7963
 2326SOL    HW118440   3.756   1.061  15.351  1.4850 -1.5944  1.7932
 2326SOL    HW218441   3.808   1.126  15.471  1.7558 -1.3907 -2.1406
 2327SOL     OW18442   0.454   1.271  13.021 -0.5782  0.0818 -0.1129
 2327SOL    HW118443   0.416   1.247  12.937 -0.5311  1.6059 -0.5610
 2327SOL    HW218444   0.538   1.302  12.989 -0.1981 -0.4317  0.3824
 2328SOL     OW18445   0.421   4.609   3.805  0.3272  0.7310 -0.6953
 2328SOL    HW118446   0.395   4.517   3.803  1.7991  0.3369 -1.9586
 2328SOL    HW218447   0.459   4.601   3.893  1.1890  1.2374 -1.0313
 2329SOL     OW18448   1.921   3.627  16.864  0.0330 -0.1424  0.5196
 2329SOL    HW118449   2.014   3.644  16.848 -0.6456  0.8815 -2.3432
 2329SOL    HW218450   1.915   3.540  16.904 -0.6632 -0.2708  0.1485
 2330SOL     OW18451   4.665   2.777   8.475  0.2437 -0.0240  0.0598
 2330SOL    HW118452   0.003   2.813   8.537  1.7457  0.5656 -1.8521
 2330SOL    HW218453   4.619   2.856   8.446  0.6938  0.5263  0.8463
 2331SOL     OW18454   0.272   1.371   4.295 -0.0313 -0.0082 -0.4260
 2331SOL    HW118455   0.221   1.451   4.309 -0.1661 -0.0270 -0.8138
 2331SOL    HW218456   0.362   1.384   4.322  0.2135 -0.5788 -0.9637
 2332SOL     OW18457   2.741   1.705   7.154 -0.5917 -0.1922  0.4926
 2332SOL    HW118458   2.753   1.795   7.125  2.9132 -0.1753  1.9927
 2332SOL    HW218459   2.727   1.665   7.068  1.2565  1.0240 -0.3618
 2333SOL     OW18460   4.039   3.919   4.567 -0.9162 -0.2769  0.7308
 2333SOL    HW118461   4.084   4.003   4.558  0.3410 -1.1094 -0.5707
 2333SOL    HW218462   4.014   3.904   4.476 -0.4409 -1.1538  0.7438
 2334SOL     OW18463   1.349   0.054   6.372 -0.0826 -0.4614  0.1218
 2334SOL    HW118464   1.393   0.080   6.291 -1.6897  3.1563  0.4077
 2334SOL    HW218465   1.265   0.023   6.338 -0.8575  2.0432 -0.2660
 2335SOL     OW18466   0.283   2.416   7.770 -0.8712  0.3357  0.8564
 2335SOL    HW118467   0.291   2.476   7.844  0.4225  0.9764  0.2000
 2335SOL    HW218468   0.198   2.381   7.795 -0.3119 -1.6413  0.0557
 2336SOL     OW18469   4.698   2.685  13.751  0.3997 -0.2707 -0.0381
 2336SOL    HW118470   4.644   2.739  13.810 -0.9136 -0.5516 -0.9790
 2336SOL    HW218471   0.034   2.753  13.727  0.5810 -0.0095  1.1466
 2337SOL     OW18472   2.430   4.131  13.489  0.0459  0.2022 -0.0486
 2337SOL    HW118473   2.366   4.078  13.537  0.0344  1.7286  1.5841
 2337SOL    HW218474   2.466   4.185  13.558  0.2176 -1.9069  1.5038
 2338SOL     OW18475   0.445   4.515   2.863 -0.5462 -0.4453 -0.1429
 2338SOL    HW118476   0.404   4.602   2.867  2.9211  1.0611  3.1153
 2338SOL    HW218477   0.405   4.480   2.784 -2.1931 -1.5921  1.1966
 2339SOL     OW18478   1.206   3.663  10.300 -0.6275  0.3196  0.1985
 2339SOL    HW118479   1.201   3.574  10.334 -0.0614  0.3746  0.4255
 2339SOL    HW218480   1.207   3.651  10.205  2.6529  0.2097  0.2564
 2340SOL     OW18481   3.828   4.013   5.730  0.1949  0.5693  0.5443
 2340SOL    HW118482   3.874   4.094   5.751 -1.6292  1.7805 -0.1855
 2340SOL    HW218483   3.847   4.009   5.636  2.2840  0.6785  0.9533
 2341SOL     OW18484   1.939   2.709  17.246  0.1100  0.5361  0.1999
 2341SOL    HW118485   1.942   2.746  17.335 -0.5496  1.8884 -0.3441
 2341SOL    HW218486   1.864   2.651  17.261  1.1041 -0.2062  2.4284
 2342SOL     OW18487   0.858   0.711   3.510  1.0357 -0.4808  0.3304
 2342SOL    HW118488   0.870   0.710   3.415  0.8898  0.9268  0.2969
 2342SOL    HW218489   0.778   0.764   3.503  0.0502 -1.9742  0.4179
 2343SOL     OW18490   0.517   2.270   0.680 -0.5001  0.1244  0.1085
 2343SOL    HW118491   0.474   2.300   0.760  1.7891  0.5497  1.2071
 2343SOL    HW218492   0.559   2.189   0.710 -1.0875 -0.7732 -1.5394
 2344SOL     OW18493   2.858   0.161   8.356  0.0550 -0.0845  0.3443
 2344SOL    HW118494   2.818   0.243   8.329  0.3725  0.1921  0.7242
 2344SOL    HW218495   2.875   0.182   8.448 -1.2012  1.9819  0.0967
 2345SOL     OW18496   0.399   0.738   6.328 -0.4025 -0.3187 -0.0589
 2345SOL    HW118497   0.357   0.766   6.409 -0.7472 -1.5997  0.2132
 2345SOL    HW218498   0.369   0.647   6.326 -1.1339 -0.1311  2.0396
 2346SOL     OW18499   4.444   1.565   3.995  0.3854  0.4699 -0.2479
 2346SOL    HW118500   4.536   1.539   3.995  0.7017  1.5402 -2.7912
 2346SOL    HW218501   4.434   1.589   4.087 -1.7749  0.7634 -0.5766
 2347SOL     OW18502   3.425   0.115   4.621 -0.3824  0.2507 -0.1250
 2347SOL    HW118503   3.446   0.038   4.674 -0.0466  2.0626  2.3952
 2347SOL    HW218504   3.353   0.080   4.568  2.6921 -0.3813 -3.8705
 2348SOL     OW18505   0.934   1.816   6.408 -0.2934  0.4277  0.3035
 2348SOL    HW118506   0.980   1.889   6.449  0.2288 -0.4001  1.2157
 2348SOL    HW218507   0.916   1.847   6.320  0.5136 -0.7808 -0.2915
 2349SOL     OW18508   0.754   0.386  10.717 -0.1797  0.1826 -0.0327
 2349SOL    HW118509   0.845   0.413  10.729 -0.4517  0.4595  1.4307
 2349SOL    HW218510   0.714   0.405  10.802  0.6574  1.0636  0.1646
 2350SOL     OW18511   2.029   1.104   9.346  0.1888 -0.4899  0.0290
 2350SOL    HW118512   2.075   1.141   9.421 -1.3586 -2.5473  1.9915
 2350SOL    HW218513   1.940   1.098   9.382  1.2163 -1.6424  2.3455
 2351SOL     OW18514   3.485   0.573   8.091  0.2077  0.0448 -0.4629
 2351SOL    HW118515   3.449   0.633   8.156  4.0935  0.5403  1.2608
 2351SOL    HW218516   3.533   0.514   8.150 -1.0321  0.2901  0.7881
 2352SOL     OW18517   1.876   1.394   6.009 -0.1600 -0.0803 -0.4678
 2352SOL    HW118518   1.840   1.388   5.921  0.9530  1.0464 -0.9941
 2352SOL    HW218519   1.939   1.322   6.018  1.2641  1.3856  1.2257
 2353SOL     OW18520   0.156   1.537   6.664  0.1924 -0.1720 -0.0014
 2353SOL    HW118521   0.248   1.516   6.649  0.9644  3.4098 -0.2884
 2353SOL    HW218522   0.137   1.601   6.596  0.5620  1.6114  1.5449
 2354SOL     OW18523   2.186   0.123   4.596  0.0195 -0.3583 -0.6306
 2354SOL    HW118524   2.260   0.104   4.538  0.0962 -1.8926 -0.0297
 2354SOL    HW218525   2.127   0.155   4.528  1.3997  0.1735 -1.5833
 2355SOL     OW18526   1.299   0.670  11.911 -0.0570  0.0021 -0.3574
 2355SOL    HW118527   1.323   0.626  11.829  0.4470  2.4821 -1.5335
 2355SOL    HW218528   1.355   0.615  11.966  0.5027  1.2152  0.2728
 2356SOL     OW18529   0.901   4.553   4.416 -0.3352 -0.8809  0.5704
 2356SOL    HW118530   0.932   4.568   4.506 -2.5534 -1.4251  1.4317
 2356SOL    HW218531   0.857   4.469   4.428 -0.5275 -0.7555  0.7477
 2357SOL     OW18532   0.768   2.217   3.877  0.1504  0.7085  0.4002
 2357SOL    HW118533   0.730   2.247   3.795 -1.5620  0.8338  1.2377
 2357SOL    HW218534   0.835   2.153   3.852 -2.7378 -1.5675 -1.4824
 2358SOL     OW18535   3.174   4.132   2.002  0.5716  0.4796 -0.0064
 2358SOL    HW118536   3.094   4.157   2.048  0.9172 -0.4047  1.0960
 2358SOL    HW218537   3.163   4.133   1.907  0.7297  2.8362 -0.0071
 2359SOL     OW18538   3.783   4.610   9.690  0.0017 -0.4820  0.4841
 2359SOL    HW118539   3.857   4.550   9.691  0.2503 -0.1541  1.5550
 2359SOL    HW218540   3.799   4.664   9.768 -0.4827  2.4172 -1.4393
 2360SOL     OW18541   2.834   4.141   2.070 -0.5528 -0.1196  0.2031
 2360SOL    HW118542   2.741   4.121   2.061 -0.6477  0.3567  0.1233
 2360SOL    HW218543   2.874   4.060   2.038  0.7404  0.3947  0.5132
 2361SOL     OW18544   0.975   1.445   2.550  0.5522 -0.0421 -0.5235
 2361SOL    HW118545   0.964   1.534   2.583 -0.3839 -0.2110 -0.3794
 2361SOL    HW218546   0.940   1.398   2.626  0.0835  0.2716 -0.5444
 2362SOL     OW18547   0.290   3.474   9.201  0.1289 -0.0367 -0.2926
 2362SOL    HW118548   0.362   3.411   9.209  0.3846  0.3453  0.3940
 2362SOL    HW218549   0.244   3.465   9.284 -1.5042 -0.7345 -1.2807
 2363SOL     OW18550   2.917   2.983  14.198  0.1930  0.1600 -0.3645
 2363SOL    HW118551   2.894   3.013  14.285 -2.9099 -0.3408 -1.0158
 2363SOL    HW218552   2.836   2.939  14.171  0.1502  0.5493 -0.8856
 2364SOL     OW18553   0.757   1.728  11.617  0.5479 -0.1144 -0.4275
 2364SOL    HW118554   0.847   1.760  11.620  0.4943 -0.0612  0.8521
 2364SOL    HW218555   0.759   1.635  11.638  0.3649 -0.1623 -0.6288
 2365SOL     OW18556   3.234   2.982   3.468 -0.4622  0.2211  0.0554
 2365SOL    HW118557   3.322   2.960   3.438 -1.1339  0.1504 -1.8359
 2365SOL    HW218558   3.216   2.895   3.504 -0.3760 -0.1387 -0.7663
 2366SOL     OW18559   0.770   0.008   6.672 -1.1529 -0.0539  0.3781
 2366SOL    HW118560   0.717   4.691   6.605 -0.3596 -0.1571 -0.1880
 2366SOL    HW218561   0.810   0.077   6.620 -2.4189  1.4535  1.4122
 2367SOL     OW18562   3.419   2.167   9.863 -0.1391 -0.2520  0.3038
 2367SOL    HW118563   3.355   2.096   9.860  0.7250 -0.9620 -1.5387
 2367SOL    HW218564   3.422   2.185   9.957  1.5855  2.3545 -0.2412
 2368SOL     OW18565   3.114   0.333   1.242 -0.3577  0.9291  0.0173
 2368SOL    HW118566   3.108   0.426   1.262  2.4770  1.6923 -2.5670
 2368SOL    HW218567   3.029   0.301   1.212 -0.5914 -0.0840  1.7583
 2369SOL     OW18568   1.581   1.521   1.099 -0.2000  0.0355  0.1834
 2369SOL    HW118569   1.512   1.459   1.123 -0.8914  0.3452 -0.9644
 2369SOL    HW218570   1.623   1.488   1.019  0.1114  0.0290  0.3508
 2370SOL     OW18571   2.804   4.022  15.739  0.2100  0.0329  0.2036
 2370SOL    HW118572   2.859   3.978  15.675 -1.2583 -0.7636 -0.4964
 2370SOL    HW218573   2.830   4.113  15.723 -1.9684  0.7092  0.5291
 2371SOL     OW18574   0.515   0.709   7.073  0.7878  0.4647  0.1128
 2371SOL    HW118575   0.534   0.802   7.075  0.1214  0.6198 -0.6137
 2371SOL    HW218576   0.502   0.691   6.980 -3.1747 -0.9936  0.9512
 2372SOL     OW18577   1.607   0.834   3.838 -0.1371 -0.2536  0.3806
 2372SOL    HW118578   1.634   0.888   3.912  2.2979  2.1102 -2.2133
 2372SOL    HW218579   1.676   0.845   3.773 -2.4993 -1.4857 -2.3620
 2373SOL     OW18580   1.876   3.047   2.406 -0.1666  0.4289 -0.8703
 2373SOL    HW118581   1.831   3.007   2.480  2.5603 -1.8872 -0.5063
 2373SOL    HW218582   1.815   3.030   2.334 -3.0119 -1.0479  1.8903
 2374SOL     OW18583   3.184   3.647  10.920 -0.0553 -0.3599  0.1632
 2374SOL    HW118584   3.166   3.591  10.845  2.0817  0.5716 -1.0400
 2374SOL    HW218585   3.147   3.594  10.991 -1.9909  0.4859 -0.2052
 2375SOL     OW18586   2.884   0.331   8.844 -0.2801  0.1623 -0.2066
 2375SOL    HW118587   2.870   0.247   8.886  2.3974 -0.2959 -0.2096
 2375SOL    HW218588   2.949   0.367   8.905 -0.9419 -2.1199  1.7934
 2376SOL     OW18589   4.260   1.058   9.247  0.9061  0.0898  0.2509
 2376SOL    HW118590   4.206   1.124   9.203  0.8529  0.1637  0.4244
 2376SOL    HW218591   4.203   0.982   9.235  0.4542  0.5054 -0.2187
 2377SOL     OW18592   2.753   2.460   7.784 -0.0835 -0.2729 -0.1243
 2377SOL    HW118593   2.679   2.470   7.725 -1.4840 -0.9542  1.5146
 2377SOL    HW218594   2.717   2.434   7.869 -1.6268  2.4435  0.0505
 2378SOL     OW18595   1.750   1.177  17.556  0.1409 -0.2953 -0.3985
 2378SOL    HW118596   1.728   1.207  17.645  0.1298 -0.2208 -0.4260
 2378SOL    HW218597   1.826   1.122  17.576  0.3008  0.2586  0.5358
 2379SOL     OW18598   2.556   2.589   6.603 -0.3797 -0.0957  0.1319
 2379SOL    HW118599   2.631   2.627   6.557  0.3474  0.8158  2.0507
 2379SOL    HW218600   2.591   2.518   6.657 -0.6989 -1.7504 -1.8352
 2380SOL     OW18601   2.382   3.251   5.215 -0.0094 -0.0974  0.1915
 2380SOL    HW118602   2.433   3.242   5.134 -0.2053 -0.6397  0.1278
 2380SOL    HW218603   2.448   3.240   5.284  0.6180  2.2081 -0.0221
 2381SOL     OW18604   1.262   1.035  10.201  0.3221 -0.5272  0.1287
 2381SOL    HW118605   1.320   0.976  10.152  2.7069  0.1431  2.1274
 2381SOL    HW218606   1.272   1.000  10.290  0.2663 -0.1393  0.2867
 2382SOL     OW18607   3.756   1.827   9.193 -0.1376 -0.4286 -0.0561
 2382SOL    HW118608   3.685   1.794   9.248 -1.0191  0.6059 -0.5518
 2382SOL    HW218609   3.836   1.816   9.243 -0.2754  1.6443  0.6236
 2383SOL     OW18610   3.060   1.461   0.956 -0.5162 -0.3096  0.3547
 2383SOL    HW118611   3.040   1.519   1.029  3.3932  1.9893 -0.3989
 2383SOL    HW218612   2.975   1.437   0.919 -1.1713  0.3742  1.4355
 2384SOL     OW18613   1.689   4.630   7.843 -0.4822  0.0621  0.1418
 2384SOL    HW118614   1.641   4.557   7.881 -3.8026  2.5773  0.7873
 2384SOL    HW218615   1.639   4.709   7.862 -0.6655 -0.3619  1.3779
 2385SOL     OW18616   4.455   2.480   6.114  0.3805  0.5904  0.0461
 2385SOL    HW118617   4.420   2.429   6.187  2.7372 -0.8005  0.1991
 2385SOL    HW218618   4.544   2.496   6.145  1.5806 -1.1680 -2.5261
 2386SOL     OW18619   1.582   4.430   1.731  0.3390  0.3254  0.3062
 2386SOL    HW118620   1.493   4.461   1.744 -0.9154 -2.4168 -1.7112
 2386SOL    HW218621   1.599   4.484   1.654 -0.9469 -0.3346 -0.4390
 2387SOL     OW18622   3.306   4.661   0.750  0.4194  0.2749  0.1091
 2387SOL    HW118623   3.296   4.568   0.770  0.7608  0.1134 -0.4611
 2387SOL    HW218624   3.333   4.645   0.660  0.3646  1.3361 -0.0972
 2388SOL     OW18625   4.027   3.705   2.474  0.5474  0.4854 -1.2469
 2388SOL    HW118626   3.944   3.661   2.490  0.1625  1.1122 -1.5408
 2388SOL    HW218627   4.042   3.759   2.552 -1.1123  0.2496 -0.7678
 2389SOL     OW18628   3.012   0.209   8.588 -1.0271  0.7010  0.6008
 2389SOL    HW118629   3.001   0.151   8.663 -2.8643  0.5889  0.2577
 2389SOL    HW218630   2.969   0.288   8.620 -2.3221 -0.2236  1.1555
 2390SOL     OW18631   0.322   3.426   5.638  0.3172  0.0965 -0.0950
 2390SOL    HW118632   0.279   3.370   5.572 -0.6628  2.0882 -1.1336
 2390SOL    HW218633   0.413   3.406   5.616  0.5333  2.2238 -1.1812
 2391SOL     OW18634   1.065   3.318   2.497  0.0419  0.0999  0.3285
 2391SOL    HW118635   1.017   3.375   2.557 -1.7970  0.4367 -1.4710
 2391SOL    HW218636   1.152   3.333   2.536 -0.1088  1.0932  0.2825
 2392SOL     OW18637   2.962   2.088  10.740 -0.2842 -0.1414  0.2844
 2392SOL    HW118638   2.935   2.102  10.831 -1.4577 -1.3437  0.1123
 2392SOL    HW218639   2.964   2.179  10.709 -0.7183  0.7755  2.9592
 2393SOL     OW18640   4.667   0.667   2.977  0.9166 -0.0337 -0.2068
 2393SOL    HW118641   4.595   0.719   3.013  0.7405  0.0475 -0.6814
 2393SOL    HW218642   4.687   0.711   2.894  0.1474  1.1948  0.2688
 2394SOL     OW18643   4.111   2.697   8.670 -0.2786 -0.1504 -0.7072
 2394SOL    HW118644   4.152   2.700   8.584  0.4842  0.1154 -0.3404
 2394SOL    HW218645   4.025   2.670   8.638 -2.2552  4.1064  0.9562
 2395SOL     OW18646   4.147   4.675   8.204 -0.3898 -0.4623  0.3054
 2395SOL    HW118647   4.141   4.580   8.202  1.2582 -0.5546 -0.0641
 2395SOL    HW218648   4.059   4.711   8.197 -1.2361 -2.7879 -0.7635
 2396SOL     OW18649   4.390   1.673   0.331  0.1672  0.0498 -0.8926
 2396SOL    HW118650   4.423   1.748   0.281  2.5658  0.1377  0.7892
 2396SOL    HW218651   4.391   1.714   0.418  0.4135 -0.1410 -0.8058
 2397SOL     OW18652   1.868   1.396  14.526  0.5549  0.0312 -0.0012
 2397SOL    HW118653   1.915   1.479  14.534 -0.8953  0.8212  0.3041
 2397SOL    HW218654   1.936   1.332  14.505  0.0117 -0.6575  0.3527
 2398SOL     OW18655   3.557   0.765   6.463  0.0163  0.4394 -0.0761
 2398SOL    HW118656   3.543   0.859   6.467 -2.3070  0.0182  1.6046
 2398SOL    HW218657   3.632   0.748   6.520 -0.8632 -1.7338  0.4501
 2399SOL     OW18658   4.693   1.294   7.690  0.2001 -0.5796  0.0510
 2399SOL    HW118659   4.597   1.296   7.692  0.1529  1.1636 -3.3256
 2399SOL    HW218660   4.696   1.207   7.650  2.3072 -0.6133  0.2842
 2400SOL     OW18661   3.259   4.526   8.071  0.1743 -0.4563 -0.0711
 2400SOL    HW118662   3.195   4.477   8.123  0.5031  0.4550  1.2011
 2400SOL    HW218663   3.253   4.614   8.109  0.7909 -1.1042  1.5462
 2401SOL     OW18664   2.835   2.163   7.108 -0.1252 -0.0885 -0.2185
 2401SOL    HW118665   2.745   2.157   7.140  0.1146  0.7756  0.6209
 2401SOL    HW218666   2.839   2.094   7.041 -2.6702 -1.2983  0.8663
 2402SOL     OW18667   2.289   0.628  11.527  0.0089 -0.0531 -0.0594
 2402SOL    HW118668   2.205   0.588  11.507  0.6981 -1.2444 -0.5520
 2402SOL    HW218669   2.340   0.565  11.476 -1.1200 -0.6404 -0.4661
 2403SOL     OW18670   4.500   3.996   3.719  0.5057  0.9775 -0.0627
 2403SOL    HW118671   4.571   4.003   3.783  1.1396  0.6676 -0.7246
 2403SOL    HW218672   4.466   4.086   3.720 -0.1816  0.7188 -0.6395
 2404SOL     OW18673   2.309   1.596   2.239 -0.2896  0.1685  0.1754
 2404SOL    HW118674   2.321   1.689   2.256  1.3424 -0.5327  2.8036
 2404SOL    HW218675   2.242   1.594   2.171  0.8933  1.3268 -1.0189
 2405SOL     OW18676   1.466   1.099  10.898 -0.5794 -0.0907  0.1968
 2405SOL    HW118677   1.503   1.147  10.824 -0.4192 -0.1561  0.2323
 2405SOL    HW218678   1.420   1.169  10.943 -1.1614  0.1158 -0.7249
 2406SOL     OW18679   0.378   2.949   9.373  0.0606 -0.1215  0.2852
 2406SOL    HW118680   0.373   2.900   9.454 -0.8706 -1.6118 -0.6834
 2406SOL    HW218681   0.473   2.959   9.367  0.1465 -0.9067  0.4274
 2407SOL     OW18682   4.448   0.388   2.909  0.6564  0.3471  0.4150
 2407SOL    HW118683   4.392   0.418   2.837 -1.2436 -1.7122  1.0296
 2407SOL    HW218684   4.537   0.401   2.875 -0.0055  0.5225 -1.2305
 2408SOL     OW18685   1.434   2.881   8.563 -0.0955 -0.3548 -0.1866
 2408SOL    HW118686   1.511   2.887   8.506  0.2069 -1.1647  0.1400
 2408SOL    HW218687   1.401   2.967   8.540 -1.8986 -0.4607  2.0085
 2409SOL     OW18688   2.970   3.750   5.146 -0.4839  0.3191 -0.6820
 2409SOL    HW118689   3.043   3.765   5.205 -3.6272 -0.7336  3.4368
 2409SOL    HW218690   2.924   3.680   5.192 -0.4373 -0.2723 -1.5422
 2410SOL     OW18691   1.979   2.069   8.980 -0.2401 -0.0066  0.0822
 2410SOL    HW118692   2.003   1.978   8.961 -1.0589 -0.3384  0.6687
 2410SOL    HW218693   1.984   2.075   9.075 -4.8188  0.5987  0.2840
 2411SOL     OW18694   3.306   3.419   9.095 -0.0978  0.7098 -0.5118
 2411SOL    HW118695   3.278   3.447   9.008 -0.2694  2.1984  0.0220
 2411SOL    HW218696   3.240   3.464   9.148 -0.5732 -1.7824  1.0582
 2412SOL     OW18697   0.549   1.204   8.269 -0.1172 -0.9114 -0.6084
 2412SOL    HW118698   0.486   1.218   8.340 -0.9647 -1.3995 -1.2638
 2412SOL    HW218699   0.624   1.168   8.317 -0.0956 -1.6933 -1.2286
 2413SOL     OW18700   3.198   4.232  14.746 -0.2257 -0.6233 -0.3778
 2413SOL    HW118701   3.245   4.210  14.666  0.0032 -0.0352 -0.4057
 2413SOL    HW218702   3.210   4.326  14.733  1.3955 -0.7353  0.2242
 2414SOL     OW18703   0.909   1.028   8.792 -0.1077  0.0964  0.0718
 2414SOL    HW118704   0.950   1.088   8.731 -1.2806 -0.4588 -1.2612
 2414SOL    HW218705   0.888   1.083   8.867  0.5890  0.6778 -0.1635
 2415SOL     OW18706   0.580   2.119   4.783  0.6486  0.1565 -0.4650
 2415SOL    HW118707   0.492   2.137   4.749 -0.3715 -0.1491  2.0022
 2415SOL    HW218708   0.628   2.191   4.743  2.0779  0.3243  1.5469
 2416SOL     OW18709   3.009   3.421  15.664  0.3102  0.1407  0.3792
 2416SOL    HW118710   2.947   3.360  15.704 -1.2338  1.2229 -0.3850
 2416SOL    HW218711   3.082   3.364  15.640  1.1286  1.2667  0.1997
 2417SOL     OW18712   3.794   3.200   6.252  0.2366 -0.1203  0.3125
 2417SOL    HW118713   3.845   3.278   6.276 -0.4281 -0.3256  2.3911
 2417SOL    HW218714   3.860   3.145   6.210  0.4622 -0.1041  0.6506
 2418SOL     OW18715   1.275   0.312  12.660  0.1082 -0.0896 -0.1400
 2418SOL    HW118716   1.261   0.405  12.677  1.3450 -0.1689  1.3092
 2418SOL    HW218717   1.369   0.314  12.638 -0.1730 -0.0522 -1.3271
 2419SOL     OW18718   0.385   2.141   3.618 -0.9479 -0.5131  0.1049
 2419SOL    HW118719   0.391   2.225   3.664 -0.2643 -0.7551  0.4644
 2419SOL    HW218720   0.476   2.112   3.629 -0.8540 -1.0972 -2.3079
 2420SOL     OW18721   0.847   3.888  14.085 -0.1970  1.2177  0.5612
 2420SOL    HW118722   0.845   3.903  14.179  4.2256  1.4393  0.6498
 2420SOL    HW218723   0.933   3.929  14.072  0.3234 -0.2501 -0.6991
 2421SOL     OW18724   0.415   4.152   1.227  0.8369  0.6452  0.8360
 2421SOL    HW118725   0.432   4.122   1.138  1.5091  0.0393  1.1581
 2421SOL    HW218726   0.334   4.202   1.220  1.4740  1.1601 -2.8980
 2422SOL     OW18727   3.920   0.620   4.582  0.3952  0.3226 -0.0056
 2422SOL    HW118728   3.941   0.635   4.675  1.1680  0.9808 -0.2828
 2422SOL    HW218729   3.912   0.524   4.581 -1.6521  0.4844  1.8283
 2423SOL     OW18730   3.862   2.785   6.374 -0.0421 -0.1847 -0.2715
 2423SOL    HW118731   3.781   2.743   6.406 -0.2732 -0.4733 -1.2209
 2423SOL    HW218732   3.848   2.758   6.283  0.1387 -1.7147  0.1569
 2424SOL     OW18733   1.706   4.339   5.468 -1.3065 -0.0490 -0.5390
 2424SOL    HW118734   1.722   4.339   5.374 -0.9676 -1.1301 -0.4804
 2424SOL    HW218735   1.630   4.397   5.473 -0.8940  0.4428  0.0466
 2425SOL     OW18736   0.872   1.193   6.331 -0.5646 -0.4239  0.0808
 2425SOL    HW118737   0.791   1.142   6.326 -1.7627  1.7021 -1.7988
 2425SOL    HW218738   0.918   1.178   6.248 -1.2539  1.3768 -0.6220
 2426SOL     OW18739   3.421   3.818   4.862 -0.1530 -0.5199 -0.0168
 2426SOL    HW118740   3.464   3.842   4.780 -0.6790  0.6326  0.0478
 2426SOL    HW218741   3.329   3.837   4.844 -0.1619  0.7410  1.3685
 2427SOL     OW18742   2.955   2.942  10.100 -0.3140 -0.0251 -0.7908
 2427SOL    HW118743   2.871   2.984  10.120 -1.2321 -1.7716 -0.9634
 2427SOL    HW218744   2.948   2.972  10.010 -0.6275  1.3112 -0.3130
 2428SOL     OW18745   1.527   3.257   3.072  0.2128 -0.6849 -0.5129
 2428SOL    HW118746   1.552   3.247   2.980  0.1333  2.0840 -0.8458
 2428SOL    HW218747   1.609   3.247   3.119  0.3343  0.6133 -0.4407
 2429SOL     OW18748   2.424   3.451   7.543  0.4152 -0.6338  0.5911
 2429SOL    HW118749   2.342   3.475   7.499  0.9519  0.6679  0.3117
 2429SOL    HW218750   2.450   3.536   7.578  0.7646 -0.9824  1.1643
 2430SOL     OW18751   2.610   1.737  16.370  0.5514 -0.8106 -0.2827
 2430SOL    HW118752   2.579   1.651  16.341  0.3847  0.0592 -2.6530
 2430SOL    HW218753   2.607   1.782  16.286  2.3235  1.8699  1.0715
 2431SOL     OW18754   2.427   4.390   0.026  0.7570  0.2644 -0.5765
 2431SOL    HW118755   2.441   4.347  17.646 -0.3790 -0.2140 -0.5229
 2431SOL    HW218756   2.503   4.355   0.072 -0.5768 -2.3364 -0.3319
 2432SOL     OW18757   4.503   2.534   0.779 -0.2991  0.4282 -0.0464
 2432SOL    HW118758   4.556   2.605   0.816 -0.1782 -0.2248  1.0074
 2432SOL    HW218759   4.417   2.577   0.772 -0.9595 -0.6301  1.6518
 2433SOL     OW18760   1.999   0.747   8.515  0.0687 -0.1942  0.1825
 2433SOL    HW118761   1.905   0.761   8.526 -0.2282 -1.4502 -0.7565
 2433SOL    HW218762   2.009   0.682   8.584 -2.8117  1.2751  1.9558
 2434SOL     OW18763   4.222   1.348   7.153  0.0929  0.6306 -0.0398
 2434SOL    HW118764   4.168   1.344   7.075 -2.8083 -2.3188  2.1452
 2434SOL    HW218765   4.191   1.296   7.227 -0.6917  0.9310 -0.1636
 2435SOL     OW18766   4.023   2.561   4.880  0.7593  0.1301 -0.2463
 2435SOL    HW118767   4.051   2.471   4.897  0.1916  0.0988  0.4877
 2435SOL    HW218768   4.076   2.586   4.804  0.0101  2.2432 -0.0670
 2436SOL     OW18769   2.018   1.904   3.513 -0.0940  0.1341  0.0330
 2436SOL    HW118770   2.003   1.998   3.524  1.7575  0.3714  0.5113
 2436SOL    HW218771   2.003   1.878   3.604  1.4781 -0.2224  0.1779
 2437SOL     OW18772   0.869   4.418   5.587  0.5669 -0.1720 -0.3214
 2437SOL    HW118773   0.883   4.458   5.673  1.2582  0.1653 -0.5924
 2437SOL    HW218774   0.937   4.463   5.537  1.1093 -2.6568 -1.7792
 2438SOL     OW18775   1.594   1.534  16.959 -0.1638  0.0171  0.0021
 2438SOL    HW118776   1.653   1.469  16.920  0.5587  0.3191  0.5954
 2438SOL    HW218777   1.607   1.601  16.891  1.2819 -1.1255 -0.8394
 2439SOL     OW18778   2.873   1.466   3.488 -0.3719 -0.2115 -0.1019
 2439SOL    HW118779   2.948   1.526   3.489 -1.5071  1.2467 -1.2429
 2439SOL    HW218780   2.801   1.522   3.459 -0.3594  0.3787  1.0398
 2440SOL     OW18781   4.033   4.324  11.418 -0.1999  0.3053 -0.4072
 2440SOL    HW118782   4.128   4.318  11.413 -0.2983 -3.3488  1.9981
 2440SOL    HW218783   4.015   4.282  11.334 -2.9537  0.3709  0.1340
 2441SOL     OW18784   1.414   0.537  11.697  0.8731 -0.4147 -0.2404
 2441SOL    HW118785   1.492   0.541  11.641  0.6988  2.1792 -0.2952
 2441SOL    HW218786   1.366   0.469  11.649 -0.4792 -0.8957  1.8074
 2442SOL     OW18787   0.588   2.751   2.733 -0.2860 -0.5166 -0.0644
 2442SOL    HW118788   0.656   2.686   2.748  1.0498  0.5495 -1.5468
 2442SOL    HW218789   0.647   2.825   2.720 -0.1913 -0.2049  2.1131
 2443SOL     OW18790   2.890   3.145   3.886  0.3503 -0.2755 -0.6912
 2443SOL    HW118791   2.967   3.201   3.899 -0.1514  0.0589  0.8979
 2443SOL    HW218792   2.921   3.079   3.825  1.0446 -0.1599 -0.4604
 2444SOL     OW18793   3.518   0.014   7.080 -0.4717 -0.1551  0.1355
 2444SOL    HW118794   3.472   0.094   7.103 -0.7333 -0.1973 -0.2227
 2444SOL    HW218795   3.445   4.681   7.060 -0.8350  0.9067 -1.6892
 2445SOL     OW18796   1.867   4.563   3.195  0.9998 -0.2861  0.0726
 2445SOL    HW118797   1.832   4.587   3.110 -0.6230  1.1866  1.1425
 2445SOL    HW218798   1.898   4.645   3.233 -0.8390  0.4617 -0.0418
 2446SOL     OW18799   1.047   3.265   6.194 -0.6565  0.1458 -0.1660
 2446SOL    HW118800   1.024   3.242   6.104 -1.2342  2.5780 -0.6310
 2446SOL    HW218801   1.135   3.303   6.186 -0.7922  0.7063  1.0087
 2447SOL     OW18802   2.239   1.532   9.605  0.1768  0.1855  0.0494
 2447SOL    HW118803   2.191   1.466   9.555  0.7777  0.5809 -1.0555
 2447SOL    HW218804   2.318   1.486   9.634 -0.3855  0.6459  2.2429
 2448SOL     OW18805   0.401   2.481   8.847  0.2921  0.1537  0.1855
 2448SOL    HW118806   0.448   2.520   8.921 -1.3231  2.0993  0.2064
 2448SOL    HW218807   0.388   2.390   8.872 -0.0999  0.1504 -0.0208
 2449SOL     OW18808   0.824   3.279  13.826  0.1584  0.4904  0.1184
 2449SOL    HW118809   0.781   3.310  13.905  0.2010  0.4036  0.1756
 2449SOL    HW218810   0.830   3.361  13.778  0.8077 -0.2560 -1.1085
 2450SOL     OW18811   0.577   2.419  11.319  0.0771  0.4297  0.0521
 2450SOL    HW118812   0.586   2.459  11.405 -0.0904  2.3746 -0.8396
 2450SOL    HW218813   0.594   2.496  11.264  0.8143  1.8859  2.3313
 2451SOL     OW18814   1.696   2.840   8.447  0.0030  0.5568 -0.1968
 2451SOL    HW118815   1.783   2.824   8.482 -0.7919 -1.0897  1.0508
 2451SOL    HW218816   1.685   2.783   8.371  0.2115  2.5518 -1.7263
 2452SOL     OW18817   0.549   1.616  11.934  0.1358  0.3571 -0.1544
 2452SOL    HW118818   0.541   1.697  11.884  0.7356  1.2493  1.2028
 2452SOL    HW218819   0.598   1.555  11.879  0.3817 -0.0567  0.5208
 2453SOL     OW18820   3.029   0.096   5.593  0.2350 -0.0032  0.1483
 2453SOL    HW118821   3.050   0.143   5.674  2.4412  0.6830 -0.8264
 2453SOL    HW218822   3.016   0.170   5.534  1.1587  2.0912  2.5857
 2454SOL     OW18823   4.060   1.757  10.906 -0.4437 -0.2270 -0.0532
 2454SOL    HW118824   3.975   1.791  10.876 -1.3922 -0.3932  2.4108
 2454SOL    HW218825   4.047   1.663  10.888 -1.6790  0.3248 -2.1125
 2455SOL     OW18826   2.345   3.216   2.228  0.2840 -0.1997  0.2236
 2455SOL    HW118827   2.360   3.145   2.290  4.2414  0.2411 -0.2430
 2455SOL    HW218828   2.292   3.278   2.278 -0.5603  0.5692 -1.6175
 2456SOL     OW18829   2.690   3.945   5.117 -0.1682 -0.1916 -0.0257
 2456SOL    HW118830   2.739   4.024   5.138  1.2012 -0.4086 -2.3963
 2456SOL    HW218831   2.694   3.902   5.202 -0.4339 -0.4664 -0.1531
 2457SOL     OW18832   2.180   3.933  16.919  0.0977  0.1145  0.1068
 2457SOL    HW118833   2.189   3.872  16.846  0.6821  0.4424 -0.1059
 2457SOL    HW218834   2.171   4.014  16.869 -2.5135  0.3821  1.0111
 2458SOL     OW18835   3.385   1.257   2.577 -0.2905  0.2620 -0.2005
 2458SOL    HW118836   3.416   1.196   2.644 -1.8405  0.8220  1.0090
 2458SOL    HW218837   3.471   1.297   2.561  1.0492 -2.2713  0.6392
 2459SOL     OW18838   1.399   2.417  11.664 -0.1260 -0.3330  0.0900
 2459SOL    HW118839   1.378   2.509  11.648  0.5062 -0.1356  0.3759
 2459SOL    HW218840   1.444   2.428  11.748  3.4291  0.3913 -1.8951
 2460SOL     OW18841   1.622   4.349   8.479 -0.0529 -0.3166 -0.1350
 2460SOL    HW118842   1.709   4.364   8.442  0.0133 -0.9074 -0.2113
 2460SOL    HW218843   1.569   4.338   8.400 -1.0500  0.0721  0.4751
 2461SOL     OW18844   4.621   1.338   2.071  0.2879  0.0323 -0.5413
 2461SOL    HW118845   4.660   1.273   2.013  0.3008  0.3311 -0.8677
 2461SOL    HW218846   4.637   1.419   2.023  0.9319  0.0721 -0.2601
 2462SOL     OW18847   4.059   2.842   6.053 -0.0628 -0.5775 -0.2827
 2462SOL    HW118848   4.149   2.845   6.020  0.0888  0.9593  0.2813
 2462SOL    HW218849   4.010   2.892   5.987  0.1761  0.3650  0.2601
 2463SOL     OW18850   2.430   1.971   2.644 -0.3741 -0.2372 -0.6987
 2463SOL    HW118851   2.347   1.931   2.620 -0.2161  0.8260 -2.9925
 2463SOL    HW218852   2.421   2.056   2.602  1.5978 -1.0324 -2.7019
 2464SOL     OW18853   3.238   0.587   1.263 -0.3976  0.3172 -0.5556
 2464SOL    HW118854   3.284   0.619   1.340 -1.2476  1.9489 -0.7304
 2464SOL    HW218855   3.293   0.514   1.234  1.0203  1.0398  0.3108
 2465SOL     OW18856   2.311   0.814   8.871 -0.1588 -0.0567  0.0086
 2465SOL    HW118857   2.226   0.770   8.877  0.4228 -1.1933 -0.0566
 2465SOL    HW218858   2.309   0.848   8.782  0.4144 -0.8262 -0.2979
 2466SOL     OW18859   0.473   1.086   9.153 -0.1691  0.2301 -0.0813
 2466SOL    HW118860   0.419   1.022   9.201 -0.4232 -0.9633 -1.9398
 2466SOL    HW218861   0.537   1.108   9.220 -0.6757 -0.7227  0.7252
 2467SOL     OW18862   2.153   0.232  11.060  0.3985 -0.3288 -0.0368
 2467SOL    HW118863   2.106   0.157  11.095 -0.8058 -0.6452 -2.3714
 2467SOL    HW218864   2.074   0.279  11.034  1.1719  0.0459 -1.6932
 2468SOL     OW18865   0.199   0.985  13.175  0.2102 -0.1038  0.1313
 2468SOL    HW118866   0.183   0.993  13.081 -1.1112 -0.6481  0.3093
 2468SOL    HW218867   0.291   1.011  13.185 -0.1983  2.1465 -1.9404
 2469SOL     OW18868   0.502   0.212   2.313 -0.0533  0.3630 -0.9378
 2469SOL    HW118869   0.497   0.144   2.381  0.8017 -0.5123 -1.7372
 2469SOL    HW218870   0.418   0.252   2.335  0.4926  1.0202 -0.0489
 2470SOL     OW18871   4.656   4.382   3.587  0.3181 -0.5846 -0.3653
 2470SOL    HW118872   4.578   4.328   3.600  0.7781 -1.0723  0.3635
 2470SOL    HW218873   4.715   4.347   3.654 -2.2655 -1.5266  1.4200
 2471SOL     OW18874   1.232   0.834  14.485 -0.0753 -0.4062 -0.3799
 2471SOL    HW118875   1.303   0.874  14.436  1.0116 -1.6276  0.2328
 2471SOL    HW218876   1.255   0.875  14.569 -0.8721 -1.6759  0.4596
 2472SOL     OW18877   1.413   1.986   9.923  0.5468 -0.5553 -0.3923
 2472SOL    HW118878   1.458   2.067   9.903 -2.3223  0.4503 -2.8550
 2472SOL    HW218879   1.339   2.023   9.971 -0.3416 -1.0509 -1.3824
 2473SOL     OW18880   0.583   0.808   2.668 -0.6215 -0.5081 -0.8416
 2473SOL    HW118881   0.571   0.900   2.695 -0.7341 -0.0537 -2.4135
 2473SOL    HW218882   0.668   0.797   2.710 -1.3517  2.8232  1.5512
 2474SOL     OW18883   0.545   3.423  17.384 -0.5592 -0.6703  0.4681
 2474SOL    HW118884   0.491   3.469  17.448 -1.1823 -0.9887  0.1699
 2474SOL    HW218885   0.559   3.495  17.323 -0.1370 -0.4890  0.7797
 2475SOL     OW18886   2.437   0.958  10.290  0.4068  0.1300 -0.0611
 2475SOL    HW118887   2.345   0.948  10.316  0.8779 -1.1239  1.1747
 2475SOL    HW218888   2.484   0.955  10.374  0.9279  1.4126 -0.3154
 2476SOL     OW18889   0.630   3.285   7.281  0.0786 -0.1698 -0.3062
 2476SOL    HW118890   0.598   3.374   7.269  0.9407  0.2080  0.1687
 2476SOL    HW218891   0.714   3.312   7.317 -0.1160  0.5106 -0.3785
 2477SOL     OW18892   2.287   0.680   0.290  0.2320  0.0858  0.6272
 2477SOL    HW118893   2.299   0.627   0.211 -1.5635 -1.3908  1.3313
 2477SOL    HW218894   2.360   0.738   0.269  0.5436 -0.3156  0.6139
 2478SOL     OW18895   0.302   3.032   7.289 -0.2188  0.8131  0.3627
 2478SOL    HW118896   0.340   3.085   7.219  0.3255  0.3889  0.3369
 2478SOL    HW218897   0.223   3.002   7.243 -0.0654  0.9352  0.0238
 2479SOL     OW18898   0.254   0.927   2.729  0.1695 -0.1550 -0.0566
 2479SOL    HW118899   0.331   0.873   2.711  0.8390  0.4081  1.0807
 2479SOL    HW218900   0.281   1.008   2.686 -1.1540  1.6147  2.3804
 2480SOL     OW18901   2.243   1.641  15.259 -0.5829 -0.0830 -0.5253
 2480SOL    HW118902   2.181   1.632  15.187 -0.9081  0.9861 -0.3649
 2480SOL    HW218903   2.254   1.546  15.264 -0.7312  0.0010  1.4585
 2481SOL     OW18904   2.510   2.572   1.763 -0.0228 -0.8971 -0.7112
 2481SOL    HW118905   2.511   2.623   1.682 -2.0260  1.5892  0.8433
 2481SOL    HW218906   2.474   2.636   1.824 -0.1375 -0.9570 -0.7149
 2482SOL     OW18907   3.676   4.331   1.407 -0.3802  0.2558 -1.2758
 2482SOL    HW118908   3.769   4.337   1.387 -0.4038  1.2349 -1.0911
 2482SOL    HW218909   3.649   4.304   1.320 -0.9500  0.5664 -1.1972
 2483SOL     OW18910   1.129   4.082   4.072  0.7234  0.1640  0.3770
 2483SOL    HW118911   1.103   4.042   3.989 -3.4304  1.7148  0.9367
 2483SOL    HW218912   1.212   4.036   4.088  0.0474 -0.7593  1.1679
 2484SOL     OW18913   0.333   3.755   9.152  0.1340  0.1733 -0.4935
 2484SOL    HW118914   0.374   3.830   9.196  0.1310  1.4446 -2.6619
 2484SOL    HW218915   0.311   3.697   9.225  0.1002  1.1291  0.2676
 2485SOL     OW18916   4.269   4.162  16.954 -0.0121  0.0413  0.2915
 2485SOL    HW118917   4.296   4.219  17.026  0.0901 -0.7319  0.8666
 2485SOL    HW218918   4.193   4.206  16.918  0.1150  0.1264  0.1278
 2486SOL     OW18919   3.035   2.466   9.565 -0.4752  0.0837  0.0890
 2486SOL    HW118920   3.127   2.451   9.544 -1.0934  0.3173 -2.7962
 2486SOL    HW218921   3.012   2.393   9.623 -0.7519 -0.3190 -0.5383
 2487SOL     OW18922   4.176   0.389   0.411  0.0468 -0.1032  0.2080
 2487SOL    HW118923   4.090   0.413   0.444 -0.1199 -0.4411  0.0170
 2487SOL    HW218924   4.238   0.453   0.445 -0.5433  0.9857 -0.7896
 2488SOL     OW18925   4.619   3.760   6.716  0.2313  0.4665  0.3082
 2488SOL    HW118926   4.693   3.786   6.770 -0.4444  3.0952 -0.0358
 2488SOL    HW218927   4.555   3.718   6.773 -0.8281  1.1121 -0.3939
 2489SOL     OW18928   1.311   2.011  16.480  0.0656 -0.1870 -0.5150
 2489SOL    HW118929   1.263   2.081  16.435  0.8517  1.5631  1.3757
 2489SOL    HW218930   1.253   1.941  16.451 -2.4428  1.6723 -0.0464
 2490SOL     OW18931   0.615   1.684  12.394 -0.5465  0.2970  0.0595
 2490SOL    HW118932   0.630   1.610  12.334  0.4545 -0.2377  0.9707
 2490SOL    HW218933   0.620   1.759  12.335 -0.4963  1.2065  1.2237
 2491SOL     OW18934   3.362   1.123   1.474  0.0749  0.0179 -0.3187
 2491SOL    HW118935   3.443   1.094   1.517 -0.9953  1.2293  2.5023
 2491SOL    HW218936   3.367   1.217   1.488 -2.1004  0.4921 -2.9165
 2492SOL     OW18937   4.265   1.892   7.456  0.1189 -0.5703  0.3312
 2492SOL    HW118938   4.349   1.847   7.458  0.0447 -0.7194  0.1620
 2492SOL    HW218939   4.208   1.823   7.422  0.6858 -1.0731  0.4252
 2493SOL     OW18940   4.164   4.359  15.834 -0.5442 -0.2873 -0.4698
 2493SOL    HW118941   4.180   4.335  15.925 -3.5374  0.9616  0.3665
 2493SOL    HW218942   4.251   4.343  15.797  0.6669  3.3955  0.7796
 2494SOL     OW18943   1.067   1.601   4.841  0.7374 -0.0411 -0.0508
 2494SOL    HW118944   0.999   1.541   4.812  0.5631  0.2488 -0.2438
 2494SOL    HW218945   1.041   1.685   4.803 -1.6687 -0.2921  1.0430
 2495SOL     OW18946   0.901   2.099   8.100  0.0018 -0.5562 -0.1814
 2495SOL    HW118947   0.900   2.143   8.015  1.0308 -0.9267 -0.3889
 2495SOL    HW218948   0.829   2.143   8.144  0.9478  1.7641 -0.9938
 2496SOL     OW18949   0.930   2.324   0.402  0.3926 -0.4032  0.1478
 2496SOL    HW118950   0.851   2.341   0.454 -1.1331 -0.3653 -2.2039
 2496SOL    HW218951   0.993   2.390   0.432  0.7278 -0.6125 -0.0908
 2497SOL     OW18952   4.191   0.992   2.836 -0.1436 -0.3472  0.4819
 2497SOL    HW118953   4.213   0.967   2.746  1.6150  2.0565  0.2424
 2497SOL    HW218954   4.187   0.906   2.879  0.7578  0.0793  1.4051
 2498SOL     OW18955   4.509   4.663   2.876  0.5911  1.3709 -0.2871
 2498SOL    HW118956   4.529   4.648   2.968 -0.6613 -1.4152 -0.4840
 2498SOL    HW218957   4.548   4.589   2.829  0.3919  0.0653  1.5808
 2499SOL     OW18958   2.491   1.440   4.095 -1.5010 -0.0914 -0.3111
 2499SOL    HW118959   2.526   1.530   4.098  0.3677 -0.7539 -2.9366
 2499SOL    HW218960   2.552   1.406   4.030 -0.5095 -1.3441  1.2719
 2500SOL     OW18961   1.745   0.184   6.241  0.2861  0.0407  0.2618
 2500SOL    HW118962   1.755   0.124   6.315  0.2285  0.3918  0.5505
 2500SOL    HW218963   1.668   0.236   6.263  2.0770  1.9898  1.8717
 2501SOL     OW18964   1.749   0.539  16.673 -0.2827 -0.1260 -0.7524
 2501SOL    HW118965   1.691   0.573  16.741 -1.6191  0.9227 -2.4155
 2501SOL    HW218966   1.687   0.539  16.601 -1.3257  1.2776  0.1587
 2502SOL     OW18967   2.482   0.452   8.625  0.2118  0.8982 -0.9596
 2502SOL    HW118968   2.466   0.489   8.711 -0.1658 -2.2106  0.2931
 2502SOL    HW218969   2.408   0.392   8.618  0.2132  0.6930  0.7886
 2503SOL     OW18970   0.199   2.615   9.479 -0.3558  0.2526  0.3229
 2503SOL    HW118971   0.227   2.530   9.444 -1.7681 -0.5105  1.0621
 2503SOL    HW218972   0.263   2.643   9.545 -0.3582  4.0177 -1.3147
 2504SOL     OW18973   1.393   2.591   0.115 -0.3157  0.1060  0.8787
 2504SOL    HW118974   1.368   2.627   0.200 -3.8173 -0.2760  0.0201
 2504SOL    HW218975   1.348   2.507   0.121  1.4277 -0.9334 -0.4722
 2505SOL     OW18976   2.777   1.986   1.811 -0.1494  0.7907  0.1708
 2505SOL    HW118977   2.749   2.075   1.831 -2.1170 -0.0744  1.3836
 2505SOL    HW218978   2.746   1.975   1.721 -1.2875  0.7980  0.5523
 2506SOL     OW18979   1.493   4.417  15.120  0.0502 -0.6089  0.3515
 2506SOL    HW118980   1.546   4.358  15.066  0.2570  0.4204 -0.5735
 2506SOL    HW218981   1.503   4.383  15.209 -1.3969 -3.0490 -0.4209
 2507SOL     OW18982   3.261   2.787   5.174  0.4491 -0.1146 -0.3260
 2507SOL    HW118983   3.228   2.791   5.084 -1.8219  0.7167  0.5530
 2507SOL    HW218984   3.248   2.878   5.203 -0.1209 -0.1850 -0.3609
 2508SOL     OW18985   2.422   1.454  17.251  0.3457 -0.1535 -0.1278
 2508SOL    HW118986   2.482   1.461  17.326  0.5771 -0.7629 -0.2587
 2508SOL    HW218987   2.462   1.392  17.191  0.2866 -1.4732  1.1863
 2509SOL     OW18988   2.802   0.596   9.194 -0.2415  0.4029  0.2243
 2509SOL    HW118989   2.860   0.541   9.141 -1.3615 -0.1731 -0.4106
 2509SOL    HW218990   2.846   0.581   9.277  0.6031 -0.3553 -0.3548
 2510SOL     OW18991   0.700   1.401   0.998 -0.1752  0.6037  0.1073
 2510SOL    HW118992   0.710   1.334   0.931 -0.4284  0.4691  0.2068
 2510SOL    HW218993   0.625   1.362   1.042 -1.9405  4.0329  0.1890
 2511SOL     OW18994   4.304   4.356  15.156 -0.3532  0.0532 -0.2283
 2511SOL    HW118995   4.274   4.274  15.195 -2.3158  1.4028  1.1163
 2511SOL    HW218996   4.341   4.405  15.229  1.7023 -0.1442 -1.1336
 2512SOL     OW18997   0.796   3.787   7.744  0.3053 -0.3676  0.1970
 2512SOL    HW118998   0.798   3.882   7.730  0.5831 -0.5994 -1.2577
 2512SOL    HW218999   0.870   3.760   7.690  0.1875 -0.6539  0.1822
 2513SOL     OW19000   3.834   0.635   1.084  0.1872  0.1469 -0.2761
 2513SOL    HW119001   3.858   0.722   1.116 -1.2413  1.4985 -2.9141
 2513SOL    HW219002   3.766   0.611   1.147 -0.2930  0.5372 -0.6472
 2514SOL     OW19003   0.670   3.169   5.883  0.4990 -0.3262  0.0344
 2514SOL    HW119004   0.640   3.106   5.817  3.7587 -1.0879 -0.7067
 2514SOL    HW219005   0.593   3.227   5.880  1.2441  0.7499  1.4700
 2515SOL     OW19006   2.252   2.210   5.424 -0.2310 -0.4098  0.2372
 2515SOL    HW119007   2.213   2.147   5.364 -2.5095  0.6788  0.5746
 2515SOL    HW219008   2.207   2.290   5.396 -0.9305 -0.4811  1.1367
 2516SOL     OW19009   1.170   3.491   9.352  0.9436 -0.4566 -0.2536
 2516SOL    HW119010   1.190   3.553   9.281 -0.8719 -0.9160 -1.1717
 2516SOL    HW219011   1.080   3.514   9.375  1.1584  1.7351 -1.5473
 2517SOL     OW19012   0.482   2.708   7.728 -0.0597 -0.0642 -0.0168
 2517SOL    HW119013   0.474   2.653   7.806  1.6930 -1.0627 -0.5436
 2517SOL    HW219014   0.437   2.652   7.665 -1.0709  1.8831 -1.0056
 2518SOL     OW19015   3.397   0.536  15.819  0.0150 -1.0224 -0.0680
 2518SOL    HW119016   3.386   0.442  15.832 -1.0636 -1.0827 -1.3377
 2518SOL    HW219017   3.316   0.571  15.780 -0.7756 -0.8014  1.7905
 2519SOL     OW19018   4.488   2.443  17.607 -0.3821 -0.6716  0.7951
 2519SOL    HW119019   4.439   2.394  17.673 -1.4941  0.6958  0.9842
 2519SOL    HW219020   4.523   2.379  17.545  0.3796  2.0076 -1.5083
 2520SOL     OW19021   3.491   4.609   2.305  0.0150  0.0441 -0.5473
 2520SOL    HW119022   3.489   4.703   2.291  2.6312  0.5595  2.8146
 2520SOL    HW219023   3.542   4.568   2.234 -1.1558  1.3471 -2.1374
 2521SOL     OW19024   4.294   1.718   6.453  0.4344  0.7368 -0.1999
 2521SOL    HW119025   4.346   1.641   6.428  1.1171  1.3793 -0.7859
 2521SOL    HW219026   4.357   1.760   6.512  0.0827 -0.3485  0.9357
 2522SOL     OW19027   2.224   2.104   5.048 -0.2036  0.5229 -0.3853
 2522SOL    HW119028   2.227   2.152   4.965  1.2303 -1.8933 -1.7409
 2522SOL    HW219029   2.218   2.016   5.010  2.0070 -0.9925  2.7593
 2523SOL     OW19030   3.276   0.503   8.652 -0.1621 -0.5975 -0.0779
 2523SOL    HW119031   3.223   0.560   8.708  0.0056  1.3301 -1.9103
 2523SOL    HW219032   3.360   0.533   8.684 -0.2518 -0.1347 -0.2871
 2524SOL     OW19033   0.922   4.053   2.673 -0.5306  0.0263  0.1153
 2524SOL    HW119034   0.965   4.022   2.593  1.9086  0.2681  1.3165
 2524SOL    HW219035   0.838   4.092   2.649  0.2435  0.6095 -1.6144
 2525SOL     OW19036   1.072   0.850   3.620  0.1283  0.5749  0.3359
 2525SOL    HW119037   1.006   0.839   3.552  0.5494 -0.2253  0.0510
 2525SOL    HW219038   1.053   0.780   3.684 -0.3924  0.2860 -0.1339
 2526SOL     OW19039   1.512   2.291   9.594 -0.1617  0.4791  0.0588
 2526SOL    HW119040   1.574   2.288   9.667  1.1086 -0.6340 -1.0916
 2526SOL    HW219041   1.570   2.278   9.519 -2.6377  1.1491 -1.9820
 2527SOL     OW19042   1.922   3.492  10.332  0.4689 -0.0884  0.9223
 2527SOL    HW119043   1.976   3.513  10.256  1.5932 -3.4208  0.8168
 2527SOL    HW219044   1.978   3.525  10.402  0.3650  1.0006  0.4890
 2528SOL     OW19045   2.761   0.194   1.266 -0.3165  0.0306 -0.7503
 2528SOL    HW119046   2.779   0.270   1.211  1.8009  0.1193  0.0550
 2528SOL    HW219047   2.846   0.152   1.276 -0.5288 -0.1522  0.3385
 2529SOL     OW19048   3.505   1.053  15.600  0.0428  0.0725  0.6513
 2529SOL    HW119049   3.588   1.090  15.571  0.0832  1.5254  2.6569
 2529SOL    HW219050   3.506   0.963  15.566 -1.1835  0.7082 -1.0943
 2530SOL     OW19051   0.848   3.686   9.367  0.5864 -0.2957 -0.3208
 2530SOL    HW119052   0.910   3.744   9.324 -0.4586 -0.7664 -2.4451
 2530SOL    HW219053   0.859   3.709   9.460  0.2861  0.6074 -0.5073
 2531SOL     OW19054   2.171   2.065   6.907 -0.2105 -0.2135  0.1019
 2531SOL    HW119055   2.078   2.051   6.924 -0.4349 -0.1676 -1.1037
 2531SOL    HW219056   2.184   2.085   6.814 -2.2907  0.0414 -0.1228
 2532SOL     OW19057   1.889   4.476  11.396  0.5377  0.0614 -0.1265
 2532SOL    HW119058   1.852   4.532  11.464  1.2964 -0.5783  0.8174
 2532SOL    HW219059   1.838   4.498  11.319 -0.6558 -1.0395  0.3382
 2533SOL     OW19060   4.439   2.315  14.502 -0.0312 -0.1779 -0.4506
 2533SOL    HW119061   4.497   2.303  14.577  0.4156 -0.1274 -0.7801
 2533SOL    HW219062   4.482   2.272  14.428  2.3547 -0.0765  0.8765
 2534SOL     OW19063   2.954   3.005   8.421 -0.3668 -0.1926  0.6005
 2534SOL    HW119064   3.041   2.983   8.388  0.5965  2.2728  1.4705
 2534SOL    HW219065   2.929   2.931   8.475  2.6542 -1.5326  0.1408
 2535SOL     OW19066   3.490   2.440   3.043 -0.2435  0.2102  0.0293
 2535SOL    HW119067   3.458   2.362   3.088  0.6017  0.0560  0.3724
 2535SOL    HW219068   3.585   2.424   3.045 -0.5768 -1.6964  0.5441
 2536SOL     OW19069   4.627   2.539   3.062 -0.1089  0.0235  0.8248
 2536SOL    HW119070   4.686   2.560   3.134 -0.4434 -0.7626  1.3303
 2536SOL    HW219071   4.554   2.505   3.113 -1.5238 -1.4791 -2.1718
 2537SOL     OW19072   2.852   2.840   2.958 -0.0729  0.2658  0.8173
 2537SOL    HW119073   2.908   2.918   2.960  1.1587 -0.5975  0.0883
 2537SOL    HW219074   2.769   2.887   2.958 -0.0510  0.3058  0.6694
 2538SOL     OW19075   0.281   0.243   3.640 -0.4755  0.2916  0.5641
 2538SOL    HW119076   0.205   0.254   3.582  0.2124 -0.7155 -0.5341
 2538SOL    HW219077   0.233   0.210   3.716  0.0314 -0.5668  0.5237
 2539SOL     OW19078   3.548   3.176  11.036  0.0578 -0.0036  0.6469
 2539SOL    HW119079   3.545   3.272  11.032 -3.3952  0.0287  4.4706
 2539SOL    HW219080   3.626   3.165  10.981 -0.8825 -1.9000 -0.2809
 2540SOL     OW19081   2.546   2.983   7.282 -0.6444  0.1270  0.1286
 2540SOL    HW119082   2.597   3.027   7.213  0.4763 -0.5297  0.5409
 2540SOL    HW219083   2.597   3.015   7.357  0.6489  1.9321 -1.5246
 2541SOL     OW19084   2.901   3.371   8.365  0.0607 -0.2226 -0.0563
 2541SOL    HW119085   2.970   3.402   8.307  1.3069 -0.0055  1.5575
 2541SOL    HW219086   2.856   3.300   8.319  0.0454  0.2375 -0.7412
 2542SOL     OW19087   0.921   0.862   5.529  0.3725 -0.1543  0.7550
 2542SOL    HW119088   0.867   0.871   5.607  0.9130  0.1595  1.0974
 2542SOL    HW219089   1.007   0.841   5.566  0.8459 -0.1086 -0.3058
 2543SOL     OW19090   1.512   3.352   3.455 -0.0446 -0.1609  0.1118
 2543SOL    HW119091   1.495   3.261   3.481  3.1066 -0.4691  0.9817
 2543SOL    HW219092   1.575   3.339   3.385  0.9436  1.7248  0.6581
 2544SOL     OW19093   0.459   1.477  17.058 -0.1015  0.2771 -0.1474
 2544SOL    HW119094   0.391   1.473  17.125 -0.2558 -0.2888 -0.3353
 2544SOL    HW219095   0.509   1.558  17.064  2.6344 -1.5708  2.8483
 2545SOL     OW19096   1.293   1.497   4.448 -0.5854  0.7831 -0.2622
 2545SOL    HW119097   1.293   1.427   4.513  2.3099  2.8657  1.9699
 2545SOL    HW219098   1.199   1.514   4.440 -0.5707  0.1708 -1.7777
 2546SOL     OW19099   0.080   4.020  11.014 -0.0477  0.4643  0.6335
 2546SOL    HW119100   0.075   3.936  11.059  0.8580  0.5184  0.8311
 2546SOL    HW219101   4.717   4.036  10.982  0.9853  0.3188 -2.3024
 2547SOL     OW19102   0.800   3.034  10.157  0.0786  0.0832 -0.0511
 2547SOL    HW119103   0.843   2.963  10.109 -0.8146 -1.1423  0.9671
 2547SOL    HW219104   0.879   3.076  10.192  0.7852 -1.6179  0.3781
 2548SOL     OW19105   1.116   2.427   9.122 -0.1723 -0.0321  0.4636
 2548SOL    HW119106   1.122   2.498   9.186 -0.8874  0.3694  0.0816
 2548SOL    HW219107   1.078   2.475   9.049 -2.3747 -2.1861  0.1924
 2549SOL     OW19108   1.793   3.171   0.610  0.3864  0.3968  0.3350
 2549SOL    HW119109   1.840   3.211   0.683  2.2834 -0.1316 -0.5930
 2549SOL    HW219110   1.708   3.213   0.623  0.1810 -0.3406  1.3151
 2550SOL     OW19111   0.451   4.343   2.370  0.2772 -0.3837 -0.6860
 2550SOL    HW119112   0.373   4.360   2.317 -1.0186 -0.9295  1.0142
 2550SOL    HW219113   0.496   4.427   2.360  1.6402 -1.1596 -1.0253
 2551SOL     OW19114   3.031   0.969   2.118  0.1796 -0.1074  0.3411
 2551SOL    HW119115   3.049   1.054   2.078 -0.2749 -0.0893  0.1800
 2551SOL    HW219116   3.117   0.932   2.138 -0.9441 -2.9279 -0.1450
 2552SOL     OW19117   4.246   0.312   8.720 -0.5541 -0.3246  0.3348
 2552SOL    HW119118   4.168   0.364   8.703 -0.6212 -0.6191 -0.2483
 2552SOL    HW219119   4.293   0.309   8.637  0.8056 -2.3817  1.1720
 2553SOL     OW19120   2.545   4.418  15.061 -0.5363  0.1706  0.1900
 2553SOL    HW119121   2.622   4.459  15.100 -0.8331  2.4159 -1.6151
 2553SOL    HW219122   2.474   4.447  15.119 -0.7659 -0.8052  0.4008
 2554SOL     OW19123   2.219   2.347  17.016  0.2718  0.0441 -0.1398
 2554SOL    HW119124   2.278   2.295  17.071 -0.5471 -1.1444 -0.3999
 2554SOL    HW219125   2.139   2.310  17.051  0.6586  0.4372  1.1863
 2555SOL     OW19126   4.356   0.881   1.988 -0.5359  0.1388  0.4410
 2555SOL    HW119127   4.276   0.838   1.956  0.9948 -1.3382 -1.3953
 2555SOL    HW219128   4.386   0.824   2.058  1.9149  1.0710  0.1291
 2556SOL     OW19129   3.608   4.453  12.465  0.4421  0.3928 -0.2535
 2556SOL    HW119130   3.546   4.382  12.482 -0.2088  1.0454  0.0945
 2556SOL    HW219131   3.680   4.391  12.457 -0.1019 -0.3317  0.5225
 2557SOL     OW19132   0.857   1.737   9.679 -0.4912  0.3441  0.1440
 2557SOL    HW119133   0.874   1.712   9.770  0.3525 -0.5527 -0.2711
 2557SOL    HW219134   0.948   1.750   9.653 -0.5407 -0.5886 -0.4771
 2558SOL     OW19135   4.035   4.336  10.654 -0.1838  0.0694 -0.6330
 2558SOL    HW119136   4.083   4.253  10.649 -0.9669 -0.6225  2.8450
 2558SOL    HW219137   4.097   4.388  10.603  1.7952 -0.0741  1.6058
 2559SOL     OW19138   0.627   0.423   2.534  0.3821 -0.2063 -0.1381
 2559SOL    HW119139   0.653   0.360   2.602  0.0056  0.5982  0.7637
 2559SOL    HW219140   0.585   0.359   2.477 -3.7975  1.3115  1.2345
 2560SOL     OW19141   4.143   4.651   2.911 -0.5007  0.1940 -0.2670
 2560SOL    HW119142   4.061   4.634   2.956 -0.0272 -1.1939  0.0686
 2560SOL    HW219143   4.152   0.020   2.923 -0.5739  0.1317  0.2697
 2561SOL     OW19144   4.221   4.080   2.215 -0.1476  0.1749 -0.3674
 2561SOL    HW119145   4.137   4.122   2.193 -0.1843  0.8963  1.1602
 2561SOL    HW219146   4.189   3.991   2.230  1.0936 -0.2626 -0.3405
 2562SOL     OW19147   2.122   3.467   8.095  0.5942  0.6055  0.5558
 2562SOL    HW119148   2.141   3.501   8.007 -0.0103  1.2739  0.6884
 2562SOL    HW219149   2.202   3.419   8.116  0.7315 -0.4482 -2.3614
 2563SOL     OW19150   0.016   2.896   3.036  0.5422  0.1748 -0.6433
 2563SOL    HW119151   4.686   2.842   2.978 -2.8153  3.0710 -0.0977
 2563SOL    HW219152   4.695   2.979   3.034  0.2981  0.0986  2.2629
 2564SOL     OW19153   3.194   3.205   8.761 -0.2447  0.7516  0.2801
 2564SOL    HW119154   3.196   3.174   8.671 -0.6960  0.6497  0.3042
 2564SOL    HW219155   3.177   3.296   8.738  1.9455  1.2179  0.4486
 2565SOL     OW19156   3.474   3.711  10.373  0.1073  0.3519  0.4247
 2565SOL    HW119157   3.560   3.723  10.334 -0.2093  1.2734  0.0249
 2565SOL    HW219158   3.431   3.787  10.334 -1.5357 -0.1862  1.1760
 2566SOL     OW19159   2.875   0.452   6.230  0.1172 -0.1555  0.0846
 2566SOL    HW119160   2.881   0.520   6.162 -0.1306  0.5863  0.7983
 2566SOL    HW219161   2.964   0.451   6.264  1.2839 -0.0259 -2.9393
 2567SOL     OW19162   3.119   4.534   1.170  0.2071 -0.1754  0.3741
 2567SOL    HW119163   3.209   4.562   1.153  0.8277 -2.4903 -0.0530
 2567SOL    HW219164   3.129   4.440   1.182 -3.2176 -0.2399  2.7990
 2568SOL     OW19165   4.380   2.650   3.931  0.3338 -0.0794 -0.0854
 2568SOL    HW119166   4.415   2.739   3.929 -0.9444  0.4660  2.1753
 2568SOL    HW219167   4.463   2.603   3.924  0.8245  0.5903  1.3927
 2569SOL     OW19168   0.860   1.304  12.147 -1.0284  0.0747 -0.0297
 2569SOL    HW119169   0.862   1.381  12.090 -0.4580 -1.1037 -1.6077
 2569SOL    HW219170   0.952   1.279  12.140 -1.4289 -0.8404 -2.1774
 2570SOL     OW19171   3.381   3.204  10.454 -0.1660 -0.0487  0.3235
 2570SOL    HW119172   3.349   3.251  10.531  0.2063 -0.9568  1.0407
 2570SOL    HW219173   3.473   3.191  10.480 -0.8312 -1.4807  1.9979
 2571SOL     OW19174   2.752   2.195   2.007  0.1095  0.4626 -0.6288
 2571SOL    HW119175   2.739   2.270   2.064 -1.3023  1.0137 -1.6814
 2571SOL    HW219176   2.811   2.135   2.052 -0.6069  0.4685  0.3049
 2572SOL     OW19177   1.430   2.082  11.656  0.6676 -0.8254  0.0075
 2572SOL    HW119178   1.432   2.077  11.752 -2.5473  0.7845  0.1532
 2572SOL    HW219179   1.522   2.064  11.637  1.6653  0.3337  3.6242
 2573SOL     OW19180   4.046   0.474  14.910 -0.5249 -0.5447  0.0661
 2573SOL    HW119181   4.012   0.520  14.834 -3.4514  1.2027  2.4275
 2573SOL    HW219182   3.986   0.399  14.906 -1.0420 -0.0329 -1.6096
 2574SOL     OW19183   1.224   1.345   2.639  0.1305 -0.0983 -0.1658
 2574SOL    HW119184   1.136   1.342   2.601 -0.0798 -0.6401  0.3541
 2574SOL    HW219185   1.264   1.430   2.623 -0.8920  0.5479  0.7064
 2575SOL     OW19186   3.082   0.189   3.092  0.5168  0.0093  0.5468
 2575SOL    HW119187   3.012   0.156   3.037 -0.6423  1.2017  1.3155
 2575SOL    HW219188   3.119   0.256   3.034  0.5081  1.5349  2.3017
 2576SOL     OW19189   1.244   2.577  11.113 -0.1419 -0.1109  0.7626
 2576SOL    HW119190   1.336   2.550  11.109  0.0466  0.2711  2.5071
 2576SOL    HW219191   1.192   2.497  11.111 -1.4317  0.7151  1.7676
 2577SOL     OW19192   4.194   1.629   5.308  0.6412  0.5779 -0.5050
 2577SOL    HW119193   4.146   1.593   5.233  1.5025 -0.9105 -0.3380
 2577SOL    HW219194   4.240   1.549   5.333 -2.7192 -1.8766 -2.0761
 2578SOL     OW19195   0.173   1.832   9.097  0.3151  0.3177 -0.2109
 2578SOL    HW119196   0.142   1.811   9.185  0.4981  1.3240  0.0950
 2578SOL    HW219197   0.222   1.751   9.078  3.1265  1.8038  0.7042
 2579SOL     OW19198   4.372   0.455   2.398 -0.4373 -0.5943 -0.2150
 2579SOL    HW119199   4.281   0.449   2.424  0.3996 -1.8836  2.3898
 2579SOL    HW219200   4.361   0.439   2.304  0.0923  3.1646 -0.9172
 2580SOL     OW19201   4.104   1.193  16.517  0.3197  0.5923  0.4424
 2580SOL    HW119202   4.060   1.188  16.602  0.8784 -1.9051  0.5706
 2580SOL    HW219203   4.179   1.140  16.542  0.8724  1.2474  0.1826
 2581SOL     OW19204   3.236   0.423  17.447  0.1243 -0.2307 -1.0334
 2581SOL    HW119205   3.168   0.400  17.511 -0.6460  0.0786 -1.7450
 2581SOL    HW219206   3.187   0.436  17.366  0.1091  0.6099 -0.8936
 2582SOL     OW19207   1.219   1.410  13.768  0.3110 -0.4635  0.2182
 2582SOL    HW119208   1.233   1.483  13.707 -1.5233  1.3563  2.0064
 2582SOL    HW219209   1.212   1.333  13.712 -0.6102  1.0222 -1.7318
 2583SOL     OW19210   3.055   1.905   6.958 -0.4186 -0.1127 -0.0403
 2583SOL    HW119211   3.094   1.906   7.046 -1.5777 -0.6499  0.4881
 2583SOL    HW219212   3.129   1.928   6.902 -1.8292  2.3823 -0.8438
 2584SOL     OW19213   0.453   2.237   4.285 -0.7497  0.3678 -0.1511
 2584SOL    HW119214   0.415   2.156   4.318 -0.9842  0.3461 -0.4781
 2584SOL    HW219215   0.494   2.203   4.205  0.4692 -1.4201  1.2170
 2585SOL     OW19216   4.091   4.049   3.901  0.4058  0.3024 -0.1249
 2585SOL    HW119217   4.147   3.981   3.939  0.4437  1.3844  1.7446
 2585SOL    HW219218   4.131   4.128   3.937 -0.5118  0.6915  0.0258
 2586SOL     OW19219   2.583   3.322   3.994  0.3998  0.5872  0.6050
 2586SOL    HW119220   2.625   3.380   3.930  0.6515  1.3022  1.4247
 2586SOL    HW219221   2.605   3.242   3.946 -2.2245 -0.7642  1.7117
 2587SOL     OW19222   3.327   4.372  14.116 -0.5261  0.2596  0.3895
 2587SOL    HW119223   3.394   4.437  14.091 -0.0367 -0.1748  0.5785
 2587SOL    HW219224   3.378   4.311  14.169 -1.8773 -1.9432 -0.8539
 2588SOL     OW19225   0.218   2.151   5.318 -0.6813 -0.6159 -0.7623
 2588SOL    HW119226   0.270   2.071   5.326 -0.8833 -0.7278 -0.5539
 2588SOL    HW219227   0.149   2.150   5.384 -0.1967 -0.7235 -0.2590
 2589SOL     OW19228   3.950   2.909  17.503  0.5830 -0.1502  0.4236
 2589SOL    HW119229   3.970   3.001  17.484 -1.6048  0.3113  0.4345
 2589SOL    HW219230   3.894   2.901  17.426  0.2578  2.3827  0.4058
 2590SOL     OW19231   0.041   4.495  10.785 -0.2684  0.7194  0.1328
 2590SOL    HW119232   0.070   4.404  10.797 -1.1974  0.3896 -0.1525
 2590SOL    HW219233   0.069   4.506  10.694 -0.0822 -1.3512 -0.0605
 2591SOL     OW19234   1.643   2.384   0.964 -0.2500  0.3976  0.1459
 2591SOL    HW119235   1.734   2.411   0.947  0.0838  1.5785  3.8843
 2591SOL    HW219236   1.645   2.341   1.049 -2.7878  1.0203  0.5104
 2592SOL     OW19237   0.192   2.586   4.830 -0.1629 -0.0283 -0.1695
 2592SOL    HW119238   0.184   2.497   4.796  1.9731 -0.7100  1.0915
 2592SOL    HW219239   0.281   2.589   4.865 -0.8773  0.4170  1.5784
 2593SOL     OW19240   1.493   0.806   5.146 -0.2386  0.4910  0.6355
 2593SOL    HW119241   1.545   0.884   5.128  1.2893 -0.5191  0.6077
 2593SOL    HW219242   1.474   0.768   5.059  0.6229 -0.3540  0.8104
 2594SOL     OW19243   3.252   3.254   4.103  0.3212 -0.6884  0.1728
 2594SOL    HW119244   3.243   3.169   4.146 -0.7618 -0.3632  0.5905
 2594SOL    HW219245   3.344   3.245   4.077 -0.3392 -1.9896 -1.6690
 2595SOL     OW19246   4.234   1.398   9.617 -0.2462  0.1128 -0.0300
 2595SOL    HW119247   4.174   1.402   9.692 -1.2687  1.2458 -0.9099
 2595SOL    HW219248   4.270   1.486   9.629 -0.3303 -0.0405  1.4558
 2596SOL     OW19249   0.010   4.013   4.604 -0.0113  0.1923  0.3185
 2596SOL    HW119250   0.074   4.068   4.560  1.0708 -0.9323  0.4768
 2596SOL    HW219251   0.051   3.999   4.689 -1.0513 -1.3594  0.5638
 2597SOL     OW19252   2.360   2.789   7.611  0.0650 -0.0548 -0.2438
 2597SOL    HW119253   2.285   2.811   7.667 -2.3420 -1.6795 -2.8080
 2597SOL    HW219254   2.423   2.756   7.674 -1.4444 -2.0408  0.2138
 2598SOL     OW19255   3.865   1.070   4.464 -0.1977  0.0538 -0.4668
 2598SOL    HW119256   3.827   1.158   4.463  0.4301  0.3347 -0.0309
 2598SOL    HW219257   3.792   1.010   4.447 -0.4030  0.2343 -0.2347
 2599SOL     OW19258   4.338   1.133  12.412  0.3965 -0.1194 -0.1610
 2599SOL    HW119259   4.417   1.167  12.369  0.5629 -1.2820 -0.7683
 2599SOL    HW219260   4.373   1.118  12.500  0.7405  0.5082 -0.1923
 2600SOL     OW19261   1.272   2.634   5.229 -0.4260  0.5548  0.6198
 2600SOL    HW119262   1.300   2.593   5.147  1.8769  1.6749  0.8395
 2600SOL    HW219263   1.227   2.557   5.263  1.4775 -1.4839 -1.5061
 2601SOL     OW19264   3.048   2.324   6.856 -0.3712 -0.1059  0.5433
 2601SOL    HW119265   3.035   2.262   6.785 -0.0102 -1.0840  1.3278
 2601SOL    HW219266   2.967   2.300   6.902 -0.3660 -1.6216 -0.2495
 2602SOL     OW19267   1.033   3.019   0.478 -0.6407 -0.7948 -0.3453
 2602SOL    HW119268   1.018   3.074   0.401  1.2719 -1.1415 -0.9658
 2602SOL    HW219269   1.100   2.960   0.443 -0.7251 -0.9389 -0.2607
 2603SOL     OW19270   0.055   3.745   8.419  0.2939  0.3094 -0.0415
 2603SOL    HW119271   0.023   3.803   8.350  1.0285  2.0400  1.0661
 2603SOL    HW219272   4.722   3.670   8.410  0.1720  0.5277 -1.0353
 2604SOL     OW19273   2.562   3.059   8.208  0.3153  0.2484 -0.4339
 2604SOL    HW119274   2.525   3.088   8.125 -2.9872 -0.7290  0.6885
 2604SOL    HW219275   2.543   3.126   8.274 -0.9837 -0.0251 -0.5219
 2605SOL     OW19276   0.229   3.429   9.465  0.2499 -0.0135 -0.5194
 2605SOL    HW119277   0.203   3.515   9.498  0.3374 -0.9823  2.0540
 2605SOL    HW219278   0.320   3.427   9.493 -0.4238 -0.1407  1.7018
 2606SOL     OW19279   2.834   4.150   7.780 -0.0983 -0.0109  0.5136
 2606SOL    HW119280   2.901   4.189   7.835  0.7488 -1.3420  0.4228
 2606SOL    HW219281   2.770   4.216   7.752  2.5103  2.1439 -0.2894
 2607SOL     OW19282   0.841   1.728   3.443 -0.3476  0.3993  0.0992
 2607SOL    HW119283   0.772   1.663   3.457 -1.1233  0.9936 -0.9995
 2607SOL    HW219284   0.904   1.675   3.395  1.1069  1.5419  0.7690
 2608SOL     OW19285   3.829   2.506   9.460  0.3852 -0.1710  0.0824
 2608SOL    HW119286   3.896   2.505   9.392  0.8240  3.5231  0.4562
 2608SOL    HW219287   3.848   2.431   9.517  0.3679  0.9742  1.6262
 2609SOL     OW19288   3.438   1.807   0.780  0.1842  0.3588 -0.1931
 2609SOL    HW119289   3.413   1.835   0.868  1.1108  0.0078  0.1842
 2609SOL    HW219290   3.400   1.721   0.762  1.1802 -0.3917  1.2234
 2610SOL     OW19291   2.144   2.861  17.134  0.2683 -0.3148 -0.2580
 2610SOL    HW119292   2.210   2.868  17.203  1.1661  1.6404 -1.3256
 2610SOL    HW219293   2.062   2.847  17.181  1.7038 -2.2492  1.6672
 2611SOL     OW19294   2.376   1.495   2.817  0.2920 -0.5148 -0.3198
 2611SOL    HW119295   2.302   1.505   2.876  0.4274 -0.4056 -0.1676
 2611SOL    HW219296   2.413   1.582   2.828 -1.1568  0.0054  0.3826
 2612SOL     OW19297   1.143   1.525  11.303  0.2075  0.2621  0.3148
 2612SOL    HW119298   1.235   1.503  11.287 -0.0608 -0.2342 -0.5483
 2612SOL    HW219299   1.087   1.449  11.290 -1.3600  1.5396 -0.5010
 2613SOL     OW19300   3.824   2.243  13.449 -0.6501  0.4227 -0.3952
 2613SOL    HW119301   3.796   2.208  13.365  2.8780 -0.0303 -1.4078
 2613SOL    HW219302   3.788   2.330  13.435 -1.6582  0.2726  1.2967
 2614SOL     OW19303   3.606   1.771   5.315 -0.0635 -0.2075  0.6254
 2614SOL    HW119304   3.701   1.754   5.314 -0.8097 -4.3252 -0.7210
 2614SOL    HW219305   3.590   1.766   5.409  1.1024  0.5008  0.8604
 2615SOL     OW19306   1.980   2.650   9.318  0.5956 -0.5225  0.7712
 2615SOL    HW119307   1.974   2.562   9.282  1.7232 -0.8572  1.3911
 2615SOL    HW219308   2.014   2.696   9.241 -1.1745 -0.8506 -0.2064
 2616SOL     OW19309   2.161   0.432   8.894  0.0381 -0.0251 -0.3427
 2616SOL    HW119310   2.080   0.483   8.895  0.5313  0.7352  2.5645
 2616SOL    HW219311   2.185   0.417   8.986 -3.0291 -0.3136  0.4116
 2617SOL     OW19312   0.612   2.963   0.431 -0.3134  0.1707 -0.6988
 2617SOL    HW119313   0.519   2.976   0.446 -0.6166 -1.2872 -1.2739
 2617SOL    HW219314   0.639   2.967   0.523 -0.9546  0.6131 -0.5328
 2618SOL     OW19315   1.623   3.578   0.991 -0.2690 -0.1011 -0.7010
 2618SOL    HW119316   1.531   3.553   1.003 -0.2894 -0.0800 -0.8153
 2618SOL    HW219317   1.637   3.564   0.898 -1.8326  2.1262 -1.2769
 2619SOL     OW19318   2.618   2.226   7.526  0.8196  0.0560  0.1245
 2619SOL    HW119319   2.709   2.253   7.518  1.0572 -0.4539  1.1491
 2619SOL    HW219320   2.629   2.138   7.491  0.7589 -0.2950  0.9972
 2620SOL     OW19321   0.933   1.927  15.605  0.7090 -0.3518 -0.2738
 2620SOL    HW119322   0.870   1.865  15.568  1.0761 -0.6493 -0.4006
 2620SOL    HW219323   0.882   1.981  15.666  0.7664  0.4554 -0.9450
 2621SOL     OW19324   2.132   1.350   7.230 -0.0919 -0.0476  0.3233
 2621SOL    HW119325   2.143   1.260   7.198  0.7261 -0.1550  0.8978
 2621SOL    HW219326   2.087   1.324   7.311 -0.4742  2.8560  1.0347
 2622SOL     OW19327   0.855   1.755   3.034 -0.3715  0.2536  0.0816
 2622SOL    HW119328   0.900   1.797   2.961  1.3115 -1.7707 -0.0448
 2622SOL    HW219329   0.806   1.834   3.059  1.2875  1.3105  0.0296
 2623SOL     OW19330   1.403   3.749   3.307 -0.1692 -0.3010 -0.0390
 2623SOL    HW119331   1.473   3.709   3.359 -2.4719 -2.0112  1.7848
 2623SOL    HW219332   1.351   3.675   3.276 -1.8555  0.4254  1.0346
 2624SOL     OW19333   0.246   2.353  14.734 -0.3477  0.2363  0.2795
 2624SOL    HW119334   0.233   2.446  14.715  0.8511  0.1082 -1.1847
 2624SOL    HW219335   0.339   2.358  14.714 -0.3624  1.1419  0.4368
 2625SOL     OW19336   2.403   4.228   6.343  0.8183 -0.2099  0.2118
 2625SOL    HW119337   2.479   4.214   6.287  0.9876  1.7974 -0.0427
 2625SOL    HW219338   2.378   4.313   6.309 -0.0806 -0.0951  1.1532
 2626SOL     OW19339   3.105   0.719   3.130 -0.7366  0.3161 -0.1281
 2626SOL    HW119340   3.165   0.664   3.079 -1.9233 -1.4427  0.3510
 2626SOL    HW219341   3.023   0.704   3.082 -1.8085 -0.7815  2.0425
 2627SOL     OW19342   1.483   4.352   8.736 -0.3790  0.2425  0.0106
 2627SOL    HW119343   1.541   4.365   8.661 -0.9833 -1.0070 -0.6681
 2627SOL    HW219344   1.439   4.268   8.729 -1.4599  0.8506 -0.6110
 2628SOL     OW19345   4.184   2.001   4.511 -0.1972 -0.1486 -0.5508
 2628SOL    HW119346   4.201   2.051   4.431  0.4294  0.7855  0.1633
 2628SOL    HW219347   4.256   2.036   4.564 -0.5749 -0.5086  0.2094
 2629SOL     OW19348   2.988   2.018   4.936 -0.1966 -0.2621  0.6491
 2629SOL    HW119349   3.050   1.951   4.907 -1.5751 -2.0403  1.7738
 2629SOL    HW219350   2.932   2.027   4.859  0.1700  0.4033  0.4660
 2630SOL     OW19351   3.869   1.221   3.574 -0.1089  0.3856 -0.0262
 2630SOL    HW119352   3.807   1.155   3.604  1.5463 -0.3383  1.7470
 2630SOL    HW219353   3.842   1.306   3.609  1.3324  0.5808  0.6360
 2631SOL     OW19354   1.155   2.190  13.505 -0.5342  0.1833  0.0048
 2631SOL    HW119355   1.203   2.131  13.447 -1.8485  0.5971 -1.5083
 2631SOL    HW219356   1.079   2.142  13.537 -0.2346 -0.3878 -0.1372
 2632SOL     OW19357   1.611   2.913  11.407  0.1735  0.1484  0.6288
 2632SOL    HW119358   1.560   2.870  11.338  0.1106 -2.3606  2.2067
 2632SOL    HW219359   1.570   2.999  11.403  1.8729  0.7551 -3.6781
 2633SOL     OW19360   3.294   0.603  13.985 -0.2312 -0.1446 -0.3303
 2633SOL    HW119361   3.199   0.595  13.993 -0.2804 -0.8807 -1.6367
 2633SOL    HW219362   3.316   0.663  14.056 -0.6329  0.0333 -0.3499
 2634SOL     OW19363   3.368   3.674   5.892  0.0531  0.2314  0.2008
 2634SOL    HW119364   3.392   3.765   5.876 -0.1802 -0.2267 -2.6984
 2634SOL    HW219365   3.358   3.645   5.801  2.7626 -3.0418  0.9676
 2635SOL     OW19366   3.063   4.692   9.287 -0.0308 -0.1431  0.1489
 2635SOL    HW119367   2.998   4.650   9.343 -1.5863  0.7340 -0.9881
 2635SOL    HW219368   3.137   4.693   9.347  0.2367 -1.0384 -0.1677
 2636SOL     OW19369   0.564   1.898   8.072  0.7604  0.5654 -0.2982
 2636SOL    HW119370   0.572   1.971   8.134  1.5366  0.3522 -0.1553
 2636SOL    HW219371   0.511   1.840   8.127 -1.9114  1.8545 -1.4783
 2637SOL     OW19372   0.346   2.437   5.027  0.2985  0.0974  0.0590
 2637SOL    HW119373   0.385   2.517   5.062  1.9748 -1.9083  2.8224
 2637SOL    HW219374   0.425   2.383   5.021 -0.2413 -0.5668 -1.0621
 2638SOL     OW19375   3.664   4.140   2.654 -0.0742 -0.0053 -0.2688
 2638SOL    HW119376   3.639   4.070   2.593  1.4704  0.1698 -1.0965
 2638SOL    HW219377   3.758   4.146   2.638 -0.2078 -1.0534 -1.4794
 2639SOL     OW19378   0.026   1.760   5.662 -0.1754 -0.1314 -0.3199
 2639SOL    HW119379   0.063   1.673   5.647  1.2067  0.8967 -2.7357
 2639SOL    HW219380   0.062   1.809   5.588  0.7280  0.4648  0.5237
 2640SOL     OW19381   1.428   3.529  15.454  0.7381  0.0907  0.0850
 2640SOL    HW119382   1.363   3.542  15.385  0.9115 -1.3556 -0.3440
 2640SOL    HW219383   1.424   3.434  15.466  0.6298  0.1314  0.3745
 2641SOL     OW19384   0.368   3.297   5.881 -0.4631  0.2194 -0.1915
 2641SOL    HW119385   0.323   3.218   5.851 -1.0145  0.9200 -1.2038
 2641SOL    HW219386   0.331   3.358   5.818 -2.6720  0.6967  1.5884
 2642SOL     OW19387   1.267   3.566   2.694  0.6579 -0.0817 -0.0926
 2642SOL    HW119388   1.332   3.518   2.643 -0.3686  1.3100 -2.7190
 2642SOL    HW219389   1.312   3.587   2.775 -0.7643 -2.1822  1.2264
 2643SOL     OW19390   3.746   2.854  15.295 -0.5764  0.1365 -0.0531
 2643SOL    HW119391   3.735   2.946  15.320 -3.8394 -0.1969 -0.2499
 2643SOL    HW219392   3.840   2.853  15.310 -0.5282 -2.3790 -0.5256
 2644SOL     OW19393   4.289   1.870   5.352  0.1745  0.1176  0.5403
 2644SOL    HW119394   4.247   1.784   5.343  1.0931 -0.0624 -1.7665
 2644SOL    HW219395   4.212   1.926   5.365 -0.2307 -0.6790  1.6524
 2645SOL     OW19396   2.014   3.820   7.399 -0.3914  0.0921 -0.6901
 2645SOL    HW119397   2.043   3.769   7.323 -0.9039  0.7601 -1.3327
 2645SOL    HW219398   2.059   3.902   7.381 -0.9652  0.3657 -0.8817
 2646SOL     OW19399   1.325   2.337   0.360 -0.3152 -0.1831 -0.6219
 2646SOL    HW119400   1.274   2.261   0.390  1.2654 -1.1336 -0.3566
 2646SOL    HW219401   1.407   2.323   0.408  0.1295 -0.8972 -1.5783
 2647SOL     OW19402   2.738   0.566   8.867 -0.4461  0.4049 -0.4793
 2647SOL    HW119403   2.792   0.487   8.862 -0.2110  0.5364 -0.0065
 2647SOL    HW219404   2.647   0.536   8.878  0.2761 -0.6649  2.5811
 2648SOL     OW19405   0.761   2.243  11.230 -0.0841  0.5573  0.6357
 2648SOL    HW119406   0.709   2.188  11.172 -0.5697  2.2067 -0.4813
 2648SOL    HW219407   0.706   2.316  11.258 -0.1482  0.2289  1.3570
 2649SOL     OW19408   4.570   3.684   4.830 -0.1651  0.1976  0.4799
 2649SOL    HW119409   4.506   3.702   4.898  1.5841 -2.2203  2.7351
 2649SOL    HW219410   4.585   3.591   4.847  1.1000  0.4262  0.6637
 2650SOL     OW19411   2.550   3.827   2.072  0.0716  0.3778 -0.8377
 2650SOL    HW119412   2.567   3.743   2.031 -1.2879  0.1892 -1.0406
 2650SOL    HW219413   2.599   3.823   2.153 -0.8496  0.4152 -0.2762
 2651SOL     OW19414   3.956   1.298   3.902  0.1681 -0.1692  0.4296
 2651SOL    HW119415   3.967   1.325   3.993 -1.1087  0.3991  0.4243
 2651SOL    HW219416   3.865   1.327   3.896  0.3477 -0.0173 -1.5135
 2652SOL     OW19417   2.413   4.238  12.406 -0.3158  0.0591  0.8311
 2652SOL    HW119418   2.333   4.251  12.457 -0.3053 -2.2117  1.4177
 2652SOL    HW219419   2.475   4.223  12.477 -0.7708 -0.9513  1.0067
 2653SOL     OW19420   0.549   2.741   7.166 -0.3039  0.6181 -0.9930
 2653SOL    HW119421   0.455   2.737   7.184 -0.2218  0.7479 -0.5309
 2653SOL    HW219422   0.585   2.699   7.244  0.1573 -0.5065 -1.8024
 2654SOL     OW19423   0.385   0.167   5.478  0.3525 -0.4123 -0.6349
 2654SOL    HW119424   0.423   0.080   5.467 -1.9035 -1.3606 -0.9832
 2654SOL    HW219425   0.293   0.149   5.497  0.7439 -0.3794  1.3220
 2655SOL     OW19426   4.361   3.226  12.611  0.1451  0.4531 -0.4432
 2655SOL    HW119427   4.455   3.237  12.597  0.2342 -1.1247 -0.9906
 2655SOL    HW219428   4.348   3.135  12.585  2.5828 -0.6085  2.1217
 2656SOL     OW19429   0.423   0.180   4.307 -0.2561 -0.5747 -0.1062
 2656SOL    HW119430   0.438   0.113   4.241 -2.3398 -1.0611 -0.0742
 2656SOL    HW219431   0.440   0.260   4.257  1.5619 -0.2188  1.0862
 2657SOL     OW19432   0.759   1.169   0.874 -0.3312 -0.2872 -0.0204
 2657SOL    HW119433   0.855   1.171   0.865 -0.3987  1.1290 -0.4691
 2657SOL    HW219434   0.750   1.076   0.894  0.9224  0.0704  2.2226
 2658SOL     OW19435   0.638   1.196   5.357  0.1887  0.4665  0.0578
 2658SOL    HW119436   0.667   1.106   5.348  0.8463  0.6330  0.4166
 2658SOL    HW219437   0.712   1.238   5.313  0.9581 -1.6687 -0.6711
 2659SOL     OW19438   3.262   0.238   2.639 -0.0931  0.0047 -0.1596
 2659SOL    HW119439   3.263   0.302   2.567 -0.0801 -1.0963 -1.1471
 2659SOL    HW219440   3.346   0.193   2.637 -0.0440  0.1830 -2.4823
 2660SOL     OW19441   3.172   4.177   6.773  0.2599  0.2027  0.1440
 2660SOL    HW119442   3.224   4.096   6.768 -2.1630 -1.2943 -0.5524
 2660SOL    HW219443   3.090   4.153   6.729 -0.2403 -4.0697  3.4020
 2661SOL     OW19444   1.072   3.571   8.934 -0.0444 -0.5314 -0.1694
 2661SOL    HW119445   1.035   3.487   8.961 -1.5840  0.3209  0.3429
 2661SOL    HW219446   0.991   3.612   8.903  2.9682  2.9458 -3.4058
 2662SOL     OW19447   2.222   1.923   1.174  0.4494  0.2586 -0.0042
 2662SOL    HW119448   2.155   1.930   1.242  0.8905 -1.2434  0.5726
 2662SOL    HW219449   2.234   1.828   1.177  1.7799  0.4930  1.7143
 2663SOL     OW19450   3.756   3.505   3.481  0.0394  0.0950 -0.4443
 2663SOL    HW119451   3.818   3.500   3.553  2.4543  2.1350 -2.3613
 2663SOL    HW219452   3.684   3.455   3.519 -1.6048  1.6841 -1.4923
 2664SOL     OW19453   1.079   2.756   7.428 -0.3135  0.2015 -0.3890
 2664SOL    HW119454   1.120   2.782   7.511  0.3574  0.2854 -0.7446
 2664SOL    HW219455   1.058   2.664   7.447 -2.8391  1.0514  0.9241
 2665SOL     OW19456   3.639   3.548   2.413  0.4949  0.7224 -0.0087
 2665SOL    HW119457   3.647   3.511   2.500  2.0062 -0.6719 -0.7467
 2665SOL    HW219458   3.610   3.475   2.359  0.5037  1.7533 -1.4353
 2666SOL     OW19459   3.766   2.328   2.717 -0.0150 -0.2014 -0.0699
 2666SOL    HW119460   3.791   2.310   2.626  1.6333 -0.0779  0.3674
 2666SOL    HW219461   3.717   2.410   2.712  1.5654  0.8431  1.6088
 2667SOL     OW19462   2.131   2.889  14.018 -0.3871 -0.1680  0.1202
 2667SOL    HW119463   2.073   2.884  14.094 -1.2000 -0.5364 -0.5230
 2667SOL    HW219464   2.063   2.921  13.957  1.3570  2.1102 -0.6481
 2668SOL     OW19465   2.318   0.661   2.808  0.2473  0.7402 -0.4799
 2668SOL    HW119466   2.328   0.616   2.892  0.0888  0.6029 -0.5363
 2668SOL    HW219467   2.338   0.589   2.748  2.2502  1.3927 -0.6128
 2669SOL     OW19468   1.043   3.448  14.404  0.1403  0.4585 -0.2870
 2669SOL    HW119469   1.096   3.524  14.380  0.5966 -0.1650 -1.2607
 2669SOL    HW219470   1.010   3.427  14.316  1.3082  1.1592 -0.8973
 2670SOL     OW19471   3.312   0.903   3.173 -0.2126  0.1112  0.3069
 2670SOL    HW119472   3.219   0.879   3.169  0.3026 -1.7774 -0.2032
 2670SOL    HW219473   3.314   0.979   3.115  1.6616 -1.1101 -1.2111
 2671SOL     OW19474   1.266   1.939  14.474  0.1286  0.3348  0.3393
 2671SOL    HW119475   1.211   1.989  14.414  0.3220  1.2620  0.9372
 2671SOL    HW219476   1.231   1.852  14.455  0.1535  0.5639 -0.7883
 2672SOL     OW19477   1.651   4.584   2.999 -1.0700  0.1040  0.9376
 2672SOL    HW119478   1.599   4.509   3.029 -0.2703 -1.6361 -1.9489
 2672SOL    HW219479   1.618   4.650   3.059 -0.9883  1.3269 -0.3740
 2673SOL     OW19480   2.896   2.445   5.021 -0.4547 -0.3952  0.3450
 2673SOL    HW119481   2.844   2.507   5.072 -2.7192 -1.4878 -0.6737
 2673SOL    HW219482   2.950   2.490   4.956  1.1142 -1.6183  0.7848
 2674SOL     OW19483   2.780   3.596   8.474  0.6180  0.0037  0.2798
 2674SOL    HW119484   2.810   3.534   8.408  0.1866  0.7830 -0.6526
 2674SOL    HW219485   2.705   3.554   8.515  1.2023 -2.9138 -1.6775
 2675SOL     OW19486   4.070   3.278   8.211  0.0739  0.4523  0.5962
 2675SOL    HW119487   4.060   3.220   8.287  1.1324  0.3757  0.6840
 2675SOL    HW219488   4.068   3.214   8.141  1.8068 -0.2385  1.1598
 2676SOL     OW19489   3.251   3.092  13.953 -0.0390  0.2649  0.1931
 2676SOL    HW119490   3.187   3.146  14.000 -2.4319 -1.9299 -0.5793
 2676SOL    HW219491   3.189   3.029  13.917  3.0831 -2.0760 -1.0811
 2677SOL     OW19492   4.221   0.918  13.849  0.8303 -0.5001 -0.5192
 2677SOL    HW119493   4.180   0.954  13.771  0.7682 -0.9907 -0.7123
 2677SOL    HW219494   4.211   0.993  13.908 -0.7053 -1.6063  0.6450
 2678SOL     OW19495   3.006   4.605  11.037  0.8993 -0.0270  0.5684
 2678SOL    HW119496   2.940   4.658  10.992 -2.4268 -3.3772  1.5080
 2678SOL    HW219497   3.053   4.572  10.960 -0.7851  1.4698 -1.1015
 2679SOL     OW19498   3.524   4.032   1.595 -0.3270 -0.7408 -0.3032
 2679SOL    HW119499   3.457   4.017   1.528  0.7544  0.8697 -1.7284
 2679SOL    HW219500   3.504   4.121   1.621  1.5449 -0.2250 -0.6390
 2680SOL     OW19501   4.420   2.879   1.661  0.2180  0.4258  0.5675
 2680SOL    HW119502   4.436   2.788   1.687 -0.5008 -0.4083 -1.8889
 2680SOL    HW219503   4.489   2.934   1.698  0.1439  1.5468 -0.9359
 2681SOL     OW19504   2.097   3.125   3.204 -0.1601  0.5287 -0.0467
 2681SOL    HW119505   2.035   3.186   3.165 -1.2347 -1.4562 -1.4774
 2681SOL    HW219506   2.086   3.133   3.298  1.2735  0.7973  0.1017
 2682SOL     OW19507   0.903   3.316   5.404 -0.3077  0.3356  0.4678
 2682SOL    HW119508   0.864   3.392   5.445  0.4217  0.3052  1.2314
 2682SOL    HW219509   0.821   3.276   5.376  1.1652 -3.2631  1.1599
 2683SOL     OW19510   0.050   4.338   3.934  0.1208 -0.1061  0.3168
 2683SOL    HW119511   0.143   4.353   3.946  0.4918 -1.2161 -1.1943
 2683SOL    HW219512   0.025   4.429   3.920  0.1139 -0.2384 -0.4875
 2684SOL     OW19513   4.682   0.533   7.101  0.2657  0.1288 -0.4733
 2684SOL    HW119514   4.587   0.527   7.095  0.4997 -1.7834 -2.3220
 2684SOL    HW219515   4.709   0.442   7.114 -0.5620  0.0696  0.8603
 2685SOL     OW19516   2.395   0.136  12.267  0.5019 -0.2061  0.3019
 2685SOL    HW119517   2.429   0.052  12.235  2.0592  1.0475 -1.3747
 2685SOL    HW219518   2.463   0.193  12.231 -1.6762  1.8019 -0.6194
 2686SOL     OW19519   3.338   1.195   7.469  0.2037  0.1844  0.1770
 2686SOL    HW119520   3.382   1.147   7.539  1.3584  0.6680 -0.2001
 2686SOL    HW219521   3.272   1.245   7.516  1.7811  1.8062  0.6468
 2687SOL     OW19522   1.402   4.583   6.574 -0.4838 -0.3868 -0.2552
 2687SOL    HW119523   1.404   4.501   6.525  1.2847 -0.4652 -0.0551
 2687SOL    HW219524   1.402   4.648   6.504  1.7880  1.5435  1.5478
 2688SOL     OW19525   4.678   1.273   4.686  0.1686  0.0514  0.2527
 2688SOL    HW119526   4.646   1.355   4.723 -0.0849  0.6556 -1.3032
 2688SOL    HW219527   4.604   1.253   4.628  0.4536 -3.1827  0.9813
 2689SOL     OW19528   2.411   3.273   1.623 -0.3565  0.1991  0.0874
 2689SOL    HW119529   2.439   3.279   1.532  1.7298 -0.1330  0.7145
 2689SOL    HW219530   2.374   3.185   1.621 -0.3418  0.2457 -2.0213
 2690SOL     OW19531   1.153   4.452   9.148  0.1836  0.5593 -0.0929
 2690SOL    HW119532   1.201   4.431   9.068  2.5430  1.0892  1.1919
 2690SOL    HW219533   1.165   4.367   9.192  0.5500  1.3399  1.3225
 2691SOL     OW19534   1.402   0.986  11.737 -0.6213  0.1616  0.5552
 2691SOL    HW119535   1.429   1.064  11.689  0.1984  0.3215  1.2587
 2691SOL    HW219536   1.477   0.927  11.725 -0.8483 -0.3823  1.8352
 2692SOL     OW19537   4.640   1.206   9.341 -0.7178 -0.2097  0.4237
 2692SOL    HW119538   4.688   1.203   9.424  0.2618  1.6801 -0.0800
 2692SOL    HW219539   4.712   1.214   9.280 -2.6650  0.6124 -1.7512
 2693SOL     OW19540   3.898   0.011   3.316 -0.0286 -0.5794  0.0242
 2693SOL    HW119541   3.876   4.719   3.225  0.0029  2.9154 -0.6914
 2693SOL    HW219542   3.821   0.049   3.358  0.6608 -1.7524  2.3788
 2694SOL     OW19543   2.044   3.050   4.286 -0.0850 -0.9118 -0.0322
 2694SOL    HW119544   2.086   3.101   4.217  0.1207  0.1851  0.9061
 2694SOL    HW219545   2.092   3.083   4.361 -0.9450  3.3901 -1.3476
 2695SOL     OW19546   3.873   3.127   1.217 -0.2544 -0.1108 -0.1789
 2695SOL    HW119547   3.802   3.104   1.157  0.2770  0.9849 -1.2383
 2695SOL    HW219548   3.944   3.112   1.154  0.3639 -1.0790  0.7505
 2696SOL     OW19549   2.094   4.519  11.967  0.4803 -0.2483  0.1800
 2696SOL    HW119550   2.038   4.537  11.891 -0.1557 -2.0727  0.2236
 2696SOL    HW219551   2.176   4.565  11.952  0.8691 -0.5988  1.2322
 2697SOL     OW19552   1.461   1.431   2.926  0.5588  0.8509  0.1495
 2697SOL    HW119553   1.377   1.393   2.898  0.6992  0.6630 -0.0121
 2697SOL    HW219554   1.433   1.462   3.012 -0.2545 -2.7836  1.2013
 2698SOL     OW19555   0.519   4.299   0.654  0.8464  0.3788  0.3596
 2698SOL    HW119556   0.588   4.237   0.634 -0.6705 -0.4160 -2.3477
 2698SOL    HW219557   0.555   4.341   0.733  0.7841  2.1656 -0.5517
 2699SOL     OW19558   2.442   0.459  11.389 -0.1694  0.1115  0.6425
 2699SOL    HW119559   2.501   0.385  11.375  3.0218  2.7814  0.0223
 2699SOL    HW219560   2.360   0.423  11.356  0.3908  1.1719 -1.9104
 2700SOL     OW19561   0.380   3.202   0.461  0.0637 -0.5375  0.3469
 2700SOL    HW119562   0.363   3.155   0.379  0.8196  1.8816 -1.2094
 2700SOL    HW219563   0.298   3.199   0.509 -0.8105 -0.3781 -1.1594
 2701SOL     OW19564   2.146   0.439   4.699 -0.6522 -0.1842  0.3748
 2701SOL    HW119565   2.228   0.413   4.658  0.4642  1.4939  1.5604
 2701SOL    HW219566   2.132   0.524   4.658  1.1949 -0.7170 -1.3735
 2702SOL     OW19567   3.208   2.717  13.467  0.3093  0.1041  0.2222
 2702SOL    HW119568   3.260   2.751  13.540 -1.1166 -0.7393  1.6225
 2702SOL    HW219569   3.145   2.661  13.512 -0.0307  2.2388  2.3956
 2703SOL     OW19570   2.071   0.466   8.355  0.1696  0.8892 -0.6494
 2703SOL    HW119571   2.054   0.496   8.444 -1.8188  1.7880 -1.3177
 2703SOL    HW219572   2.010   0.394   8.340  1.2167 -0.1056 -0.1107
 2704SOL     OW19573   2.761   1.980  12.457  0.1209  0.2471  0.2144
 2704SOL    HW119574   2.724   1.891  12.457  2.0932 -0.5661 -2.6789
 2704SOL    HW219575   2.699   2.017  12.520 -0.6816 -0.8882  0.1042
 2705SOL     OW19576   2.085   4.259  14.002 -0.4014  0.0580 -0.2040
 2705SOL    HW119577   2.099   4.221  13.915  2.8075  0.6495  0.0418
 2705SOL    HW219578   2.168   4.226  14.035 -0.5773 -0.1209  0.0572
 2706SOL     OW19579   3.243   2.034  16.251 -0.6194 -0.0978 -0.1131
 2706SOL    HW119580   3.161   2.030  16.300 -0.3377 -0.1019  0.3617
 2706SOL    HW219581   3.207   2.048  16.164  0.6210  0.8000 -0.4755
 2707SOL     OW19582   0.392   0.558  13.975 -0.1917 -0.4058 -0.2539
 2707SOL    HW119583   0.348   0.474  13.964  0.5561 -1.0175  1.5403
 2707SOL    HW219584   0.449   0.533  14.047 -1.5322 -1.6172  0.3749
 2708SOL     OW19585   0.948   2.823   1.050 -0.0447 -0.4113 -0.1103
 2708SOL    HW119586   0.960   2.791   1.140 -0.8822 -0.2477  0.0592
 2708SOL    HW219587   1.028   2.874   1.040 -0.1051 -0.2654  0.1540
 2709SOL     OW19588   0.390   0.244   5.093  0.2684 -0.1496  0.1753
 2709SOL    HW119589   0.356   0.254   5.004  0.0947 -0.9733  0.1467
 2709SOL    HW219590   0.350   0.158   5.106 -1.7956  0.9238  0.9454
 2710SOL     OW19591   1.287   4.103   6.570  0.2098  0.5653  0.0937
 2710SOL    HW119592   1.215   4.116   6.632 -2.3148  0.1184 -2.7238
 2710SOL    HW219593   1.362   4.084   6.626  1.1922  1.8070 -0.7890
 2711SOL     OW19594   1.890   1.007   5.463  0.0698  0.0625  0.3543
 2711SOL    HW119595   1.865   0.968   5.547  0.5250 -2.0693 -0.5180
 2711SOL    HW219596   1.802   1.010   5.425 -0.2063  0.5259  1.0304
 2712SOL     OW19597   2.208   4.483   4.231  0.2730 -0.7777 -0.5652
 2712SOL    HW119598   2.114   4.479   4.211  0.0243 -0.4307  0.5560
 2712SOL    HW219599   2.216   4.390   4.251 -1.1409 -0.5252  1.1344
 2713SOL     OW19600   1.144   3.924   7.207 -0.1765  0.2585 -0.0374
 2713SOL    HW119601   1.149   4.012   7.169  0.1750 -0.9709 -2.8109
 2713SOL    HW219602   1.216   3.926   7.271  0.5268 -1.5074 -0.7923
 2714SOL     OW19603   1.109   0.993   5.243 -0.0616  0.4204  0.0846
 2714SOL    HW119604   1.165   0.921   5.270 -0.3343 -0.5906 -2.0552
 2714SOL    HW219605   1.044   0.938   5.199 -0.2819 -1.1254  2.3413
 2715SOL     OW19606   0.051   3.989  15.428  0.3906  0.5412 -0.1012
 2715SOL    HW119607   0.037   3.901  15.394 -0.1673  0.5592  0.0714
 2715SOL    HW219608   4.688   4.025  15.439 -0.1469 -0.7734 -0.1486
 2716SOL     OW19609   2.251   1.345   3.212  1.2330  0.2348  0.2873
 2716SOL    HW119610   2.252   1.431   3.169  0.7630 -1.2095 -2.5793
 2716SOL    HW219611   2.302   1.284   3.159  0.7491 -0.7546  0.9788
 2717SOL     OW19612   2.952   4.081   4.263 -0.2442 -0.0400 -0.5595
 2717SOL    HW119613   2.931   4.173   4.272 -2.3372 -0.4562 -1.1723
 2717SOL    HW219614   3.046   4.089   4.281 -0.6070 -0.2133  1.5131
 2718SOL     OW19615   1.921   1.363   6.377  0.4644 -0.0340  0.0876
 2718SOL    HW119616   1.966   1.286   6.413  1.2176  0.3528 -0.0131
 2718SOL    HW219617   1.835   1.347   6.415  1.3085  0.1024  2.0346
 2719SOL     OW19618   3.736   2.600   7.905 -0.1037 -0.4609  0.3383
 2719SOL    HW119619   3.697   2.645   7.830  2.5139  1.7595  0.3110
 2719SOL    HW219620   3.672   2.530   7.921 -1.1207  0.7376  1.5152
 2720SOL     OW19621   2.026   0.366   6.296 -0.5958 -0.6225 -0.4689
 2720SOL    HW119622   1.947   0.316   6.314 -0.5711 -0.0705  1.2031
 2720SOL    HW219623   2.096   0.302   6.301  0.3322  0.3803 -0.5234
 2721SOL     OW19624   2.534   0.127   1.383  0.1803  0.2591  0.0232
 2721SOL    HW119625   2.611   0.157   1.334  1.2353  0.4017  1.7909
 2721SOL    HW219626   2.528   0.196   1.449  1.3863 -0.4128  0.8296
 2722SOL     OW19627   4.640   1.091   7.932 -0.0249  0.8610  0.3499
 2722SOL    HW119628   4.724   1.055   7.958 -1.0791 -2.5577 -1.0613
 2722SOL    HW219629   4.665   1.173   7.889  0.9261  0.4724  0.1762
 2723SOL     OW19630   3.866   2.938   8.463  0.6707  0.5251 -0.2305
 2723SOL    HW119631   3.826   2.909   8.380  0.8689  0.6555 -0.3712
 2723SOL    HW219632   3.851   2.861   8.518  0.7256  1.5277  1.1847
 2724SOL     OW19633   0.767   0.388  16.676 -0.3057  0.2513 -0.2219
 2724SOL    HW119634   0.776   0.370  16.770 -1.6220 -0.9547 -0.3442
 2724SOL    HW219635   0.834   0.334  16.633  0.9330  1.7457 -0.1782
 2725SOL     OW19636   0.872   0.418  16.153  0.4454 -0.8037 -0.8373
 2725SOL    HW119637   0.904   0.507  16.136  1.6171 -1.4953 -2.2833
 2725SOL    HW219638   0.873   0.393  16.060  0.4126  0.1899 -1.1070
 2726SOL     OW19639   1.093   2.244   8.386  0.4747  0.5858  0.2439
 2726SOL    HW119640   1.178   2.215   8.421  0.4251 -1.6569 -1.4934
 2726SOL    HW219641   1.069   2.166   8.337  1.8377 -0.0758  0.6286
 2727SOL     OW19642   3.849   0.205   8.972 -0.6812  0.3909  0.4870
 2727SOL    HW119643   3.789   0.280   8.978  0.5268  1.2649  1.8287
 2727SOL    HW219644   3.792   0.130   8.957 -0.0194 -0.2666  1.2533
 2728SOL     OW19645   0.725   1.593   9.307 -0.7099 -0.0287  0.3185
 2728SOL    HW119646   0.806   1.642   9.320 -0.4564 -0.0279 -1.1859
 2728SOL    HW219647   0.684   1.595   9.393  0.9268  1.0924  1.0646
 2729SOL     OW19648   0.558   0.740  12.659  0.1728 -0.3352 -0.5542
 2729SOL    HW119649   0.585   0.717  12.570 -0.1757 -2.3693 -0.1302
 2729SOL    HW219650   0.604   0.824  12.668 -2.6418  1.1676 -0.0771
 2730SOL     OW19651   1.863   4.390   8.414 -0.3095  0.3518 -0.4367
 2730SOL    HW119652   1.915   4.449   8.469  2.9671 -2.3248 -0.6890
 2730SOL    HW219653   1.919   4.385   8.337  0.1535  1.8205 -0.1817
 2731SOL     OW19654   4.552   3.834   4.120  0.1003  0.0609 -0.6487
 2731SOL    HW119655   4.621   3.894   4.150  0.2745 -1.9565  2.9915
 2731SOL    HW219656   4.578   3.851   4.029  1.4270  0.3823 -0.2207
 2732SOL     OW19657   2.014   0.265   6.925  0.5172  0.1862  0.1114
 2732SOL    HW119658   2.108   0.254   6.942  0.8685 -0.5016 -2.2524
 2732SOL    HW219659   1.995   0.357   6.907  0.1005  0.5151  2.2994
 2733SOL     OW19660   2.837   2.226   3.851 -0.1414 -0.1175  0.2453
 2733SOL    HW119661   2.804   2.163   3.787  0.2832 -0.5935  0.5035
 2733SOL    HW219662   2.756   2.274   3.871  0.3703  0.5643  0.6955
 2734SOL     OW19663   1.573   0.944   8.917 -0.2817  0.0924 -0.3875
 2734SOL    HW119664   1.501   0.994   8.879 -1.0785  1.6550  3.0875
 2734SOL    HW219665   1.644   0.954   8.854 -0.0804  1.1163  0.0004
 2735SOL     OW19666   4.411   0.966   6.190 -0.1320  0.6447 -0.1085
 2735SOL    HW119667   4.431   1.014   6.270  0.4557 -1.3661  0.9417
 2735SOL    HW219668   4.438   0.877   6.212  1.6292  0.8713 -1.4166
 2736SOL     OW19669   1.337   3.537   7.955 -0.1854  0.5881 -0.5286
 2736SOL    HW119670   1.279   3.597   8.000  3.1390  1.6291  2.3495
 2736SOL    HW219671   1.395   3.599   7.911 -0.7510  0.8187 -0.9473
 2737SOL     OW19672   2.054   0.039   3.374  0.2036  0.1221 -0.3478
 2737SOL    HW119673   2.001   0.027   3.453 -0.7041 -1.6902 -1.2268
 2737SOL    HW219674   2.138   0.070   3.407  0.1333  0.8196 -0.8436
 2738SOL     OW19675   1.101   1.349   3.720  0.5037 -0.1149 -0.0910
 2738SOL    HW119676   1.137   1.292   3.652 -1.7868  0.3521 -1.6935
 2738SOL    HW219677   1.051   1.286   3.771  2.3509 -1.5926 -0.0792
 2739SOL     OW19678   0.657   3.748   5.690  0.9219  0.2274  0.1754
 2739SOL    HW119679   0.659   3.674   5.751  1.8167  0.0386 -0.0769
 2739SOL    HW219680   0.563   3.759   5.674  1.3048  1.4112 -1.2543
 2740SOL     OW19681   3.263   4.377   4.684  0.0770 -0.1291 -0.0644
 2740SOL    HW119682   3.340   4.350   4.733  0.4157  0.7129 -0.1364
 2740SOL    HW219683   3.218   4.293   4.673 -0.3410  0.3043 -1.7256
 2741SOL     OW19684   2.367   3.327   3.660  0.0432  0.3098 -0.7946
 2741SOL    HW119685   2.366   3.421   3.676 -1.5473  0.3275 -1.0126
 2741SOL    HW219686   2.337   3.326   3.569  0.6255  0.4422 -0.9868
 2742SOL     OW19687   3.428   1.439  16.282  0.3882 -0.6851  0.3064
 2742SOL    HW119688   3.420   1.364  16.223 -1.0216 -1.0042  0.9100
 2742SOL    HW219689   3.511   1.415  16.324 -0.2841  0.7425  2.4346
 2743SOL     OW19690   2.782   0.620  13.382 -0.0160  0.2103  0.0250
 2743SOL    HW119691   2.747   0.603  13.469 -0.1288 -0.9856 -0.2582
 2743SOL    HW219692   2.704   0.638  13.329 -1.2816 -1.3037  1.4283
 2744SOL     OW19693   2.140   1.420   8.885 -0.3246 -0.5132  0.3389
 2744SOL    HW119694   2.198   1.469   8.827 -0.1120 -2.6656 -1.2757
 2744SOL    HW219695   2.179   1.447   8.968  0.4824  1.9440 -0.8426
 2745SOL     OW19696   4.469   2.626  13.321  0.7328  0.1914  0.2291
 2745SOL    HW119697   4.381   2.638  13.286  0.8529 -0.4654 -0.2882
 2745SOL    HW219698   4.447   2.588  13.406 -0.7403 -0.9702 -0.6812
 2746SOL     OW19699   3.062   1.584   6.650  0.4641 -0.0380  0.5791
 2746SOL    HW119700   2.971   1.573   6.622  0.3156 -0.2414  1.1361
 2746SOL    HW219701   3.051   1.678   6.665 -1.2705  0.0111 -0.9987
 2747SOL     OW19702   2.961   3.799   4.615  0.0812 -0.2711  0.4316
 2747SOL    HW119703   2.917   3.852   4.548 -1.0880 -2.1315 -0.3070
 2747SOL    HW219704   2.888   3.788   4.676  0.1732  0.4206  0.6630
 2748SOL     OW19705   3.530   4.256   3.595 -0.1722  0.1806  0.3485
 2748SOL    HW119706   3.554   4.342   3.560  1.5139 -0.0695  0.9114
 2748SOL    HW219707   3.436   4.274   3.602  0.3585  2.7468  0.9831
 2749SOL     OW19708   0.101   1.277   1.330  0.2583  0.1506  0.3641
 2749SOL    HW119709   0.165   1.207   1.318 -2.3661 -2.2456  0.3239
 2749SOL    HW219710   0.027   1.239   1.283  1.2269 -0.7232 -0.4432
 2750SOL     OW19711   4.492   2.730   4.809  0.2009 -0.0459 -0.1487
 2750SOL    HW119712   4.461   2.656   4.862 -1.3823  0.0181 -0.9980
 2750SOL    HW219713   4.427   2.796   4.835 -0.9585 -1.0124 -0.6241
 2751SOL     OW19714   3.836   0.746   6.167  0.2226  0.3251  0.2260
 2751SOL    HW119715   3.918   0.745   6.118  0.5386 -0.5259  0.7557
 2751SOL    HW219716   3.850   0.820   6.225  0.2618  0.2776  0.2772
 2752SOL     OW19717   0.713   0.885   7.329  0.6162  0.2080 -0.4181
 2752SOL    HW119718   0.808   0.895   7.321  0.7509 -0.9885 -0.2084
 2752SOL    HW219719   0.696   0.797   7.295  0.7358  0.3967 -0.9588
 2753SOL     OW19720   4.040   3.764   5.466  0.0513 -0.4182  0.0442
 2753SOL    HW119721   3.965   3.720   5.506 -0.7727  1.3821  0.4880
 2753SOL    HW219722   4.058   3.834   5.529 -1.0306 -1.3552  1.3911
 2754SOL     OW19723   1.553   1.994   5.115  0.2303 -0.4766  0.3486
 2754SOL    HW119724   1.601   1.954   5.187  0.4729  2.4531  1.8182
 2754SOL    HW219725   1.548   1.926   5.048  2.0504  2.7934 -3.1045
 2755SOL     OW19726   1.332   3.594  12.163 -0.2787 -0.1004  0.0165
 2755SOL    HW119727   1.411   3.571  12.115 -0.5775 -2.5205  0.7005
 2755SOL    HW219728   1.316   3.659  12.095  0.8817 -0.1122 -0.2635
 2756SOL     OW19729   3.000   4.611  16.655 -0.0651 -0.2783 -0.3251
 2756SOL    HW119730   2.956   4.611  16.570  0.7515 -2.4614 -0.7314
 2756SOL    HW219731   3.009   4.517  16.666  0.5242  0.2497  3.6210
 2757SOL     OW19732   0.119   1.230   7.013 -0.1872  0.0496 -0.7598
 2757SOL    HW119733   0.057   1.228   7.086  0.5896  0.1039 -0.1101
 2757SOL    HW219734   0.067   1.249   6.934 -0.7103 -2.2640 -0.9596
 2758SOL     OW19735   0.230   1.088  17.519  0.3213 -0.0132 -0.7028
 2758SOL    HW119736   0.152   1.070  17.466 -1.5894  2.3875  1.2472
 2758SOL    HW219737   0.192   1.076  17.607  2.5937 -0.3097  0.2330
 2759SOL     OW19738   0.428   1.515   6.581  0.3215 -0.4125  0.7392
 2759SOL    HW119739   0.466   1.442   6.533  1.0847  0.6250 -0.2304
 2759SOL    HW219740   0.429   1.582   6.513 -0.9285 -0.7020  0.4170
 2760SOL     OW19741   1.699   4.526  12.979  0.2177 -0.1703 -0.1453
 2760SOL    HW119742   1.696   4.620  12.995 -0.7802  0.0729 -1.8172
 2760SOL    HW219743   1.636   4.489  13.041 -1.0356  2.3170  0.0591
 2761SOL     OW19744   4.078   3.438   4.901 -0.5061 -0.1897 -0.2396
 2761SOL    HW119745   4.105   3.347   4.912 -0.1955  0.2631  2.7606
 2761SOL    HW219746   3.993   3.432   4.945  0.0428  3.0372  1.3179
 2762SOL     OW19747   3.429   2.104   8.230 -0.0382 -0.7947 -0.1575
 2762SOL    HW119748   3.458   2.096   8.321 -1.4611 -2.7727  0.1220
 2762SOL    HW219749   3.500   2.144   8.179 -0.8238  0.3673 -0.3404
 2763SOL     OW19750   2.463   0.498  14.316  0.6546  0.3857  0.3106
 2763SOL    HW119751   2.487   0.525  14.228  3.4150 -2.0048  0.3303
 2763SOL    HW219752   2.550   0.473  14.347 -0.1940 -1.3278  1.3592
 2764SOL     OW19753   2.294   4.277   8.998 -0.1039 -0.2565 -0.0670
 2764SOL    HW119754   2.230   4.236   8.941  0.0216 -0.2466 -0.2140
 2764SOL    HW219755   2.241   4.347   9.038  0.6639 -0.5179  1.4307
 2765SOL     OW19756   2.934   4.611   1.987  0.9491  0.4506  0.1022
 2765SOL    HW119757   2.845   4.625   1.954  0.6412 -1.5787  0.0940
 2765SOL    HW219758   2.948   4.539   1.925 -1.0025 -2.0006  2.5413
 2766SOL     OW19759   0.196   1.654  16.942  0.0590  0.1444 -0.1894
 2766SOL    HW119760   0.196   1.748  16.924 -1.7986  0.0210 -0.8684
 2766SOL    HW219761   0.277   1.633  16.896  1.6150  3.8037  0.8597
 2767SOL     OW19762   0.694   0.922   4.171 -0.4176 -0.2605 -0.1084
 2767SOL    HW119763   0.654   0.848   4.126 -0.4091 -0.2589 -0.1187
 2767SOL    HW219764   0.616   0.973   4.192 -0.4404 -1.1529  1.9403
 2768SOL     OW19765   3.314   0.888  12.962 -0.0258  0.4310  0.4723
 2768SOL    HW119766   3.277   0.801  12.951  0.8535  0.1977 -0.7323
 2768SOL    HW219767   3.397   0.866  13.005 -1.2585 -1.1945  2.0262
 2769SOL     OW19768   2.415   4.323   2.368 -0.1622 -0.2487 -0.8345
 2769SOL    HW119769   2.393   4.415   2.386  4.7797  0.6634  0.5265
 2769SOL    HW219770   2.335   4.293   2.325 -0.1715 -1.7564  0.2373
 2770SOL     OW19771   2.339   3.299   7.762 -0.2732 -0.1888 -0.7958
 2770SOL    HW119772   2.395   3.359   7.713  1.2794  0.5154  1.8590
 2770SOL    HW219773   2.323   3.232   7.695 -1.0954 -0.5074 -0.2779
 2771SOL     OW19774   2.811   4.480   7.654 -0.1390  0.6332  0.2639
 2771SOL    HW119775   2.881   4.543   7.674  0.2554  0.1969  0.2485
 2771SOL    HW219776   2.727   4.526   7.649 -0.0609  0.7890  0.3621
 2772SOL     OW19777   2.722   2.172   2.934  0.7247  0.8816  0.0378
 2772SOL    HW119778   2.799   2.133   2.895  0.2949  2.0607 -1.9804
 2772SOL    HW219779   2.667   2.093   2.932  0.1416  1.1688  4.1541
 2773SOL     OW19780   2.827   2.448   6.951 -0.3477  0.2264  0.3397
 2773SOL    HW119781   2.747   2.429   7.000  1.1714 -2.0274  1.9635
 2773SOL    HW219782   2.899   2.456   7.013 -0.3108  0.6602  0.2382
 2774SOL     OW19783   3.259   0.602   2.956 -0.4946 -0.2519  0.5020
 2774SOL    HW119784   3.267   0.627   2.863  0.7323 -4.0470 -0.4069
 2774SOL    HW219785   3.235   0.510   2.942 -0.1946 -0.1014 -1.0759
 2775SOL     OW19786   1.927   2.133   5.485  0.0959 -0.3776  0.4517
 2775SOL    HW119787   2.007   2.107   5.439  0.8692 -0.1058  1.6384
 2775SOL    HW219788   1.890   2.055   5.527  2.3659 -1.5387  0.2804
 2776SOL     OW19789   3.522   2.402   7.961 -0.0058  0.0243 -0.0288
 2776SOL    HW119790   3.550   2.356   8.041 -2.0675 -1.8823 -0.3904
 2776SOL    HW219791   3.518   2.322   7.909  1.4260  1.0832 -1.7325
 2777SOL     OW19792   4.301   4.312  10.540 -0.2304  0.3003 -0.1079
 2777SOL    HW119793   4.259   4.287  10.458  1.7125  0.6759 -1.2070
 2777SOL    HW219794   4.393   4.326  10.517 -0.2787  2.2366  0.8657
 2778SOL     OW19795   0.121   0.056  13.205  0.1659  0.5913  0.0125
 2778SOL    HW119796   0.201   0.074  13.255 -0.1160 -2.3346  1.5025
 2778SOL    HW219797   0.139   0.068  13.112 -2.8557  4.3822 -0.0725
 2779SOL     OW19798   2.618   0.512  11.624  0.0020  0.1767 -0.4372
 2779SOL    HW119799   2.559   0.519  11.549 -0.6181 -0.6524 -0.0323
 2779SOL    HW219800   2.615   0.605  11.645 -4.9923 -0.3093  1.0624
 2780SOL     OW19801   4.043   1.958   9.625  0.1786  0.7406 -0.0869
 2780SOL    HW119802   4.087   2.031   9.669 -2.4546  1.3731  1.4964
 2780SOL    HW219803   4.112   1.920   9.570 -1.3549 -0.1057 -1.4061
 2781SOL     OW19804   3.055   4.298  11.041  0.1714  0.1378  0.4995
 2781SOL    HW119805   2.993   4.227  11.024 -0.8530  1.3472 -0.8699
 2781SOL    HW219806   3.135   4.266  11.000 -1.1965 -0.4915 -1.6646
 2782SOL     OW19807   1.368   2.172   0.591  0.2317 -0.7989  0.0805
 2782SOL    HW119808   1.450   2.146   0.633 -0.1091  0.0315  1.2531
 2782SOL    HW219809   1.340   2.244   0.648  0.4315 -1.3638  0.8982
 2783SOL     OW19810   0.462   0.010   1.668 -0.5174  0.2498 -0.2528
 2783SOL    HW119811   0.441   0.103   1.657  1.0807  0.4442 -1.5602
 2783SOL    HW219812   0.401   4.702   1.603 -0.5503 -1.0726  0.4627
 2784SOL     OW19813   0.091   3.189   8.496 -0.2297 -0.2988  0.2329
 2784SOL    HW119814   0.055   3.249   8.562  0.2987  2.0384 -1.6076
 2784SOL    HW219815   0.019   3.128   8.480 -0.5647  0.6395 -1.7854
 2785SOL     OW19816   0.031   1.973   3.471 -0.0753  0.0553 -0.1971
 2785SOL    HW119817   0.002   1.934   3.554  2.1033 -2.7416 -0.7274
 2785SOL    HW219818   0.070   2.052   3.506 -0.4970 -0.4445  1.4211
 2786SOL     OW19819   0.081   1.223   1.613 -0.2388 -0.2008  0.2261
 2786SOL    HW119820   0.169   1.259   1.624  0.3441 -0.6469 -2.9778
 2786SOL    HW219821   0.079   1.242   1.519  1.1049 -2.2109 -0.2190
 2787SOL     OW19822   2.398   3.749   1.411  0.1476 -0.4407  0.2170
 2787SOL    HW119823   2.464   3.750   1.480 -1.3133 -1.6297  1.6276
 2787SOL    HW219824   2.333   3.690   1.448  0.1266 -2.0510 -2.3531
 2788SOL     OW19825   1.334   2.477   2.712 -0.3193  0.3528  0.0682
 2788SOL    HW119826   1.288   2.553   2.748 -1.4761 -0.6494  0.7039
 2788SOL    HW219827   1.369   2.510   2.629  3.7923 -1.0078  1.2721
 2789SOL     OW19828   2.681   0.642  15.052  0.1789  0.3047  0.1450
 2789SOL    HW119829   2.596   0.597  15.052  0.4579 -0.2114 -0.1553
 2789SOL    HW219830   2.666   0.688  15.135 -1.9192 -0.8764  0.4206
 2790SOL     OW19831   2.084   0.540   7.949  0.5852  0.3198  0.1113
 2790SOL    HW119832   2.030   0.561   8.026 -1.6072 -0.4699 -1.2044
 2790SOL    HW219833   2.028   0.528   7.873  0.3316 -2.2226  0.7033
 2791SOL     OW19834   1.659   3.164  17.005 -0.4976  0.2983  0.5077
 2791SOL    HW119835   1.591   3.167  17.073  0.2993 -0.0750  1.3181
 2791SOL    HW219836   1.721   3.105  17.048 -0.9025  0.2626  1.0476
 2792SOL     OW19837   3.059   4.561   5.481 -1.1328 -0.2325  0.0622
 2792SOL    HW119838   3.139   4.538   5.433 -0.0949 -0.6306  1.9635
 2792SOL    HW219839   3.084   4.643   5.525 -0.9763 -0.7455  0.9223
 2793SOL     OW19840   1.356   1.956   9.585  0.1744  0.2417  0.2404
 2793SOL    HW119841   1.365   2.005   9.667  1.9043 -0.2083  0.3196
 2793SOL    HW219842   1.415   1.882   9.600 -1.9145 -0.9833  2.5796
 2794SOL     OW19843   2.670   4.246  15.305 -0.2373 -0.4184  0.0929
 2794SOL    HW119844   2.658   4.255  15.211 -2.2352  1.4604  0.5364
 2794SOL    HW219845   2.584   4.217  15.336 -2.5377  1.6484 -4.4902
 2795SOL     OW19846   1.903   0.611   5.259  0.2553  0.0246  0.2347
 2795SOL    HW119847   1.918   0.608   5.353 -1.7232  1.7255  0.6001
 2795SOL    HW219848   1.909   0.520   5.231 -0.9612  0.0044  0.0293
 2796SOL     OW19849   2.688   3.322   5.993 -0.0693  0.1267 -0.0546
 2796SOL    HW119850   2.597   3.351   5.982  0.0345  0.3299 -0.3748
 2796SOL    HW219851   2.723   3.374   6.065  3.3093 -0.6572 -1.1429
 2797SOL     OW19852   2.810   1.558   5.761  0.2182 -0.3632  0.6052
 2797SOL    HW119853   2.825   1.551   5.667 -2.6379  0.9744  0.0653
 2797SOL    HW219854   2.763   1.477   5.782  0.5405 -0.7359 -0.1146
 2798SOL     OW19855   1.962   1.457   6.707 -0.1100 -0.0520  0.0356
 2798SOL    HW119856   2.038   1.415   6.747 -1.1051 -1.8236  0.0589
 2798SOL    HW219857   1.890   1.401   6.734 -2.1645  1.3971 -2.4157
 2799SOL     OW19858   2.275   3.117   8.768 -0.4801  0.8864  0.1201
 2799SOL    HW119859   2.348   3.062   8.796  0.2974  2.0681  0.4375
 2799SOL    HW219860   2.207   3.077   8.821 -1.7913  1.0021 -1.4644
 2800SOL     OW19861   3.699   4.715  11.097  0.0064 -0.3173 -0.1200
 2800SOL    HW119862   3.637   0.015  11.165  0.6987 -2.0160  1.1546
 2800SOL    HW219863   3.780   4.686  11.139 -0.6726 -1.4555  0.4097
 2801SOL     OW19864   0.551   3.758   3.215 -0.5421 -0.4164  0.3083
 2801SOL    HW119865   0.582   3.695   3.150 -0.6918  0.0427 -0.2078
 2801SOL    HW219866   0.617   3.826   3.200 -1.5272  0.4980  0.1025
 2802SOL     OW19867   0.872   2.883  11.690  0.0206 -0.3490  0.1573
 2802SOL    HW119868   0.889   2.912  11.780 -2.7880  1.3932  0.1311
 2802SOL    HW219869   0.963   2.885  11.661  0.4899  0.2550  1.6684
 2803SOL     OW19870   4.209   0.285   7.010 -0.0811  0.2295  0.0514
 2803SOL    HW119871   4.237   0.233   7.086  1.5377  0.2036 -0.5531
 2803SOL    HW219872   4.147   0.228   6.965 -0.4580  0.2467  0.5437
 2804SOL     OW19873   2.461   1.904   1.840  0.2369 -0.1654  0.0949
 2804SOL    HW119874   2.417   1.979   1.881  0.0433 -0.5225  0.5555
 2804SOL    HW219875   2.508   1.866   1.914 -0.2194  0.6792  0.8243
 2805SOL     OW19876   3.028   0.739   8.351  0.3922 -0.4894 -0.0149
 2805SOL    HW119877   3.010   0.712   8.261 -1.4042  3.6835 -0.8970
 2805SOL    HW219878   2.949   0.702   8.392 -0.8760  1.6020 -0.6000
 2806SOL     OW19879   0.853   0.079  10.729  0.1930  0.3026  0.1694
 2806SOL    HW119880   0.836   0.173  10.731 -2.7710 -0.2142 -0.1027
 2806SOL    HW219881   0.944   0.089  10.756  0.2868  1.8741 -0.7223
 2807SOL     OW19882   3.129   4.391   1.738 -0.4062  0.1303  0.2092
 2807SOL    HW119883   3.070   4.400   1.813  1.4082 -0.7589  1.7592
 2807SOL    HW219884   3.124   4.296   1.732  1.2935  0.1680 -1.7297
 2808SOL     OW19885   3.919   3.569   8.454 -0.4700  0.3457 -0.2709
 2808SOL    HW119886   3.892   3.613   8.535 -0.8670 -0.8881  0.2610
 2808SOL    HW219887   4.013   3.559   8.473 -0.5463 -0.7906 -0.4892
 2809SOL     OW19888   1.921   1.629   1.623 -0.1778 -0.5288 -0.9241
 2809SOL    HW119889   2.013   1.645   1.646 -1.2165  0.5177  2.5071
 2809SOL    HW219890   1.924   1.543   1.581  0.2219 -0.7302 -0.4874
 2810SOL     OW19891   3.210   2.219   2.948 -0.9637  0.0790  0.2382
 2810SOL    HW119892   3.244   2.228   3.037  6.4112 -0.0057 -2.6142
 2810SOL    HW219893   3.211   2.124   2.950  1.7677  0.1215 -0.2225
 2811SOL     OW19894   0.662   0.457  12.474 -0.1036  0.4372 -0.3399
 2811SOL    HW119895   0.585   0.512  12.465  0.7498  1.7481  0.3805
 2811SOL    HW219896   0.626   0.389  12.530  0.1839 -0.0871 -0.7911
 2812SOL     OW19897   2.595   4.630   8.816 -0.0101 -0.0507 -0.2936
 2812SOL    HW119898   2.522   4.635   8.754 -0.3105 -3.0630 -0.2035
 2812SOL    HW219899   2.603   4.718   8.853  0.0503 -0.5032  0.7832
 2813SOL     OW19900   0.668   0.990  12.713  0.5121  0.4982 -0.8235
 2813SOL    HW119901   0.625   1.039  12.643 -2.6665  0.0933  0.8032
 2813SOL    HW219902   0.758   0.973  12.687 -0.1413  0.0187 -2.8012
 2814SOL     OW19903   1.426   3.544   2.925  0.7703  0.3103  0.5763
 2814SOL    HW119904   1.447   3.625   2.880 -0.3194  0.5015  0.4137
 2814SOL    HW219905   1.513   3.511   2.948  0.3443 -1.1891  0.1024
 2815SOL     OW19906   3.018   2.832  11.416 -0.3522 -0.1947 -0.4733
 2815SOL    HW119907   3.023   2.902  11.351 -2.3620  0.3270 -0.0465
 2815SOL    HW219908   2.947   2.785  11.374 -2.0086  1.2636  0.6591
 2816SOL     OW19909   3.503   1.827   6.001 -0.1266 -0.1232  0.1259
 2816SOL    HW119910   3.465   1.755   5.951 -3.9831  0.4501  2.1669
 2816SOL    HW219911   3.585   1.832   5.952 -1.2979 -1.8661 -1.9949
 2817SOL     OW19912   2.432   1.479   6.538  0.3258 -0.2085 -0.2997
 2817SOL    HW119913   2.378   1.409   6.502 -0.0182 -1.7857  3.2199
 2817SOL    HW219914   2.500   1.477   6.471 -0.9093 -0.3299 -1.5529
 2818SOL     OW19915   3.316   0.040   7.416  0.2232  0.0272 -0.1421
 2818SOL    HW119916   3.261   0.103   7.369  0.1847 -2.1840 -3.0620
 2818SOL    HW219917   3.366   0.100   7.471 -0.2555  0.6729 -0.4227
 2819SOL     OW19918   2.429   1.575   9.379  0.8388 -0.4790 -0.8025
 2819SOL    HW119919   2.434   1.480   9.366 -1.0182 -0.3653 -2.4591
 2819SOL    HW219920   2.400   1.565   9.470  0.8418 -1.1717 -0.8740
 2820SOL     OW19921   0.993   1.761   5.695 -0.7041 -0.3298 -0.0894
 2820SOL    HW119922   1.064   1.804   5.647 -0.8286 -0.0234 -0.0057
 2820SOL    HW219923   0.947   1.715   5.626  0.2522 -1.8861  0.3187
 2821SOL     OW19924   4.160   3.406  11.828 -0.2443 -0.2975 -0.6314
 2821SOL    HW119925   4.191   3.331  11.777 -0.3443 -1.3391  0.8336
 2821SOL    HW219926   4.226   3.418  11.896 -0.5634  0.6910 -0.4988
 2822SOL     OW19927   0.156   1.919   5.882 -0.4907  0.4731 -0.0704
 2822SOL    HW119928   0.097   1.844   5.882 -0.1977  0.2326  1.3225
 2822SOL    HW219929   0.152   1.936   5.788  1.1205  1.8985  0.1052
 2823SOL     OW19930   2.382   0.495  16.905 -0.7242 -0.4246 -0.6897
 2823SOL    HW119931   2.288   0.476  16.907 -0.3194 -2.2477  0.6716
 2823SOL    HW219932   2.401   0.478  16.813  1.3924 -1.2535 -0.1012
 2824SOL     OW19933   3.516   0.914   0.242 -0.0544 -0.9394 -0.1976
 2824SOL    HW119934   3.561   0.973   0.182  1.0318  0.2964  1.8227
 2824SOL    HW219935   3.505   0.974   0.316 -0.6959 -1.2226 -0.0609
 2825SOL     OW19936   2.603   1.020   7.172 -0.0098 -0.0789  0.3767
 2825SOL    HW119937   2.667   0.986   7.234  2.0988  1.2989 -1.0254
 2825SOL    HW219938   2.549   1.076   7.227 -1.3810 -1.5081  0.4844
 2826SOL     OW19939   2.039   2.333   0.218 -0.2890  0.1243 -0.3778
 2826SOL    HW119940   1.986   2.338   0.297  0.6075 -0.9757  0.2948
 2826SOL    HW219941   2.087   2.416   0.227 -0.6467  0.2262  0.5895
 2827SOL     OW19942   2.579   3.550   2.023 -0.0225 -0.2960  0.5839
 2827SOL    HW119943   2.607   3.491   2.092  1.2160 -1.0407 -0.5485
 2827SOL    HW219944   2.501   3.498   2.001  0.0932 -0.5571  0.7952
 2828SOL     OW19945   0.961   4.062   9.785  0.0613  0.7541 -0.8493
 2828SOL    HW119946   0.885   4.061   9.843  0.6231 -1.3429 -0.1436
 2828SOL    HW219947   0.957   4.152   9.753  1.0766  0.3272 -2.1538
 2829SOL     OW19948   3.072   0.449  12.214  0.0963  0.2236  0.1086
 2829SOL    HW119949   3.166   0.452  12.194  0.0769 -1.3619 -0.2713
 2829SOL    HW219950   3.040   0.418  12.130  1.2521 -1.4886  0.2956
 2830SOL     OW19951   2.472   1.445   8.046 -0.0626  0.2893 -0.1637
 2830SOL    HW119952   2.394   1.459   7.993  0.3815  0.9695 -0.6398
 2830SOL    HW219953   2.533   1.432   7.973 -1.1636  1.9419 -1.3901
 2831SOL     OW19954   2.944   0.956   8.070  0.4110 -0.3704  0.6591
 2831SOL    HW119955   2.863   0.907   8.085 -0.1171 -0.0349 -1.1189
 2831SOL    HW219956   3.010   0.896   8.104  0.4412 -1.8431 -2.0733
 2832SOL     OW19957   3.588   3.753   4.214  0.0280  0.1018  0.3439
 2832SOL    HW119958   3.612   3.768   4.123 -0.5605 -1.6867 -0.1074
 2832SOL    HW219959   3.507   3.801   4.231  0.6812  0.8944  1.2033
 2833SOL     OW19960   1.790   3.679   9.001 -0.5438  0.4332  0.0029
 2833SOL    HW119961   1.799   3.584   8.995  0.0309  0.4419  0.7001
 2833SOL    HW219962   1.867   3.699   9.054  1.0718 -0.0374 -2.1978
 2834SOL     OW19963   0.974   0.190   3.031  0.6311  0.3537  0.0082
 2834SOL    HW119964   1.022   0.222   3.107  3.0138  0.0797 -1.3679
 2834SOL    HW219965   1.021   0.107   3.024  1.4134  0.8922 -1.1658
 2835SOL     OW19966   2.321   0.220   3.237  0.1842 -0.3659 -0.1079
 2835SOL    HW119967   2.315   0.281   3.163  0.2245 -0.1119  0.0989
 2835SOL    HW219968   2.412   0.194   3.226 -0.3377 -1.7552 -1.1646
 2836SOL     OW19969   3.339   0.295  15.914  0.3863 -0.1211 -0.5300
 2836SOL    HW119970   3.410   0.233  15.900  1.0843  0.3654  0.8263
 2836SOL    HW219971   3.304   0.291  15.825 -0.1953  0.4858 -0.3296
 2837SOL     OW19972   4.015   3.758   6.062  0.1946 -0.0217 -0.2911
 2837SOL    HW119973   4.027   3.743   6.156  0.8838  2.1349 -0.0237
 2837SOL    HW219974   4.098   3.789   6.027  1.0689  0.1905  1.9538
 2838SOL     OW19975   2.080   0.658   9.286  0.2478 -0.8379 -0.0084
 2838SOL    HW119976   2.167   0.697   9.296 -0.1168 -0.1900  0.6575
 2838SOL    HW219977   2.040   0.721   9.226 -1.2453 -1.1722  0.6348
 2839SOL     OW19978   4.597   0.047  14.032  0.3939  0.1298 -0.8360
 2839SOL    HW119979   4.502   0.052  14.021  0.0956  2.3903  2.7637
 2839SOL    HW219980   4.604   0.032  14.126  2.1247 -0.8338 -1.1250
 2840SOL     OW19981   2.239   4.005   4.424 -0.1947 -0.0896  0.6642
 2840SOL    HW119982   2.159   3.961   4.395  0.4524 -0.8954  0.0917
 2840SOL    HW219983   2.303   3.934   4.436 -0.5183 -0.9378 -2.5346
 2841SOL     OW19984   3.599   1.103   5.292  0.0268 -0.3225  0.0379
 2841SOL    HW119985   3.675   1.146   5.331  0.8071 -0.3991 -1.4382
 2841SOL    HW219986   3.632   1.019   5.260 -1.2918 -0.5393 -0.7478
 2842SOL     OW19987   4.112   3.342  12.653  0.2106  0.4097 -0.1918
 2842SOL    HW119988   4.183   3.296  12.608  1.1228  1.8498 -0.2214
 2842SOL    HW219989   4.061   3.274  12.696 -0.0159  0.8851  0.2861
 2843SOL     OW19990   3.804   1.759  17.427 -0.5021 -0.4227 -0.2039
 2843SOL    HW119991   3.785   1.703  17.503 -3.5402 -1.2092 -1.5315
 2843SOL    HW219992   3.831   1.836  17.476 -2.3373 -0.3121  0.6457
 2844SOL     OW19993   1.932   4.093   4.786 -0.4265  0.4184  0.1348
 2844SOL    HW119994   1.987   4.151   4.733 -0.8135  3.1896  2.7139
 2844SOL    HW219995   1.923   4.018   4.728  0.8471  0.7516 -0.4907
 2845SOL     OW19996   3.234   3.287  11.842  0.0655 -0.0669 -0.3350
 2845SOL    HW119997   3.247   3.199  11.876 -0.0709  0.6976  1.7435
 2845SOL    HW219998   3.203   3.333  11.921  0.2490  1.1832 -0.9839
 2846SOL     OW19999   2.018   3.417  11.453  0.2232 -0.3251  0.3286
 2846SOL    HW120000   1.985   3.491  11.402 -0.2326 -0.2249  0.7713
 2846SOL    HW220001   2.092   3.389  11.398  1.0811  1.0657  0.7834
 2847SOL     OW20002   0.313   1.202   6.068 -0.1549 -0.0824  0.3619
 2847SOL    HW120003   0.273   1.133   6.120 -1.0527 -0.4175 -0.7826
 2847SOL    HW220004   0.256   1.211   5.992  0.4815 -2.1705 -0.3636
 2848SOL     OW20005   3.788   3.804   6.402  0.2160 -0.1817 -0.2338
 2848SOL    HW120006   3.804   3.789   6.495  3.5480  0.7987 -0.6539
 2848SOL    HW220007   3.783   3.899   6.397  2.1655 -0.0484  0.3172
 2849SOL     OW20008   3.817   3.086  17.056 -0.2175  0.1627 -0.2997
 2849SOL    HW120009   3.861   3.031  17.121 -0.0250 -1.1066 -1.5047
 2849SOL    HW220010   3.725   3.060  17.066  0.2320 -1.9870 -1.6204
 2850SOL     OW20011   0.600   3.337   2.619  0.3193 -0.2467 -0.0787
 2850SOL    HW120012   0.527   3.279   2.643  0.1629  0.1043  0.3032
 2850SOL    HW220013   0.645   3.290   2.549  1.7345 -0.5886  1.0662
 2851SOL     OW20014   0.906   3.772   9.650 -0.3322 -0.1576  0.2209
 2851SOL    HW120015   0.830   3.822   9.679 -0.9175  0.3521 -2.2325
 2851SOL    HW220016   0.965   3.785   9.724 -1.7488  0.5007  1.2557
 2852SOL     OW20017   3.105   2.789   7.337 -0.0642 -0.4440 -0.0056
 2852SOL    HW120018   3.093   2.801   7.242  0.4289  1.1854  0.1459
 2852SOL    HW220019   3.177   2.726   7.338  1.6239  1.5427  2.6185
 2853SOL     OW20020   0.724   1.518   3.008 -0.6780 -0.0432 -0.8606
 2853SOL    HW120021   0.784   1.591   3.026 -1.5435 -0.1514  2.5431
 2853SOL    HW220022   0.703   1.525   2.915 -0.1850  0.7848 -0.9174
 2854SOL     OW20023   1.770   2.733   1.438  0.2314 -0.3692 -0.3239
 2854SOL    HW120024   1.736   2.656   1.483 -1.0184 -0.4508 -1.4032
 2854SOL    HW220025   1.808   2.701   1.356  2.2408  0.1118  0.4145
 2855SOL     OW20026   3.577   1.520  11.970 -0.3545  0.5057 -0.0460
 2855SOL    HW120027   3.510   1.553  12.030 -1.3880  0.2066 -1.0216
 2855SOL    HW220028   3.613   1.607  11.951 -1.0409  0.5267 -1.2638
 2856SOL     OW20029   0.489   0.423   7.850  0.4246  0.1079  0.0783
 2856SOL    HW120030   0.584   0.409   7.852  0.1866 -1.1868  2.2938
 2856SOL    HW220031   0.462   0.406   7.940  0.4660 -1.9909 -0.2995
 2857SOL     OW20032   0.953   1.455   0.889 -0.0211 -0.0998 -0.0391
 2857SOL    HW120033   0.859   1.464   0.906  0.0723  1.8063 -0.5126
 2857SOL    HW220034   0.954   1.462   0.793 -2.9923  2.0150  0.0839
 2858SOL     OW20035   1.373   3.146   7.207 -0.3236 -0.1840 -0.0837
 2858SOL    HW120036   1.303   3.083   7.224  1.8392 -2.6897 -0.4573
 2858SOL    HW220037   1.345   3.225   7.253 -0.6554  0.5075 -1.4816
 2859SOL     OW20038   0.198   3.420  13.369 -0.2837  0.1273 -0.2213
 2859SOL    HW120039   0.209   3.366  13.291  1.2288 -0.9764  0.7269
 2859SOL    HW220040   0.277   3.389  13.413 -0.3935  0.1700  0.0076
 2860SOL     OW20041   2.580   0.581   5.177 -0.3985  0.5654  0.5048
 2860SOL    HW120042   2.606   0.502   5.130  2.1304  1.1651  0.8550
 2860SOL    HW220043   2.657   0.606   5.228 -0.9637  0.6110  1.3318
 2861SOL     OW20044   1.533   3.639   6.746  0.3056  0.9168  0.4564
 2861SOL    HW120045   1.475   3.704   6.706 -0.0836  0.0934 -0.3111
 2861SOL    HW220046   1.524   3.564   6.687 -1.4126  1.2073  0.3314
 2862SOL     OW20047   1.596   1.874   2.593  0.4038 -0.2343 -0.0067
 2862SOL    HW120048   1.603   1.848   2.684  0.1766  0.7316  0.2930
 2862SOL    HW220049   1.590   1.792   2.545 -3.1836  0.1584 -0.2430
 2863SOL     OW20050   0.316   0.751  13.256 -0.0974 -0.5041 -0.2031
 2863SOL    HW120051   0.251   0.817  13.230 -0.0146 -1.7176 -3.4545
 2863SOL    HW220052   0.330   0.778  13.346  3.4820  0.3658 -1.0283
 2864SOL     OW20053   1.038   2.270   7.878  0.1000  0.0235  0.4462
 2864SOL    HW120054   1.053   2.184   7.841 -1.3311  0.6129 -1.4774
 2864SOL    HW220055   1.048   2.325   7.800  1.5360 -0.4632  0.2966
 2865SOL     OW20056   1.665   1.470   2.735 -0.1453 -0.1652  0.1070
 2865SOL    HW120057   1.634   1.560   2.747 -0.4623  0.2406 -3.8529
 2865SOL    HW220058   1.618   1.413   2.797 -0.2782  0.6003  0.7108
 2866SOL     OW20059   4.165   3.435   6.709 -0.1732 -0.0201 -0.4055
 2866SOL    HW120060   4.238   3.385   6.746  0.2253  0.9944  0.1990
 2866SOL    HW220061   4.188   3.424   6.617 -0.5123  3.6652 -0.9301
 2867SOL     OW20062   3.816   2.226  11.056  0.5944  0.2217 -0.0457
 2867SOL    HW120063   3.885   2.194  11.113  0.0905  1.3583  1.1950
 2867SOL    HW220064   3.757   2.260  11.123  1.6455  0.6198  0.6750
 2868SOL     OW20065   3.649   1.234   1.216  0.1965 -0.0950  0.5725
 2868SOL    HW120066   3.659   1.140   1.198 -0.4155 -0.1003  0.2563
 2868SOL    HW220067   3.701   1.250   1.295 -0.9168  1.6671  0.9406
 2869SOL     OW20068   1.741   1.414   8.064 -0.0565 -0.7477  0.0107
 2869SOL    HW120069   1.824   1.425   8.019 -0.4760 -1.6210 -0.9737
 2869SOL    HW220070   1.759   1.358   8.140  0.8510 -1.6844 -0.8987
 2870SOL     OW20071   0.795   0.220  10.127  0.5557  0.0078  0.6903
 2870SOL    HW120072   0.734   0.271  10.074  1.0782  0.3838  0.4592
 2870SOL    HW220073   0.743   0.140  10.138 -1.4017  1.0188 -1.1986
 2871SOL     OW20074   3.710   0.084   1.427 -0.0254  0.3892 -0.2418
 2871SOL    HW120075   3.784   0.122   1.475  0.5600 -1.2752  0.1413
 2871SOL    HW220076   3.716   4.723   1.465 -1.6180  0.9298  1.2410
 2872SOL     OW20077   2.998   2.613   5.585 -0.0250 -0.0600  0.1326
 2872SOL    HW120078   3.039   2.526   5.585  2.2988  1.0098 -2.0437
 2872SOL    HW220079   2.956   2.611   5.499 -1.4772  0.9004  0.8264
 2873SOL     OW20080   0.617   4.494   7.462  0.1908 -0.5302 -0.1202
 2873SOL    HW120081   0.550   4.544   7.509 -0.7407 -1.8710 -0.0183
 2873SOL    HW220082   0.588   4.505   7.371  1.0236 -0.7845 -0.4208
 2874SOL     OW20083   3.800   3.433   4.956  0.0373 -0.3376  0.2934
 2874SOL    HW120084   3.804   3.508   5.015 -0.2441 -0.3710  0.3563
 2874SOL    HW220085   3.730   3.457   4.894  1.9477  2.2363 -0.8659
 2875SOL     OW20086   0.816   2.048  15.863 -0.3352  0.2309  0.1790
 2875SOL    HW120087   0.757   2.107  15.909 -3.1713 -2.2870 -0.1845
 2875SOL    HW220088   0.891   2.030  15.919  1.5860 -0.8334 -2.6818
 2876SOL     OW20089   2.572   3.379   2.239  0.0050 -0.5355 -0.1003
 2876SOL    HW120090   2.481   3.353   2.222  0.3622 -1.2750 -0.8899
 2876SOL    HW220091   2.591   3.306   2.298 -3.2999 -0.6290  0.8421
 2877SOL     OW20092   3.353   4.267  12.493  0.7061  0.2229  0.0022
 2877SOL    HW120093   3.313   4.204  12.555 -1.9950  1.1455 -0.7884
 2877SOL    HW220094   3.329   4.234  12.407  3.5337 -0.7712 -0.3891
 2878SOL     OW20095   3.325   3.157  12.894 -0.0440 -0.1569  0.0030
 2878SOL    HW120096   3.389   3.178  12.962 -2.3294  1.3318  1.6874
 2878SOL    HW220097   3.380   3.169  12.816 -0.7496 -2.4038 -0.8447
 2879SOL     OW20098   3.184   3.826   7.450 -0.2784  0.1302 -0.6554
 2879SOL    HW120099   3.270   3.859   7.423 -0.2058  0.8785  0.5483
 2879SOL    HW220100   3.158   3.796   7.362 -0.1277 -0.3793 -0.5260
 2880SOL     OW20101   3.200   2.715  16.249  0.2723 -0.0047 -0.5012
 2880SOL    HW120102   3.248   2.766  16.314 -0.9629  0.1329  0.3003
 2880SOL    HW220103   3.205   2.625  16.283  0.8119 -0.7984 -2.6700
 2881SOL     OW20104   3.578   4.188   5.658 -0.1058 -0.3988  0.0285
 2881SOL    HW120105   3.586   4.208   5.752 -1.0656 -4.2904  0.9395
 2881SOL    HW220106   3.593   4.094   5.656 -2.4527 -0.7702  1.0597
 2882SOL     OW20107   0.966   4.547  12.166 -0.2538 -0.1786 -0.0133
 2882SOL    HW120108   0.881   4.528  12.125 -0.1005  0.7877 -0.7958
 2882SOL    HW220109   0.948   4.622  12.222  1.2171 -0.8773  1.3700
 2883SOL     OW20110   1.661   4.217  13.836  0.0148  0.1416  0.5818
 2883SOL    HW120111   1.710   4.136  13.821 -0.6184 -0.0200 -0.5604
 2883SOL    HW220112   1.665   4.259  13.750 -3.0173 -2.0391 -0.5775
 2884SOL     OW20113   1.963   4.021   1.562 -0.2423  0.1358 -0.5673
 2884SOL    HW120114   1.896   4.087   1.544  0.1868  0.6397 -0.2976
 2884SOL    HW220115   1.953   3.966   1.484 -1.7927 -1.1494  0.5319
 2885SOL     OW20116   1.151   0.271   3.217  0.0233 -0.8677  0.3987
 2885SOL    HW120117   1.200   0.246   3.295 -1.9352 -1.3300  1.4897
 2885SOL    HW220118   1.164   0.365   3.228 -1.3168 -0.5721 -0.5475
 2886SOL     OW20119   2.722   0.108  10.503 -0.0797  0.4245  0.5065
 2886SOL    HW120120   2.790   0.162  10.464 -0.3860 -0.6517 -1.5110
 2886SOL    HW220121   2.652   0.173  10.501  1.5398  2.1992  1.1898
 2887SOL     OW20122   0.465   0.814   1.847 -0.5974 -0.0653 -0.0724
 2887SOL    HW120123   0.420   0.840   1.767 -0.9186 -0.8927 -0.1600
 2887SOL    HW220124   0.482   0.721   1.831 -0.1229  0.0055  0.0074
 2888SOL     OW20125   1.146   3.718   5.389 -0.4527 -0.0912  0.3390
 2888SOL    HW120126   1.107   3.688   5.471  2.1531  3.3493  2.8184
 2888SOL    HW220127   1.165   3.811   5.402 -3.6676  0.5898  0.0838
 2889SOL     OW20128   4.372   3.686   2.438 -0.1049 -0.3473 -0.4479
 2889SOL    HW120129   4.395   3.744   2.510 -1.7436 -2.7050  1.9507
 2889SOL    HW220130   4.456   3.663   2.397 -0.5889 -1.5333 -0.7937
 2890SOL     OW20131   2.082   4.249   3.811 -0.1369  0.0030 -0.2118
 2890SOL    HW120132   2.013   4.308   3.779 -0.7674 -0.2509  0.6823
 2890SOL    HW220133   2.042   4.163   3.798  1.0092 -0.4919 -0.4374
 2891SOL     OW20134   0.373   1.479  12.115 -0.3926  0.2578  0.4457
 2891SOL    HW120135   0.442   1.454  12.177 -0.9551 -0.5827  0.7414
 2891SOL    HW220136   0.428   1.536  12.062 -0.8763 -0.7049 -1.0961
 2892SOL     OW20137   3.535   2.902   5.490 -0.5082  0.4826 -0.4507
 2892SOL    HW120138   3.598   2.831   5.479 -0.9858 -0.2212  1.3845
 2892SOL    HW220139   3.469   2.878   5.555 -1.0332  3.1205 -0.0015
 2893SOL     OW20140   2.499   1.586   6.784 -0.3509  0.0920 -0.6272
 2893SOL    HW120141   2.431   1.548   6.839 -0.1062  1.9200  0.9316
 2893SOL    HW220142   2.490   1.536   6.703  1.4067 -0.5030 -0.4623
 2894SOL     OW20143   1.611   3.866  11.955 -0.0824  0.3298 -0.5428
 2894SOL    HW120144   1.610   3.904  12.043  1.1840  1.1416 -0.8674
 2894SOL    HW220145   1.665   3.924  11.900  1.7103 -1.3169 -0.5090
 2895SOL     OW20146   4.025   0.557  14.634  0.5930 -0.0918  0.3635
 2895SOL    HW120147   4.087   0.495  14.597  1.6483  0.6397  0.8984
 2895SOL    HW220148   4.066   0.644  14.635  2.3566 -0.9368  0.6266
 2896SOL     OW20149   2.936   0.054   4.843 -0.3327 -0.1518 -0.8295
 2896SOL    HW120150   2.994   0.112   4.794  1.8331 -0.3154  1.5625
 2896SOL    HW220151   2.847   0.088   4.833 -1.0761 -1.5227  1.0759
 2897SOL     OW20152   1.629   4.265  10.148 -0.3474 -0.4522 -0.3718
 2897SOL    HW120153   1.666   4.177  10.157  0.0008 -0.2420  0.2526
 2897SOL    HW220154   1.682   4.304  10.078 -0.1810 -0.7096 -0.3880
 2898SOL     OW20155   3.964   3.525   3.657  0.1322  0.2986 -0.2442
 2898SOL    HW120156   4.006   3.600   3.698 -0.0317 -1.3608  2.9565
 2898SOL    HW220157   3.921   3.488   3.734  2.1680 -0.5045  0.4835
 2899SOL     OW20158   1.784   0.180  10.749  0.1032  0.2144 -0.4937
 2899SOL    HW120159   1.734   0.107  10.712  0.0390 -0.8839  1.8063
 2899SOL    HW220160   1.805   0.124  10.823 -0.2225  0.6614 -0.0715
 2900SOL     OW20161   1.475   0.223   4.950  0.0636 -0.2075  0.7444
 2900SOL    HW120162   1.442   0.188   4.867  0.1348 -1.0757  1.0757
 2900SOL    HW220163   1.512   0.300   4.908 -1.3139 -0.1066 -0.2788
 2901SOL     OW20164   2.840   1.019   0.058  0.4356  0.3286  0.3108
 2901SOL    HW120165   2.838   0.951   0.126  0.8732  0.3221  0.3185
 2901SOL    HW220166   2.935   1.028   0.048  0.8694 -1.2869  2.7088
 2902SOL     OW20167   3.006   2.418   7.723 -0.1287 -0.1410  0.1914
 2902SOL    HW120168   3.018   2.388   7.813 -1.2669 -0.1902  0.3240
 2902SOL    HW220169   2.915   2.449   7.720  0.1226  0.6459  0.8612
 2903SOL     OW20170   2.281   0.046   3.694  0.4102 -0.2622  0.1765
 2903SOL    HW120171   2.269   4.711   3.766 -3.3679 -0.0316 -0.2312
 2903SOL    HW220172   2.291   4.713   3.619  2.1622 -1.0086  1.0018
 2904SOL     OW20173   3.226   3.147   2.996 -0.0707  0.0130 -0.6084
 2904SOL    HW120174   3.131   3.152   2.984 -0.2474  0.0986  0.8804
 2904SOL    HW220175   3.257   3.083   2.932  1.2065  0.4911 -0.4618
 2905SOL     OW20176   4.346   4.333   0.224 -0.0098 -0.3232 -0.4292
 2905SOL    HW120177   4.304   4.300   0.303 -0.4258 -2.4591 -1.5457
 2905SOL    HW220178   4.271   4.385   0.193  0.9501  1.8821  0.9844
 2906SOL     OW20179   2.888   3.206   6.463  0.1215 -0.2415 -0.3291
 2906SOL    HW120180   2.921   3.116   6.457  2.5296  0.6346 -0.5037
 2906SOL    HW220181   2.793   3.197   6.465  0.0992 -0.1402 -0.9517
 2907SOL     OW20182   3.066   2.248   9.777  0.3154  0.2947 -1.0689
 2907SOL    HW120183   3.000   2.196   9.731 -1.1231  0.6018  0.6534
 2907SOL    HW220184   3.140   2.188   9.776 -0.2445 -0.4283  0.0401
 2908SOL     OW20185   0.455   0.315   8.108  0.0620 -0.0710 -0.5375
 2908SOL    HW120186   0.505   0.295   8.187 -0.5711  0.6937  0.0494
 2908SOL    HW220187   0.366   0.335   8.135 -0.9859 -2.0331 -2.5370
 2909SOL     OW20188   1.713   2.612  11.157 -0.0832  0.1118 -0.3360
 2909SOL    HW120189   1.748   2.697  11.184 -1.7615  0.9909 -0.8857
 2909SOL    HW220190   1.643   2.589  11.218  0.4377 -0.3471  0.0770
 2910SOL     OW20191   2.228   0.755  11.166 -0.4829  0.0787 -0.1254
 2910SOL    HW120192   2.285   0.690  11.125 -2.5352 -2.3076  0.7657
 2910SOL    HW220193   2.263   0.841  11.144  1.6456 -0.3646  1.5906
 2911SOL     OW20194   2.583   0.658   7.285 -0.4010 -0.8049 -0.2133
 2911SOL    HW120195   2.489   0.647   7.293 -0.4464 -0.3215 -0.0895
 2911SOL    HW220196   2.609   0.607   7.362  1.1101  1.4468  0.7769
 2912SOL     OW20197   4.083   4.166   8.622  0.3291  0.2177 -0.4788
 2912SOL    HW120198   4.110   4.240   8.567  2.3936  0.2879  0.6491
 2912SOL    HW220199   3.996   4.195   8.651  0.5757 -0.7585  1.2057
 2913SOL     OW20200   4.206   0.520   4.620  0.2163 -0.5675 -0.6205
 2913SOL    HW120201   4.269   0.521   4.548  1.3466  3.2865  0.4621
 2913SOL    HW220202   4.139   0.464   4.579 -1.4518  0.3150  0.9193
 2914SOL     OW20203   1.200   2.878  10.390 -0.0056 -0.1309 -0.0607
 2914SOL    HW120204   1.167   2.819  10.323  1.4106  1.1784 -1.9174
 2914SOL    HW220205   1.294   2.859  10.382 -0.4584 -1.9866 -0.8429
 2915SOL     OW20206   2.942   4.650   4.405 -0.0519  0.0108  0.1081
 2915SOL    HW120207   2.875   4.664   4.472 -1.0670  0.1600 -0.9549
 2915SOL    HW220208   2.913   4.714   4.340 -1.0028 -1.3454 -0.7948
 2916SOL     OW20209   3.190   4.647   4.656 -0.1916  0.4353 -0.1161
 2916SOL    HW120210   3.218   4.556   4.662 -1.7676 -0.0704 -0.3946
 2916SOL    HW220211   3.207   4.682   4.744 -1.6935 -1.3542  0.8786
 2917SOL     OW20212   3.548   0.125   8.764 -0.3263 -0.2926  0.1957
 2917SOL    HW120213   3.579   0.215   8.768 -1.2920  0.0182  0.5969
 2917SOL    HW220214   3.590   0.088   8.842  1.2740 -2.2293 -1.5907
 2918SOL     OW20215   2.408   0.788   3.755  0.3503  0.0776 -0.7111
 2918SOL    HW120216   2.401   0.693   3.762  1.0119 -0.0796 -2.1569
 2918SOL    HW220217   2.315   0.813   3.752  0.3689  0.0889 -1.1602
 2919SOL     OW20218   0.304   3.663   0.824  0.2586  0.2206  0.1752
 2919SOL    HW120219   0.241   3.626   0.885  0.3183 -0.2256 -0.0338
 2919SOL    HW220220   0.286   3.605   0.751 -1.2622 -1.3022  1.7544
 2920SOL     OW20221   2.444   3.775   1.127  0.2549  0.0328 -0.2936
 2920SOL    HW120222   2.442   3.760   1.221  2.1505 -1.4057 -0.4978
 2920SOL    HW220223   2.509   3.845   1.119  1.2072 -0.8617 -0.3610
 2921SOL     OW20224   0.478   1.364  12.554 -0.3397  0.1405 -0.7999
 2921SOL    HW120225   0.558   1.372  12.606 -1.0768  1.0431  0.1804
 2921SOL    HW220226   0.457   1.457  12.546 -0.2190  0.2800  0.5315
 2922SOL     OW20227   4.228   3.066   1.601  0.5714 -0.3516 -0.0996
 2922SOL    HW120228   4.300   3.005   1.614 -0.4109 -1.2119  1.2522
 2922SOL    HW220229   4.235   3.113   1.684 -3.0710 -1.0260  0.5951
 2923SOL     OW20230   2.234   3.149  13.294  0.3573 -0.0314  0.6182
 2923SOL    HW120231   2.217   3.201  13.372 -0.5926 -1.0464  1.0973
 2923SOL    HW220232   2.263   3.211  13.228 -0.6054 -1.4295 -1.1380
 2924SOL     OW20233   3.910   0.084   8.708 -0.0304  0.6839  0.0478
 2924SOL    HW120234   3.952   0.150   8.764  1.0403  0.3668 -0.3921
 2924SOL    HW220235   3.875   0.140   8.639  1.0489  2.0285  0.6000
 2925SOL     OW20236   0.146   4.227  10.818 -0.1578 -0.2162  0.1534
 2925SOL    HW120237   0.220   4.255  10.871  1.0197 -0.6519 -1.2761
 2925SOL    HW220238   0.124   4.143  10.857  2.0535  0.8460  3.5926
 2926SOL     OW20239   0.395   0.648   4.815  0.0648 -0.0947  0.3235
 2926SOL    HW120240   0.308   0.669   4.848  0.2167 -0.6570  1.0699
 2926SOL    HW220241   0.455   0.715   4.849 -0.4854 -0.2752  1.6459
 2927SOL     OW20242   4.575   4.608   3.135  0.3614 -0.4716  0.0559
 2927SOL    HW120243   4.668   4.588   3.136  0.4540 -0.1064 -0.6075
 2927SOL    HW220244   4.539   4.527   3.170 -1.1601  0.3111  0.3142
 2928SOL     OW20245   3.867   3.118  12.418 -0.1744  0.1524  0.4873
 2928SOL    HW120246   3.927   3.067  12.472  1.6133  1.1784 -0.5164
 2928SOL    HW220247   3.893   3.075  12.337 -0.9981  0.7469 -0.0945
 2929SOL     OW20248   3.625   2.771   7.741 -0.0962  0.1911 -0.1298
 2929SOL    HW120249   3.573   2.822   7.803 -0.0462 -0.4830  0.4682
 2929SOL    HW220250   3.682   2.844   7.720 -1.4177  0.6954 -1.9739
 2930SOL     OW20251   0.819   2.141  10.111 -0.4777 -0.0103 -0.4709
 2930SOL    HW120252   0.846   2.148  10.019  2.4582 -0.7418  0.3518
 2930SOL    HW220253   0.821   2.049  10.137 -3.3930 -0.3091 -1.1871
 2931SOL     OW20254   2.855   1.493   2.874  0.1654 -0.4611 -0.0505
 2931SOL    HW120255   2.848   1.495   2.969 -2.5265 -2.5497 -0.1985
 2931SOL    HW220256   2.791   1.423   2.858 -0.0961 -0.2370  0.0158
 2932SOL     OW20257   0.967   4.004   3.650 -0.1802 -0.3648 -0.0952
 2932SOL    HW120258   0.996   4.019   3.559 -2.7171 -1.9232 -1.1493
 2932SOL    HW220259   0.873   4.009   3.633 -0.1219  0.0140 -0.3180
 2933SOL     OW20260   1.057   0.720   4.553  0.7118  0.4111  0.1700
 2933SOL    HW120261   0.986   0.756   4.500  0.9607  2.4391  1.2187
 2933SOL    HW220262   1.093   0.652   4.496 -0.2964  0.1894 -0.2052
 2934SOL     OW20263   2.162   4.375   9.346 -0.6589 -0.1035  0.3161
 2934SOL    HW120264   2.083   4.414   9.307 -1.5705 -3.3522 -1.1032
 2934SOL    HW220265   2.121   4.341   9.425  2.4005 -0.7695  1.6074
 2935SOL     OW20266   1.813   0.939  17.226  0.2788  0.0234 -0.6520
 2935SOL    HW120267   1.874   1.002  17.188  0.9690  0.4449  1.1735
 2935SOL    HW220268   1.730   0.939  17.178 -0.1296  0.3280  0.0399
 2936SOL     OW20269   1.270   2.752   2.812  0.1482 -0.0626 -0.0891
 2936SOL    HW120270   1.261   2.798   2.729  1.9190 -0.9180 -0.7693
 2936SOL    HW220271   1.310   2.819   2.868 -1.0706 -0.1713  0.8983
 2937SOL     OW20272   3.831   2.300   8.529 -0.0420  0.6165 -0.8839
 2937SOL    HW120273   3.834   2.216   8.483 -3.5843 -0.1847  0.3134
 2937SOL    HW220274   3.754   2.278   8.581  0.6848 -4.2069 -1.7885
 2938SOL     OW20275   3.705   1.984   4.065 -0.2635  0.3167  0.3678
 2938SOL    HW120276   3.792   1.945   4.058  0.6428  2.1428  1.6098
 2938SOL    HW220277   3.719   2.078   4.060  1.4964 -0.0228 -0.6138
 2939SOL     OW20278   4.722   1.908  16.224  0.0852  0.5028 -0.6985
 2939SOL    HW120279   0.088   1.931  16.238  0.0400  0.1964  0.0974
 2939SOL    HW220280   4.676   1.957  16.292  0.1680  1.0985 -1.0722
 2940SOL     OW20281   2.560   4.466   7.973 -0.2250 -0.5287 -0.4640
 2940SOL    HW120282   2.578   4.530   8.042 -0.5976 -0.9910  0.0562
 2940SOL    HW220283   2.591   4.518   7.899  1.7390 -0.7979  0.1542
 2941SOL     OW20284   0.454   3.336   4.527  0.6393 -0.1939  0.3101
 2941SOL    HW120285   0.453   3.264   4.464  0.5349  2.1532 -2.3784
 2941SOL    HW220286   0.507   3.306   4.600  0.6154  1.9023  1.1877
 2942SOL     OW20287   0.584   4.618   1.865 -0.0789 -0.3697 -0.4194
 2942SOL    HW120288   0.538   4.674   1.803  0.4171 -0.1250 -0.5709
 2942SOL    HW220289   0.598   4.536   1.817 -1.3227 -0.0572 -1.2816
 2943SOL     OW20290   0.664   0.999   7.558  0.4284  0.6828  0.0715
 2943SOL    HW120291   0.629   1.081   7.522  0.2603  0.1511 -0.9795
 2943SOL    HW220292   0.688   0.964   7.472 -3.0256 -1.5139 -0.0025
 2944SOL     OW20293   4.616   3.949   9.058  0.5263 -0.0176  0.0700
 2944SOL    HW120294   4.602   3.937   8.964  1.6727  1.2059 -0.2398
 2944SOL    HW220295   4.535   3.908   9.089 -0.3820  0.8340 -1.1797
 2945SOL     OW20296   0.576   2.288   5.000  0.0562  0.2471  0.2281
 2945SOL    HW120297   0.545   2.234   4.927 -0.6443 -1.9250  2.1361
 2945SOL    HW220298   0.661   2.318   4.968  0.8398 -1.1580  0.9991
 2946SOL     OW20299   0.661   2.227   1.092 -0.2398  0.1227  0.2253
 2946SOL    HW120300   0.664   2.170   1.016 -1.6578  1.2079 -0.6476
 2946SOL    HW220301   0.730   2.191   1.148 -0.1297  0.6960  0.4662
 2947SOL     OW20302   3.980   2.247  16.561 -0.2437  0.3219  0.1248
 2947SOL    HW120303   3.983   2.337  16.528 -1.2782  0.0891 -0.5997
 2947SOL    HW220304   3.949   2.197  16.485 -0.2661  0.9666 -0.2940
 2948SOL     OW20305   1.988   0.992  17.434 -0.6021 -0.2209 -0.2649
 2948SOL    HW120306   2.006   1.062  17.370 -0.2446 -1.0066 -1.0256
 2948SOL    HW220307   1.909   0.954  17.395 -1.0668  0.0551  0.4097
 2949SOL     OW20308   1.901   4.426   4.611 -0.4232  0.1129  0.2550
 2949SOL    HW120309   1.905   4.348   4.665 -2.1247  0.2342  0.5670
 2949SOL    HW220310   1.917   4.488   4.682  0.2597 -0.4004  0.5439
 2950SOL     OW20311   2.318   2.172   8.320 -0.6203  0.5239 -0.3913
 2950SOL    HW120312   2.228   2.183   8.292 -1.1591  2.3594  2.0862
 2950SOL    HW220313   2.310   2.116   8.398 -2.0918 -1.6186 -2.0623
 2951SOL     OW20314   3.003   1.538  15.545  0.4808 -0.2014  0.5321
 2951SOL    HW120315   3.011   1.447  15.572 -0.7097 -0.1297  1.1242
 2951SOL    HW220316   3.048   1.543  15.461  2.9443 -1.8538  1.7514
 2952SOL     OW20317   4.446   1.199   7.573 -0.2325  0.4943 -0.4642
 2952SOL    HW120318   4.509   1.128   7.578 -0.1623  0.4384 -2.2058
 2952SOL    HW220319   4.409   1.198   7.662  0.4120 -0.5288 -0.2184
 2953SOL     OW20320   3.551   3.980   4.008 -0.1057  0.8279 -0.0468
 2953SOL    HW120321   3.585   4.014   4.091  2.5252 -2.8204  0.3919
 2953SOL    HW220322   3.568   4.058   3.954  0.3204 -0.0564 -1.1980
 2954SOL     OW20323   1.968   2.011   5.779  0.0143  0.3107 -0.3984
 2954SOL    HW120324   1.909   1.956   5.727  0.7056 -1.3920  0.6333
 2954SOL    HW220325   1.911   2.036   5.852 -1.0915 -1.9780 -0.4833
 2955SOL     OW20326   0.476   1.321   1.328 -0.2033 -0.2862 -0.2868
 2955SOL    HW120327   0.545   1.256   1.333  0.1604  0.2597  1.9618
 2955SOL    HW220328   0.437   1.285   1.249 -1.5813  0.1191  0.1983
 2956SOL     OW20329   2.975   1.239   4.047 -0.0933  0.5047 -0.5599
 2956SOL    HW120330   2.928   1.308   4.000  0.3493  0.7220 -0.6867
 2956SOL    HW220331   2.921   1.161   4.063 -0.3522  0.5858 -1.0194
 2957SOL     OW20332   2.454   3.911  13.744 -0.3269 -0.0468 -0.1712
 2957SOL    HW120333   2.464   3.912  13.839  0.0996  2.0403 -0.2459
 2957SOL    HW220334   2.368   3.949  13.727 -1.1582 -2.3826 -1.2269
 2958SOL     OW20335   4.172   1.175   3.783  0.0179  0.0010  0.1606
 2958SOL    HW120336   4.229   1.252   3.783 -1.8344  1.4148 -1.1462
 2958SOL    HW220337   4.097   1.203   3.835 -0.0979 -1.1118  0.5832
 2959SOL     OW20338   4.021   4.143  17.129  0.0144 -0.0285  0.0699
 2959SOL    HW120339   3.941   4.172  17.174  0.2883 -2.0610  1.9104
 2959SOL    HW220340   4.026   4.215  17.066  0.1653 -0.5863 -0.5522
 2960SOL     OW20341   0.165   0.926   2.992  0.1606 -0.2329 -0.0840
 2960SOL    HW120342   0.208   0.940   2.908 -0.6835 -0.2362 -0.5237
 2960SOL    HW220343   0.213   0.850   3.026  0.0766 -0.3535 -0.2317
 2961SOL     OW20344   4.520   1.352   3.595 -0.5599 -0.5720  0.0468
 2961SOL    HW120345   4.487   1.359   3.506  0.1198 -1.5239 -0.2759
 2961SOL    HW220346   4.586   1.284   3.587  0.1649  0.1531 -0.1823
 2962SOL     OW20347   3.883   3.326  14.194 -0.2888 -0.3530 -0.5150
 2962SOL    HW120348   3.966   3.371  14.178 -1.9829  2.0327 -2.4498
 2962SOL    HW220349   3.852   3.368  14.274 -0.2662  0.5980 -1.0052
 2963SOL     OW20350   0.021   1.318  17.229 -0.2504  0.0512 -0.9074
 2963SOL    HW120351   4.709   1.368  17.302  2.2783 -0.3026  0.6735
 2963SOL    HW220352   4.681   1.249  17.225 -0.6951  0.4593 -0.6889
 2964SOL     OW20353   2.746   4.719   2.627 -0.7173  0.6469 -0.0503
 2964SOL    HW120354   2.787   0.078   2.610  0.0799  0.1579 -0.6209
 2964SOL    HW220355   2.825   4.674   2.597 -0.0679  1.2399  0.7765
 2965SOL     OW20356   1.497   0.103   8.500  0.2961 -0.3169  0.1748
 2965SOL    HW120357   1.455   0.189   8.494  0.6820 -0.2400 -1.4731
 2965SOL    HW220358   1.576   0.117   8.447  0.1334 -1.7442 -0.4265
 2966SOL     OW20359   3.984   3.689  12.045  0.1088 -0.3689 -0.3929
 2966SOL    HW120360   3.942   3.771  12.071  0.7781  0.0785 -0.6941
 2966SOL    HW220361   3.932   3.681  11.965 -1.2398  1.7418  0.2687
 2967SOL     OW20362   1.486   4.514   5.529 -0.0194  0.3637  0.2979
 2967SOL    HW120363   1.455   4.547   5.613  0.4019  1.1041  0.1630
 2967SOL    HW220364   1.476   4.594   5.477  0.7332 -0.0098 -0.4133
 2968SOL     OW20365   1.443   3.738   7.759 -0.0743  0.1524 -0.4911
 2968SOL    HW120366   1.517   3.788   7.794  1.4294 -1.9013 -0.8067
 2968SOL    HW220367   1.484   3.693   7.685 -0.7433  0.7879 -1.2659
 2969SOL     OW20368   2.994   4.099   3.239 -0.3805 -0.2442  0.2755
 2969SOL    HW120369   3.050   4.134   3.309  0.7907 -2.7015  0.5773
 2969SOL    HW220370   2.941   4.167   3.197  0.4715 -0.5514 -1.2937
 2970SOL     OW20371   3.401   0.727  13.281  0.5520 -0.0249 -0.1708
 2970SOL    HW120372   3.318   0.684  13.304 -1.1901  2.3210 -2.1658
 2970SOL    HW220373   3.408   0.801  13.340 -2.7023  0.0245  0.1183
 2971SOL     OW20374   1.380   0.243   6.575 -0.2808 -0.2523 -0.2391
 2971SOL    HW120375   1.362   0.159   6.533  0.3709 -0.9520  0.8509
 2971SOL    HW220376   1.440   0.272   6.507 -1.0230  2.8094  0.4291
 2972SOL     OW20377   3.100   1.705   6.364 -0.0349 -0.1216 -0.0172
 2972SOL    HW120378   3.074   1.781   6.311 -2.1901 -1.2040 -0.5127
 2972SOL    HW220379   3.079   1.738   6.451 -0.0676  0.4308 -0.2348
 2973SOL     OW20380   2.523   3.750   3.239 -0.5912  0.2820  0.1555
 2973SOL    HW120381   2.543   3.840   3.266  0.2191  0.0407  0.3709
 2973SOL    HW220382   2.608   3.708   3.257 -1.0376  0.0915  1.8243
 2974SOL     OW20383   2.628   0.180   8.089  0.3629  0.2401  0.0223
 2974SOL    HW120384   2.690   0.160   8.018  1.0025  2.0174  0.0821
 2974SOL    HW220385   2.638   0.274   8.103  0.3647  0.3321 -0.5681
 2975SOL     OW20386   3.836   0.663   1.398  0.1748 -0.6458 -0.1901
 2975SOL    HW120387   3.863   0.572   1.405  2.2646 -0.1429 -1.9923
 2975SOL    HW220388   3.756   0.663   1.452 -0.0036  3.6419 -0.4411
 2976SOL     OW20389   1.698   2.047   6.935  0.4896 -0.1951  0.6797
 2976SOL    HW120390   1.708   2.126   6.882 -0.5806 -0.6487 -0.2104
 2976SOL    HW220391   1.715   1.982   6.866 -0.4850  2.2958 -1.8956
 2977SOL     OW20392   2.037   3.372   9.415  0.0563  0.1330  0.5115
 2977SOL    HW120393   2.058   3.464   9.397  1.9037 -0.1895  1.0333
 2977SOL    HW220394   2.057   3.335   9.329 -0.2871  0.2076  0.3970
 2978SOL     OW20395   0.734   3.938   6.691 -0.1875  0.2030 -0.2844
 2978SOL    HW120396   0.779   3.951   6.608 -0.6447  0.9950 -0.4123
 2978SOL    HW220397   0.679   3.860   6.682 -0.3005  0.4200 -1.5159
 2979SOL     OW20398   1.002   1.203   9.975 -0.0731  0.6029 -0.3080
 2979SOL    HW120399   1.031   1.139   9.910  1.4770  1.9554 -0.9555
 2979SOL    HW220400   0.907   1.201   9.972 -0.1519  1.4847  1.4911
 2980SOL     OW20401   0.955   1.105   3.522 -0.2777 -0.0818 -0.2684
 2980SOL    HW120402   1.042   1.145   3.517 -0.7147  0.8356 -0.3679
 2980SOL    HW220403   0.944   1.089   3.428  1.1544  0.2944 -0.4974
 2981SOL     OW20404   4.022   3.654   6.324  0.1183  0.2132 -0.7283
 2981SOL    HW120405   4.094   3.697   6.370 -2.0424  1.3097  1.6673
 2981SOL    HW220406   3.951   3.695   6.374 -0.5821 -3.6293  1.4217
 2982SOL     OW20407   2.883   2.916   5.429  0.3604 -0.2298  0.1734
 2982SOL    HW120408   2.887   2.983   5.361  1.3854  1.5400  1.9778
 2982SOL    HW220409   2.872   2.835   5.380  0.5540  0.5860 -1.2343
 2983SOL     OW20410   4.393   3.725  13.502  0.3499  0.0237  0.3494
 2983SOL    HW120411   4.419   3.639  13.470 -0.1135  0.1761 -0.4369
 2983SOL    HW220412   4.482   3.759  13.509 -0.7432  2.7194  0.9831
 2984SOL     OW20413   1.737   2.761   0.887  0.4939  0.1515  0.5663
 2984SOL    HW120414   1.674   2.709   0.937  0.2797 -2.2284 -2.1117
 2984SOL    HW220415   1.675   2.804   0.827  1.1415  1.8415  1.1227
 2985SOL     OW20416   4.151   0.135   0.312 -0.5035  0.7364  0.1764
 2985SOL    HW120417   4.243   0.108   0.320 -0.1988  1.5536 -0.5448
 2985SOL    HW220418   4.163   0.226   0.337 -0.2225  0.8935 -0.5163
 2986SOL     OW20419   3.511   0.390   1.693 -0.1873 -0.0611  0.0154
 2986SOL    HW120420   3.503   0.309   1.744 -0.6837 -0.5478 -0.8330
 2986SOL    HW220421   3.497   0.351   1.607  1.5289 -1.5640  0.4029
 2987SOL     OW20422   0.961   2.778   4.200  0.2203  0.0269 -0.1558
 2987SOL    HW120423   0.971   2.752   4.291 -0.7377 -0.8339 -0.3059
 2987SOL    HW220424   0.974   2.692   4.161  1.8346  0.3542 -0.3596
 2988SOL     OW20425   2.580   0.999  15.317  0.4451 -0.3967 -0.4489
 2988SOL    HW120426   2.607   1.031  15.231  1.2314 -0.9898 -0.4179
 2988SOL    HW220427   2.585   0.905  15.296  0.6772 -0.3672 -0.5150
 2989SOL     OW20428   3.511   2.545   1.976  0.1360  0.0530  0.0998
 2989SOL    HW120429   3.590   2.530   1.924  0.2559 -2.1747  0.9326
 2989SOL    HW220430   3.453   2.481   1.934  0.4997 -0.9762  1.1896
 2990SOL     OW20431   4.250   2.161   2.145 -0.4197  0.6860  0.0851
 2990SOL    HW120432   4.295   2.077   2.150  0.1223  1.0018  0.4307
 2990SOL    HW220433   4.219   2.171   2.055 -0.5712 -0.5512 -0.0061
 2991SOL     OW20434   3.000   2.439   7.148 -0.1850 -0.2117 -0.3510
 2991SOL    HW120435   2.967   2.350   7.164  1.7141 -0.6416  1.1568
 2991SOL    HW220436   2.955   2.476   7.223 -0.2981  0.0460 -0.5440
 2992SOL     OW20437   0.310   1.918   9.709  0.1874  0.8462 -0.2880
 2992SOL    HW120438   0.225   1.942   9.672  0.3823  2.2659  0.1566
 2992SOL    HW220439   0.302   1.826   9.684  1.6100  0.9603 -1.1810
 2993SOL     OW20440   0.568   3.634  12.125 -0.0896 -0.3350  0.6534
 2993SOL    HW120441   0.626   3.647  12.200  0.7283  1.3411 -0.2773
 2993SOL    HW220442   0.542   3.543  12.137 -0.0528 -0.3095  0.9281
 2994SOL     OW20443   1.091   1.175   8.033  0.3351 -0.8444 -0.3776
 2994SOL    HW120444   1.012   1.147   7.988 -0.6947 -0.8237  1.4069
 2994SOL    HW220445   1.089   1.260   7.989  0.2304 -1.6579 -1.9316
 2995SOL     OW20446   0.866   3.355   6.864 -0.2239  0.4071 -0.4079
 2995SOL    HW120447   0.862   3.410   6.943 -0.6780  1.0417 -0.8646
 2995SOL    HW220448   0.814   3.407   6.803  0.2746  1.0157 -0.3129
 2996SOL     OW20449   4.076   3.850   2.238 -0.1374 -0.3532  0.2265
 2996SOL    HW120450   4.063   3.800   2.318  2.2028 -1.3621 -0.0026
 2996SOL    HW220451   4.089   3.786   2.168  1.1598 -0.0013  0.1335
 2997SOL     OW20452   2.839   4.243   9.112 -0.1283  0.4298 -0.2487
 2997SOL    HW120453   2.805   4.332   9.096  2.3366  1.1402 -1.5695
 2997SOL    HW220454   2.855   4.231   9.205 -0.2814 -0.8605 -0.3934
 2998SOL     OW20455   3.027   4.481   4.101  0.0663  0.2045 -0.1237
 2998SOL    HW120456   2.939   4.494   4.066  0.1122  0.4708 -0.1429
 2998SOL    HW220457   3.009   4.456   4.192 -0.4445 -0.4710 -0.4161
 2999SOL     OW20458   2.501   2.847   0.614 -0.2188  0.4342 -0.3957
 2999SOL    HW120459   2.534   2.923   0.565 -0.3239 -0.4542 -1.8511
 2999SOL    HW220460   2.444   2.897   0.672 -0.3620 -1.4554  1.0871
 3000SOL     OW20461   2.091   0.472  16.850 -0.4524  0.4449 -1.2017
 3000SOL    HW120462   2.030   0.544  16.835  1.2046  1.5854 -2.5305
 3000SOL    HW220463   2.062   0.410  16.783 -1.2739 -1.2014  0.6820
 3001SOL     OW20464   0.407   1.133  11.763  0.3979 -0.0283 -0.0076
 3001SOL    HW120465   0.359   1.215  11.771 -0.2585 -0.3556 -0.5088
 3001SOL    HW220466   0.414   1.131  11.667  1.9119  0.6204  0.0986
 3002SOL     OW20467   1.008   4.071   0.547  0.0821  0.0528 -0.3144
 3002SOL    HW120468   1.019   4.085   0.641  0.3393  0.7120 -0.4421
 3002SOL    HW220469   1.035   3.980   0.542  1.1559  0.2917  1.1764
 3003SOL     OW20470   2.133   0.251  12.984  0.7981 -0.0834  0.0778
 3003SOL    HW120471   2.182   0.235  12.904 -0.3372  0.6840 -0.7695
 3003SOL    HW220472   2.184   0.215  13.057  0.5550 -0.6712 -0.0445
 3004SOL     OW20473   1.167   2.692   6.998  0.1288  0.0725  0.3012
 3004SOL    HW120474   1.223   2.707   6.922 -1.0542 -1.3949 -0.8770
 3004SOL    HW220475   1.086   2.733   6.968  1.4307  2.5559  0.2317
 3005SOL     OW20476   3.304   0.050   8.188  0.0297 -0.1813 -0.1307
 3005SOL    HW120477   3.277   0.050   8.280 -0.3406  0.7035 -0.2394
 3005SOL    HW220478   3.277   0.137   8.161 -2.4291 -0.7543  0.4198
 3006SOL     OW20479   1.434   2.594   6.641 -0.3995 -0.0316  0.2492
 3006SOL    HW120480   1.405   2.661   6.703 -0.1766  0.9946 -0.7543
 3006SOL    HW220481   1.355   2.599   6.587  1.4281  2.3674 -2.2276
 3007SOL     OW20482   1.694   3.512  15.520 -0.1640  0.1522 -0.2071
 3007SOL    HW120483   1.763   3.572  15.491 -1.6366  1.3990 -1.1146
 3007SOL    HW220484   1.608   3.538  15.489 -0.9531 -1.8170  0.3656
 3008SOL     OW20485   3.961   2.444   3.906 -0.1698  0.3931  0.0336
 3008SOL    HW120486   3.913   2.526   3.900 -0.9045 -0.1567 -1.6114
 3008SOL    HW220487   4.031   2.460   3.843 -1.4527 -0.4254 -1.5828
 3009SOL     OW20488   1.617   3.073   8.094  0.4765 -0.5791 -0.0981
 3009SOL    HW120489   1.651   3.095   8.181 -1.3921  0.2919  0.4005
 3009SOL    HW220490   1.569   3.153   8.070  0.8649 -1.0359 -2.4144
 3010SOL     OW20491   3.543   3.696   7.545 -0.4453  0.0514 -0.3598
 3010SOL    HW120492   3.637   3.707   7.530 -0.5809 -0.7932 -1.9104
 3010SOL    HW220493   3.532   3.612   7.499 -1.2150  0.5283 -1.0490
 3011SOL     OW20494   1.511   3.596   5.358  0.4473 -0.4128 -0.2463
 3011SOL    HW120495   1.524   3.688   5.336  0.7638 -0.0853  1.3463
 3011SOL    HW220496   1.574   3.568   5.424 -0.7333 -0.6335  0.7974
 3012SOL     OW20497   3.390   4.637   0.123  0.7365  0.2262 -0.3797
 3012SOL    HW120498   3.394   4.686   0.041  1.9714 -1.7215 -1.4754
 3012SOL    HW220499   3.481   4.608   0.130  0.5921 -0.0432  0.3710
 3013SOL     OW20500   3.648   2.531   3.598 -0.3000  0.1065 -0.4109
 3013SOL    HW120501   3.723   2.505   3.544  1.5969 -2.1693  3.3062
 3013SOL    HW220502   3.588   2.459   3.615 -1.1861  1.2984  1.4527
 3014SOL     OW20503   0.657   1.461   3.424  0.8016  0.4451  0.4329
 3014SOL    HW120504   0.720   1.402   3.382  2.1103  1.3328  1.1509
 3014SOL    HW220505   0.642   1.510   3.343  0.3595  0.1480  0.3325
 3015SOL     OW20506   1.945   0.327   4.328 -0.0334  0.3272  0.4182
 3015SOL    HW120507   1.912   0.364   4.410 -0.4777  1.0172 -0.0669
 3015SOL    HW220508   2.040   0.339   4.336  0.2656 -2.2672  0.5563
 3016SOL     OW20509   3.159   0.284  12.436 -0.6050 -0.1964 -0.5258
 3016SOL    HW120510   3.115   0.339  12.371  1.7237  0.4989 -1.5010
 3016SOL    HW220511   3.097   0.291  12.509 -0.8640 -2.9719 -0.4656
 3017SOL     OW20512   2.622   0.187   7.743  0.6281 -0.6571  0.0613
 3017SOL    HW120513   2.591   0.161   7.656  1.4025  1.2978 -0.8079
 3017SOL    HW220514   2.567   0.263   7.765  1.4204  0.1190 -0.6468
 3018SOL     OW20515   1.438   3.299   2.208  0.1134  0.1584  0.0238
 3018SOL    HW120516   1.369   3.242   2.242 -0.8906  1.7647  0.6736
 3018SOL    HW220517   1.390   3.372   2.170  1.2352  1.3784  0.9906
 3019SOL     OW20518   2.634   4.037   9.430 -0.4618  0.3941 -0.0979
 3019SOL    HW120519   2.642   4.002   9.519 -0.8907 -0.3159 -0.3373
 3019SOL    HW220520   2.569   3.973   9.401 -1.8167  2.2720 -1.1646
 3020SOL     OW20521   3.269   3.267   3.657  0.5856 -0.4576 -0.0019
 3020SOL    HW120522   3.228   3.191   3.617  2.0574 -1.6147  0.6995
 3020SOL    HW220523   3.235   3.269   3.746  1.1647 -0.6031  0.2212
 3021SOL     OW20524   1.049   0.807   8.717  0.0090  0.2933 -0.4728
 3021SOL    HW120525   1.008   0.882   8.759  1.6058  1.3900 -0.8815
 3021SOL    HW220526   1.140   0.805   8.744  0.8604  0.7222 -3.2963
 3022SOL     OW20527   4.115   0.405   5.249 -0.5263  0.2152  0.0644
 3022SOL    HW120528   4.090   0.384   5.339  0.4373  1.5370  0.6546
 3022SOL    HW220529   4.028   0.420   5.213 -0.6733 -0.8730 -0.0312
 3023SOL     OW20530   4.708   0.675   6.057  0.4265  0.1069 -0.0626
 3023SOL    HW120531   0.059   0.732   6.062 -1.5432  2.6733  0.7613
 3023SOL    HW220532   4.700   0.668   5.961 -0.6874 -1.9956  0.1768
 3024SOL     OW20533   4.576   0.549   6.655  0.1520  0.4522 -0.1569
 3024SOL    HW120534   4.574   0.603   6.735 -1.0445  2.7030 -1.6925
 3024SOL    HW220535   4.669   0.549   6.634  0.7445  4.8001  2.4158
 3025SOL     OW20536   3.975   4.562   0.613  0.3761 -0.7874  0.0418
 3025SOL    HW120537   4.060   4.521   0.596  0.5364 -0.9319  1.1626
 3025SOL    HW220538   3.928   4.550   0.531  0.2601 -1.1690  0.1626
 3026SOL     OW20539   1.109   0.395  12.223 -0.5105 -0.4419 -0.1882
 3026SOL    HW120540   1.059   0.350  12.291  0.5959 -1.9595 -0.3760
 3026SOL    HW220541   1.074   0.343  12.150 -1.3304 -0.4875  0.2445
 3027SOL     OW20542   0.125   2.168   6.019 -0.1625  0.1281  0.1573
 3027SOL    HW120543   0.201   2.129   6.062  0.4125  1.4570  0.3243
 3027SOL    HW220544   0.093   2.106   5.953 -1.9310  2.3105 -1.0125
 3028SOL     OW20545   3.948   0.221   5.967  0.1230 -0.1549  0.1893
 3028SOL    HW120546   3.986   0.136   5.986 -1.7085 -1.3407 -1.5105
 3028SOL    HW220547   3.991   0.267   6.040 -1.5589  3.1571 -0.8879
 3029SOL     OW20548   4.168   0.736   0.032 -0.5980 -0.1378  0.0616
 3029SOL    HW120549   4.079   0.760   0.007 -0.1044  0.3201 -1.2704
 3029SOL    HW220550   4.208   0.761  17.653  1.8097 -1.8438  0.6690
 3030SOL     OW20551   1.912   1.425   7.029 -0.8326 -0.5936 -0.2420
 3030SOL    HW120552   1.927   1.352   7.089 -1.1599 -0.9106 -0.5422
 3030SOL    HW220553   1.860   1.393   6.955 -1.4366 -0.6598  0.2186
 3031SOL     OW20554   2.996   0.140   6.520  0.3497 -0.0382  0.1604
 3031SOL    HW120555   3.060   0.206   6.496 -1.6808  1.7131 -0.4838
 3031SOL    HW220556   3.045   0.058   6.525 -1.7993 -1.3518  0.1387
 3032SOL     OW20557   1.078   1.436   9.869 -0.0779 -0.1790  0.4377
 3032SOL    HW120558   1.080   1.358   9.924  0.9494  0.7783  1.7780
 3032SOL    HW220559   1.086   1.400   9.781  4.3869  1.5958  0.1097
 3033SOL     OW20560   3.966   4.572   2.540 -0.3627  0.7979 -0.0355
 3033SOL    HW120561   4.005   4.520   2.610  0.0998 -1.2530 -1.7868
 3033SOL    HW220562   3.994   4.661   2.559  1.1277  0.6458 -1.4023
 3034SOL     OW20563   3.212   2.925   1.013  0.1955 -0.2539 -0.0290
 3034SOL    HW120564   3.248   2.912   0.925 -0.1597  0.5897 -0.2966
 3034SOL    HW220565   3.126   2.888   0.994 -0.2748 -0.6221  2.7181
 3035SOL     OW20566   2.713   0.067   5.684  0.2290 -0.8123 -0.2721
 3035SOL    HW120567   2.675   0.014   5.754 -1.5192  1.1337  0.2746
 3035SOL    HW220568   2.709   0.152   5.730 -0.4170 -0.4497 -0.9961
 3036SOL     OW20569   3.235   4.157   3.406  0.1880  0.0160 -0.1609
 3036SOL    HW120570   3.244   4.104   3.485 -2.3254 -1.2204 -0.6987
 3036SOL    HW220571   3.248   4.246   3.439 -0.8891  0.3576 -0.6733
 3037SOL     OW20572   4.240   4.619  12.183  0.3933 -0.4016  0.0622
 3037SOL    HW120573   4.152   4.588  12.163  0.6097 -0.0757 -1.3739
 3037SOL    HW220574   4.246   4.687  12.117  1.7591 -2.5509 -2.0403
 3038SOL     OW20575   1.409   0.115   4.700  0.0120  0.0951  0.2119
 3038SOL    HW120576   1.498   0.087   4.680 -0.6244 -1.3564 -0.5462
 3038SOL    HW220577   1.359   0.045   4.658  0.4355 -0.9624  1.4841
 3039SOL     OW20578   2.766   3.433  14.779  0.2531  0.1553  0.4424
 3039SOL    HW120579   2.782   3.372  14.852  0.3567 -0.1707  0.1484
 3039SOL    HW220580   2.690   3.393  14.737 -0.5428  2.4781 -0.3355
 3040SOL     OW20581   0.753   3.955   5.974 -0.6368 -0.1279  0.1247
 3040SOL    HW120582   0.717   4.009   5.903 -4.1491 -3.1114 -0.3347
 3040SOL    HW220583   0.675   3.927   6.021  0.4837  2.0185  3.2911
 3041SOL     OW20584   1.106   0.293   0.145 -0.5491 -0.7954  0.0132
 3041SOL    HW120585   1.078   0.221   0.201 -4.1142  0.3318 -0.2758
 3041SOL    HW220586   1.024   0.343   0.141  0.2003  0.4607  0.5228
 3042SOL     OW20587   1.135   1.792   5.968  0.6007  0.1272  0.3222
 3042SOL    HW120588   1.096   1.775   5.882 -3.1320  1.2246  1.7798
 3042SOL    HW220589   1.053   1.802   6.016  0.4426  1.4413 -0.2486
 3043SOL     OW20590   4.512   2.331   9.027  0.0507  0.7176 -0.0288
 3043SOL    HW120591   4.461   2.366   8.954  2.5747 -1.0170 -2.6166
 3043SOL    HW220592   4.602   2.355   9.007  0.0412  1.3444  0.6873
 3044SOL     OW20593   2.496   0.442   1.819  0.5762  0.0639 -0.4504
 3044SOL    HW120594   2.439   0.396   1.880  1.6660 -0.6944  0.0028
 3044SOL    HW220595   2.494   0.534   1.845  4.2102  0.3673 -1.1259
 3045SOL     OW20596   1.368   4.113   1.001  0.1249 -0.1642  0.3221
 3045SOL    HW120597   1.418   4.033   1.015  3.3916  2.0550  1.3910
 3045SOL    HW220598   1.276   4.088   0.995  0.6424 -1.9834  0.0852
 3046SOL     OW20599   3.520   0.315   3.562  0.4834 -0.3283 -0.5835
 3046SOL    HW120600   3.547   0.332   3.652 -2.2091 -0.5864  0.2523
 3046SOL    HW220601   3.591   0.257   3.532  1.5835  0.2218  0.9518
 3047SOL     OW20602   0.232   0.100  12.934  0.1912 -0.2792 -0.6984
 3047SOL    HW120603   0.195   0.150  12.862 -1.3295  2.6784  2.1416
 3047SOL    HW220604   0.327   0.115  12.926  0.2970  0.0940  1.3031
 3048SOL     OW20605   0.634   4.437  10.856  0.0597 -0.5754  0.4653
 3048SOL    HW120606   0.684   4.501  10.907  0.1702  0.1135 -0.5080
 3048SOL    HW220607   0.686   4.358  10.872 -2.1183 -1.8376  1.2340
 3049SOL     OW20608   1.569   2.078   5.628  0.3187  0.3789  0.3741
 3049SOL    HW120609   1.553   2.172   5.612  0.9940  0.4388  0.0765
 3049SOL    HW220610   1.481   2.040   5.635  0.2325  0.7951  1.5313
 3050SOL     OW20611   1.412   2.820   9.782 -0.0345 -0.3222  0.2138
 3050SOL    HW120612   1.376   2.753   9.724 -0.0631 -0.7986  0.7694
 3050SOL    HW220613   1.477   2.766   9.829 -0.9385  0.5469  2.4612
 3051SOL     OW20614   2.700   0.631   3.646  0.0345  0.2286 -0.4190
 3051SOL    HW120615   2.713   0.688   3.721 -0.8404  0.7068 -0.6268
 3051SOL    HW220616   2.740   0.553   3.684 -1.6873 -0.7918 -0.7218
 3052SOL     OW20617   2.852   1.315   3.701 -0.2365  0.2636  0.0275
 3052SOL    HW120618   2.859   1.377   3.628  3.7151 -0.4523 -0.1913
 3052SOL    HW220619   2.769   1.276   3.675  0.6020 -1.4654 -0.0554
 3053SOL     OW20620   0.052   1.048   7.612 -0.3480 -0.3921  0.2233
 3053SOL    HW120621   4.701   0.992   7.605  0.3875 -1.2740 -0.8396
 3053SOL    HW220622   0.123   0.992   7.645 -0.9406 -1.3170 -0.0597
 3054SOL     OW20623   4.476   4.132   4.676  0.3439  0.0424  0.0396
 3054SOL    HW120624   4.559   4.102   4.636 -0.9514 -3.1010 -0.3231
 3054SOL    HW220625   4.453   4.068   4.743 -2.7522  1.6338  0.4835
 3055SOL     OW20626   3.245   2.442   5.141 -0.1034  0.5993  0.0404
 3055SOL    HW120627   3.224   2.456   5.234  2.1275  1.1430  0.4492
 3055SOL    HW220628   3.235   2.347   5.129  2.3314  0.1986  1.1983
 3056SOL     OW20629   2.820   0.552   8.439 -0.6166  0.2758 -0.1932
 3056SOL    HW120630   2.802   0.563   8.533  0.6507 -0.8708  0.1707
 3056SOL    HW220631   2.732   0.541   8.402 -0.8480 -3.1363  1.3334
 3057SOL     OW20632   0.392   3.232  15.263 -0.0292  0.3797 -0.1824
 3057SOL    HW120633   0.335   3.276  15.200 -3.3379 -0.9436  1.9009
 3057SOL    HW220634   0.479   3.249  15.228  0.3876 -0.9875  0.1568
 3058SOL     OW20635   3.691   3.985  15.605 -0.1327  0.4170 -0.2333
 3058SOL    HW120636   3.656   3.900  15.576  0.2993  0.0373  0.3523
 3058SOL    HW220637   3.754   4.010  15.537  0.2436  2.8272  1.0107
 3059SOL     OW20638   3.117   1.032   6.360 -1.0510 -0.1362 -0.0342
 3059SOL    HW120639   3.076   1.001   6.441  0.0831 -2.1832 -0.2336
 3059SOL    HW220640   3.150   0.952   6.320  1.4794  1.1753 -0.5318
 3060SOL     OW20641   4.349   3.211   8.557  0.6226 -0.0407  0.5084
 3060SOL    HW120642   4.264   3.245   8.584  0.4594  0.7002 -0.9554
 3060SOL    HW220643   4.330   3.121   8.585  2.0813 -0.2090  0.9593
 3061SOL     OW20644   0.884   0.447   0.179 -0.1844  0.7680  0.0403
 3061SOL    HW120645   0.796   0.429   0.146  0.6613 -1.3622 -1.0031
 3061SOL    HW220646   0.856   0.513   0.243 -1.7885 -0.6843  0.8512
 3062SOL     OW20647   1.216   0.082   6.744 -0.2088  0.5902 -0.2322
 3062SOL    HW120648   1.270   0.155   6.715  0.2825 -0.1243 -1.1049
 3062SOL    HW220649   1.163   0.069   6.666  1.4036  0.3232 -1.2722
 3063SOL     OW20650   3.789   2.712   6.104  0.7855  0.1801  0.4422
 3063SOL    HW120651   3.795   2.621   6.076 -0.4076  0.5220 -0.9253
 3063SOL    HW220652   3.870   2.750   6.070  0.7882  0.2292  0.5038
 3064SOL     OW20653   0.847   4.426   4.062  0.2656 -0.8043  0.0719
 3064SOL    HW120654   0.848   4.359   4.131 -0.6251 -1.2026 -0.3104
 3064SOL    HW220655   0.906   4.496   4.092 -0.9400 -0.2195  1.1121
 3065SOL     OW20656   1.752   4.328  11.678  0.4618 -0.3544 -0.0191
 3065SOL    HW120657   1.779   4.243  11.711 -2.4082 -1.3184 -0.2538
 3065SOL    HW220658   1.714   4.300  11.595  0.2465  0.2035 -0.1100
 3066SOL     OW20659   2.648   1.279   3.950 -0.7041  0.6120  0.2715
 3066SOL    HW120660   2.593   1.201   3.941 -0.3144  0.5328 -1.4070
 3066SOL    HW220661   2.723   1.264   3.893  0.1039  1.2081  1.1606
 3067SOL     OW20662   2.229   0.847   9.583 -0.2542  0.4592  0.2098
 3067SOL    HW120663   2.292   0.912   9.551  0.1659  1.2410  2.6618
 3067SOL    HW220664   2.149   0.898   9.580 -2.0097 -2.2542  0.6421
 3068SOL     OW20665   3.083   1.639   3.448  0.0879 -0.0629 -0.1639
 3068SOL    HW120666   3.122   1.681   3.372 -0.5918  0.2874 -0.3233
 3068SOL    HW220667   3.104   1.708   3.511  0.0775 -0.0781 -0.1437
 3069SOL     OW20668   0.220   0.405   5.346  0.1470 -0.7087 -0.6664
 3069SOL    HW120669   0.131   0.371   5.353 -1.0246  2.4095 -0.4913
 3069SOL    HW220670   0.263   0.357   5.276  1.3385 -1.5613  0.6481
 3070SOL     OW20671   2.399   3.963   4.108  0.2924  0.0431  0.0952
 3070SOL    HW120672   2.428   3.888   4.056 -0.0846 -0.1706  0.1965
 3070SOL    HW220673   2.318   3.989   4.065  0.6788 -0.6965 -1.0886
 3071SOL     OW20674   1.899   2.429   7.032  0.0257 -0.4282 -0.4067
 3071SOL    HW120675   1.989   2.463   7.028  0.6347 -1.9141  0.9301
 3071SOL    HW220676   1.863   2.456   6.947 -0.8289 -0.3207 -0.0073
 3072SOL     OW20677   0.713   0.873  12.333  0.0330  0.1842 -0.3006
 3072SOL    HW120678   0.626   0.904  12.360  0.0168 -0.0157 -0.1205
 3072SOL    HW220679   0.747   0.950  12.289 -1.6972  0.7106 -0.7114
 3073SOL     OW20680   0.216   4.279  16.748  0.2004  0.7626  0.1823
 3073SOL    HW120681   0.165   4.234  16.815  1.7582 -3.0344 -1.1958
 3073SOL    HW220682   0.149   4.335  16.709  0.4015  1.5667  0.9942
 3074SOL     OW20683   3.115   0.846   6.953 -0.1487 -0.0391  0.1604
 3074SOL    HW120684   3.106   0.922   6.895  1.7318 -1.2778 -1.7608
 3074SOL    HW220685   3.127   0.779   6.886 -0.5296 -1.0573  1.1038
 3075SOL     OW20686   2.202   3.813   8.124  0.0724  0.4611 -0.2804
 3075SOL    HW120687   2.125   3.827   8.068  0.5990  0.5635 -0.9685
 3075SOL    HW220688   2.273   3.818   8.060 -1.6518  0.6506 -2.1804
 3076SOL     OW20689   4.430   4.573   4.078  0.6427  0.2521 -0.1254
 3076SOL    HW120690   4.436   4.633   4.152  0.5349 -0.6624  0.6242
 3076SOL    HW220691   4.335   4.567   4.070  0.7531 -2.7348  0.8301
 3077SOL     OW20692   2.145   2.547  11.776  0.3834  0.2613  0.2235
 3077SOL    HW120693   2.182   2.470  11.733  1.1178  0.1195  1.1003
 3077SOL    HW220694   2.099   2.580  11.699 -1.1143  0.8041  1.3490
 3078SOL     OW20695   4.172   2.126   8.721  0.6908  0.1070  0.0060
 3078SOL    HW120696   4.081   2.098   8.713  0.3363  0.7390  1.7189
 3078SOL    HW220697   4.196   2.159   8.635 -0.3318 -0.8971 -0.6634
 3079SOL     OW20698   1.655   1.779   3.798  0.5219  0.1199 -0.2344
 3079SOL    HW120699   1.682   1.782   3.890  0.3467  1.3539 -0.2158
 3079SOL    HW220700   1.574   1.828   3.813 -0.1323 -0.9861 -0.2029
 3080SOL     OW20701   2.457   3.655   8.783 -0.7603  0.1224  0.1678
 3080SOL    HW120702   2.473   3.562   8.768 -1.3683  0.0078  0.2142
 3080SOL    HW220703   2.535   3.695   8.745 -1.3477  0.1257 -1.0120
 3081SOL     OW20704   1.859   0.993   2.806 -0.5320 -0.5975  0.2210
 3081SOL    HW120705   1.941   1.040   2.791 -0.0597 -1.2686  0.7056
 3081SOL    HW220706   1.877   0.933   2.879 -1.4246 -1.3217 -0.1608
 3082SOL     OW20707   2.806   1.967   3.351 -0.0738  0.0312 -0.8098
 3082SOL    HW120708   2.840   1.893   3.300 -0.4600 -0.1863 -0.7478
 3082SOL    HW220709   2.712   1.970   3.332 -0.1459  1.2148 -0.2390
 3083SOL     OW20710   1.363   2.303   4.017 -0.3951 -0.1147  0.3406
 3083SOL    HW120711   1.278   2.260   4.018 -0.3136 -0.2406  1.4258
 3083SOL    HW220712   1.388   2.330   4.105  0.9030  1.1733 -0.4308
 3084SOL     OW20713   4.522   0.854   5.506 -0.0059 -0.1751  0.2185
 3084SOL    HW120714   4.434   0.820   5.490  0.4751 -1.4332  0.2175
 3084SOL    HW220715   4.568   0.810   5.435  0.3298  2.1340 -0.9967
 3085SOL     OW20716   0.334   2.976   9.758 -0.4858 -0.1265  0.2342
 3085SOL    HW120717   0.303   3.057   9.718 -2.3853 -1.5153 -1.1291
 3085SOL    HW220718   0.249   2.947   9.790  0.0636 -2.5131 -0.4560
 3086SOL     OW20719   0.145   2.367   9.346  0.1044  0.5167  0.2208
 3086SOL    HW120720   0.179   2.278   9.344  0.8355  0.7763  1.0153
 3086SOL    HW220721   0.050   2.362   9.341 -0.0260  1.0652  1.9779
 3087SOL     OW20722   2.948   2.159   4.095  0.3151  0.8386  0.6660
 3087SOL    HW120723   2.891   2.178   4.020  1.3146 -0.5027 -0.4424
 3087SOL    HW220724   3.033   2.179   4.057 -0.6768  2.2193 -0.8440
 3088SOL     OW20725   0.462   0.070   2.813 -0.2534 -0.2877  0.4050
 3088SOL    HW120726   0.484   0.052   2.905 -0.6582  1.4004  0.8349
 3088SOL    HW220727   0.449   0.164   2.822  0.1538 -0.3146  1.2956
 3089SOL     OW20728   0.420   4.643   6.742  0.4487 -0.1315  0.7032
 3089SOL    HW120729   0.475   4.574   6.778 -0.4592 -1.7339 -1.0418
 3089SOL    HW220730   0.456   4.717   6.793  0.6755 -0.9473  1.7307
 3090SOL     OW20731   0.084   0.959   9.471 -0.2351 -0.1803  0.3608
 3090SOL    HW120732   0.064   0.873   9.509  0.0347  0.1569  1.2619
 3090SOL    HW220733   0.054   0.955   9.380 -0.5639 -2.2313  0.5480
 3091SOL     OW20734   3.901   1.224   3.239  0.2386 -0.1426  0.2941
 3091SOL    HW120735   3.929   1.188   3.154 -1.1801  1.1759 -0.7318
 3091SOL    HW220736   3.822   1.172   3.247  1.2026 -1.5177  0.8543
 3092SOL     OW20737   2.218   1.639   5.280  0.7486 -0.3297  0.3893
 3092SOL    HW120738   2.236   1.717   5.332  0.3981  1.2386 -1.8696
 3092SOL    HW220739   2.276   1.655   5.206  0.6867  2.3979  0.9350
 3093SOL     OW20740   0.877   4.471   5.162  0.0924 -0.4557 -0.0445
 3093SOL    HW120741   0.854   4.394   5.110  1.9791 -1.3666  0.4897
 3093SOL    HW220742   0.814   4.528   5.118 -0.0012  0.8312  1.7657
 3094SOL     OW20743   3.030   3.565   3.935 -0.6256 -0.4015 -0.0301
 3094SOL    HW120744   3.082   3.596   4.010  0.4303 -2.5854  0.1290
 3094SOL    HW220745   2.947   3.535   3.970 -0.4744 -1.0373 -0.2280
 3095SOL     OW20746   0.902   0.189  11.012 -0.1990  0.0895  0.0228
 3095SOL    HW120747   0.950   0.257  11.060  0.0508 -1.4993  2.0622
 3095SOL    HW220748   0.970   0.174  10.946 -1.6744 -0.1227 -1.4423
 3096SOL     OW20749   2.006   0.086   2.995  0.4126 -0.0697  0.5302
 3096SOL    HW120750   1.953   0.081   2.916 -0.8243 -1.5298  1.4617
 3096SOL    HW220751   2.083   0.138   2.972  0.0626  0.2289  0.0377
 3097SOL     OW20752   4.637   2.885   0.644  0.0742  0.3390 -0.4741
 3097SOL    HW120753   4.691   2.810   0.667 -1.0921  0.2941  2.0796
 3097SOL    HW220754   4.642   2.885   0.548  0.3272 -2.3905 -0.4561
 3098SOL     OW20755   0.258   2.456   6.333 -0.6211 -0.4044  0.3966
 3098SOL    HW120756   0.348   2.462   6.301 -1.5799  0.2914 -2.1840
 3098SOL    HW220757   0.268   2.440   6.426 -0.8449  0.6469  0.5920
 3099SOL     OW20758   4.473   4.661   6.922  0.5151 -0.2812 -0.3379
 3099SOL    HW120759   4.526   4.607   6.863  1.7211 -0.8627  1.3010
 3099SOL    HW220760   4.422   4.591   6.962 -0.3223 -0.5220 -1.8099
 3100SOL     OW20761   0.618   4.034  15.578 -0.4851 -0.0086  0.3059
 3100SOL    HW120762   0.569   3.991  15.509 -0.1953  0.1473  0.0013
 3100SOL    HW220763   0.571   3.998  15.653 -0.8533 -1.0030 -0.4087
 3101SOL     OW20764   0.756   2.772   7.744  0.1814  0.1874 -0.6802
 3101SOL    HW120765   0.667   2.737   7.746  0.6458 -0.9480  0.6089
 3101SOL    HW220766   0.753   2.822   7.663  0.0626  1.8832  0.3775
 3102SOL     OW20767   4.387   4.147   7.440  0.1912  0.2757 -0.2959
 3102SOL    HW120768   4.300   4.167   7.475  0.5562  2.0028 -0.3814
 3102SOL    HW220769   4.369   4.060   7.404 -0.7884 -0.5162  2.0972
 3103SOL     OW20770   4.305   2.735   9.016 -0.1461  0.0462  0.0805
 3103SOL    HW120771   4.222   2.782   9.006 -1.9871 -2.8592  1.6894
 3103SOL    HW220772   4.315   2.746   9.110  1.0233 -1.3696  0.1109
 3104SOL     OW20773   3.416   4.283   6.518 -0.2395 -0.2320 -0.1282
 3104SOL    HW120774   3.357   4.317   6.585  0.1150 -1.2973  0.7216
 3104SOL    HW220775   3.353   4.245   6.458 -1.2043  1.0478  0.0761
 3105SOL     OW20776   4.206   2.005  14.997  0.0046 -0.5413 -0.2774
 3105SOL    HW120777   4.218   2.016  15.091  1.6907  2.6515 -0.8587
 3105SOL    HW220778   4.293   1.969  14.978 -0.5987 -2.0266 -0.2640
 3106SOL     OW20779   0.929   0.450  12.515 -0.0712  0.7997  0.4022
 3106SOL    HW120780   0.834   0.452  12.509  0.0380 -0.6714 -2.1409
 3106SOL    HW220781   0.945   0.355  12.511 -0.7153  0.7369 -0.6314
 3107SOL     OW20782   4.513   0.981   9.231  0.1663 -0.3093  0.3929
 3107SOL    HW120783   4.419   1.001   9.227  0.5866  1.2308 -1.5427
 3107SOL    HW220784   4.541   1.058   9.280  2.7094 -0.1694 -1.3190
 3108SOL     OW20785   0.457   4.350  10.666 -0.1211  0.7823 -0.3906
 3108SOL    HW120786   0.399   4.414  10.623  0.1331 -0.4884 -2.6389
 3108SOL    HW220787   0.517   4.395  10.726  0.7920  0.2646 -0.9227
 3109SOL     OW20788   2.010   4.711  15.895  0.1645 -0.2030 -0.5155
 3109SOL    HW120789   1.953   0.014  15.823  0.4936 -0.9455 -1.0749
 3109SOL    HW220790   2.083   4.680  15.842 -1.0527 -0.3221 -2.1611
 3110SOL     OW20791   4.302   0.802   2.348  0.3714  0.2664 -0.3185
 3110SOL    HW120792   4.375   0.742   2.331 -0.9214 -0.8102 -2.1258
 3110SOL    HW220793   4.233   0.767   2.291  0.4978 -0.1914 -0.1928
 3111SOL     OW20794   1.229   4.346   4.104  0.0721 -0.0043  0.1335
 3111SOL    HW120795   1.204   4.344   4.196 -0.8516 -0.6604 -0.1254
 3111SOL    HW220796   1.178   4.270   4.073 -0.2532 -0.5335  1.9610
 3112SOL     OW20797   4.550   3.188  10.033 -0.1918 -0.1165 -0.0427
 3112SOL    HW120798   4.486   3.251  10.001  0.4541 -0.2143 -1.5440
 3112SOL    HW220799   4.563   3.192  10.128  0.1064  2.0093 -0.1892
 3113SOL     OW20800   4.375   1.335   1.402 -0.1655 -0.2486 -0.2838
 3113SOL    HW120801   4.394   1.341   1.495 -3.0676  3.2562  0.1036
 3113SOL    HW220802   4.443   1.392   1.365  1.7159 -2.1242  0.3226
 3114SOL     OW20803   2.107   1.022   3.236  0.5386  0.1268 -0.1792
 3114SOL    HW120804   2.031   1.051   3.186 -0.0065  0.5235  0.8831
 3114SOL    HW220805   2.128   1.096   3.294 -1.0935  0.5068 -0.0825
 3115SOL     OW20806   2.415   3.606  16.843 -0.7268  0.4670  0.7256
 3115SOL    HW120807   2.453   3.553  16.773 -0.3074  0.0867  1.2450
 3115SOL    HW220808   2.349   3.664  16.804  1.3677  1.7579 -0.9453
 3116SOL     OW20809   2.601   0.831  16.026 -0.2497  0.6646  0.2297
 3116SOL    HW120810   2.607   0.910  15.972 -1.3432 -0.3906 -1.4228
 3116SOL    HW220811   2.562   0.779  15.956  1.7857  1.2539 -1.3614
 3117SOL     OW20812   3.014   2.097   0.097  0.0679 -0.6845 -0.3362
 3117SOL    HW120813   3.064   2.061   0.024 -1.9608 -1.2751 -1.4123
 3117SOL    HW220814   2.923   2.083   0.070 -0.1609  2.2442 -1.0960
 3118SOL     OW20815   3.309   0.734   0.487 -0.1166  0.8201  0.0368
 3118SOL    HW120816   3.342   0.807   0.538 -0.3323  0.8878  0.0790
 3118SOL    HW220817   3.373   0.669   0.517  1.7082  1.9017 -1.4581
 3119SOL     OW20818   2.864   4.143   5.153  0.1353  0.2784 -0.2842
 3119SOL    HW120819   2.874   4.153   5.248 -0.8481 -0.8301 -0.0591
 3119SOL    HW220820   2.871   4.233   5.121  2.0614 -0.5080 -2.1047
 3120SOL     OW20821   1.122   0.529   4.359 -0.0591 -0.1607  0.3394
 3120SOL    HW120822   1.088   0.440   4.360 -0.3822 -0.0419 -0.0291
 3120SOL    HW220823   1.212   0.516   4.388  1.3988  1.7623 -3.3472
 3121SOL     OW20824   1.135   3.470   1.538  0.0555 -0.1378  0.4196
 3121SOL    HW120825   1.188   3.391   1.524 -0.5846 -0.6715  0.9574
 3121SOL    HW220826   1.070   3.456   1.469 -0.9594 -0.6302  1.4705
 3122SOL     OW20827   2.698   0.270   4.530  0.1436  0.4597 -0.1507
 3122SOL    HW120828   2.731   0.355   4.559 -0.4699  0.7448 -0.2950
 3122SOL    HW220829   2.645   0.302   4.457  1.0353  2.0625 -0.0937
 3123SOL     OW20830   3.925   1.617   7.240 -0.2496  0.6987 -0.2138
 3123SOL    HW120831   3.920   1.658   7.154 -2.1537 -0.1192 -0.4968
 3123SOL    HW220832   3.873   1.539   7.224  0.4160  0.1802  0.1614
 3124SOL     OW20833   3.307   4.003   3.621  0.1801 -0.5848 -0.1024
 3124SOL    HW120834   3.381   3.945   3.601  0.8105  0.1766  0.0219
 3124SOL    HW220835   3.339   4.066   3.685  0.1593  1.8948 -2.5365
 3125SOL     OW20836   1.143   3.698   8.107  0.0884 -0.7357  0.3548
 3125SOL    HW120837   1.144   3.792   8.128 -1.0671 -0.7420  0.4530
 3125SOL    HW220838   1.050   3.681   8.097  0.2240  0.2610 -2.4999
 3126SOL     OW20839   2.704   0.049   1.580  0.3031  0.0887 -0.4806
 3126SOL    HW120840   2.643   0.083   1.515 -0.5425 -0.0927  0.2270
 3126SOL    HW220841   2.791   0.073   1.546  0.3461  0.2232 -0.2764
 3127SOL     OW20842   3.577   3.739   6.158 -0.3589 -0.0330 -0.3432
 3127SOL    HW120843   3.623   3.688   6.225 -0.8120  2.1500  1.6528
 3127SOL    HW220844   3.617   3.712   6.076 -0.0546  0.7789 -0.4617
 3128SOL     OW20845   4.325   4.144   6.822  0.3509 -0.0744  0.1595
 3128SOL    HW120846   4.286   4.072   6.773  0.6361  0.0978 -0.3246
 3128SOL    HW220847   4.372   4.189   6.751 -1.4493  0.2430 -0.8454
 3129SOL     OW20848   4.463   2.541   4.991  0.5272  0.3380  0.5443
 3129SOL    HW120849   4.423   2.464   5.032 -1.1847  1.1846  0.4342
 3129SOL    HW220850   4.486   2.583   5.074  0.0864 -1.2170  1.4605
 3130SOL     OW20851   3.017   4.450   0.287  0.4860  0.2501 -0.4104
 3130SOL    HW120852   3.033   4.380   0.224 -0.3294  0.9592 -1.3996
 3130SOL    HW220853   2.935   4.487   0.253 -0.3566 -0.4113  0.8638
 3131SOL     OW20854   0.791   0.571   7.043  0.2663  0.0629 -0.2589
 3131SOL    HW120855   0.782   0.665   7.053  2.5929  0.3056 -0.6326
 3131SOL    HW220856   0.751   0.555   6.957 -0.7475  0.6014  0.1108
 3132SOL     OW20857   4.329   1.655   6.015  0.0389 -0.2313 -0.6724
 3132SOL    HW120858   4.288   1.594   6.077  0.8594  1.8886  1.9665
 3132SOL    HW220859   4.355   1.596   5.945  0.9981 -0.3883 -0.1925
 3133SOL     OW20860   2.233   3.212  15.157 -0.2735  0.2616 -0.5420
 3133SOL    HW120861   2.278   3.227  15.073  0.6406 -2.3449 -0.4964
 3133SOL    HW220862   2.275   3.130  15.182  0.6525  1.4527  1.7809
 3134SOL     OW20863   1.499   4.045   6.784  0.5937  0.1998 -0.6073
 3134SOL    HW120864   1.580   4.002   6.756  1.9081  1.6008  1.0080
 3134SOL    HW220865   1.526   4.133   6.757 -1.4496  0.3259 -2.2083
 3135SOL     OW20866   0.428   1.350   7.636 -0.2259 -0.0961  0.6035
 3135SOL    HW120867   0.415   1.256   7.648  0.4236 -0.1790  0.6684
 3135SOL    HW220868   0.522   1.342   7.650 -0.0213  0.2402 -0.5941
 3136SOL     OW20869   3.846   2.038   8.661 -0.2039 -0.4647 -0.7222
 3136SOL    HW120870   3.765   2.024   8.711  0.4421  1.5627  0.8881
 3136SOL    HW220871   3.852   1.950   8.623  0.0215 -0.7570 -0.0014
 3137SOL     OW20872   0.549   3.146   9.786  0.5849  0.4163  0.6141
 3137SOL    HW120873   0.504   3.064   9.808 -0.2201  0.9193  0.8426
 3137SOL    HW220874   0.545   3.187   9.872 -1.1794  0.7493  0.3701
 3138SOL     OW20875   2.648   0.675   6.151 -0.3860 -0.0816  0.8441
 3138SOL    HW120876   2.739   0.682   6.123 -0.2871  1.4428  1.5261
 3138SOL    HW220877   2.628   0.589   6.114  3.6418 -0.1655 -1.1875
 3139SOL     OW20878   2.535   2.640   7.773 -0.4471 -0.6460 -0.3182
 3139SOL    HW120879   2.477   2.623   7.847 -2.3578  3.8535 -0.7662
 3139SOL    HW220880   2.584   2.703   7.826  0.8790 -0.7892 -1.4005
 3140SOL     OW20881   0.196   2.581   7.008 -0.0232  0.1185  0.1298
 3140SOL    HW120882   0.238   2.508   7.053  0.8755 -0.5612 -1.8135
 3140SOL    HW220883   0.272   2.613   6.958  0.1808 -1.1237 -0.3552
 3141SOL     OW20884   3.178   1.280   5.035  0.0356  0.4467 -0.5114
 3141SOL    HW120885   3.207   1.349   4.976 -0.6460 -0.8150 -2.3423
 3141SOL    HW220886   3.247   1.287   5.101 -1.6968 -1.4067  1.5040
 3142SOL     OW20887   3.638   1.024   3.785  0.2447  0.6378  0.1141
 3142SOL    HW120888   3.694   1.049   3.859  0.1237 -0.6309  0.6352
 3142SOL    HW220889   3.559   0.987   3.824  1.0358  0.6718  1.7505
 3143SOL     OW20890   1.909   4.472   9.935 -0.1032  0.0416 -0.2750
 3143SOL    HW120891   1.834   4.524   9.908 -1.4481 -0.7766  1.8886
 3143SOL    HW220892   1.968   4.539   9.971 -0.3718 -0.6867  1.5556
 3144SOL     OW20893   3.587   0.379   7.023  0.0124  0.0609  0.6008
 3144SOL    HW120894   3.517   0.316   7.005 -0.0505 -0.3877  2.3778
 3144SOL    HW220895   3.557   0.450   6.967 -0.5574  0.4471  1.3952
 3145SOL     OW20896   2.137   1.903  13.091 -0.3832  0.1811  0.7282
 3145SOL    HW120897   2.164   1.886  13.181  0.9474 -0.1170  0.2702
 3145SOL    HW220898   2.136   1.997  13.074 -1.3822  0.2202  1.0003
 3146SOL     OW20899   1.767   1.884   7.155  0.4477  0.3207 -0.3021
 3146SOL    HW120900   1.765   1.929   7.070  1.5354  1.0680  0.0740
 3146SOL    HW220901   1.793   1.794   7.137  1.3149  0.3506  0.8224
 3147SOL     OW20902   4.101   0.020   6.088  0.2210  0.3482 -0.5179
 3147SOL    HW120903   4.189   0.009   6.052  0.6191  2.0748 -0.0950
 3147SOL    HW220904   4.119   0.085   6.156 -2.6325 -1.2397  1.7416
 3148SOL     OW20905   0.263   1.935  16.186  0.1937 -0.3088  0.2788
 3148SOL    HW120906   0.325   1.927  16.114 -0.3971  0.0716 -0.2663
 3148SOL    HW220907   0.267   2.029  16.202 -1.4652 -0.1949 -0.0117
 3149SOL     OW20908   1.565   2.242   7.826  0.0052 -0.0670  0.2633
 3149SOL    HW120909   1.622   2.248   7.749  0.9895  2.2991  1.1700
 3149SOL    HW220910   1.541   2.334   7.836 -0.3095 -0.1809  0.5509
 3150SOL     OW20911   0.808   2.962  14.695 -0.0363 -0.2208  0.1516
 3150SOL    HW120912   0.778   2.977  14.785 -0.4828 -0.3864  0.0265
 3150SOL    HW220913   0.855   2.880  14.706 -0.3159 -0.4978 -0.7477
 3151SOL     OW20914   1.790   2.863  10.261 -0.0946  0.3693 -0.1231
 3151SOL    HW120915   1.810   2.868  10.167 -0.0019 -0.7258 -0.1625
 3151SOL    HW220916   1.822   2.946  10.296  2.8192 -1.7511  2.2361
 3152SOL     OW20917   0.826   0.901   7.021 -0.2261 -0.3198  0.2815
 3152SOL    HW120918   0.828   0.888   7.116  0.0243  4.1443  0.8592
 3152SOL    HW220919   0.746   0.953   7.010  0.0051 -0.0756 -0.2298
 3153SOL     OW20920   2.466   3.385   7.226 -0.5073  0.6525  0.3466
 3153SOL    HW120921   2.500   3.310   7.177 -0.7790  1.0120 -0.3984
 3153SOL    HW220922   2.374   3.370   7.201 -0.4341 -1.0239  1.0571
 3154SOL     OW20923   2.622   2.272   6.407 -0.0148  0.0563  0.1871
 3154SOL    HW120924   2.561   2.223   6.461  1.2391 -0.2243  1.3432
 3154SOL    HW220925   2.677   2.307   6.477  0.7289 -1.2296  0.2471
 3155SOL     OW20926   1.239   3.264   6.965 -0.3809  0.8132  0.0635
 3155SOL    HW120927   1.282   3.207   7.028  0.0568  0.4784 -0.5508
 3155SOL    HW220928   1.277   3.349   6.989 -0.4826  0.7175  0.5631
 3156SOL     OW20929   2.700   0.469   2.460 -0.8098  0.3501 -0.1507
 3156SOL    HW120930   2.634   0.513   2.406  1.3825  2.3253 -1.2471
 3156SOL    HW220931   2.643   0.467   2.536  2.1094 -1.0380  2.0068
 3157SOL     OW20932   0.646   4.359   8.853 -0.2693 -0.5214 -0.2758
 3157SOL    HW120933   0.678   4.440   8.893 -0.4160 -0.7679  0.3343
 3157SOL    HW220934   0.682   4.295   8.914 -0.3385  1.8088  2.2240
 3158SOL     OW20935   0.114   1.272   3.213  0.3569  0.7182  0.6336
 3158SOL    HW120936   0.120   1.350   3.158  2.8823  0.9859  1.2832
 3158SOL    HW220937   0.205   1.258   3.239  0.0200 -1.5884  0.5448
 3159SOL     OW20938   4.674   2.668   5.382 -0.4518  0.0538  0.4799
 3159SOL    HW120939   4.655   2.741   5.323 -0.6809  0.2939  0.8553
 3159SOL    HW220940   4.644   2.596   5.327 -0.4096  0.7952 -0.5085
 3160SOL     OW20941   0.724   1.094   3.645 -0.2678  0.0643  0.5450
 3160SOL    HW120942   0.739   1.035   3.719  0.4379 -2.0608 -1.2753
 3160SOL    HW220943   0.811   1.105   3.605 -0.4651  0.0521  0.1129
 3161SOL     OW20944   4.355   2.641   2.755 -0.3615  0.3480 -0.3281
 3161SOL    HW120945   4.361   2.551   2.721 -3.6486  0.1518 -0.4262
 3161SOL    HW220946   4.345   2.699   2.680  2.4830  0.8232 -0.3124
 3162SOL     OW20947   4.265   2.081   6.534 -0.4418 -0.6183 -0.5474
 3162SOL    HW120948   4.310   2.064   6.452  2.0844  2.2779  0.2494
 3162SOL    HW220949   4.173   2.064   6.511 -0.3661 -1.6972 -0.0912
 3163SOL     OW20950   0.777   3.011   4.143 -0.6224 -0.2753  0.6468
 3163SOL    HW120951   0.846   2.948   4.167  1.1952  1.5254  0.1612
 3163SOL    HW220952   0.758   3.051   4.228  1.3769  0.3701  0.8000
 3164SOL     OW20953   3.810   2.072   5.464  0.1706 -0.2396 -0.5048
 3164SOL    HW120954   3.850   2.128   5.530 -0.6397 -0.3473  0.0714
 3164SOL    HW220955   3.716   2.091   5.464 -0.0665 -1.4678  0.6324
 3165SOL     OW20956   2.280   0.969   5.613 -0.4642  0.0229 -0.6341
 3165SOL    HW120957   2.296   0.975   5.707  2.2469 -1.2776 -1.0325
 3165SOL    HW220958   2.367   0.957   5.576 -0.1822  0.1622 -0.0157
 3166SOL     OW20959   0.451   3.281   3.854 -0.5842 -0.4146 -0.0987
 3166SOL    HW120960   0.435   3.226   3.931 -1.5535 -0.3838 -0.2692
 3166SOL    HW220961   0.493   3.223   3.791  0.6578  0.1771  0.1997
 3167SOL     OW20962   0.483   1.189   1.076  0.0544  0.1183  0.1061
 3167SOL    HW120963   0.525   1.115   1.032  0.4620 -1.0145  2.3606
 3167SOL    HW220964   0.457   1.236   0.997  2.5543  0.7911 -0.3126
 3168SOL     OW20965   4.173   1.777   3.797 -0.3750 -0.8312 -0.2894
 3168SOL    HW120966   4.103   1.825   3.841  1.1271  0.4782  0.6740
 3168SOL    HW220967   4.156   1.690   3.832 -4.2522 -0.3366 -0.8757
 3169SOL     OW20968   0.807   2.914  14.095 -0.7443 -0.1414  0.1566
 3169SOL    HW120969   0.825   2.999  14.136 -0.5664 -0.5653  0.9488
 3169SOL    HW220970   0.718   2.933  14.067 -0.3894 -0.5013 -1.2141
 3170SOL     OW20971   2.641   4.116   8.487 -0.2896 -0.3280  0.3467
 3170SOL    HW120972   2.613   4.075   8.405  0.2295  3.1556 -1.5738
 3170SOL    HW220973   2.567   4.082   8.538 -0.5046 -0.8160 -0.2948
 3171SOL     OW20974   2.234   1.215   1.578 -0.2089 -0.4535 -0.2474
 3171SOL    HW120975   2.286   1.139   1.552  0.6683  0.1125 -0.1137
 3171SOL    HW220976   2.230   1.211   1.674 -1.4784  2.1974 -0.1808
 3172SOL     OW20977   1.063   3.993   4.832  0.1271  0.2550  0.7801
 3172SOL    HW120978   1.094   3.943   4.756 -0.6363  1.7441 -0.5227
 3172SOL    HW220979   1.065   4.081   4.794  0.8791 -0.2190 -0.2863
 3173SOL     OW20980   2.978   1.026   3.306  0.7657 -0.2750  0.2222
 3173SOL    HW120981   2.884   1.033   3.327  1.4530 -0.8881  3.5173
 3173SOL    HW220982   3.016   1.104   3.346  1.0584 -0.4879  0.3533
 3174SOL     OW20983   4.093   2.779   6.675 -0.0142  0.5200 -0.2471
 3174SOL    HW120984   4.101   2.685   6.656  0.3692  0.2703  1.0851
 3174SOL    HW220985   4.055   2.809   6.593 -1.7595  2.1325  1.1563
 3175SOL     OW20986   1.091   1.762  16.066 -0.1758 -0.1531  0.0892
 3175SOL    HW120987   1.087   1.671  16.038 -0.3937  0.3332 -1.4858
 3175SOL    HW220988   1.093   1.795  15.976 -0.5762  0.4475  0.2954
 3176SOL     OW20989   3.803   3.306   7.619 -0.2617 -0.5308 -0.6112
 3176SOL    HW120990   3.860   3.365   7.667  1.9569 -2.5270 -0.7784
 3176SOL    HW220991   3.759   3.359   7.552 -1.2710 -0.5819  0.0193
 3177SOL     OW20992   1.063   4.684   5.625  0.2708  0.3710  0.4189
 3177SOL    HW120993   1.065   4.628   5.548  0.5169 -0.6495  1.1708
 3177SOL    HW220994   1.015   0.032   5.588  0.0465  0.2186  0.4127
 3178SOL     OW20995   4.650   0.068   8.580  0.2730 -0.0171 -0.0069
 3178SOL    HW120996   4.711   0.005   8.618 -1.2796 -0.5695  1.5326
 3178SOL    HW220997   4.603   0.092   8.659  1.2600 -1.1983  0.9293
 3179SOL     OW20998   0.346   2.879   5.939 -0.0520  0.6025 -0.2765
 3179SOL    HW120999   0.354   2.893   5.845  2.7410  4.2589  0.5234
 3179SOL    HW221000   0.259   2.843   5.958  0.3282 -1.1439 -1.7760
 3180SOL     OW21001   2.968   1.363   2.640 -0.2511  0.0495  0.2998
 3180SOL    HW121002   2.936   1.402   2.722 -3.3279 -0.5447 -0.6074
 3180SOL    HW221003   2.914   1.285   2.631  0.2472 -0.0307 -1.9500
 3181SOL     OW21004   1.659   3.514  11.289  0.4703 -0.3396 -0.6135
 3181SOL    HW121005   1.739   3.463  11.298  0.1648 -0.8194 -0.6303
 3181SOL    HW221006   1.660   3.584  11.355  2.2246 -1.7974  0.8934
 3182SOL     OW21007   1.285   0.691  13.627  0.3589  0.1720  0.4776
 3182SOL    HW121008   1.301   0.734  13.543  0.2857 -0.6264  0.0598
 3182SOL    HW221009   1.222   0.750  13.668 -0.1223  0.9817 -1.4362
 3183SOL     OW21010   3.463   2.552   6.082 -0.1114 -0.5533  0.4291
 3183SOL    HW121011   3.547   2.531   6.040  0.5197  0.1552  1.3175
 3183SOL    HW221012   3.405   2.492   6.036  0.3952  0.1058 -1.0524
 3184SOL     OW21013   1.659   4.358   7.086 -0.4379 -0.3093 -0.0972
 3184SOL    HW121014   1.567   4.331   7.086 -0.9152  1.3130 -1.0210
 3184SOL    HW221015   1.707   4.276   7.101 -0.6847 -0.0994  1.7258
 3185SOL     OW21016   0.428   0.805  13.507 -0.2535 -0.1653  0.1365
 3185SOL    HW121017   0.428   0.898  13.531 -0.7108 -0.2045  0.2873
 3185SOL    HW221018   0.455   0.762  13.588 -2.1673 -2.3533 -0.4090
 3186SOL     OW21019   1.606   0.296   3.036  0.3598  0.2641  0.4502
 3186SOL    HW121020   1.565   0.270   2.953 -0.9680  0.8623  0.9220
 3186SOL    HW221021   1.672   0.359   3.008  0.8008 -0.5430 -0.3317
 3187SOL     OW21022   1.631   0.866   6.212 -0.2165  0.2507 -0.0032
 3187SOL    HW121023   1.629   0.818   6.130 -0.1090 -0.7510  0.5906
 3187SOL    HW221024   1.688   0.939   6.187 -2.0959  1.1593 -1.6526
 3188SOL     OW21025   4.144   2.359  10.329  0.0952 -0.0009  0.6206
 3188SOL    HW121026   4.221   2.415  10.323 -0.4428  0.4731 -1.5616
 3188SOL    HW221027   4.145   2.312  10.246  0.8981 -1.4507  1.4476
 3189SOL     OW21028   1.093   4.480   7.632 -0.3470  0.6271 -0.1658
 3189SOL    HW121029   1.126   4.391   7.642 -0.4538  0.5992 -0.0501
 3189SOL    HW221030   1.060   4.481   7.542 -0.4675  1.7147 -0.1090
 3190SOL     OW21031   0.680   4.410   3.679 -0.2170  0.2339  0.3881
 3190SOL    HW121032   0.634   4.485   3.715  0.8726  0.3892  1.4647
 3190SOL    HW221033   0.671   4.350   3.753  1.1746  0.2443  0.5685
 3191SOL     OW21034   3.321   2.223   3.202 -0.2699 -0.2693 -0.1516
 3191SOL    HW121035   3.394   2.176   3.242 -0.9094 -0.8147  0.3966
 3191SOL    HW221036   3.252   2.190   3.260  1.1534 -1.1939  1.0221
 3192SOL     OW21037   4.312   0.610  10.016 -0.3583 -0.3893  0.7290
 3192SOL    HW121038   4.237   0.553  10.003  0.5474 -1.2061 -0.9774
 3192SOL    HW221039   4.311   0.660   9.934 -0.7433 -2.7554 -0.6958
 3193SOL     OW21040   0.275   0.295   6.199 -0.0525 -0.1832 -0.0658
 3193SOL    HW121041   0.361   0.315   6.161 -0.5228 -0.8119 -1.4812
 3193SOL    HW221042   0.233   0.245   6.129 -0.5448  0.2869 -0.1013
 3194SOL     OW21043   4.667   2.252  17.436  0.2353 -0.7710  0.3689
 3194SOL    HW121044   4.708   2.166  17.438  1.3014 -0.3183 -1.5372
 3194SOL    HW221045   0.003   2.312  17.393  0.2881 -0.2886  1.1215
 3195SOL     OW21046   0.725   2.090   2.589  0.2502  0.0358 -0.0001
 3195SOL    HW121047   0.679   2.168   2.558 -0.7097 -1.1420 -1.5484
 3195SOL    HW221048   0.808   2.123   2.623 -0.3249 -1.1144  2.4795
 3196SOL     OW21049   1.671   4.513   9.030 -0.1585 -0.4031 -0.4068
 3196SOL    HW121050   1.679   4.603   9.000  1.4565  0.1764  1.6941
 3196SOL    HW221051   1.577   4.500   9.027 -0.0740 -0.6583 -1.6971
 3197SOL     OW21052   2.502   3.920   6.211  0.2303  0.5771 -0.2426
 3197SOL    HW121053   2.501   4.008   6.173 -1.2619  1.7762  2.5454
 3197SOL    HW221054   2.491   3.865   6.134 -1.9581 -1.4126  1.4656
 3198SOL     OW21055   2.477   2.590   0.537  0.0274 -0.2466 -0.9142
 3198SOL    HW121056   2.512   2.563   0.453  1.4519 -0.4393 -0.2670
 3198SOL    HW221057   2.484   2.685   0.540 -0.0334 -0.2084 -2.2760
 3199SOL     OW21058   2.396   3.838   7.886 -0.0695  0.2727  0.1003
 3199SOL    HW121059   2.476   3.883   7.912 -0.3930  1.5541 -1.1276
 3199SOL    HW221060   2.337   3.909   7.863 -0.9500 -0.3072  0.5796
 3200SOL     OW21061   4.426   1.501   9.431 -0.2326 -0.4349  0.0191
 3200SOL    HW121062   4.396   1.554   9.504  2.3295 -0.7273  1.2878
 3200SOL    HW221063   4.349   1.446   9.415 -0.5801 -0.9703  3.6233
 3201SOL     OW21064   3.224   1.916   8.163  0.2181  0.2394  0.7906
 3201SOL    HW121065   3.288   1.979   8.196  0.3446  0.9501 -0.8202
 3201SOL    HW221066   3.152   1.933   8.224 -1.0019  1.2740 -0.9351
 3202SOL     OW21067   0.388   4.476  17.360 -0.1720 -0.1409  0.4862
 3202SOL    HW121068   0.446   4.500  17.432 -0.6778 -1.5975  1.3784
 3202SOL    HW221069   0.359   4.392  17.395  0.9119 -0.6646  0.1511
 3203SOL     OW21070   0.385   3.597   3.439  0.2659  0.0144  0.4156
 3203SOL    HW121071   0.401   3.504   3.452  0.8607 -0.1313 -1.4686
 3203SOL    HW221072   0.427   3.609   3.354  0.5882 -0.2599  0.5366
 3204SOL     OW21073   3.519   2.009  13.117 -0.3281 -0.1684  0.2024
 3204SOL    HW121074   3.519   1.934  13.057 -1.3844 -0.0618  0.0677
 3204SOL    HW221075   3.427   2.034  13.111  0.0673  1.1401 -0.4193
 3205SOL     OW21076   4.418   0.241   4.707 -0.0751 -0.1303 -0.3823
 3205SOL    HW121077   4.474   0.286   4.644 -1.6543  1.0311 -0.9518
 3205SOL    HW221078   4.455   0.276   4.788 -0.3619 -1.2252  0.2223
 3206SOL     OW21079   0.539   4.646  12.838 -0.1077 -0.5831 -0.9051
 3206SOL    HW121080   0.568   0.010  12.822 -0.9934  0.0068  0.8319
 3206SOL    HW221081   0.567   4.610  12.754  0.4461  0.2412 -1.0740
 3207SOL     OW21082   1.915   3.631   8.194 -0.8046 -0.1958 -0.3130
 3207SOL    HW121083   1.911   3.690   8.119  0.6081  0.2680 -0.0157
 3207SOL    HW221084   1.984   3.576   8.158 -1.7640 -1.3800 -0.3405
 3208SOL     OW21085   0.136   4.225   8.962  0.0514  0.0135  0.9417
 3208SOL    HW121086   0.201   4.292   8.938 -0.1493  0.2264  0.9940
 3208SOL    HW221087   0.171   4.154   8.909 -0.6350 -0.7129  1.4700
 3209SOL     OW21088   4.604   3.287   9.651  0.2964  0.1632 -0.0583
 3209SOL    HW121089   4.559   3.211   9.613  2.2593 -0.5638 -0.9358
 3209SOL    HW221090   4.681   3.232   9.665  1.0946  1.2997  0.0055
 3210SOL     OW21091   3.270   4.486  11.194 -0.0950 -0.7980 -0.8647
 3210SOL    HW121092   3.306   4.526  11.114 -0.3944  1.6113  0.1954
 3210SOL    HW221093   3.329   4.411  11.199  1.1898  0.1847 -1.0313
 3211SOL     OW21094   2.760   3.785   5.826  1.1613 -0.2547  0.2674
 3211SOL    HW121095   2.785   3.866   5.870 -0.9989  0.0846  0.8876
 3211SOL    HW221096   2.842   3.748   5.792  1.2253  0.1851 -0.0565
 3212SOL     OW21097   4.636   1.426   8.424 -0.2747 -0.5567  0.4653
 3212SOL    HW121098   4.592   1.390   8.501 -0.3352 -0.1429  0.6244
 3212SOL    HW221099   4.646   1.352   8.365 -0.3319  0.2462 -0.5509
 3213SOL     OW21100   2.394   3.299   9.858 -0.3655  0.7487 -0.0741
 3213SOL    HW121101   2.462   3.308   9.791 -0.0390  2.1865  0.4495
 3213SOL    HW221102   2.350   3.384   9.854 -2.8146 -0.6515 -3.0556
 3214SOL     OW21103   1.017   2.580   5.412 -0.4429 -0.1560  0.2519
 3214SOL    HW121104   1.043   2.586   5.504  0.4682 -0.8834  0.0527
 3214SOL    HW221105   1.094   2.533   5.378  0.0369 -1.4506  3.1563
 3215SOL     OW21106   4.550   4.539   9.653  0.3926 -0.1791  0.1461
 3215SOL    HW121107   4.558   4.622   9.700 -0.7326 -1.2256  2.1930
 3215SOL    HW221108   4.553   4.472   9.722  0.4142  1.0851  1.3578
 3216SOL     OW21109   1.242   2.606   4.609  0.2275  0.4710  0.2598
 3216SOL    HW121110   1.237   2.696   4.641  0.6598  0.4495  0.3852
 3216SOL    HW221111   1.254   2.620   4.515  0.9353  1.5888  0.5057
 3217SOL     OW21112   2.302   4.151   9.284  0.3423  0.2970  0.5849
 3217SOL    HW121113   2.265   4.238   9.299 -0.7877 -0.1283  0.1795
 3217SOL    HW221114   2.342   4.178   9.201  0.2950  0.3323  0.5740
 3218SOL     OW21115   1.164   0.106   8.748  0.2079  0.3415 -0.7809
 3218SOL    HW121116   1.239   0.142   8.795 -1.5462  1.7353  0.9397
 3218SOL    HW221117   1.192   0.026   8.704  0.1477  0.3149 -0.7714
 3219SOL     OW21118   3.387   1.554   5.296 -0.0569 -0.1931 -0.1408
 3219SOL    HW121119   3.455   1.614   5.263 -1.7161  1.1871 -1.0760
 3219SOL    HW221120   3.403   1.470   5.254  0.3472  0.3906 -1.1730
 3220SOL     OW21121   3.297   1.465   3.552 -0.4847 -0.2892  0.0353
 3220SOL    HW121122   3.274   1.540   3.607 -0.2151 -0.4379  0.3552
 3220SOL    HW221123   3.349   1.413   3.613 -0.7367  0.4803  0.9006
 3221SOL     OW21124   4.282   2.284   9.209  0.6029 -0.9052  0.6868
 3221SOL    HW121125   4.351   2.275   9.144  1.2369 -2.2732  1.5348
 3221SOL    HW221126   4.213   2.313   9.149 -0.4937 -2.0038  1.4143
 3222SOL     OW21127   3.611   0.632   3.991  0.0666  0.2071  0.1507
 3222SOL    HW121128   3.554   0.706   3.968 -0.2939 -1.0171 -2.8052
 3222SOL    HW221129   3.692   0.675   4.020  0.7547  1.0374 -3.0086
 3223SOL     OW21130   1.887   3.699   6.496  0.2654 -0.1054  0.7072
 3223SOL    HW121131   1.822   3.698   6.427  0.7214  1.3594  0.2537
 3223SOL    HW221132   1.845   3.753   6.563  1.4568  1.3639  0.2713
 3224SOL     OW21133   1.659   3.365   0.056 -0.4947  0.7869 -0.0143
 3224SOL    HW121134   1.637   3.374  17.667 -1.7913 -0.4784  0.1802
 3224SOL    HW221135   1.646   3.455   0.087 -1.2200  0.7753 -0.2826
 3225SOL     OW21136   2.061   3.395   7.708 -0.3205 -0.0589 -0.4214
 3225SOL    HW121137   2.134   3.354   7.754 -0.0215 -1.0374 -1.7665
 3225SOL    HW221138   1.992   3.329   7.704 -0.4321 -0.0473  1.3067
 3226SOL     OW21139   4.681   3.984   7.388  0.3515 -0.0717 -0.1286
 3226SOL    HW121140   0.043   3.947   7.403  0.8098  1.5022  1.0673
 3226SOL    HW221141   4.625   3.923   7.435  1.6705 -0.1871  1.3009
 3227SOL     OW21142   2.789   0.350  10.850 -0.0024 -0.8476  0.1807
 3227SOL    HW121143   2.842   0.415  10.804 -0.0437  0.2005  1.6366
 3227SOL    HW221144   2.848   0.274  10.847 -0.3610 -1.1525  0.9066
 3228SOL     OW21145   2.637   2.569   3.492 -0.0150  0.2353  0.2399
 3228SOL    HW121146   2.611   2.522   3.413  3.1469 -0.3771 -0.4311
 3228SOL    HW221147   2.557   2.594   3.540  0.0493 -2.3478  1.6888
 3229SOL     OW21148   1.955   0.980   9.946 -0.0080  0.2819  0.4979
 3229SOL    HW121149   1.969   1.051  10.008  1.1181  2.0347 -1.7507
 3229SOL    HW221150   1.936   0.902   9.998  1.1091 -0.7135 -0.5861
 3230SOL     OW21151   1.820   0.472   9.234 -0.2439 -0.2933 -0.1166
 3230SOL    HW121152   1.910   0.496   9.254  0.0507 -0.6868 -0.9932
 3230SOL    HW221153   1.784   0.461   9.322 -0.8487 -1.2421 -0.4798
 3231SOL     OW21154   2.619   3.436  10.371  0.2575  0.1777  0.5000
 3231SOL    HW121155   2.579   3.354  10.400  1.6917 -0.5279  0.4700
 3231SOL    HW221156   2.610   3.426  10.276  0.4390 -0.5191  0.5576
 3232SOL     OW21157   4.278   3.860   3.979  0.1921  0.2693  0.3102
 3232SOL    HW121158   4.314   3.931   4.033  2.3056  0.8069 -1.8088
 3232SOL    HW221159   4.357   3.808   3.964 -0.2324 -0.4966  0.7484
 3233SOL     OW21160   0.659   3.564   5.181 -0.8185 -0.0126 -0.2260
 3233SOL    HW121161   0.611   3.639   5.145 -1.3376 -0.2306  0.0052
 3233SOL    HW221162   0.732   3.607   5.225 -1.3253  2.7932 -2.1081
 3234SOL     OW21163   0.498   4.194   5.378  0.7322  0.1267  0.1802
 3234SOL    HW121164   0.456   4.214   5.295 -1.6214 -0.5187  1.2401
 3234SOL    HW221165   0.434   4.145   5.429  0.3807 -0.7541 -1.1314
 3235SOL     OW21166   0.454   0.419  14.467  0.0239  0.3879  0.2807
 3235SOL    HW121167   0.360   0.436  14.465  0.2740  1.6037 -0.8618
 3235SOL    HW221168   0.461   0.465  14.550  1.7043  1.1465 -0.2727
 3236SOL     OW21169   3.043   4.535  10.351 -0.2124 -0.1972  0.3483
 3236SOL    HW121170   3.042   4.618  10.398  0.0152  0.7600 -1.3470
 3236SOL    HW221171   3.063   4.475  10.423  0.2668  0.3630  0.6900
 3237SOL     OW21172   1.459   0.041   7.271  0.4231 -0.7345 -0.7674
 3237SOL    HW121173   1.522   4.698   7.252 -0.7345 -1.6334 -1.3593
 3237SOL    HW221174   1.501   0.116   7.229  0.6511 -0.6397 -0.3693
 3238SOL     OW21175   2.328   3.346  13.137 -0.6323  0.1889 -0.1309
 3238SOL    HW121176   2.370   3.399  13.205  1.0975 -1.9673  0.4741
 3238SOL    HW221177   2.346   3.397  13.058 -1.5122 -0.8994 -1.0260
 3239SOL     OW21178   4.649   1.498  10.855  0.0930  0.2066 -0.5336
 3239SOL    HW121179   4.721   1.437  10.846  1.3718  1.7233 -0.5694
 3239SOL    HW221180   4.679   1.580  10.816 -1.5147  1.0882  0.0279
 3240SOL     OW21181   1.858   2.985  17.061 -0.1632 -0.4215  0.4283
 3240SOL    HW121182   1.937   2.930  17.058 -0.0469 -0.2281 -0.0436
 3240SOL    HW221183   1.794   2.915  17.050 -1.3758  0.8027 -0.2850
 3241SOL     OW21184   3.410   3.188  13.465 -0.5515  0.1523  0.0313
 3241SOL    HW121185   3.494   3.142  13.458  0.2346  1.8636 -1.8569
 3241SOL    HW221186   3.405   3.215  13.557 -0.6347 -0.4887  0.2145
 3242SOL     OW21187   4.585   0.975   3.727 -0.3906  0.5878  0.3084
 3242SOL    HW121188   4.644   0.990   3.802  1.6661 -2.4681 -0.7359
 3242SOL    HW221189   4.605   1.040   3.660  0.1182 -0.6502 -0.7303
 3243SOL     OW21190   1.759   1.674   6.299 -0.4314 -0.6622  0.2153
 3243SOL    HW121191   1.778   1.657   6.391 -1.6760 -2.1477  0.1918
 3243SOL    HW221192   1.848   1.661   6.265 -0.6422  0.0337 -0.5941
 3244SOL     OW21193   1.039   1.465   6.560 -0.5215 -0.2650  0.1339
 3244SOL    HW121194   1.096   1.543   6.559 -2.5798  1.2525  0.7083
 3244SOL    HW221195   0.975   1.486   6.493 -1.7775  0.1002  1.4486
 3245SOL     OW21196   2.376   2.975   4.166 -0.3806 -0.4133  0.0457
 3245SOL    HW121197   2.312   2.969   4.095 -0.2095  0.3756 -0.1794
 3245SOL    HW221198   2.382   3.068   4.191 -0.9944 -0.3642  0.0208
 3246SOL     OW21199   2.014   1.683   5.944  0.1788  0.5267 -0.3531
 3246SOL    HW121200   2.020   1.637   6.027 -1.7222  0.3754 -0.3081
 3246SOL    HW221201   1.928   1.724   5.950 -0.5589 -1.1501  0.5112
 3247SOL     OW21202   0.697   0.256  16.321 -0.4593 -0.1791  0.2377
 3247SOL    HW121203   0.760   0.323  16.296 -2.4188  2.5426  2.5829
 3247SOL    HW221204   0.683   0.200  16.244  1.1617 -0.8922  0.4766
 3248SOL     OW21205   0.447   2.332   0.933 -0.0264 -0.5625  0.2890
 3248SOL    HW121206   0.368   2.304   0.978  1.0983 -1.9312  1.4039
 3248SOL    HW221207   0.520   2.291   0.979 -0.7083  0.4544  2.2632
 3249SOL     OW21208   0.053   2.707   3.767 -0.1512 -0.0461 -0.4094
 3249SOL    HW121209   0.112   2.672   3.700  1.7694 -0.5724  1.5516
 3249SOL    HW221210   0.085   2.660   3.845 -1.2133 -2.2668 -1.3155
 3250SOL     OW21211   4.674   3.077  10.318 -0.5980  0.3413  0.6732
 3250SOL    HW121212   0.020   3.140  10.306 -0.5929 -0.0035 -1.0453
 3250SOL    HW221213   4.696   3.030  10.399  1.5885  1.0339  0.4810
 3251SOL     OW21214   2.535   3.420  10.114  0.2179  0.6473 -0.7141
 3251SOL    HW121215   2.552   3.499  10.062 -0.5426  1.5036  0.3306
 3251SOL    HW221216   2.509   3.354  10.049 -1.3695  2.1035 -1.5722
 3252SOL     OW21217   0.965   4.160   6.501 -0.1897 -0.0758 -0.0803
 3252SOL    HW121218   0.916   4.128   6.425  0.8730  0.7885 -1.1469
 3252SOL    HW221219   1.031   4.207   6.449 -0.2285 -0.8693 -0.8538
 3253SOL     OW21220   1.591   4.067   3.733  0.7872  0.3333 -0.2228
 3253SOL    HW121221   1.575   4.002   3.665 -2.3313 -0.6279  1.4258
 3253SOL    HW221222   1.650   4.032   3.799 -0.8405 -1.4649  0.2632
 3254SOL     OW21223   2.307   1.148   4.716  0.5495  0.1114 -0.3127
 3254SOL    HW121224   2.286   1.128   4.807 -0.8938 -0.3954 -0.7648
 3254SOL    HW221225   2.237   1.106   4.666  0.5801 -1.8299  1.2673
 3255SOL     OW21226   1.002   4.072   5.984 -0.4826 -0.2287  0.3644
 3255SOL    HW121227   0.923   4.019   5.982 -1.6319  1.4938 -0.3221
 3255SOL    HW221228   0.993   4.104   5.894 -0.4822  1.4778  0.9676
 3256SOL     OW21229   1.205   2.126   5.804  0.3061 -0.1655 -0.3735
 3256SOL    HW121230   1.145   2.186   5.847  0.8130  0.8069 -1.0198
 3256SOL    HW221231   1.279   2.121   5.864 -0.1089  1.7356  0.2842
 3257SOL     OW21232   0.446   2.210  14.405  0.3287 -0.3198  0.1477
 3257SOL    HW121233   0.432   2.133  14.460  2.6196 -0.8180  0.0284
 3257SOL    HW221234   0.527   2.250  14.436 -0.7631  0.0949  2.4618
 3258SOL     OW21235   2.311   2.746   9.243  0.2578 -0.2334 -0.6324
 3258SOL    HW121236   2.261   2.682   9.293  1.7616 -0.9450 -0.0094
 3258SOL    HW221237   2.290   2.826   9.290  0.4944 -0.6288  0.1501
 3259SOL     OW21238   2.147   4.046   8.269 -0.4744  0.0891 -0.2666
 3259SOL    HW121239   2.228   4.072   8.225 -1.7552 -0.2036 -2.7878
 3259SOL    HW221240   2.148   3.958   8.231 -1.0399 -0.4813  1.0479
 3260SOL     OW21241   0.452   2.217   8.909  0.3632  0.4719 -0.0354
 3260SOL    HW121242   0.430   2.253   8.995  1.2448  0.7895  0.0601
 3260SOL    HW221243   0.425   2.127   8.924  1.6815 -0.3322 -2.3957
 3261SOL     OW21244   2.958   1.909   6.234  0.1872 -0.0509 -0.6059
 3261SOL    HW121245   2.886   1.848   6.217 -0.1212  0.3337 -0.6555
 3261SOL    HW221246   2.911   1.988   6.261 -1.4697 -0.9696 -0.7858
 3262SOL     OW21247   1.121   1.437   9.308 -0.2877  0.0982  0.4037
 3262SOL    HW121248   1.127   1.408   9.399  0.5446 -0.0600  0.2943
 3262SOL    HW221249   1.112   1.354   9.261 -0.4093  0.9379 -1.0777
 3263SOL     OW21250   2.020   0.441   3.003  0.4700 -0.0773  0.2162
 3263SOL    HW121251   1.959   0.496   2.954 -0.6976  1.1146  2.9775
 3263SOL    HW221252   1.963   0.415   3.076  0.0917 -1.4114 -0.5490
 3264SOL     OW21253   4.596   4.388  14.914  0.5197 -0.0702 -0.4071
 3264SOL    HW121254   4.597   4.470  14.964  2.7674 -0.8753  0.8293
 3264SOL    HW221255   4.550   4.429  14.841  0.5788 -0.6395 -0.7664
 3265SOL     OW21256   4.260   4.384  14.895  0.2518 -0.1314  0.3001
 3265SOL    HW121257   4.301   4.455  14.846 -0.4377  0.1364  0.1149
 3265SOL    HW221258   4.299   4.393  14.982  0.6132 -0.4814  0.1726
 3266SOL     OW21259   2.972   1.981   0.612  0.0939 -0.2024  0.5586
 3266SOL    HW121260   2.953   2.047   0.680 -0.6628 -1.7181  1.8136
 3266SOL    HW221261   3.003   2.033   0.538  0.9997  0.6390  1.5134
 3267SOL     OW21262   3.737   4.073   4.624  0.1982  0.1401 -0.4513
 3267SOL    HW121263   3.642   4.067   4.614  0.1848  2.1454 -1.4987
 3267SOL    HW221264   3.762   4.034   4.540  0.5969  1.0493 -0.7463
 3268SOL     OW21265   4.302   1.411   3.424 -0.3519  0.4433  0.0840
 3268SOL    HW121266   4.252   1.336   3.457 -0.0295  0.9400  1.7159
 3268SOL    HW221267   4.279   1.411   3.331 -1.4933 -0.6560  0.3720
 3269SOL     OW21268   3.267   0.057   3.241 -0.1102  0.6514  0.0331
 3269SOL    HW121269   3.310   0.121   3.296 -0.3907  2.2880 -1.6521
 3269SOL    HW221270   3.192   0.101   3.200 -0.1881  0.2409 -0.2758
 3270SOL     OW21271   3.098   2.796   2.508 -0.4206 -0.3608 -0.1856
 3270SOL    HW121272   3.151   2.755   2.438 -1.5205  0.7426 -1.6537
 3270SOL    HW221273   3.101   2.731   2.578  0.4849 -0.3425 -0.2076
 3271SOL     OW21274   3.312   0.265   5.416 -0.2206  0.2697  0.0252
 3271SOL    HW121275   3.340   0.295   5.502  3.1601 -1.3848 -0.5280
 3271SOL    HW221276   3.316   0.170   5.430 -0.2755  0.5630  2.0665
 3272SOL     OW21277   3.509   4.644   4.342  0.0896 -0.0478  0.6799
 3272SOL    HW121278   3.568   4.711   4.307 -1.5972  1.8330  1.4551
 3272SOL    HW221279   3.425   4.689   4.349  0.7606  1.3875 -0.3856
 3273SOL     OW21280   0.336   2.688  11.930  0.1806 -0.0116 -0.0166
 3273SOL    HW121281   0.397   2.751  11.891 -1.3693  1.3753 -0.2289
 3273SOL    HW221282   0.376   2.686  12.016  0.0220 -1.0793  0.0366
 3274SOL     OW21283   4.420   4.571   9.281  0.3269 -0.2436 -0.1761
 3274SOL    HW121284   4.357   4.556   9.351  0.7670  0.3152  0.3379
 3274SOL    HW221285   4.390   4.505   9.219  2.1471 -0.3455 -0.9434
 3275SOL     OW21286   1.360   1.188   9.368 -0.2571  0.4146 -0.0356
 3275SOL    HW121287   1.302   1.190   9.445  1.7845  2.3270  1.4578
 3275SOL    HW221288   1.295   1.175   9.300  0.3000 -2.0572 -0.1088
 3276SOL     OW21289   0.446   3.683   6.199 -0.5148  0.3236 -0.0868
 3276SOL    HW121290   0.501   3.697   6.277  1.1130  0.3514 -1.2292
 3276SOL    HW221291   0.460   3.589   6.187  1.4563  0.6948 -0.6873
 3277SOL     OW21292   4.596   3.384   7.883 -0.3931  0.0679  0.1652
 3277SOL    HW121293   4.553   3.443   7.944  1.4814  0.2924  1.2487
 3277SOL    HW221294   4.549   3.302   7.894  1.5884 -0.9813  0.7865
 3278SOL     OW21295   1.913   2.553  16.751 -0.4939 -0.0319 -0.1787
 3278SOL    HW121296   1.947   2.590  16.832  2.0608 -3.5138  0.3527
 3278SOL    HW221297   1.928   2.458  16.757  2.7678  0.5857  1.5665
 3279SOL     OW21298   2.428   2.962  15.235  0.8044 -0.2632  0.3363
 3279SOL    HW121299   2.352   2.910  15.262  1.2314 -0.2268  1.5884
 3279SOL    HW221300   2.422   2.968  15.139  1.3492  1.9064  0.4425
 3280SOL     OW21301   3.657   1.902   8.794  0.2091  0.5886  0.3746
 3280SOL    HW121302   3.587   1.940   8.847 -0.2671  1.1309 -0.6432
 3280SOL    HW221303   3.611   1.830   8.751 -0.7704  0.9240  0.8513
 3281SOL     OW21304   0.397   3.081   3.307  0.5488  0.0330 -0.4132
 3281SOL    HW121305   0.328   3.067   3.372 -0.2673  1.7783 -0.8892
 3281SOL    HW221306   0.342   3.090   3.230 -0.0160 -3.6538 -0.4346
 3282SOL     OW21307   2.689   2.986  15.084 -0.0969  0.6318 -0.3563
 3282SOL    HW121308   2.699   3.017  15.174  2.4961  0.1272 -0.4706
 3282SOL    HW221309   2.593   2.989  15.088 -0.2972 -2.8028 -2.7347
 3283SOL     OW21310   1.741   4.659   8.160  0.4930  0.4039 -0.2149
 3283SOL    HW121311   1.680   4.594   8.125 -0.7780  1.0902  0.7178
 3283SOL    HW221312   1.692   0.015   8.153 -0.1417  0.1536  1.4241
 3284SOL     OW21313   3.446   1.823   6.628 -0.2704 -0.0336  0.2100
 3284SOL    HW121314   3.495   1.793   6.551 -0.0152 -0.6745  0.6158
 3284SOL    HW221315   3.470   1.915   6.623  2.1584 -0.6984 -0.4901
 3285SOL     OW21316   2.203   3.736   5.668  0.1248  0.0128 -0.2136
 3285SOL    HW121317   2.153   3.700   5.740 -0.3760 -1.3637 -1.2625
 3285SOL    HW221318   2.229   3.655   5.625 -1.9073 -0.4669 -0.5356
 3286SOL     OW21319   2.973   0.116   0.531 -0.1048  0.0819  0.4802
 3286SOL    HW121320   2.907   0.064   0.485  0.3163  0.5077 -0.6022
 3286SOL    HW221321   2.916   0.166   0.590 -1.3759  1.5299 -2.0008
 3287SOL     OW21322   0.666   0.644   4.998 -0.1984 -0.3748  0.1265
 3287SOL    HW121323   0.621   0.728   5.008 -1.7838 -1.4691  1.9491
 3287SOL    HW221324   0.681   0.625   5.091 -2.0127  0.0764  0.5113
 3288SOL     OW21325   4.251   3.510   3.918 -0.5619  0.3503 -0.2237
 3288SOL    HW121326   4.176   3.555   3.959 -1.8655 -0.2031 -2.0019
 3288SOL    HW221327   4.322   3.572   3.929 -0.2996  0.4169 -2.3371
 3289SOL     OW21328   0.434   1.119   8.043  0.7527 -0.2438  0.0728
 3289SOL    HW121329   0.468   1.181   7.978  0.4865 -0.3846 -0.1982
 3289SOL    HW221330   0.490   1.136   8.119 -0.6430 -1.2561  1.3079
 3290SOL     OW21331   1.327   4.116  14.125 -0.6095 -0.3042  0.1031
 3290SOL    HW121332   1.273   4.139  14.049  1.1950  1.3187 -0.7074
 3290SOL    HW221333   1.274   4.165  14.187 -0.2229  1.5138 -0.9948
 3291SOL     OW21334   4.510   0.517   5.389 -0.1434 -0.6018  0.5255
 3291SOL    HW121335   4.473   0.482   5.308  0.4619  1.5772 -0.6943
 3291SOL    HW221336   4.570   0.583   5.353 -1.7352  0.2999 -0.4773
 3292SOL     OW21337   1.951   3.772   6.840  0.0446  0.5060 -0.1682
 3292SOL    HW121338   2.019   3.812   6.786 -1.1448  0.7693 -1.4774
 3292SOL    HW221339   1.977   3.681   6.830  2.4966  1.1395  0.4338
 3293SOL     OW21340   0.622   3.777   4.901 -0.2017  0.7699 -0.4679
 3293SOL    HW121341   0.591   3.748   4.816 -0.1566 -0.4447 -0.0721
 3293SOL    HW221342   0.716   3.761   4.901 -0.6602 -1.8760  0.4166
 3294SOL     OW21343   0.819   2.194  13.521 -0.0770  0.2356  0.1732
 3294SOL    HW121344   0.741   2.185  13.466 -1.4321 -0.4932  2.2349
 3294SOL    HW221345   0.796   2.283  13.550  1.5254  0.6715  0.1032
 3295SOL     OW21346   2.943   4.331  15.810 -0.1587 -1.1314  0.2264
 3295SOL    HW121347   2.926   4.287  15.894 -0.2717 -0.9260  0.3114
 3295SOL    HW221348   3.033   4.299  15.807  0.2645  0.4823 -3.3026
 3296SOL     OW21349   4.299   3.719  12.452 -0.2990 -0.0006  0.2730
 3296SOL    HW121350   4.204   3.709  12.453 -0.1310 -1.6187 -0.3925
 3296SOL    HW221351   4.305   3.808  12.418  1.4698 -0.2167  0.0040
 3297SOL     OW21352   1.390   0.011   8.229  0.4372 -0.4926 -0.1636
 3297SOL    HW121353   1.339   4.656   8.226  0.6431 -0.6042 -0.8406
 3297SOL    HW221354   1.392   0.030   8.322 -0.4037  0.4614 -0.3351
 3298SOL     OW21355   0.400   3.501   2.264  0.4736  0.4810  0.1758
 3298SOL    HW121356   0.367   3.544   2.185 -1.5967 -0.8548  0.3177
 3298SOL    HW221357   0.430   3.418   2.229  1.3734 -0.0996  2.3329
 3299SOL     OW21358   4.264   0.867   8.045 -0.6791 -0.0271 -0.1802
 3299SOL    HW121359   4.238   0.868   7.953 -1.0538 -0.0816 -0.0770
 3299SOL    HW221360   4.215   0.940   8.085  0.1893 -0.4416  1.6335
 3300SOL     OW21361   0.512   3.802  15.445 -0.0636  0.1627 -0.3851
 3300SOL    HW121362   0.479   3.713  15.449 -0.8289  0.5252  1.2706
 3300SOL    HW221363   0.434   3.857  15.443 -2.0549 -2.7464 -1.5360
 3301SOL     OW21364   4.394   0.407   3.177  1.0125  0.0891 -0.5460
 3301SOL    HW121365   4.373   0.317   3.151 -0.7393 -0.3572  2.3967
 3301SOL    HW221366   4.440   0.418   3.094 -0.4482 -0.1734 -1.4099
 3302SOL     OW21367   2.072   2.971   2.657  0.5541  0.1181  0.2596
 3302SOL    HW121368   2.162   2.970   2.691  0.3827 -1.4326  0.6663
 3302SOL    HW221369   2.089   2.934   2.570 -0.7172 -0.3835  0.2284
 3303SOL     OW21370   1.976   1.143   5.964 -0.1116  0.8276 -0.0826
 3303SOL    HW121371   1.916   1.130   5.891 -0.4536 -1.6944  0.6366
 3303SOL    HW221372   2.060   1.131   5.920  0.4668 -0.1323  1.3029
 3304SOL     OW21373   2.391   1.961  12.726 -0.1124 -0.6901 -0.1975
 3304SOL    HW121374   2.358   1.965  12.636 -0.9297 -1.5791  0.0604
 3304SOL    HW221375   2.374   1.869  12.745  0.5865 -0.8177 -0.2083
 3305SOL     OW21376   0.756   3.305   3.492 -0.1622  0.2077 -0.1190
 3305SOL    HW121377   0.768   3.301   3.397  2.6565  0.2352  0.2449
 3305SOL    HW221378   0.702   3.228   3.510  1.6506 -1.0116  0.1300
 3306SOL     OW21379   0.166   1.896   8.757 -0.5181  0.6225 -0.0281
 3306SOL    HW121380   0.164   1.964   8.824  0.2660  0.6843 -0.0702
 3306SOL    HW221381   0.074   1.898   8.730  0.5839  1.4424 -3.7857
 3307SOL     OW21382   2.000   2.530  13.007 -0.1605  0.3053  0.2199
 3307SOL    HW121383   1.911   2.565  13.002 -0.9791 -1.3477  3.7756
 3307SOL    HW221384   1.997   2.458  13.069  2.0697 -0.4368 -0.5381
 3308SOL     OW21385   1.495   3.565   8.404 -0.1467 -0.4292 -0.3204
 3308SOL    HW121386   1.565   3.502   8.420 -0.7759 -0.8661  0.7433
 3308SOL    HW221387   1.431   3.516   8.353 -0.6288  1.6809 -1.7800
 3309SOL     OW21388   0.712   4.000   3.545 -0.2759 -0.6412  0.0729
 3309SOL    HW121389   0.651   3.964   3.609  0.8630 -0.4462  1.2758
 3309SOL    HW221390   0.683   3.958   3.464  1.8270 -0.2572 -0.8918
 3310SOL     OW21391   0.371   0.552   4.139  0.0474 -0.3876 -0.1248
 3310SOL    HW121392   0.285   0.509   4.141  0.5632 -1.1561  4.1217
 3310SOL    HW221393   0.388   0.538   4.046  0.3874  0.4063 -0.1823
 3311SOL     OW21394   1.745   4.217   9.243 -0.1693 -0.4406  0.5785
 3311SOL    HW121395   1.787   4.223   9.329 -2.7596  1.0489  1.7738
 3311SOL    HW221396   1.802   4.268   9.186  0.1398  0.4606  1.6971
 3312SOL     OW21397   1.050   0.086   5.332  0.0230 -0.2179 -0.1053
 3312SOL    HW121398   1.041   4.717   5.334  2.7284 -0.5057 -1.7420
 3312SOL    HW221399   0.996   0.103   5.254 -2.7633 -0.1107  1.8418
 3313SOL     OW21400   3.770   2.465   8.851  0.3683 -0.1016  0.2993
 3313SOL    HW121401   3.795   2.372   8.851  1.2978  0.1446  0.0701
 3313SOL    HW221402   3.731   2.473   8.938 -0.2525 -1.1336  0.1222
 3314SOL     OW21403   1.179   3.068   7.850  0.8818  0.0075 -0.3042
 3314SOL    HW121404   1.201   3.083   7.758 -0.1503  0.6550 -0.4450
 3314SOL    HW221405   1.085   3.081   7.842  1.2621  2.9558  0.0653
 3315SOL     OW21406   2.168   1.851   2.627  0.9588  0.1979 -0.2882
 3315SOL    HW121407   2.179   1.760   2.599 -1.4538 -0.2014  0.0381
 3315SOL    HW221408   2.091   1.866   2.572  1.1397 -1.1778 -0.9172
 3316SOL     OW21409   4.413   0.289   4.252 -0.0526  0.0756  0.1032
 3316SOL    HW121410   4.487   0.307   4.195  1.3179  1.6658  2.4078
 3316SOL    HW221411   4.337   0.291   4.193  0.2515  2.0330 -0.2195
 3317SOL     OW21412   1.269   4.369   1.413  0.4033 -0.5752  0.1314
 3317SOL    HW121413   1.261   4.413   1.497  0.1348 -0.3759 -0.0013
 3317SOL    HW221414   1.198   4.408   1.363  0.7228 -0.0419  0.0920
 3318SOL     OW21415   1.011   1.866   0.185 -0.0950 -0.1057  0.2731
 3318SOL    HW121416   0.965   1.833   0.108 -0.7920 -2.0891  1.5154
 3318SOL    HW221417   0.980   1.956   0.185 -2.2437 -0.8447 -1.9701
 3319SOL     OW21418   2.309   1.797   9.277  0.5321  0.4772  0.5468
 3319SOL    HW121419   2.353   1.723   9.318 -0.4887 -0.7843 -0.6733
 3319SOL    HW221420   2.252   1.762   9.208 -0.5000 -0.1989  1.7391
 3320SOL     OW21421   2.442   0.245   8.315 -0.2801 -0.8231  0.0193
 3320SOL    HW121422   2.506   0.315   8.319  1.3353 -2.3911  1.4013
 3320SOL    HW221423   2.396   0.252   8.232 -0.4387 -3.0221 -0.0860
 3321SOL     OW21424   1.776   0.458   5.885  0.4930  0.3160  0.3327
 3321SOL    HW121425   1.861   0.481   5.849  0.9733  1.1692  2.0161
 3321SOL    HW221426   1.731   0.449   5.801 -0.7826  1.1638  0.9100
 3322SOL     OW21427   4.699   2.766   9.609 -0.1346 -0.1449  0.2276
 3322SOL    HW121428   4.636   2.704   9.571  1.3537 -0.2707 -1.9935
 3322SOL    HW221429   0.054   2.731   9.572  0.5340  0.5096  1.0661
 3323SOL     OW21430   4.063   4.480  12.012 -0.9041 -0.1194 -0.3627
 3323SOL    HW121431   4.013   4.405  11.980 -4.7013  2.7735 -1.2390
 3323SOL    HW221432   4.150   4.459  11.979 -0.6155 -0.4358  0.6009
 3324SOL     OW21433   3.399   1.753   8.011 -0.2944 -0.6249  0.3304
 3324SOL    HW121434   3.334   1.816   8.042  2.0022  0.9151  2.0510
 3324SOL    HW221435   3.412   1.700   8.090 -0.4346 -0.7505  0.2687
 3325SOL     OW21436   2.191   2.142   6.090 -0.5905 -0.6046  0.5180
 3325SOL    HW121437   2.246   2.219   6.077 -0.0064 -1.3991 -1.7074
 3325SOL    HW221438   2.190   2.089   6.011  0.4006 -0.1019  0.1720
 3326SOL     OW21439   1.638   1.851   5.348  0.8934 -0.0482  0.1624
 3326SOL    HW121440   1.695   1.777   5.366 -1.2099 -1.1623  2.2027
 3326SOL    HW221441   1.603   1.863   5.436 -1.2708 -0.0547 -0.7148
 3327SOL     OW21442   0.035   0.947  16.733 -0.2791  0.3434 -0.2807
 3327SOL    HW121443   0.126   0.974  16.743 -0.8349  2.1786 -0.3433
 3327SOL    HW221444   0.009   0.987  16.650 -1.2457 -1.7193 -0.9836
 3328SOL     OW21445   0.923   1.472   8.655  0.8441  0.4350  0.0666
 3328SOL    HW121446   0.986   1.407   8.685  2.2621  2.2271  1.0095
 3328SOL    HW221447   0.848   1.413   8.647  1.4378 -0.3739  0.4335
 3329SOL     OW21448   3.690   4.522   6.651 -0.1114 -0.6023 -0.1499
 3329SOL    HW121449   3.715   4.574   6.574 -0.2987 -0.9954 -0.4772
 3329SOL    HW221450   3.607   4.559   6.679 -0.1617 -0.1859 -0.8528
 3330SOL     OW21451   2.383   3.486  14.227  0.8707 -0.3886 -0.3666
 3330SOL    HW121452   2.384   3.504  14.133 -1.3368  3.0013  0.2639
 3330SOL    HW221453   2.329   3.407  14.232 -0.9788  0.9649  0.9855
 3331SOL     OW21454   4.229   3.949   7.332 -0.4427  0.2447  0.0018
 3331SOL    HW121455   4.160   4.008   7.361  0.3886  0.7558  0.9053
 3331SOL    HW221456   4.197   3.871   7.377  0.8217 -0.8819 -1.0357
 3332SOL     OW21457   4.612   4.713  10.810  0.0062 -0.0463  0.0408
 3332SOL    HW121458   4.581   4.722  10.900 -0.4689  1.4961 -0.2805
 3332SOL    HW221459   4.659   4.630  10.815 -2.6886 -1.5286  1.0290
 3333SOL     OW21460   2.145   0.578   4.320  0.1634  0.5082 -0.1448
 3333SOL    HW121461   2.136   0.607   4.411  1.0592  1.7763 -0.4535
 3333SOL    HW221462   2.164   0.486   4.335  0.8121  0.6996  0.2353
 3334SOL     OW21463   1.590   2.361   7.473 -0.4204  0.0082  0.4735
 3334SOL    HW121464   1.525   2.425   7.445  0.0979 -0.4130 -1.7306
 3334SOL    HW221465   1.590   2.302   7.398 -1.4154  0.8743 -0.2095
 3335SOL     OW21466   2.271   3.212   6.501  0.4553 -0.3094  0.0761
 3335SOL    HW121467   2.356   3.236   6.466  1.1332 -1.5471  0.8525
 3335SOL    HW221468   2.213   3.238   6.429 -0.8271  2.6108  2.1685
 3336SOL     OW21469   2.290   1.508   9.118  0.2774  0.2754  0.1183
 3336SOL    HW121470   2.378   1.545   9.123  0.0206  0.8120  0.8370
 3336SOL    HW221471   2.295   1.421   9.156  0.8912  0.5044  0.5633
 3337SOL     OW21472   3.228   4.682   2.401 -0.3796 -0.5540  0.3858
 3337SOL    HW121473   3.236   4.681   2.306  0.4726  1.8706  0.4376
 3337SOL    HW221474   3.309   0.004   2.419 -1.6590  0.8931  2.3728
 3338SOL     OW21475   2.031   2.204   8.306  0.3495  0.3791 -0.0498
 3338SOL    HW121476   2.006   2.236   8.220  2.6587 -0.6774 -1.1209
 3338SOL    HW221477   1.968   2.250   8.361  0.2993 -0.0581  0.2665
 3339SOL     OW21478   2.792   2.115   8.610 -0.0820 -0.5268 -0.3439
 3339SOL    HW121479   2.779   2.128   8.704  0.3886  2.0281 -0.6265
 3339SOL    HW221480   2.764   2.201   8.579 -1.3666 -1.2910 -1.3339
 3340SOL     OW21481   0.810   2.127   6.332  0.5391 -0.0787  0.2527
 3340SOL    HW121482   0.834   2.169   6.415 -0.4100  0.4968  0.2267
 3340SOL    HW221483   0.718   2.102   6.335  0.1984  0.9155 -1.7834
 3341SOL     OW21484   2.233   1.554   6.989 -0.2539  0.3437  0.0949
 3341SOL    HW121485   2.159   1.606   6.957  1.3877  2.1623 -0.7525
 3341SOL    HW221486   2.184   1.475   7.011  0.7718 -0.8647 -2.0954
 3342SOL     OW21487   0.414   1.246   9.538 -0.3281 -0.5035 -1.0581
 3342SOL    HW121488   0.381   1.160   9.511  0.1151 -1.5886  1.8628
 3342SOL    HW221489   0.337   1.290   9.573  1.1119 -1.0379  2.7535
 3343SOL     OW21490   4.489   3.932  17.231 -0.5024  0.2841 -0.1262
 3343SOL    HW121491   4.472   3.855  17.285 -0.4618  0.6427  0.3959
 3343SOL    HW221492   4.400   3.965  17.221 -0.0366  2.3506  2.5807
 3344SOL     OW21493   3.788   0.898  10.208 -0.3455 -0.0081 -0.2323
 3344SOL    HW121494   3.859   0.837  10.229  0.9458  2.0048  1.3085
 3344SOL    HW221495   3.740   0.852  10.139 -3.7384 -1.0277  2.8740
 3345SOL     OW21496   4.694   1.097   4.894  0.4133  0.1517  0.1940
 3345SOL    HW121497   4.696   1.120   4.801  0.6985  0.7020  0.3384
 3345SOL    HW221498   4.615   1.141   4.926  0.1085 -0.9584  0.9551
 3346SOL     OW21499   1.969   4.089   5.284  0.1127  0.3930  0.4487
 3346SOL    HW121500   1.912   4.122   5.214  0.3987  1.5890  0.7726
 3346SOL    HW221501   2.014   4.016   5.242  1.7362  1.3545  0.5020
 3347SOL     OW21502   4.543   3.094   7.259  0.5019 -0.0870 -0.7219
 3347SOL    HW121503   4.449   3.086   7.242  0.0870 -0.5930  1.7620
 3347SOL    HW221504   4.557   3.017   7.313 -0.8004 -1.0431 -1.7434
 3348SOL     OW21505   3.407   3.525   7.999 -0.1497  0.2228 -0.2677
 3348SOL    HW121506   3.468   3.454   8.021 -0.9643 -0.4440 -0.1730
 3348SOL    HW221507   3.448   3.578   7.931  0.3548  0.6472  0.3718
 3349SOL     OW21508   0.677   0.100   3.324 -0.5582  0.3920 -0.1331
 3349SOL    HW121509   0.634   0.017   3.345  0.8838 -0.8767 -2.2124
 3349SOL    HW221510   0.767   0.074   3.340 -0.6812  0.3614  0.5075
 3350SOL     OW21511   2.476   1.746   2.798  0.3402 -0.2120 -0.1677
 3350SOL    HW121512   2.530   1.784   2.867  0.2895  1.8133 -1.2306
 3350SOL    HW221513   2.474   1.830   2.752  2.9880 -2.4111 -4.3004
 3351SOL     OW21514   3.226   4.266  15.751 -0.0441 -0.6694 -0.0594
 3351SOL    HW121515   3.307   4.242  15.705  0.0051 -0.3284 -0.1521
 3351SOL    HW221516   3.263   4.290  15.836 -0.2615  0.4511 -0.2814
 3352SOL     OW21517   1.271   1.728   7.092  0.4385  0.5195  0.2535
 3352SOL    HW121518   1.242   1.739   7.182  0.5070 -0.3552  0.3827
 3352SOL    HW221519   1.184   1.737   7.051  0.4245  1.2580  0.4334
 3353SOL     OW21520   3.141   0.483   0.278 -0.3439  0.4148 -0.2773
 3353SOL    HW121521   3.078   0.546   0.313  1.8855  0.6402  3.3887
 3353SOL    HW221522   3.156   0.415   0.344  1.6458 -0.8127 -1.9698
 3354SOL     OW21523   2.951   1.240   8.250 -0.4490 -0.2849 -0.1098
 3354SOL    HW121524   2.862   1.258   8.217 -0.2111 -0.3026 -0.7696
 3354SOL    HW221525   2.940   1.235   8.345  1.5522 -0.3230  0.1084
 3355SOL     OW21526   1.370   1.658   7.464 -1.5592  0.8938  0.0371
 3355SOL    HW121527   1.402   1.578   7.421  0.2878  2.1303 -0.8869
 3355SOL    HW221528   1.401   1.722   7.400 -3.4928  0.2832 -1.4811
 3356SOL     OW21529   4.017   3.231  12.031  0.2616  0.3026  0.2272
 3356SOL    HW121530   3.938   3.229  12.085  0.6493  3.1394  0.8854
 3356SOL    HW221531   3.987   3.287  11.960 -1.2969 -0.6692  0.1119
 3357SOL     OW21532   0.187   3.600   6.002  0.2655 -0.1662 -0.7511
 3357SOL    HW121533   0.150   3.529   6.055 -1.3052 -0.1804 -1.8685
 3357SOL    HW221534   0.254   3.628   6.064  1.1348 -1.5276 -1.0791
 3358SOL     OW21535   4.481   0.630   4.109  0.1314 -0.5442 -0.4666
 3358SOL    HW121536   4.387   0.619   4.095 -0.0275  1.1524 -0.7147
 3358SOL    HW221537   4.481   0.712   4.159 -3.3394 -0.4547 -0.5998
 3359SOL     OW21538   0.252   3.663   4.456 -0.6021 -0.3970 -0.2796
 3359SOL    HW121539   0.160   3.654   4.481 -0.5286 -0.6303 -0.0985
 3359SOL    HW221540   0.293   3.641   4.540 -1.3179 -0.2777  0.0980
 3360SOL     OW21541   1.648   0.346   6.826  0.2291 -0.0272  0.3521
 3360SOL    HW121542   1.557   0.358   6.800  0.0091 -0.9899  0.6749
 3360SOL    HW221543   1.662   0.256   6.795  0.5326  0.5627 -1.2044
 3361SOL     OW21544   0.577   1.563   7.543 -0.1142 -0.0713  0.4109
 3361SOL    HW121545   0.631   1.611   7.480 -1.0701  1.3540  0.6845
 3361SOL    HW221546   0.528   1.503   7.486  2.2055 -1.3532 -0.2439
 3362SOL     OW21547   3.368   0.219  17.346 -0.0028  0.1032 -0.2490
 3362SOL    HW121548   3.322   0.299  17.372 -1.5646 -1.7803  2.7367
 3362SOL    HW221549   3.346   0.213  17.253 -0.4996  0.4563 -0.1559
 3363SOL     OW21550   2.955   0.020   8.805 -0.1910 -0.2982 -0.0444
 3363SOL    HW121551   2.915   0.004   8.890  3.4945  1.0693  1.9271
 3363SOL    HW221552   3.046   0.004   8.829  0.2756 -0.5966 -1.9858
 3364SOL     OW21553   3.592   3.244   8.887 -0.3859  0.0124 -0.6943
 3364SOL    HW121554   3.560   3.334   8.886 -0.8411 -0.1477 -0.6913
 3364SOL    HW221555   3.573   3.219   8.796 -2.0979 -0.9304 -0.0764
 3365SOL     OW21556   2.104   1.867   4.920 -0.5249 -0.4277  0.4429
 3365SOL    HW121557   2.157   1.789   4.903 -2.2259 -1.3355 -0.6001
 3365SOL    HW221558   2.071   1.882   4.832 -2.4621 -1.7466  0.9394
 3366SOL     OW21559   1.167   3.793   6.566  0.0537 -0.3799 -0.1021
 3366SOL    HW121560   1.100   3.744   6.518 -0.3790  0.3864 -0.2862
 3366SOL    HW221561   1.150   3.887   6.553 -0.5168 -0.5427 -0.4951
 3367SOL     OW21562   1.853   4.136   6.684  0.3869  0.1944  0.2260
 3367SOL    HW121563   1.857   4.207   6.620 -1.4739 -0.5940 -0.7604
 3367SOL    HW221564   1.799   4.076   6.631  2.4993 -0.5868 -1.0580
 3368SOL     OW21565   1.242   2.003   2.828 -0.3480 -0.1216 -0.3119
 3368SOL    HW121566   1.266   2.030   2.917  0.2965  1.6784 -1.0423
 3368SOL    HW221567   1.265   2.076   2.771  1.9347 -2.1780 -2.0009
 3369SOL     OW21568   2.426   0.544  16.164  0.1688 -0.0032  0.0295
 3369SOL    HW121569   2.346   0.579  16.203  0.3181 -0.6384  0.8796
 3369SOL    HW221570   2.401   0.530  16.072 -0.3757 -0.7809  0.2962
 3370SOL     OW21571   1.518   0.687   1.722  0.9612 -0.1575  0.2462
 3370SOL    HW121572   1.457   0.701   1.794 -0.7581 -3.1264 -0.6510
 3370SOL    HW221573   1.602   0.674   1.766  1.3170 -0.1156 -0.4098
 3371SOL     OW21574   1.844   4.362   4.889  0.4126  0.5324 -0.0477
 3371SOL    HW121575   1.928   4.370   4.935  0.2620 -1.8476  0.6407
 3371SOL    HW221576   1.846   4.267   4.875  0.4565  0.7511 -1.5309
 3372SOL     OW21577   0.051   1.522   8.978 -0.0341 -0.0989 -0.5503
 3372SOL    HW121578   4.720   1.547   9.050 -1.1395 -0.3631 -1.3283
 3372SOL    HW221579   0.121   1.586   8.985 -0.7729  0.6280  0.1198
 3373SOL     OW21580   2.983   0.056  14.907 -0.0003 -0.3088 -0.0451
 3373SOL    HW121581   3.025   4.699  14.885  0.6124 -1.3658  5.0383
 3373SOL    HW221582   2.918   0.045  14.838 -0.0564 -1.7541  0.2475
 3374SOL     OW21583   1.286   3.738   6.262 -0.0779  0.6967 -0.0383
 3374SOL    HW121584   1.327   3.822   6.241 -1.6225  0.8862 -2.2613
 3374SOL    HW221585   1.229   3.729   6.186 -1.0036  1.2950  0.5768
 3375SOL     OW21586   1.728   0.042   1.739  0.0104  0.2254 -0.2826
 3375SOL    HW121587   1.656   4.724   1.692 -0.7757  1.0844  0.1074
 3375SOL    HW221588   1.698   0.133   1.733  2.2520  1.0555  1.3341
 3376SOL     OW21589   3.774   3.371  14.784  0.1522 -0.0839  0.2060
 3376SOL    HW121590   3.758   3.464  14.796  0.9274  0.3207 -1.8253
 3376SOL    HW221591   3.847   3.374  14.721  0.0571 -1.0219  0.0441
 3377SOL     OW21592   2.905   3.604   7.579  0.4846  0.0614  0.6640
 3377SOL    HW121593   2.893   3.531   7.640 -1.3031  0.0429  0.2938
 3377SOL    HW221594   2.829   3.591   7.522  2.0309 -3.8212 -0.4874
 3378SOL     OW21595   4.150   3.387   8.658  0.3800 -0.6718 -0.4842
 3378SOL    HW121596   4.078   3.333   8.692 -0.1728  0.0164 -0.5669
 3378SOL    HW221597   4.200   3.409   8.736 -0.3158 -1.0774  0.0817
 3379SOL     OW21598   4.223   3.463   7.100  0.3789  0.4838 -0.1383
 3379SOL    HW121599   4.178   3.388   7.061  0.1070  1.1991 -1.2093
 3379SOL    HW221600   4.163   3.482   7.173 -0.7502  1.7553 -1.3839
 3380SOL     OW21601   3.437   1.370  17.407 -0.3752  0.6587  0.2063
 3380SOL    HW121602   3.416   1.311  17.479 -0.5233 -0.8150 -1.0437
 3380SOL    HW221603   3.366   1.431  17.429 -0.1406  0.7974  0.5640
 3381SOL     OW21604   0.903   3.965   4.540 -0.0201 -0.1642 -0.2909
 3381SOL    HW121605   0.987   3.956   4.587 -0.3902 -0.3835  0.3343
 3381SOL    HW221606   0.905   3.899   4.471  1.8629  0.2350 -0.6380
 3382SOL     OW21607   4.206   3.745  13.271 -0.5120  0.0824  0.5175
 3382SOL    HW121608   4.264   3.768  13.199  0.3138  1.7931  1.7206
 3382SOL    HW221609   4.272   3.714  13.334 -0.3237  1.0680  0.8159
 3383SOL     OW21610   0.201   0.379   6.946 -0.5594 -1.0475 -0.4864
 3383SOL    HW121611   0.177   0.468   6.973  0.9332 -0.1717 -1.9718
 3383SOL    HW221612   0.295   0.397   6.944 -0.8622  0.5875 -0.3428
 3384SOL     OW21613   3.912   1.330   2.857 -0.1360  0.2748 -0.0225
 3384SOL    HW121614   3.861   1.410   2.868  1.6918  1.3929  0.2198
 3384SOL    HW221615   3.921   1.320   2.762  1.4793 -1.1346  0.2779
 3385SOL     OW21616   3.426   0.019   5.413 -0.0849 -0.4454  0.0514
 3385SOL    HW121617   3.471   0.073   5.348 -1.4090  0.9323  0.2794
 3385SOL    HW221618   3.356   4.711   5.357 -1.1671  0.5616  0.7765
 3386SOL     OW21619   3.283   0.572  10.516 -0.5630  0.1341  0.2352
 3386SOL    HW121620   3.280   0.579  10.421  0.6175 -3.2249 -0.0491
 3386SOL    HW221621   3.259   0.664  10.526  0.9312  0.4649  0.7299
 3387SOL     OW21622   0.773   0.783   8.949  0.6662  0.0378  0.4037
 3387SOL    HW121623   0.811   0.860   8.908  1.6384 -0.4457  0.4134
 3387SOL    HW221624   0.681   0.803   8.931  0.8400  0.3841 -0.0918
 3388SOL     OW21625   1.575   2.910   6.915  0.0495 -0.1741  0.3315
 3388SOL    HW121626   1.597   2.987   6.966 -0.3283  1.9423 -2.6899
 3388SOL    HW221627   1.653   2.860   6.940 -0.2042  0.9371  3.2934
 3389SOL     OW21628   1.242   0.032   3.569  0.2408 -0.0498 -0.4289
 3389SOL    HW121629   1.326   4.722   3.598  0.9786  1.0595 -1.1399
 3389SOL    HW221630   1.275   0.096   3.505  1.3785  0.9291  1.1087
 3390SOL     OW21631   1.402   0.705   6.827 -0.0207 -0.7301  0.6987
 3390SOL    HW121632   1.311   0.713   6.853  0.3383  2.1281  1.1227
 3390SOL    HW221633   1.406   0.613   6.801 -0.5537 -0.3274 -0.7782
 3391SOL     OW21634   4.187   0.949   4.353 -0.3738 -0.8035 -0.3647
 3391SOL    HW121635   4.212   0.976   4.265 -1.6476 -1.0616 -0.8044
 3391SOL    HW221636   4.194   0.857   4.329  0.7085 -0.4184 -1.5013
 3392SOL     OW21637   4.386   3.085   9.769 -0.3366 -0.0029  0.1089
 3392SOL    HW121638   4.341   3.158   9.812  0.0813  1.6029 -2.2207
 3392SOL    HW221639   4.376   3.013   9.831 -1.4722 -0.8010 -1.0162
 3393SOL     OW21640   1.403   2.165   5.999  0.0735  0.3451  0.3323
 3393SOL    HW121641   1.470   2.232   5.987 -1.1806  1.2558 -1.6851
 3393SOL    HW221642   1.375   2.186   6.088  0.5653 -0.4037  0.6597
 3394SOL     OW21643   2.566   0.521   6.913 -0.0959  0.5583 -0.2554
 3394SOL    HW121644   2.559   0.571   6.832  0.1946 -0.3267 -0.8238
 3394SOL    HW221645   2.633   0.569   6.963 -0.9052  2.2822 -0.8409
 3395SOL     OW21646   3.485   1.099   7.668 -0.0856  0.1617 -0.1790
 3395SOL    HW121647   3.565   1.047   7.673 -3.0238 -4.1783  1.1746
 3395SOL    HW221648   3.502   1.174   7.726  2.5425 -0.2895 -0.3595
 3396SOL     OW21649   1.126   2.026   8.229  0.2158 -0.2636  0.1500
 3396SOL    HW121650   1.049   2.050   8.178 -0.2565 -0.7904  0.6187
 3396SOL    HW221651   1.196   2.043   8.165  0.1512 -0.4818  0.0228
 3397SOL     OW21652   2.408   3.487   0.774  0.6396  0.1682  0.3002
 3397SOL    HW121653   2.398   3.579   0.799  1.1039 -0.0860  1.4053
 3397SOL    HW221654   2.446   3.447   0.851 -1.1699 -1.1363  0.5189
 3398SOL     OW21655   1.143   3.075   8.606 -0.2738 -0.0988  0.5138
 3398SOL    HW121656   1.136   3.053   8.513 -0.0589  2.0347 -0.0075
 3398SOL    HW221657   1.181   3.162   8.603 -0.6318  0.0537  0.3769
 3399SOL     OW21658   1.833   3.741  16.351 -0.5576  0.5181  0.1467
 3399SOL    HW121659   1.842   3.651  16.318 -1.9939  0.8983 -1.3487
 3399SOL    HW221660   1.899   3.776  16.292 -0.0112  1.4442  1.3344
 3400SOL     OW21661   0.961   1.268   7.278  0.3760 -0.4426 -0.1141
 3400SOL    HW121662   0.968   1.173   7.284  2.6381 -0.3774 -1.7010
 3400SOL    HW221663   0.986   1.282   7.187 -0.4177  0.4937 -0.1920
 3401SOL     OW21664   0.499   1.424  11.591  0.3528 -0.1232  0.5068
 3401SOL    HW121665   0.436   1.408  11.661 -0.0640  2.1409  0.6491
 3401SOL    HW221666   0.578   1.422  11.645  0.7659 -0.6731 -0.1111
 3402SOL     OW21667   4.388   2.207   2.627 -0.2194  0.5126 -1.0280
 3402SOL    HW121668   4.422   2.187   2.539 -2.1481  0.0668 -1.6763
 3402SOL    HW221669   4.461   2.189   2.686 -2.2865 -1.2065  0.9778
 3403SOL     OW21670   1.875   4.455   3.838  0.3275  0.3488  0.3091
 3403SOL    HW121671   1.824   4.536   3.834 -1.3911 -0.7476 -0.2519
 3403SOL    HW221672   1.801   4.394   3.836  1.3684 -0.8646 -0.7342
 3404SOL     OW21673   1.415   1.056   3.437 -0.2659  0.0658 -0.0242
 3404SOL    HW121674   1.400   0.980   3.493  0.0618 -0.6022 -0.8409
 3404SOL    HW221675   1.436   1.009   3.357 -1.8399  0.5987 -0.7319
 3405SOL     OW21676   4.526   3.229   3.410  0.2843  0.0394  0.0908
 3405SOL    HW121677   4.556   3.290   3.342 -1.9422 -0.0079 -0.9164
 3405SOL    HW221678   4.531   3.152   3.355  1.7975 -0.4236  0.8624
 3406SOL     OW21679   0.300   2.942  13.083 -0.0605 -0.0620 -0.2051
 3406SOL    HW121680   0.279   3.026  13.041 -1.0215  0.5852  1.5819
 3406SOL    HW221681   0.369   2.907  13.026  0.6252  0.8986  0.0436
 3407SOL     OW21682   1.731   1.301  11.862 -0.3519 -0.3557 -0.6275
 3407SOL    HW121683   1.743   1.214  11.825  3.1944  0.2175 -0.8098
 3407SOL    HW221684   1.734   1.266  11.951  2.1861 -0.0132 -0.5944
 3408SOL     OW21685   1.714   0.076  13.086  0.1242 -0.2556 -0.1977
 3408SOL    HW121686   1.697   0.166  13.111  3.4076  0.4784 -0.6633
 3408SOL    HW221687   1.781   0.093  13.020 -0.2444  1.3515 -0.1673
 3409SOL     OW21688   0.283   0.076  14.425 -0.4903  0.4655 -0.0770
 3409SOL    HW121689   0.301   0.144  14.361 -0.4510  0.5076 -0.0217
 3409SOL    HW221690   0.331   4.725  14.393 -2.3204 -1.4900  1.8206
 3410SOL     OW21691   3.583   2.784  14.077 -1.1493 -0.3900  0.0157
 3410SOL    HW121692   3.673   2.751  14.084 -0.9303 -0.5456 -3.3270
 3410SOL    HW221693   3.545   2.722  14.016 -0.4977 -0.1079 -0.6909
 3411SOL     OW21694   2.708   2.055   7.982  0.2975 -0.1571  0.4031
 3411SOL    HW121695   2.663   2.101   7.911  0.3683 -0.5507  0.0996
 3411SOL    HW221696   2.657   2.079   8.059  1.1972 -1.5943  1.4492
 3412SOL     OW21697   0.539   1.632   7.197  0.3167 -0.1658 -0.1713
 3412SOL    HW121698   0.585   1.685   7.262 -0.4794 -0.3430  0.5367
 3412SOL    HW221699   0.508   1.555   7.245  3.3325 -1.5170 -0.4010
 3413SOL     OW21700   2.574   1.633   9.768 -0.6634  0.0642  0.1385
 3413SOL    HW121701   2.529   1.554   9.738 -0.1161 -0.1413 -0.1365
 3413SOL    HW221702   2.605   1.601   9.853 -0.1996  2.0558  0.7130
 3414SOL     OW21703   1.948   1.429   9.706 -0.0218  0.1733  0.0251
 3414SOL    HW121704   1.894   1.443   9.628 -1.7506  3.1021  1.7555
 3414SOL    HW221705   2.006   1.359   9.676  3.0466  2.5228  0.5145
 3415SOL     OW21706   2.994   3.179  13.191 -0.1901  0.1278  0.1097
 3415SOL    HW121707   3.037   3.234  13.257 -0.4245  1.8135 -1.1351
 3415SOL    HW221708   2.934   3.237  13.143 -2.7131 -1.4479  1.3739
 3416SOL     OW21709   4.592   3.891   7.999 -0.2677 -0.0001 -0.1134
 3416SOL    HW121710   4.633   3.973   8.024 -0.0405  0.0268 -0.5641
 3416SOL    HW221711   4.652   3.824   8.033 -0.8448  0.1176  1.1234
 3417SOL     OW21712   4.588   0.130   7.099  0.3456 -0.5217 -0.0471
 3417SOL    HW121713   4.538   0.089   7.028  0.1932  1.6295 -1.1964
 3417SOL    HW221714   4.522   0.124   7.167 -0.4107 -1.3457 -0.8571
 3418SOL     OW21715   0.381   0.454   5.576 -0.6076 -0.2252  0.5033
 3418SOL    HW121716   0.326   0.527   5.552  2.6296  0.9703 -3.2864
 3418SOL    HW221717   0.330   0.386   5.532  1.8641  0.3513 -3.2556
 3419SOL     OW21718   4.013   2.617   8.210  0.1617  0.5848  0.2613
 3419SOL    HW121719   4.060   2.622   8.293 -1.0585  0.4775  0.9529
 3419SOL    HW221720   3.935   2.667   8.233  0.7443  1.7528 -0.2857
 3420SOL     OW21721   2.969   0.078   5.289 -0.2302  0.0880  0.0085
 3420SOL    HW121722   2.927   0.160   5.315  1.0554  0.3796  1.1727
 3420SOL    HW221723   2.944   0.025   5.365 -0.6868 -1.0750 -0.9632
 3421SOL     OW21724   3.316   4.368  11.560  0.0571  0.1789 -0.0795
 3421SOL    HW121725   3.396   4.385  11.610  0.5900 -0.3117 -0.7608
 3421SOL    HW221726   3.280   4.305  11.622 -0.2813  1.2574  0.8056
 3422SOL     OW21727   2.409   4.482   2.997  0.5690 -0.2158 -0.3337
 3422SOL    HW121728   2.385   4.573   3.014 -0.0894 -0.7803  1.8492
 3422SOL    HW221729   2.326   4.436   2.993  2.1524 -3.2286  1.3426
 3423SOL     OW21730   2.993   4.643   2.511  0.2501 -0.1554 -0.1466
 3423SOL    HW121731   2.958   4.632   2.423 -0.4425  1.4601 -0.0680
 3423SOL    HW221732   3.085   4.656   2.488  0.0069  0.7218 -0.6128
 3424SOL     OW21733   1.976   2.699  10.759  0.0586  0.2157 -0.0032
 3424SOL    HW121734   1.953   2.661  10.674  0.0036 -0.6073  0.3828
 3424SOL    HW221735   1.933   2.638  10.820  2.0022 -3.2350 -2.0662
 3425SOL     OW21736   3.088   4.300  11.386  0.3683  0.1456  0.1523
 3425SOL    HW121737   3.059   4.239  11.455 -0.0575  2.3148  1.9108
 3425SOL    HW221738   3.175   4.319  11.422  0.1310 -0.4572  1.0487
 3426SOL     OW21739   0.834   3.119   9.808  0.4500  0.3919  0.2089
 3426SOL    HW121740   0.738   3.121   9.806  0.4108 -1.4062  0.7267
 3426SOL    HW221741   0.844   3.037   9.760  0.7156  1.3041 -1.2943
 3427SOL     OW21742   1.978   0.919  14.502  0.5053 -0.0506 -0.1128
 3427SOL    HW121743   2.036   0.924  14.426  0.3325 -1.7302 -0.3538
 3427SOL    HW221744   1.888   0.928  14.470  0.9532 -0.6479 -1.5338
 3428SOL     OW21745   3.161   1.558   3.986 -0.7166 -0.2695 -0.3351
 3428SOL    HW121746   3.146   1.616   4.061  0.5599  1.2110 -1.2292
 3428SOL    HW221747   3.068   1.553   3.965 -0.4796  3.4274 -2.2082
 3429SOL     OW21748   2.571   0.658   7.943  0.5050  0.0056 -0.1747
 3429SOL    HW121749   2.482   0.689   7.922  1.2183  2.7196  0.8158
 3429SOL    HW221750   2.598   0.727   8.003  1.3906 -0.2797 -0.2558
 3430SOL     OW21751   4.500   0.755   3.335 -0.3451  0.2400 -0.6109
 3430SOL    HW121752   4.516   0.829   3.276 -1.9682  1.2046  0.1569
 3430SOL    HW221753   4.415   0.722   3.307 -0.7563  1.5502 -0.9312
 3431SOL     OW21754   0.906   1.994  11.820 -0.2530  0.3138  0.2493
 3431SOL    HW121755   0.818   2.009  11.785  0.1615  0.1710 -0.8535
 3431SOL    HW221756   0.943   2.078  11.850 -2.5082  1.0717  0.9134
 3432SOL     OW21757   1.152   3.931   3.008 -0.2784  0.2882 -0.3142
 3432SOL    HW121758   1.127   3.922   2.916 -1.2052 -1.4611  0.1111
 3432SOL    HW221759   1.153   3.838   3.034  0.1517  0.4087  0.0884
 3433SOL     OW21760   0.119   0.327   0.626 -0.0539  0.1413 -0.2452
 3433SOL    HW121761   0.063   0.287   0.559 -1.7126  1.1959  0.5145
 3433SOL    HW221762   0.086   0.415   0.609  2.2161  1.2515  1.1443
 3434SOL     OW21763   4.009   4.247   0.825  0.6229 -1.0306 -0.7085
 3434SOL    HW121764   4.013   4.255   0.730  1.9549 -2.0800 -0.7328
 3434SOL    HW221765   4.100   4.243   0.852  0.3214 -1.4560  0.2448
 3435SOL     OW21766   4.122   2.589   4.635  0.4948  0.4991 -0.2709
 3435SOL    HW121767   4.185   2.524   4.605  1.6063  0.5808  1.8871
 3435SOL    HW221768   4.093   2.619   4.549 -0.5338  0.3729  0.0357
 3436SOL     OW21769   3.780   3.844   3.419 -0.0261  0.2413 -0.2214
 3436SOL    HW121770   3.725   3.917   3.391 -1.9676 -0.4407  1.7482
 3436SOL    HW221771   3.854   3.886   3.463  1.7397 -0.8486 -2.1520
 3437SOL     OW21772   1.785   3.537   5.968  0.7736 -0.0958 -0.0846
 3437SOL    HW121773   1.830   3.524   5.884 -1.1691 -1.4276 -0.9284
 3437SOL    HW221774   1.846   3.558   6.038 -1.5441  0.6191  1.7106
 3438SOL     OW21775   2.716   1.298   8.415  0.0598  0.0520 -0.2909
 3438SOL    HW121776   2.633   1.337   8.389  1.1060  0.6967 -2.6729
 3438SOL    HW221777   2.707   1.295   8.510 -2.9385  4.0742 -0.4953
 3439SOL     OW21778   3.149   2.916  17.359 -0.0498  0.5239  0.4284
 3439SOL    HW121779   3.108   2.900  17.443  0.7882  2.5973  1.2253
 3439SOL    HW221780   3.100   2.866  17.293  0.4133 -1.0228  1.2665
 3440SOL     OW21781   4.429   2.364  12.279 -0.1523  0.4648 -0.2058
 3440SOL    HW121782   4.477   2.300  12.227  1.5825  0.0943  1.8335
 3440SOL    HW221783   4.339   2.350  12.249 -0.3059  0.2777  0.3512
 3441SOL     OW21784   3.520   3.246   7.713  0.8317  0.1128 -0.3777
 3441SOL    HW121785   3.462   3.289   7.649 -0.4127 -1.9621 -0.6242
 3441SOL    HW221786   3.596   3.301   7.693  0.9082 -0.5588 -1.9564
 3442SOL     OW21787   4.389   2.059   6.295 -0.7357 -0.4460  0.0233
 3442SOL    HW121788   4.470   2.104   6.271 -1.0839  0.4865  0.6087
 3442SOL    HW221789   4.398   1.976   6.247 -0.0042  0.0773 -0.7395
 3443SOL     OW21790   4.703   1.500   9.784 -0.4721  0.1972  0.0218
 3443SOL    HW121791   4.650   1.479   9.860  0.6617 -1.6838  0.2905
 3443SOL    HW221792   4.675   1.591   9.771  0.0351  0.0668 -2.0431
 3444SOL     OW21793   3.130   1.536   5.368  0.3302  0.3599 -0.1087
 3444SOL    HW121794   3.214   1.519   5.326 -0.3293 -1.4718 -0.6774
 3444SOL    HW221795   3.080   1.562   5.290  0.7271 -0.0127 -0.4825
 3445SOL     OW21796   4.078   3.755   3.727 -0.5233  0.1879 -0.2844
 3445SOL    HW121797   4.167   3.784   3.706  0.8622 -3.4889  0.5301
 3445SOL    HW221798   4.076   3.784   3.818  2.9958 -2.5884  0.6866
 3446SOL     OW21799   1.907   3.757   2.906 -0.3030 -0.0175 -0.4934
 3446SOL    HW121800   1.982   3.810   2.931  0.0778 -0.2181 -1.2125
 3446SOL    HW221801   1.849   3.824   2.869  2.5563  2.7213  0.0139
 3447SOL     OW21802   1.989   1.568   4.075  0.0520 -0.1657 -0.4414
 3447SOL    HW121803   1.999   1.530   4.162  1.0934  0.6057 -0.2303
 3447SOL    HW221804   1.895   1.556   4.059 -0.2556 -1.3041  2.3514
 3448SOL     OW21805   2.410   2.148   3.866 -0.1040 -0.1530 -0.0644
 3448SOL    HW121806   2.393   2.152   3.772  0.2248 -0.1103 -0.1248
 3448SOL    HW221807   2.468   2.224   3.874  0.3158 -0.2384 -2.4594
 3449SOL     OW21808   2.198   1.097   7.155  0.8950 -0.2858  0.3912
 3449SOL    HW121809   2.251   1.023   7.183 -0.1229 -1.2963 -0.3581
 3449SOL    HW221810   2.142   1.048   7.096 -0.4825  0.4472  1.0784
 3450SOL     OW21811   4.125   1.199   1.534  0.6565  0.0047  0.2722
 3450SOL    HW121812   4.189   1.257   1.576  2.0530  0.4138 -2.4374
 3450SOL    HW221813   4.179   1.128   1.500  1.2702  0.2961  0.6347
 3451SOL     OW21814   0.247   1.086   9.972 -0.2646 -0.6219  0.3990
 3451SOL    HW121815   0.222   1.040  10.053 -0.8973  0.9900  1.1098
 3451SOL    HW221816   0.168   1.136   9.957  1.1232  0.7401 -2.3499
 3452SOL     OW21817   2.615   3.799   8.606  0.2912  0.7371 -0.4998
 3452SOL    HW121818   2.700   3.838   8.625  2.4248 -3.6610 -0.9584
 3452SOL    HW221819   2.617   3.778   8.513  2.1084 -0.4517 -0.1978
 3453SOL     OW21820   2.223   0.013   4.102  0.1088 -0.0781  0.5498
 3453SOL    HW121821   2.212   0.101   4.065 -0.6723 -0.4285 -0.0417
 3453SOL    HW221822   2.214   4.682   4.026  0.7741 -0.5696  0.8412
 3454SOL     OW21823   0.934   1.532   5.049  0.4073 -0.1217 -0.2458
 3454SOL    HW121824   0.994   1.570   4.985 -0.3483 -0.7277 -1.3248
 3454SOL    HW221825   0.853   1.563   5.007 -0.4265 -1.4570  0.3450
 3455SOL     OW21826   2.009   1.630   9.851  0.0328  0.2946  0.4000
 3455SOL    HW121827   1.934   1.636   9.909  0.0733  1.2122  0.3730
 3455SOL    HW221828   1.975   1.564   9.791 -0.4669 -0.2515  1.2973
 3456SOL     OW21829   4.664   2.924  10.079  0.8837  0.2852  0.3538
 3456SOL    HW121830   4.659   2.917  10.174  0.3024 -2.3663  0.1338
 3456SOL    HW221831   4.604   2.997  10.064 -0.4238 -0.9971 -0.7718
 3457SOL     OW21832   0.103   1.232  10.723  0.7504  0.9737 -0.7314
 3457SOL    HW121833   0.135   1.323  10.727 -1.7109  1.8726 -1.4526
 3457SOL    HW221834   0.074   1.222  10.814 -0.1997 -0.6670 -1.2229
 3458SOL     OW21835   4.203   1.434   6.161  0.0663  0.0865  0.4399
 3458SOL    HW121836   4.195   1.356   6.106  2.3042 -1.0525  1.7448
 3458SOL    HW221837   4.289   1.418   6.199  0.0741  2.9679  1.5899
 3459SOL     OW21838   4.252   1.108   1.862  0.2743  0.2521  0.0434
 3459SOL    HW121839   4.310   1.040   1.897 -0.0084 -0.6313 -1.2129
 3459SOL    HW221840   4.302   1.132   1.784 -0.1627 -0.4864 -0.4598
 3460SOL     OW21841   0.428   2.339   6.994  0.2639 -0.6109  0.6105
 3460SOL    HW121842   0.394   2.266   7.046 -0.5578 -0.0672  0.8299
 3460SOL    HW221843   0.479   2.388   7.059 -0.4137  0.0785  0.6190
 3461SOL     OW21844   4.301   4.685   3.382 -0.8196  0.0172  0.1110
 3461SOL    HW121845   4.289   4.610   3.441  0.8784  0.8352  1.4978
 3461SOL    HW221846   4.289   4.639   3.299 -1.0410 -0.2091  0.2659
 3462SOL     OW21847   0.063   0.631   4.155 -0.2878 -0.0345  0.3441
 3462SOL    HW121848   0.026   0.711   4.118  2.7611  1.2907  0.1600
 3462SOL    HW221849   0.039   0.572   4.084  0.3494  0.0075  0.0973
 3463SOL     OW21850   2.295   1.967   3.409 -0.1836  0.1224  0.0884
 3463SOL    HW121851   2.245   1.930   3.481  0.2443 -0.8524 -0.1136
 3463SOL    HW221852   2.227   1.974   3.342 -0.3863 -3.9715 -0.0916
 3464SOL     OW21853   1.300   1.677   1.924 -0.2685 -0.4042 -0.1991
 3464SOL    HW121854   1.241   1.649   1.994 -1.7027 -0.1438 -1.2811
 3464SOL    HW221855   1.295   1.773   1.921  1.8852 -0.3223 -0.7492
 3465SOL     OW21856   2.494   2.238  16.536  0.2551  0.1112 -0.6867
 3465SOL    HW121857   2.548   2.298  16.588 -0.6996 -1.0648  1.6370
 3465SOL    HW221858   2.453   2.184  16.603 -0.3731  0.2139 -0.9893
 3466SOL     OW21859   0.549   2.702  13.619  0.0658 -0.1805  0.5072
 3466SOL    HW121860   0.547   2.769  13.550 -0.8753  0.3050  1.0028
 3466SOL    HW221861   0.471   2.648  13.607  0.4554 -0.6901  0.2858
 3467SOL     OW21862   2.268   1.667   1.201  0.2753 -0.7364  0.4566
 3467SOL    HW121863   2.231   1.582   1.224 -1.4220 -0.0243  0.4274
 3467SOL    HW221864   2.317   1.635   1.126 -1.3951  0.6368 -1.2439
 3468SOL     OW21865   2.484   4.620   4.119  0.3642 -0.4877  0.1299
 3468SOL    HW121866   2.394   4.643   4.144  0.3231  0.2231 -0.7017
 3468SOL    HW221867   2.470   4.592   4.029 -0.1530 -0.3962  0.1790
 3469SOL     OW21868   3.492   1.973   3.319 -0.2561  0.3894  0.3462
 3469SOL    HW121869   3.521   1.984   3.228 -0.2957  1.0313  0.4072
 3469SOL    HW221870   3.561   1.909   3.339 -1.4613 -0.3458  2.1048
 3470SOL     OW21871   0.029   1.224   9.974  0.1012 -0.2669  0.3134
 3470SOL    HW121872   0.058   1.312   9.999  0.5916 -0.0890 -0.8755
 3470SOL    HW221873   4.663   1.250   9.969  0.4361  0.6155 -1.1991
 3471SOL     OW21874   3.326   0.853   6.689  0.4333 -0.2217 -0.2771
 3471SOL    HW121875   3.276   0.906   6.752 -2.3261 -1.1758 -1.6801
 3471SOL    HW221876   3.284   0.770   6.710 -0.1839  0.6794  2.1230
 3472SOL     OW21877   1.883   3.470   6.988 -0.4360 -0.3308  0.0134
 3472SOL    HW121878   1.865   3.484   6.895 -1.1067 -2.5518 -0.1990
 3472SOL    HW221879   1.880   3.375   6.981 -1.5957 -0.2555 -0.5126
 3473SOL     OW21880   0.653   3.042   2.998  0.1816 -0.5641 -0.3109
 3473SOL    HW121881   0.733   3.032   3.050  0.0154  0.1512  0.0792
 3473SOL    HW221882   0.697   3.012   2.918  1.5829  0.0092  0.2441
 3474SOL     OW21883   3.472   1.340   2.926  0.2521 -0.4708 -0.4326
 3474SOL    HW121884   3.461   1.394   2.848 -1.0224 -2.2058 -1.4745
 3474SOL    HW221885   3.565   1.350   2.948 -0.2011 -0.1521  1.3330
 3475SOL     OW21886   3.287   0.419   8.382  0.3776 -0.3325 -0.0316
 3475SOL    HW121887   3.225   0.346   8.373  0.3126 -0.0970 -1.5387
 3475SOL    HW221888   3.284   0.437   8.476 -2.7395  0.7876 -0.3377
 3476SOL     OW21889   4.442   1.243   6.161  0.0696 -0.1266  0.3797
 3476SOL    HW121890   4.413   1.167   6.112 -0.8083 -1.4494  2.9402
 3476SOL    HW221891   4.453   1.211   6.251 -0.7426  1.2431  0.9619
 3477SOL     OW21892   2.190   3.523   2.103 -0.3008 -0.1878 -0.4448
 3477SOL    HW121893   2.271   3.511   2.053 -0.9457 -3.0196 -0.8154
 3477SOL    HW221894   2.126   3.500   2.036 -0.8462 -0.0204  0.0187
 3478SOL     OW21895   2.639   1.752  12.473 -0.1701 -0.2390  0.0667
 3478SOL    HW121896   2.646   1.684  12.541  0.8164 -0.1519  0.0585
 3478SOL    HW221897   2.550   1.742  12.440  1.2445 -1.7589 -3.3069
 3479SOL     OW21898   2.625   3.092  16.053  0.9636 -0.1661 -0.1021
 3479SOL    HW121899   2.684   3.017  16.058  2.2290  0.8388 -0.0662
 3479SOL    HW221900   2.553   3.056  16.001  1.9864 -1.5672 -0.5669
 3480SOL     OW21901   0.538   2.635   9.098  1.0535 -0.4042  0.1965
 3480SOL    HW121902   0.563   2.608   9.187  1.6111 -2.9351 -0.7276
 3480SOL    HW221903   0.467   2.692   9.128 -0.0364  0.2210 -3.6210
 3481SOL     OW21904   2.742   1.748   9.579 -0.3230 -0.0421 -0.4248
 3481SOL    HW121905   2.832   1.726   9.604  0.2167  0.5846 -1.8546
 3481SOL    HW221906   2.694   1.734   9.661 -0.0503 -0.3347 -0.3134
 3482SOL     OW21907   1.217   1.530   4.158  0.0606  0.1406  0.2467
 3482SOL    HW121908   1.304   1.569   4.153  0.2158 -0.2623 -0.1889
 3482SOL    HW221909   1.190   1.591   4.226  0.8177 -1.2067  1.7297
 3483SOL     OW21910   3.123   3.796   8.772  0.0782 -0.8627  0.3834
 3483SOL    HW121911   3.168   3.788   8.688 -0.1465 -1.2842  0.3046
 3483SOL    HW221912   3.106   3.702   8.778 -2.7222 -0.4951 -2.2401
 3484SOL     OW21913   3.236   3.715   6.795  0.2230  0.2719  0.2446
 3484SOL    HW121914   3.171   3.737   6.862 -0.9711 -0.0445 -0.8309
 3484SOL    HW221915   3.249   3.801   6.754 -0.8349  0.5540  0.4968
 3485SOL     OW21916   4.708   2.674  11.201 -0.4836 -0.3124  0.1351
 3485SOL    HW121917   0.010   2.706  11.286 -1.3671  0.0668  0.2745
 3485SOL    HW221918   4.663   2.595  11.230  0.5014 -1.2739 -0.9238
 3486SOL     OW21919   2.940   4.350   7.933  0.0585  0.2060 -0.2438
 3486SOL    HW121920   2.890   4.413   7.881  1.8763 -1.4980 -3.9720
 3486SOL    HW221921   2.986   4.406   7.996 -2.2253  1.6548  0.1302
 3487SOL     OW21922   3.494   1.435   6.372  0.2596  0.0137  0.2213
 3487SOL    HW121923   3.431   1.461   6.305  0.0399 -0.2493  0.3302
 3487SOL    HW221924   3.550   1.374   6.324  0.2266 -0.4686  0.8077
 3488SOL     OW21925   3.664   1.110   8.101 -0.3760  0.5981  0.2094
 3488SOL    HW121926   3.617   1.113   8.184 -0.1255 -0.8896  0.4008
 3488SOL    HW221927   3.588   1.119   8.044 -0.6820  2.2621  0.8853
 3489SOL     OW21928   0.285   3.727   9.539  0.0570 -0.5277 -0.1714
 3489SOL    HW121929   0.289   3.746   9.633  1.5717  0.1967 -0.3955
 3489SOL    HW221930   0.372   3.689   9.527  1.4065  2.6541 -0.2652
 3490SOL     OW21931   0.072   2.045   4.997  0.5185 -0.1469 -0.0959
 3490SOL    HW121932   4.712   2.003   4.995 -0.2852  1.4977  0.1059
 3490SOL    HW221933   0.063   2.108   5.068 -0.9009  0.8786 -1.1922
 3491SOL     OW21934   3.998   4.669   4.517 -0.0157  0.3288  0.0349
 3491SOL    HW121935   3.915   4.713   4.498  0.0334  0.7938  0.8955
 3491SOL    HW221936   4.000   4.678   4.612 -1.5000  0.2461  0.0783
 3492SOL     OW21937   3.202   1.718   5.971  0.3214  0.2269 -0.2041
 3492SOL    HW121938   3.148   1.639   5.964  1.1408 -0.0618 -3.1979
 3492SOL    HW221939   3.141   1.777   5.927  0.3793  1.6911  1.7347
 3493SOL     OW21940   4.077   2.039   5.356  0.7166 -0.0479 -0.1360
 3493SOL    HW121941   3.984   2.024   5.373  1.0245 -0.4727  1.1631
 3493SOL    HW221942   4.071   2.110   5.291  2.5449  0.7656  0.5930
 3494SOL     OW21943   0.548   0.745   5.712 -0.2520  0.3485 -0.0440
 3494SOL    HW121944   0.474   0.798   5.739 -1.1271 -1.3804  0.9100
 3494SOL    HW221945   0.545   0.755   5.617  2.2714 -2.1105 -0.3988
 3495SOL     OW21946   0.443   1.902   9.162  0.2318 -0.2773  0.8845
 3495SOL    HW121947   0.483   1.919   9.077 -0.9255 -0.4862  0.2955
 3495SOL    HW221948   0.357   1.866   9.140  0.7396 -1.1898  0.3695
 3496SOL     OW21949   3.212   0.047   8.469 -0.7885  0.1067  0.1843
 3496SOL    HW121950   3.254   4.714   8.531 -1.4058  0.2707  0.7615
 3496SOL    HW221951   3.154   0.100   8.524  1.1942  0.2546  2.1444
 3497SOL     OW21952   0.770   0.101  16.973  0.3901  0.2707 -0.3470
 3497SOL    HW121953   0.779   0.007  16.992 -0.1012  0.1136 -0.8987
 3497SOL    HW221954   0.764   0.142  17.059 -0.1869 -0.2309 -0.1464
 3498SOL     OW21955   3.191   2.029   7.676 -0.6949 -0.0878 -0.5526
 3498SOL    HW121956   3.256   1.975   7.631 -0.7348 -0.3563 -0.2966
 3498SOL    HW221957   3.117   2.020   7.616  0.3184 -2.8798 -1.3855
 3499SOL     OW21958   0.269   1.781   3.967  0.7220 -0.1013 -0.2949
 3499SOL    HW121959   0.189   1.815   3.928  0.1177  0.4190  1.3716
 3499SOL    HW221960   0.316   1.743   3.893  1.1683  2.5723 -1.3618
 3500SOL     OW21961   1.016   2.577   5.011  0.2786 -0.2840  0.5251
 3500SOL    HW121962   1.044   2.577   5.103 -1.0676  0.7606  0.9375
 3500SOL    HW221963   1.032   2.669   4.989  1.6345  0.0253  2.7744
 3501SOL     OW21964   1.195   3.741  17.574  0.0079  0.1938  0.6611
 3501SOL    HW121965   1.156   3.828  17.590 -0.9026  0.3034 -2.3249
 3501SOL    HW221966   1.141   3.715  17.500 -1.3801  1.1635  1.3232
 3502SOL     OW21967   0.107   2.342   0.324  0.1594 -0.0582 -0.1279
 3502SOL    HW121968   0.148   2.272   0.273  0.5517  0.6566 -0.7886
 3502SOL    HW221969   0.166   2.332   0.399 -1.7980  0.8785  1.5464
 3503SOL     OW21970   3.791   0.028   7.569  0.1331 -0.1598 -0.0810
 3503SOL    HW121971   3.757   4.713   7.489  1.9604 -2.7024  0.4362
 3503SOL    HW221972   3.761   0.116   7.548 -0.6267 -0.5602 -0.6808
 3504SOL     OW21973   0.392   3.007  15.401 -0.3104 -0.3700  0.3623
 3504SOL    HW121974   0.344   3.073  15.351 -0.7101  0.1845  1.4648
 3504SOL    HW221975   0.480   3.044  15.394 -0.7522  0.4558 -0.7545
 3505SOL     OW21976   4.407   2.148   6.024  0.3526 -0.4888 -0.1177
 3505SOL    HW121977   4.417   2.053   6.013  1.3897 -0.6861  2.3398
 3505SOL    HW221978   4.495   2.166   6.057  0.3260  2.6228 -1.7459
 3506SOL     OW21979   0.469   2.133   6.345 -0.3315  0.9467  0.0695
 3506SOL    HW121980   0.450   2.056   6.399  0.2570  1.0874  0.4776
 3506SOL    HW221981   0.422   2.200   6.397 -2.0304 -0.3168  0.1667
 3507SOL     OW21982   0.242   3.858   6.258  0.1486  0.4940  0.6457
 3507SOL    HW121983   0.200   3.850   6.344  0.1246 -1.1519  0.4880
 3507SOL    HW221984   0.304   3.785   6.260 -0.8889 -0.3968  0.0171
 3508SOL     OW21985   3.427   1.906   8.931 -0.4109  0.5211  0.3028
 3508SOL    HW121986   3.376   1.972   8.979 -2.6964 -0.3086 -0.9761
 3508SOL    HW221987   3.403   1.824   8.974  0.3537  0.2172  0.1448
 3509SOL     OW21988   3.274   3.010  11.864  0.2711  0.0711  0.2284
 3509SOL    HW121989   3.235   2.969  11.787  1.1389  1.3160 -0.8597
 3509SOL    HW221990   3.367   3.017  11.841  0.0328  1.5496 -0.2447
 3510SOL     OW21991   3.399   2.533   5.585 -0.3448  0.1284  0.2834
 3510SOL    HW121992   3.346   2.475   5.531 -0.8681 -0.5544  1.5159
 3510SOL    HW221993   3.426   2.589   5.513 -0.5328 -0.6977 -0.4200
 3511SOL     OW21994   1.832   3.490   6.670  0.3088 -0.8441 -0.3577
 3511SOL    HW121995   1.916   3.454   6.695  1.1536  0.0847 -1.8421
 3511SOL    HW221996   1.858   3.568   6.620 -2.7936 -1.4002 -2.8966
 3512SOL     OW21997   3.982   1.436   5.500  0.3037 -0.4024  0.4870
 3512SOL    HW121998   3.967   1.397   5.414  0.0747 -3.3369  1.8502
 3512SOL    HW221999   4.075   1.417   5.512  0.1680 -1.1806  0.2957
 3513SOL     OW22000   4.568   0.319   4.468  0.3108  0.2613  1.1683
 3513SOL    HW122001   4.496   0.316   4.404  1.6963  1.1574 -0.4440
 3513SOL    HW222002   4.597   0.409   4.452 -0.3475  0.5076  1.3584
 3514SOL     OW22003   2.075   2.929   7.250  1.0351  0.0236 -0.0332
 3514SOL    HW122004   2.084   2.834   7.245  0.5290 -0.0573  0.7383
 3514SOL    HW222005   2.025   2.957   7.326  0.4820  4.0106 -1.8567
 3515SOL     OW22006   4.229   1.582  11.094  0.1426 -0.2831 -0.2857
 3515SOL    HW122007   4.315   1.602  11.055  0.3597  0.9816  0.8717
 3515SOL    HW222008   4.175   1.659  11.077  1.6860  1.0109  0.6432
 3516SOL     OW22009   4.466   1.334  10.709 -0.5475 -0.4851 -0.1876
 3516SOL    HW122010   4.522   1.387  10.766 -2.0508  1.0704 -0.1903
 3516SOL    HW222011   4.457   1.386  10.630  0.1157 -0.9254 -0.5513
 3517SOL     OW22012   2.988   0.682   6.420  0.0644 -0.1562  0.1566
 3517SOL    HW122013   2.901   0.650   6.397 -0.2539  0.6851  0.1997
 3517SOL    HW222014   3.035   0.600   6.405  0.1028 -0.4267  1.7761
 3518SOL     OW22015   3.598   4.392   8.779  0.2617  0.7186 -0.3511
 3518SOL    HW122016   3.574   4.461   8.717  0.8649  0.1294 -1.2510
 3518SOL    HW222017   3.532   4.394   8.848  2.2886  0.6464  1.5813
 3519SOL     OW22018   4.106   1.612   2.350 -0.6919  0.0372  0.1926
 3519SOL    HW122019   4.068   1.672   2.286 -3.5966 -1.9302  0.0713
 3519SOL    HW222020   4.104   1.672   2.425 -0.4440 -0.4529  0.5862
 3520SOL     OW22021   0.828   4.528   1.135 -0.4582 -0.2572 -0.1024
 3520SOL    HW122022   0.737   4.555   1.129  0.1625  1.9943  0.7137
 3520SOL    HW222023   0.853   4.538   1.043 -1.4316  2.0841 -0.1128
 3521SOL     OW22024   0.845   4.589  11.231 -0.0326  0.5745 -0.0526
 3521SOL    HW122025   0.928   4.543  11.228 -0.3213  0.0602 -0.2092
 3521SOL    HW222026   0.842   4.625  11.143  0.2306 -0.8923 -0.6692
 3522SOL     OW22027   4.312   4.476   8.480 -0.4281 -0.6942 -0.1287
 3522SOL    HW122028   4.301   4.536   8.554 -1.4159 -2.3340  1.0268
 3522SOL    HW222029   4.226   4.440   8.462 -1.0075 -0.5633  2.3575
 3523SOL     OW22030   1.549   1.489   3.569  0.0023  0.3127 -0.0156
 3523SOL    HW122031   1.504   1.481   3.653  1.1077  2.1139  0.7535
 3523SOL    HW222032   1.581   1.578   3.582  0.1479 -0.0402  1.9656
 3524SOL     OW22033   1.254   2.301   9.658  0.1919  0.0547 -0.7605
 3524SOL    HW122034   1.213   2.310   9.572  1.5675  1.5584 -1.2514
 3524SOL    HW222035   1.342   2.293   9.623  0.4984  0.1261 -0.0160
 3525SOL     OW22036   4.131   0.165   3.422 -0.4800 -0.3092  0.1980
 3525SOL    HW122037   4.198   0.097   3.421 -0.1586  0.0266 -1.3584
 3525SOL    HW222038   4.057   0.112   3.390 -0.2376 -0.4105 -0.1883
 3526SOL     OW22039   0.975   3.775   4.315 -0.3438  0.7256  0.0090
 3526SOL    HW122040   1.067   3.801   4.322 -0.4608  0.7109  1.6765
 3526SOL    HW222041   0.973   3.688   4.354  0.1786  0.9914  0.6230
 3527SOL     OW22042   0.554   1.746  17.025 -0.2300  0.1856 -0.1192
 3527SOL    HW122043   0.520   1.738  16.936 -2.2023 -1.9590  0.8091
 3527SOL    HW222044   0.637   1.792  17.015  1.8961 -3.1405  1.9708
 3528SOL     OW22045   1.583   2.022   9.278 -0.2278  0.4034 -0.1796
 3528SOL    HW122046   1.579   1.999   9.185  0.3558 -3.1443  0.6497
 3528SOL    HW222047   1.629   1.945   9.311  1.0065  0.3416 -1.9925
 3529SOL     OW22048   4.501   2.619   8.243  0.5161  0.1821  0.0390
 3529SOL    HW122049   4.512   2.679   8.317  0.4098 -1.5133  1.4289
 3529SOL    HW222050   4.509   2.688   8.177 -1.5445 -0.8429 -1.2744
 3530SOL     OW22051   4.265   2.880   9.932 -0.4602  0.1963  0.1749
 3530SOL    HW122052   4.283   2.833  10.013 -2.9360  0.0442  0.6374
 3530SOL    HW222053   4.174   2.851   9.924 -0.4090  0.5102 -1.6274
 3531SOL     OW22054   2.473   3.906   9.816 -0.6817 -0.1020  0.4522
 3531SOL    HW122055   2.389   3.950   9.805 -1.4671 -1.1585  2.2278
 3531SOL    HW222056   2.523   3.985   9.838  2.0853 -1.8870  0.5905
 3532SOL     OW22057   3.708   1.844   3.292 -0.2423  0.7215  0.3682
 3532SOL    HW122058   3.799   1.844   3.323 -0.9989 -0.3490  2.5591
 3532SOL    HW222059   3.721   1.784   3.218 -2.0577  0.7889 -0.0004
 3533SOL     OW22060   3.937   0.202  17.208 -0.2922  0.4659  0.2367
 3533SOL    HW122061   3.905   0.213  17.119 -1.0231 -2.8267  0.0933
 3533SOL    HW222062   3.866   0.155  17.251 -1.4170  1.5025 -0.4800
 3534SOL     OW22063   2.420   4.334   1.586 -0.0280 -0.2626 -0.4829
 3534SOL    HW122064   2.478   4.400   1.625  0.5814 -1.4234  0.5608
 3534SOL    HW222065   2.348   4.385   1.547  0.4563  0.8042  0.0055
 3535SOL     OW22066   3.745   3.306   5.734  0.0188 -0.5906 -0.2634
 3535SOL    HW122067   3.696   3.265   5.805 -1.3832 -1.5176 -1.7728
 3535SOL    HW222068   3.832   3.314   5.774  0.3468  1.6511 -1.3922
 3536SOL     OW22069   1.892   4.218   8.653 -0.7403  0.5644 -0.5953
 3536SOL    HW122070   1.883   4.123   8.654  2.1146  0.2908  0.0137
 3536SOL    HW222071   1.848   4.241   8.571 -1.4976  0.5191 -0.1944
 3537SOL     OW22072   0.402   0.851   2.111 -0.0364  0.2169  0.3287
 3537SOL    HW122073   0.454   0.776   2.140  0.3272 -0.0144 -0.9337
 3537SOL    HW222074   0.425   0.849   2.018  1.3594  1.7880  0.6457
 3538SOL     OW22075   4.394   2.090   7.559  0.3856  0.3305 -0.1701
 3538SOL    HW122076   4.318   2.103   7.615  1.8385  1.0109  1.6507
 3538SOL    HW222077   4.367   2.019   7.502  2.2383 -0.6222  0.1341
 3539SOL     OW22078   1.782   2.647   9.669 -0.1881  0.3340 -0.1608
 3539SOL    HW122079   1.730   2.608   9.598 -1.2319  0.4675  0.5299
 3539SOL    HW222080   1.824   2.715   9.617  1.4044  0.6065  1.4953
 3540SOL     OW22081   1.980   4.576  16.796 -0.3613 -0.1839  0.3207
 3540SOL    HW122082   2.034   4.655  16.808 -0.1726 -0.2548 -0.0861
 3540SOL    HW222083   1.897   4.610  16.829  0.6429  0.2101  2.4438
 3541SOL     OW22084   3.758   3.247  10.843  0.3422  0.2995  0.2585
 3541SOL    HW122085   3.833   3.254  10.902 -0.4142 -0.7118  1.3463
 3541SOL    HW222086   3.792   3.276  10.759  0.7835  0.5620  0.5266
 3542SOL     OW22087   4.067   4.201   7.323  0.5631 -0.0184 -0.0907
 3542SOL    HW122088   3.975   4.199   7.350 -0.0222 -0.8953 -2.0992
 3542SOL    HW222089   4.113   4.213   7.406  0.7146 -2.3443  0.1779
 3543SOL     OW22090   4.335   0.934   4.884  0.8164  0.1662 -0.2381
 3543SOL    HW122091   4.399   0.875   4.844  0.6713 -1.0658  1.3384
 3543SOL    HW222092   4.288   0.872   4.940  0.0915  1.1311  0.2320
 3544SOL     OW22093   3.107   1.085   2.693 -0.8111  0.0640  0.2371
 3544SOL    HW122094   3.035   1.023   2.703  0.0485 -0.5695  2.4448
 3544SOL    HW222095   3.093   1.150   2.763 -1.4452  0.3531 -0.1623
 3545SOL     OW22096   0.983   3.765   7.039  0.2026 -0.1863  0.5526
 3545SOL    HW122097   1.041   3.748   6.965 -0.9950 -1.6258 -0.0487
 3545SOL    HW222098   1.036   3.813   7.103  0.9460  0.1486 -0.3105
 3546SOL     OW22099   3.114   1.044  13.715 -0.4242 -0.2063 -0.4897
 3546SOL    HW122100   3.075   0.959  13.738 -1.4301  0.6936  1.1548
 3546SOL    HW222101   3.091   1.052  13.623 -1.9422 -1.1499 -0.1992
 3547SOL     OW22102   0.069   0.922  10.373  0.0427  0.3116 -0.2210
 3547SOL    HW122103   0.144   0.889  10.324 -1.9985 -1.4256 -2.1938
 3547SOL    HW222104   0.092   1.015  10.369  1.5939 -0.1631 -2.3779
 3548SOL     OW22105   3.528   0.520   0.572 -0.1754 -0.4892 -0.0272
 3548SOL    HW122106   3.599   0.515   0.637  1.0520  1.2492 -1.2189
 3548SOL    HW222107   3.579   0.488   0.498 -0.4659 -1.6419  0.2757
 3549SOL     OW22108   4.170   4.469   2.696 -0.0493  0.2640 -0.2776
 3549SOL    HW122109   4.206   4.415   2.766  0.4759 -1.0311 -1.5679
 3549SOL    HW222110   4.162   4.547   2.751  1.3907  1.2313 -1.4432
 3550SOL     OW22111   4.345   0.699   0.296  0.5160  0.1207 -0.1339
 3550SOL    HW122112   4.427   0.732   0.261  0.9891 -1.3757 -0.4534
 3550SOL    HW222113   4.291   0.697   0.216  0.7543 -0.4418 -0.2855
 3551SOL     OW22114   2.007   3.262   9.693 -0.4667  0.6233  0.3830
 3551SOL    HW122115   2.034   3.251   9.602  0.5042 -1.1080  0.8885
 3551SOL    HW222116   1.915   3.237   9.701 -0.3670 -0.2905 -1.3067
 3552SOL     OW22117   4.518   0.331   4.935  0.2366  0.3876  0.0147
 3552SOL    HW122118   4.476   0.345   5.019 -1.8722 -2.0975 -0.5970
 3552SOL    HW222119   4.606   0.367   4.944 -0.1101  0.3979  3.1882
 3553SOL     OW22120   2.589   3.992   6.490  0.1701  0.2052  0.0570
 3553SOL    HW122121   2.526   3.987   6.418 -0.1627 -2.5993  0.5429
 3553SOL    HW222122   2.654   4.056   6.462  1.6674 -0.5645  1.7520
 3554SOL     OW22123   4.035   3.567   9.532  0.4530  0.1975 -0.5304
 3554SOL    HW122124   4.083   3.490   9.500 -0.8620 -0.7152 -0.3384
 3554SOL    HW222125   4.003   3.593   9.446 -1.8233  0.8878  0.5360
 3555SOL     OW22126   1.891   0.070  14.366  0.7466  0.3306  0.2729
 3555SOL    HW122127   1.798   0.061  14.345  0.7358 -3.3143  1.8052
 3555SOL    HW222128   1.891   0.163  14.385  2.4423  0.5313 -0.6910
 3556SOL     OW22129   0.705   0.266   2.760 -0.1202  0.0718  0.3500
 3556SOL    HW122130   0.782   0.304   2.803  0.3851  1.7080 -2.0147
 3556SOL    HW222131   0.640   0.272   2.830  1.8023 -0.6559  2.2163
 3557SOL     OW22132   0.558   2.959  11.098  0.1863 -0.4365  0.0838
 3557SOL    HW122133   0.464   2.972  11.081  0.1173  2.0087  2.2625
 3557SOL    HW222134   0.564   2.864  11.107 -0.0472 -0.3284  1.4652
 3558SOL     OW22135   0.917   3.619  13.572 -0.1966  0.1082  0.1586
 3558SOL    HW122136   0.984   3.575  13.520 -0.9051  0.8721 -1.3919
 3558SOL    HW222137   0.873   3.656  13.496 -2.4857 -0.8336  1.0267
 3559SOL     OW22138   4.076   0.930   4.596 -0.5608  0.4199 -0.0162
 3559SOL    HW122139   4.167   0.939   4.568  0.3502  1.7504  3.3746
 3559SOL    HW222140   4.034   0.957   4.514 -4.0435  0.5192  1.7874
 3560SOL     OW22141   2.244   1.327  15.036 -0.2305 -0.4766  0.3374
 3560SOL    HW122142   2.243   1.344  15.131 -2.2087 -1.1896  0.4441
 3560SOL    HW222143   2.338   1.313  15.025 -0.3814  0.8354 -2.5710
 3561SOL     OW22144   4.716   3.556   4.485  0.2160  0.1020  0.2915
 3561SOL    HW122145   4.640   3.531   4.433  0.8253 -1.6712  0.2477
 3561SOL    HW222146   4.680   3.634   4.528 -2.8681 -0.0704 -2.0407
 3562SOL     OW22147   1.097   3.148  12.663 -0.1795 -0.0640 -0.9671
 3562SOL    HW122148   1.071   3.068  12.618 -0.4728 -0.3803 -0.2399
 3562SOL    HW222149   1.165   3.182  12.605  1.3749 -0.2895  0.7094
 3563SOL     OW22150   0.457   1.114  11.482 -0.4417 -0.8198 -0.2484
 3563SOL    HW122151   0.438   1.020  11.472 -1.5201 -0.4648 -1.5917
 3563SOL    HW222152   0.488   1.132  11.393  1.4047  1.2889  0.8438
 3564SOL     OW22153   1.330   2.708   5.849  0.6100  0.0290  0.2604
 3564SOL    HW122154   1.312   2.801   5.863  0.9464  0.4182 -1.7732
 3564SOL    HW222155   1.401   2.724   5.786 -0.0022 -0.4535 -0.5572
 3565SOL     OW22156   1.439   0.188  16.305  0.1164 -0.2066 -0.2614
 3565SOL    HW122157   1.391   0.236  16.237  1.5901  2.8119  0.8426
 3565SOL    HW222158   1.399   0.101  16.310 -1.9070  0.6962 -0.3387
 3566SOL     OW22159   1.405   2.543   3.889  0.2400 -0.0335 -0.2535
 3566SOL    HW122160   1.400   2.452   3.921 -1.0344 -0.0464 -0.4875
 3566SOL    HW222161   1.478   2.532   3.828 -1.5677  0.8676 -2.5807
 3567SOL     OW22162   4.534   1.625   3.589  0.3063 -0.5819  0.6244
 3567SOL    HW122163   4.518   1.531   3.598  1.4503 -0.9267 -0.9029
 3567SOL    HW222164   4.625   1.635   3.619  1.0341 -0.2611 -1.7402
 3568SOL     OW22165   1.160   0.105  17.175 -0.6451 -0.2586 -0.1862
 3568SOL    HW122166   1.218   0.122  17.101  1.3932 -3.3441  0.7205
 3568SOL    HW222167   1.147   0.195  17.204  0.1527  0.1889 -1.2260
 3569SOL     OW22168   4.558   3.805   2.872  0.5321 -0.0353 -0.2019
 3569SOL    HW122169   4.647   3.809   2.906  0.2832 -0.5966  0.5133
 3569SOL    HW222170   4.538   3.717   2.904 -0.8295 -0.2421 -1.6407
 3570SOL     OW22171   1.390   0.005   9.106  0.2317  0.2197  0.1402
 3570SOL    HW122172   1.413   4.639   9.086  0.4963  0.5874 -1.2532
 3570SOL    HW222173   1.460   0.056   9.066 -0.7059  0.5246 -1.0886
 3571SOL     OW22174   4.237   0.755   2.956 -0.0134 -0.1409  0.4303
 3571SOL    HW122175   4.322   0.795   2.975 -0.2451 -0.5202  2.2762
 3571SOL    HW222176   4.256   0.681   2.897  0.0923  0.0387  0.2393
 3572SOL     OW22177   2.992   2.358   8.195  0.6737 -0.5340 -0.1229
 3572SOL    HW122178   2.948   2.376   8.278 -0.1176 -2.5604 -0.1085
 3572SOL    HW222179   3.054   2.299   8.238 -0.3469 -0.0877  1.9793
 3573SOL     OW22180   4.109   1.073   9.824 -0.4694  0.3853 -0.0770
 3573SOL    HW122181   4.127   1.013   9.896 -0.7194  0.4234  0.0192
 3573SOL    HW222182   4.041   1.015   9.789 -0.1130 -0.2208  0.2671
 3574SOL     OW22183   2.963   2.141  11.902 -0.2281 -0.2199 -0.1234
 3574SOL    HW122184   2.899   2.093  11.849 -0.6807  1.7540 -1.3457
 3574SOL    HW222185   2.981   2.088  11.980 -1.4469 -0.3437  0.0827
 3575SOL     OW22186   3.355   0.635   7.233  0.1744 -0.0712 -0.3152
 3575SOL    HW122187   3.421   0.699   7.206  0.6335 -0.8992 -1.1532
 3575SOL    HW222188   3.271   0.682   7.227  0.3840  0.2643 -0.6190
 3576SOL     OW22189   0.700   0.323  10.356 -0.1761 -0.3497 -0.1855
 3576SOL    HW122190   0.680   0.242  10.402 -2.8951  0.7105  0.5150
 3576SOL    HW222191   0.753   0.288  10.285  1.5718  2.8531 -0.4519
 3577SOL     OW22192   1.851   0.435  11.757  0.3821 -0.2137 -0.2633
 3577SOL    HW122193   1.825   0.462  11.846  0.8116 -0.6760  0.0024
 3577SOL    HW222194   1.871   0.343  11.774 -0.4409 -0.1646  1.0172
 3578SOL     OW22195   3.759   0.732   6.636 -0.2788 -0.2766 -0.2180
 3578SOL    HW122196   3.818   0.691   6.699  0.2735 -0.7709 -1.0641
 3578SOL    HW222197   3.777   0.818   6.673 -1.0300 -0.4786  0.6549
 3579SOL     OW22198   0.736   2.209   0.051 -0.4249  0.3438  0.0922
 3579SOL    HW122199   0.689   2.268   0.111 -0.3917 -0.3400  0.7855
 3579SOL    HW222200   0.813   2.193   0.105 -0.6339  1.1732  0.6339
 3580SOL     OW22201   2.744   3.959  16.038 -0.2767 -0.2334 -0.1611
 3580SOL    HW122202   2.717   4.004  15.958 -1.4683 -0.5212  0.0862
 3580SOL    HW222203   2.809   4.023  16.068  1.5417 -1.4682 -1.4730
 3581SOL     OW22204   3.269   3.003  10.153 -0.0301  0.4413 -0.0322
 3581SOL    HW122205   3.220   3.043  10.081  0.0682  1.3049  0.3758
 3581SOL    HW222206   3.210   3.011  10.228 -0.1533 -2.5344  0.1818
 3582SOL     OW22207   2.646   2.643   2.879 -0.6567 -0.0336  0.6298
 3582SOL    HW122208   2.646   2.660   2.785  1.7127 -0.9283  0.4531
 3582SOL    HW222209   2.714   2.703   2.910 -0.2435  0.4662 -1.2625
 3583SOL     OW22210   0.649   0.509   6.825  0.6994  0.5986  0.4098
 3583SOL    HW122211   0.701   0.543   6.752 -0.1388  1.0451  0.0203
 3583SOL    HW222212   0.559   0.525   6.797  0.8328  1.5175  0.4883
 3584SOL     OW22213   2.237   2.572   3.194 -0.2210 -0.1554  0.4424
 3584SOL    HW122214   2.234   2.519   3.115 -0.9014  1.3589 -0.5379
 3584SOL    HW222215   2.325   2.609   3.197 -1.4447  2.7093  1.4988
 3585SOL     OW22216   2.635   2.608   7.507 -0.2294  0.5630 -0.4464
 3585SOL    HW122217   2.607   2.623   7.597  0.6928 -1.9885  0.2854
 3585SOL    HW222218   2.567   2.655   7.458  0.0526  2.6237  1.1657
 3586SOL     OW22219   0.158   4.431   8.302 -0.0556  0.1341 -0.2800
 3586SOL    HW122220   0.063   4.427   8.314  0.0669 -2.5371 -0.1885
 3586SOL    HW222221   0.162   4.459   8.210  0.6133 -1.9779 -0.9051
 3587SOL     OW22222   2.115   2.338  13.177 -0.6921  0.4539  0.4102
 3587SOL    HW122223   2.068   2.271  13.128 -0.3041  1.5471 -1.4449
 3587SOL    HW222224   2.177   2.367  13.111  1.1658  0.1548  2.0235
 3588SOL     OW22225   3.811   1.028   6.723 -0.0193 -0.6114 -0.0236
 3588SOL    HW122226   3.818   1.063   6.634  1.3740 -2.0249 -0.4841
 3588SOL    HW222227   3.741   1.087   6.751 -1.0621 -1.1183 -1.5655
 3589SOL     OW22228   1.573   3.511   6.124  0.1707 -0.1781 -0.3048
 3589SOL    HW122229   1.643   3.556   6.078  1.8170  0.6646  2.9971
 3589SOL    HW222230   1.602   3.420   6.119 -0.9757 -0.3875 -2.7961
 3590SOL     OW22231   2.783   2.092   6.267  0.1990  0.3390 -0.5152
 3590SOL    HW122232   2.734   2.153   6.212  1.2448 -0.1486 -1.9944
 3590SOL    HW222233   2.737   2.103   6.350 -1.6482  0.2231 -1.5174
 3591SOL     OW22234   0.935   1.653  12.852  0.4889 -0.0551 -0.0056
 3591SOL    HW122235   0.860   1.696  12.893 -0.1322 -0.5908 -0.5784
 3591SOL    HW222236   0.969   1.725  12.800 -1.0954  1.1408  0.6062
 3592SOL     OW22237   0.929   0.411   2.881  0.3506  0.3818  0.0266
 3592SOL    HW122238   0.973   0.483   2.927  0.1446  1.7305 -1.8841
 3592SOL    HW222239   0.951   0.332   2.931  4.0544  3.3671  3.0937
 3593SOL     OW22240   3.879   3.430   8.081 -0.4995  0.0370  0.4074
 3593SOL    HW122241   3.925   3.500   8.128 -1.0001  0.8432 -0.3209
 3593SOL    HW222242   3.913   3.357   8.133  0.3879 -0.6120 -1.1044
 3594SOL     OW22243   1.814   1.845   5.993  0.2391 -0.2450 -0.0051
 3594SOL    HW122244   1.745   1.807   5.938 -0.2441  1.4528 -0.5708
 3594SOL    HW222245   1.784   1.935   5.980 -0.3910 -0.3716  0.6236
 3595SOL     OW22246   2.276   1.576   9.962 -0.5872 -0.2511 -0.5965
 3595SOL    HW122247   2.301   1.612   9.877 -1.4930  1.1267 -0.2762
 3595SOL    HW222248   2.184   1.552   9.947 -0.3661 -0.4075 -1.7108
 3596SOL     OW22249   4.420   3.429   0.383  0.5472  0.0043  0.3163
 3596SOL    HW122250   4.415   3.344   0.339 -1.7813  1.4600 -2.2174
 3596SOL    HW222251   4.373   3.407   0.464  1.0075  0.9641  0.8430
 3597SOL     OW22252   0.152   4.327   4.688 -0.0446  1.0165 -0.6442
 3597SOL    HW122253   0.093   4.310   4.762 -1.2492 -0.3852 -1.9032
 3597SOL    HW222254   0.180   4.417   4.704 -1.8014  1.4643 -0.0802
 3598SOL     OW22255   0.245   1.996   3.277  0.1731 -0.2369  0.3524
 3598SOL    HW122256   0.256   2.086   3.309  2.9741 -0.2579 -0.5780
 3598SOL    HW222257   0.212   2.019   3.190  0.0939 -0.2087  0.3895
 3599SOL     OW22258   1.888   4.457   9.207  0.1808  0.7098 -0.1344
 3599SOL    HW122259   1.798   4.469   9.176 -0.8536  1.3346  3.1110
 3599SOL    HW222260   1.929   4.532   9.166  1.1216  0.9956  1.3513
 3600SOL     OW22261   2.422   1.721   7.153 -0.0559 -0.0269 -0.1181
 3600SOL    HW122262   2.368   1.666   7.095  2.0604 -0.9951 -1.1836
 3600SOL    HW222263   2.511   1.706   7.120 -0.2669  0.6993 -1.0312
 3601SOL     OW22264   0.602   1.564   6.785 -0.2314 -0.3196  0.1769
 3601SOL    HW122265   0.532   1.540   6.725  1.2314 -1.2963 -1.1308
 3601SOL    HW222266   0.565   1.647   6.815 -0.2177  0.4776 -2.0729
 3602SOL     OW22267   2.809   4.607   7.969 -0.8321 -0.0741 -0.4625
 3602SOL    HW122268   2.868   4.660   7.915  0.3918 -1.3379 -0.3835
 3602SOL    HW222269   2.829   4.631   8.059 -0.8489 -1.9340  0.0347
 3603SOL     OW22270   0.832   4.455   1.718 -0.2129 -0.6454  0.0279
 3603SOL    HW122271   0.907   4.479   1.774 -0.8048  1.0892  0.0907
 3603SOL    HW222272   0.775   4.407   1.777  0.0478 -2.6969 -1.4147
 3604SOL     OW22273   2.681   2.761   4.540  0.4866 -0.3980 -0.1782
 3604SOL    HW122274   2.759   2.816   4.546 -0.4377  1.2474 -3.1358
 3604SOL    HW222275   2.642   2.797   4.460 -2.0230 -0.5270  0.9942
 3605SOL     OW22276   1.173   4.192  16.702  0.0085 -0.2966 -0.0137
 3605SOL    HW122277   1.214   4.197  16.788 -1.1969 -0.7223  0.5836
 3605SOL    HW222278   1.228   4.122  16.668 -0.1464 -0.0458 -0.7734
 3606SOL     OW22279   3.752   4.578   7.831 -0.2482 -0.0149  0.3425
 3606SOL    HW122280   3.764   4.602   7.739  1.6977  0.3968  0.7160
 3606SOL    HW222281   3.666   4.536   7.830 -0.6658  0.8723 -0.9681
 3607SOL     OW22282   0.866   4.128   6.891 -0.1012  0.4641  0.1386
 3607SOL    HW122283   0.850   4.053   6.834  0.2739 -0.1591  0.8476
 3607SOL    HW222284   0.846   4.096   6.979  0.0543 -0.4056 -0.1473
 3608SOL     OW22285   2.607   1.802   4.365  0.0030 -0.9783 -0.3984
 3608SOL    HW122286   2.623   1.874   4.304  1.0486  0.2354  1.3159
 3608SOL    HW222287   2.649   1.728   4.322  0.0589 -0.3845 -1.3657
 3609SOL     OW22288   4.217   2.975   5.495  0.2146 -0.1035  0.3773
 3609SOL    HW122289   4.272   2.897   5.489 -1.0138 -0.8283 -1.4280
 3609SOL    HW222290   4.132   2.931   5.499  0.3046 -0.5181 -1.8426
 3610SOL     OW22291   3.764   2.981   4.163  0.0734  0.0658 -0.1207
 3610SOL    HW122292   3.779   2.974   4.068 -1.5982  1.1254 -0.4769
 3610SOL    HW222293   3.849   2.949   4.193  0.3826 -0.6736 -1.7476
 3611SOL     OW22294   0.139   0.279   3.056 -0.2626 -0.2431 -0.2174
 3611SOL    HW122295   0.180   0.204   3.011  2.1061  0.5888  0.5823
 3611SOL    HW222296   0.050   0.255   3.081  0.2131 -0.5302  1.2027
 3612SOL     OW22297   2.219   2.798   2.930  0.0216  0.3150 -0.3402
 3612SOL    HW122298   2.260   2.845   2.857  1.0441 -0.3726 -0.2119
 3612SOL    HW222299   2.286   2.775   2.994 -1.0629 -0.0220  0.6763
 3613SOL     OW22300   4.270   0.689   5.042 -0.0799 -0.0357  0.2787
 3613SOL    HW122301   4.232   0.712   5.126  0.6634  1.2060  0.2723
 3613SOL    HW222302   4.217   0.615   5.012 -3.2248  2.4707 -0.3504
 3614SOL     OW22303   4.068   3.200  14.435 -0.2796  0.2503 -0.5465
 3614SOL    HW122304   4.034   3.268  14.377 -3.8191 -0.4184  0.7923
 3614SOL    HW222305   4.094   3.250  14.512  1.9598 -1.3375 -0.2673
 3615SOL     OW22306   2.795   1.907  16.516 -0.2668  0.1764 -0.2879
 3615SOL    HW122307   2.822   1.816  16.527 -4.8863 -1.0500  0.7278
 3615SOL    HW222308   2.718   1.899  16.459 -0.5774  0.5536  0.0827
 3616SOL     OW22309   0.720   2.512  15.042 -0.0912 -0.4255  0.4962
 3616SOL    HW122310   0.697   2.421  15.021  3.1911 -1.2329  0.4045
 3616SOL    HW222311   0.667   2.564  14.981  0.3161 -3.4363 -2.4693
 3617SOL     OW22312   3.873   4.669   1.025 -0.1071  0.3427  0.5926
 3617SOL    HW122313   3.950   4.613   1.019 -0.4647  0.0104 -1.0994
 3617SOL    HW222314   3.841   4.667   0.935  0.3916  0.8943  0.4071
 3618SOL     OW22315   1.140   0.829  12.084  0.1162  0.0618  0.2921
 3618SOL    HW122316   1.216   0.789  12.041  0.7725  0.7757  0.7782
 3618SOL    HW222317   1.085   0.750  12.085 -0.1347  0.2544  1.4320
 3619SOL     OW22318   3.669   0.087   4.201  0.4073  0.9891 -0.1369
 3619SOL    HW122319   3.682   0.129   4.116  1.3036 -0.8485 -0.8952
 3619SOL    HW222320   3.660   0.160   4.262 -1.2921  0.8213 -0.1698
 3620SOL     OW22321   0.503   1.202   3.758  0.4584  0.2720  0.1652
 3620SOL    HW122322   0.515   1.287   3.715 -2.3686  1.3939  1.5928
 3620SOL    HW222323   0.579   1.156   3.724  0.0066  0.7846 -1.5306
 3621SOL     OW22324   3.652   0.009   1.170 -0.2551 -0.3974 -0.2011
 3621SOL    HW122325   3.680   0.043   1.255  2.4292  0.9621 -1.6253
 3621SOL    HW222326   3.731   4.708   1.122 -0.0789  1.2148 -0.8284
 3622SOL     OW22327   3.049   2.452   6.102 -0.0286 -0.3196 -0.1270
 3622SOL    HW122328   3.040   2.534   6.149  0.3052 -0.1586 -0.3445
 3622SOL    HW222329   2.981   2.410   6.155 -1.6495  1.7833 -0.5735
 3623SOL     OW22330   3.223   4.583  14.948  0.4852  0.5641 -0.2582
 3623SOL    HW122331   3.228   4.673  14.916 -1.2091  0.4668 -0.7761
 3623SOL    HW222332   3.280   4.544  14.882  0.4013 -0.1652  0.1001
 3624SOL     OW22333   3.222   2.926   2.736  0.0642  0.3800  0.1328
 3624SOL    HW122334   3.211   2.893   2.647  0.0714  0.3150  0.1562
 3624SOL    HW222335   3.278   2.858   2.774 -1.5374 -2.3814 -2.4623
 3625SOL     OW22336   2.015   2.950   1.549  0.2692 -0.7652  0.3831
 3625SOL    HW122337   1.947   2.909   1.603  0.7042 -0.2325  1.3432
 3625SOL    HW222338   1.957   2.983   1.481  1.8227 -0.1222 -0.6260
 3626SOL     OW22339   3.287   2.082   9.068 -0.0510  0.3091  0.4953
 3626SOL    HW122340   3.301   2.120   9.155  1.6070 -0.3276  0.5116
 3626SOL    HW222341   3.229   2.143   9.022  1.4827  0.5865 -1.0469
 3627SOL     OW22342   0.320   3.715   8.410 -0.1962  0.3513  0.3015
 3627SOL    HW122343   0.227   3.732   8.402 -0.4331 -1.8125 -1.4777
 3627SOL    HW222344   0.330   3.645   8.345 -0.1788 -0.0825  0.7746
 3628SOL     OW22345   3.526   1.622  14.068  0.1624  0.2653 -0.2837
 3628SOL    HW122346   3.488   1.675  13.998  0.5368 -0.5769 -1.1260
 3628SOL    HW222347   3.458   1.622  14.135  1.0295 -1.1715  0.5977
 3629SOL     OW22348   1.581   3.178  14.484  0.2345  0.2657  0.3615
 3629SOL    HW122349   1.572   3.125  14.564 -0.7114 -0.7800 -0.4397
 3629SOL    HW222350   1.496   3.162  14.443  1.0393  1.3628 -1.7156
 3630SOL     OW22351   0.732   3.350   4.046  0.2261 -0.2819  0.2366
 3630SOL    HW122352   0.686   3.418   3.997  2.0848 -0.3596 -1.6370
 3630SOL    HW222353   0.657   3.304   4.082 -0.3040 -1.0317 -1.7929
 3631SOL     OW22354   0.092   1.300  13.658 -0.5888  0.2057  0.1815
 3631SOL    HW122355   0.023   1.247  13.698  1.2688 -2.3669 -0.0761
 3631SOL    HW222356   0.130   1.348  13.732 -1.0361  0.1361  0.4577
 3632SOL     OW22357   3.450   3.907  15.989 -0.7654  0.1180 -0.0238
 3632SOL    HW122358   3.457   3.838  16.055  0.7859  0.3851  0.0804
 3632SOL    HW222359   3.531   3.910  15.937 -1.7337  2.1908 -1.4431
 3633SOL     OW22360   0.741   4.489   5.927  0.4859 -0.2295  0.4525
 3633SOL    HW122361   0.757   4.447   6.011  2.0151 -0.8853 -0.1771
 3633SOL    HW222362   0.805   4.457   5.864 -0.3356 -0.8475 -0.0629
 3634SOL     OW22363   0.544   4.100   5.788  0.2780 -0.0705  0.0744
 3634SOL    HW122364   0.512   4.187   5.810  0.4406 -0.2579  1.0931
 3634SOL    HW222365   0.468   4.044   5.807  0.5014 -0.5384 -0.4136
 3635SOL     OW22366   0.735   2.185  12.312 -0.1838 -0.4332 -0.3027
 3635SOL    HW122367   0.691   2.228  12.238  1.1225 -0.3361 -1.0221
 3635SOL    HW222368   0.666   2.126  12.341 -1.9876  0.9606 -1.7136
 3636SOL     OW22369   2.499   2.355   5.411  1.0180 -0.1923  0.0332
 3636SOL    HW122370   2.424   2.305   5.444  0.0927  1.5537  0.5627
 3636SOL    HW222371   2.533   2.291   5.349  0.5120 -1.0848  0.6751
 3637SOL     OW22372   3.294   2.718   3.841 -0.1708  0.0954 -0.1910
 3637SOL    HW122373   3.344   2.781   3.789  0.2414  1.7225  2.2274
 3637SOL    HW222374   3.205   2.740   3.814  0.5885  1.6455 -1.4318
 3638SOL     OW22375   3.400   1.080   6.188  0.1726 -0.1491 -0.1477
 3638SOL    HW122376   3.347   1.158   6.207 -1.1056 -0.8155 -1.0482
 3638SOL    HW222377   3.438   1.096   6.102 -0.5311  0.1372 -0.4052
 3639SOL     OW22378   3.332   3.764   8.561 -0.7287  0.3017  0.1222
 3639SOL    HW122379   3.424   3.738   8.563 -0.8817 -0.1019  1.8693
 3639SOL    HW222380   3.338   3.853   8.526 -2.8325 -0.7546 -2.8633
 3640SOL     OW22381   2.719   0.517  10.423  0.8317  0.2656  0.0714
 3640SOL    HW122382   2.630   0.547  10.405  0.0355 -1.3802  1.4030
 3640SOL    HW222383   2.725   0.513  10.518 -0.3694  1.8380  0.2203
 3641SOL     OW22384   3.513   1.362   5.705 -0.1378  0.1593 -0.4156
 3641SOL    HW122385   3.539   1.272   5.727 -0.8810 -0.4241 -1.8774
 3641SOL    HW222386   3.463   1.349   5.624 -0.6328  1.2627 -0.2836
 3642SOL     OW22387   1.699   2.780   6.362 -0.2408 -0.0330 -0.9399
 3642SOL    HW122388   1.776   2.754   6.311  0.7869  3.0508 -0.9575
 3642SOL    HW222389   1.637   2.825   6.303  0.2302  1.8230 -0.0136
 3643SOL     OW22390   4.142   2.124   8.117  0.1813  0.1710  0.3208
 3643SOL    HW122391   4.186   2.209   8.122 -0.7679  0.7751 -1.8008
 3643SOL    HW222392   4.066   2.139   8.061  1.0305  1.6934 -0.4018
 3644SOL     OW22393   4.565   4.198   0.524  0.1703 -0.4321 -0.2146
 3644SOL    HW122394   4.508   4.122   0.536 -0.4660 -0.3741 -3.0386
 3644SOL    HW222395   4.505   4.262   0.563 -0.8835 -0.1616 -2.3034
 3645SOL     OW22396   4.088   3.960  13.901  0.1427 -0.1042  0.6442
 3645SOL    HW122397   4.180   3.986  13.905  0.8214 -2.2982 -0.8608
 3645SOL    HW222398   4.066   3.996  13.816  2.3318 -1.1589 -0.3673
 3646SOL     OW22399   2.705   0.761   5.736 -0.3093 -0.0339  0.2453
 3646SOL    HW122400   2.695   0.808   5.818  1.1207  1.0690 -0.2214
 3646SOL    HW222401   2.751   0.823   5.680  0.3524 -0.8592 -0.1273
 3647SOL     OW22402   1.346   3.227   1.538 -0.0138 -0.5338 -0.0468
 3647SOL    HW122403   1.425   3.280   1.545 -2.0782  2.8681 -2.3333
 3647SOL    HW222404   1.362   3.163   1.607 -2.2947 -0.4852  0.5244
 3648SOL     OW22405   2.097   1.233   3.423 -0.1520 -0.2036 -0.5011
 3648SOL    HW122406   2.012   1.275   3.421  0.4433  1.0254  0.2240
 3648SOL    HW222407   2.142   1.270   3.347  0.1646  0.8321  0.1976
 3649SOL     OW22408   2.288   2.380   5.765 -0.2245 -0.6304 -0.3066
 3649SOL    HW122409   2.339   2.303   5.792 -2.1992 -1.8292  0.0179
 3649SOL    HW222410   2.218   2.342   5.712 -0.9280  1.7753 -1.0953
 3650SOL     OW22411   0.869   0.725   3.051  0.1794 -0.2017  0.1721
 3650SOL    HW122412   0.799   0.660   3.046 -0.4697  0.6563 -1.9050
 3650SOL    HW222413   0.899   0.701   3.138  1.2757 -0.4482 -0.2736
 3651SOL     OW22414   1.682   3.064   7.777  0.1091 -0.9429 -0.1501
 3651SOL    HW122415   1.602   3.017   7.751  0.1370 -0.9161 -0.2836
 3651SOL    HW222416   1.679   3.058   7.872 -2.1608 -0.5722 -0.1836
 3652SOL     OW22417   3.999   0.282   8.253  0.0086  0.4012  0.2603
 3652SOL    HW122418   3.942   0.354   8.229 -0.4106 -0.0123  0.0129
 3652SOL    HW222419   3.978   0.217   8.186 -0.0668  0.8384 -0.1390
 3653SOL     OW22420   1.046   0.594   4.100 -0.3722  0.3242  0.7220
 3653SOL    HW122421   1.070   0.559   4.186 -0.1718  0.7412  0.8330
 3653SOL    HW222422   0.954   0.568   4.103 -0.2252 -0.0890  2.0292
 3654SOL     OW22423   1.286   1.179   7.615  0.3785 -0.5394 -0.5729
 3654SOL    HW122424   1.278   1.273   7.632 -0.7977 -0.5317 -1.1526
 3654SOL    HW222425   1.194   1.154   7.605 -0.4753  1.4276  2.6608
 3655SOL     OW22426   2.143   3.343   5.780 -0.0654  0.5321  0.3265
 3655SOL    HW122427   2.225   3.380   5.747 -0.0525 -1.1283 -1.4834
 3655SOL    HW222428   2.139   3.375   5.870 -0.1809  0.1205  0.4686
 3656SOL     OW22429   0.735   4.343   2.649  0.4224 -0.0407  0.3794
 3656SOL    HW122430   0.726   4.250   2.625  0.3640 -0.1004  0.6275
 3656SOL    HW222431   0.652   4.374   2.613 -0.3273 -0.7284  1.5065
 3657SOL     OW22432   2.846   0.184   7.893  0.1527 -0.1387 -0.1577
 3657SOL    HW122433   2.769   0.189   7.837  0.5352 -3.4124 -0.9626
 3657SOL    HW222434   2.912   0.182   7.824  0.8735  0.0459  0.5221
 3658SOL     OW22435   4.303   1.189  10.217 -0.5283 -0.0688 -0.2789
 3658SOL    HW122436   4.264   1.270  10.249 -0.2747 -0.1354  0.1950
 3658SOL    HW222437   4.225   1.133  10.212  0.1935 -1.0079 -1.1248
 3659SOL     OW22438   1.948   3.254  14.316  0.6547 -0.0701  0.2855
 3659SOL    HW122439   1.933   3.256  14.410 -2.9764 -0.4540 -0.2861
 3659SOL    HW222440   2.043   3.253  14.303  0.3698  0.8419 -1.9113
 3660SOL     OW22441   3.503   1.553  10.896  0.0391 -0.2297 -0.5475
 3660SOL    HW122442   3.424   1.518  10.856 -0.1683 -2.9416  2.2026
 3660SOL    HW222443   3.546   1.595  10.822 -0.4469  0.6374 -0.3497
 3661SOL     OW22444   4.623   4.380   5.786 -0.3677 -0.1220 -0.0629
 3661SOL    HW122445   4.528   4.384   5.785 -0.3136  0.6253 -1.6787
 3661SOL    HW222446   4.640   4.423   5.870  1.0659  1.5390 -1.2009
 3662SOL     OW22447   0.024   2.711  13.311 -0.1846  0.1764  0.2359
 3662SOL    HW122448   4.660   2.692  13.336  0.1202 -0.6968  0.6912
 3662SOL    HW222449   0.012   2.757  13.228 -0.6957 -0.3680  0.0103
 3663SOL     OW22450   1.539   1.863   1.344 -0.1879 -0.4987 -0.8776
 3663SOL    HW122451   1.542   1.777   1.384 -2.9979 -0.1291  0.1113
 3663SOL    HW222452   1.457   1.896   1.380  1.2377  0.8880  1.1144
 3664SOL     OW22453   0.933   4.584   8.305  0.6718 -0.2544  0.1790
 3664SOL    HW122454   1.018   4.597   8.262  0.4816  0.8878  0.1562
 3664SOL    HW222455   0.887   4.513   8.259  0.7409 -0.1662 -0.0294
 3665SOL     OW22456   0.013   1.652   0.255  0.2460 -0.0956  0.3081
 3665SOL    HW122457   0.030   1.746   0.254 -1.2945  0.1579 -0.7456
 3665SOL    HW222458   0.101   1.615   0.250  0.5818  0.8106 -0.4274
 3666SOL     OW22459   2.208   4.578  15.778 -0.6443  0.1236 -0.4684
 3666SOL    HW122460   2.211   4.492  15.819  0.9553  0.9642  1.1629
 3666SOL    HW222461   2.280   4.566  15.716 -0.6136 -0.3070 -0.3509
 3667SOL     OW22462   1.401   3.080   9.604  0.4022 -0.4494  0.3826
 3667SOL    HW122463   1.359   3.070   9.519  1.0717  0.6031 -0.0799
 3667SOL    HW222464   1.398   2.992   9.641 -0.7264 -0.3679  0.4640
 3668SOL     OW22465   2.508   4.237   8.827 -0.0449 -0.0432 -0.7114
 3668SOL    HW122466   2.430   4.222   8.774 -1.1187 -0.7116  1.0871
 3668SOL    HW222467   2.471   4.298   8.890  0.4029 -1.3366  0.7996
 3669SOL     OW22468   4.330   4.569   2.121 -0.0634 -0.4045 -0.1376
 3669SOL    HW122469   4.280   4.523   2.189  0.1486  0.3298  0.5202
 3669SOL    HW222470   4.411   4.575   2.172 -1.5796 -0.5863  2.3260
 3670SOL     OW22471   1.691   1.786   4.080 -0.8082 -0.2112 -0.1374
 3670SOL    HW122472   1.724   1.874   4.059  0.6739 -0.6840  0.2602
 3670SOL    HW222473   1.728   1.784   4.168 -0.6116 -0.1316 -0.2193
 3671SOL     OW22474   2.549   1.729   1.659  0.1980 -0.0589  0.3683
 3671SOL    HW122475   2.518   1.783   1.732 -0.4123  1.7555 -1.2447
 3671SOL    HW222476   2.480   1.747   1.595 -2.2096  0.8477  3.1532
 3672SOL     OW22477   2.171   4.347   2.962  0.1763  0.4931 -0.2677
 3672SOL    HW122478   2.091   4.391   2.934  0.5926  0.3634 -1.6404
 3672SOL    HW222479   2.184   4.287   2.888 -2.3966  0.1699 -0.4503
 3673SOL     OW22480   0.778   0.571  14.566 -0.0847 -0.0908 -0.1482
 3673SOL    HW122481   0.682   0.561  14.567 -0.1571  0.7011  0.5430
 3673SOL    HW222482   0.766   0.661  14.596  2.3083  0.2532 -0.2989
 3674SOL     OW22483   1.898   3.943   3.204  0.3880 -0.0662 -0.2870
 3674SOL    HW122484   1.842   3.871   3.232  1.1222 -1.2016 -1.7172
 3674SOL    HW222485   1.831   4.001   3.168 -1.0682 -0.2742  2.1544
 3675SOL     OW22486   4.254   3.915  14.900  0.3106 -0.5058  0.1863
 3675SOL    HW122487   4.167   3.948  14.924  0.9877  0.8602  0.6953
 3675SOL    HW222488   4.307   3.990  14.926  1.6343 -1.3014 -0.2466
 3676SOL     OW22489   0.235   3.402  15.138  0.3185 -0.0514 -0.0517
 3676SOL    HW122490   0.152   3.399  15.186 -0.5470 -0.2817 -1.5745
 3676SOL    HW222491   0.216   3.463  15.067  1.6034  1.0633  0.5552
 3677SOL     OW22492   3.922   3.581  16.457  0.6683  0.6165 -0.3089
 3677SOL    HW122493   3.991   3.547  16.400  1.0260 -0.0161  0.4911
 3677SOL    HW222494   3.975   3.652  16.492 -0.6701  2.2566 -1.6355
 3678SOL     OW22495   4.041   4.376   3.285 -0.2060  0.1139 -0.1036
 3678SOL    HW122496   4.132   4.348   3.287  0.3331  1.5726 -3.9156
 3678SOL    HW222497   3.995   4.305   3.240  2.9149 -1.5709 -0.5919
 3679SOL     OW22498   4.330   1.635   6.999  0.1025  0.2066  0.3212
 3679SOL    HW122499   4.379   1.565   7.043  0.3788  0.8472  1.0360
 3679SOL    HW222500   4.398   1.701   7.008 -0.9308  0.9150  2.9220
 3680SOL     OW22501   0.224   3.943   9.012 -0.0918 -0.2513 -0.1292
 3680SOL    HW122502   0.294   3.972   8.953 -0.7667 -0.7026 -1.1596
 3680SOL    HW222503   0.262   3.870   9.061  1.4827 -0.2532 -1.3445
 3681SOL     OW22504   0.994   1.080   6.102  0.8130 -0.1414 -0.4677
 3681SOL    HW122505   1.026   1.079   6.012  3.0802  1.1954  0.3310
 3681SOL    HW222506   0.901   1.067   6.082  0.2721  3.3936 -0.3744
 3682SOL     OW22507   0.301   1.034   2.316 -0.6907  0.1059 -0.1350
 3682SOL    HW122508   0.306   1.019   2.222 -0.9969  1.2354 -0.3384
 3682SOL    HW222509   0.361   0.966   2.345 -4.4451 -2.3478  1.9408
 3683SOL     OW22510   2.476   2.446   9.493 -0.2412 -0.3941  0.1548
 3683SOL    HW122511   2.392   2.407   9.517 -0.3602 -0.3032 -0.1073
 3683SOL    HW222512   2.536   2.428   9.565 -1.9331  2.3805  2.2895
 3684SOL     OW22513   2.930   2.012   2.903 -0.7432 -0.3445  0.6776
 3684SOL    HW122514   3.024   1.999   2.887 -0.4262 -1.0755  3.1466
 3684SOL    HW222515   2.909   1.919   2.894 -1.7757  0.0008 -0.5739
 3685SOL     OW22516   2.189   1.083   9.061  0.3204  0.4505  0.0259
 3685SOL    HW122517   2.208   1.072   9.154  1.1056 -1.2271 -0.3408
 3685SOL    HW222518   2.200   0.994   9.029  0.1738  0.4871 -0.1307
 3686SOL     OW22519   4.477   3.158   5.428 -0.0421  0.6405 -0.2936
 3686SOL    HW122520   4.435   3.074   5.446  1.2511 -0.0408 -0.4929
 3686SOL    HW222521   4.434   3.215   5.492  0.9231  1.4749 -0.3877
 3687SOL     OW22522   0.251   1.747   2.556  0.2336  0.3364 -0.2976
 3687SOL    HW122523   0.279   1.838   2.551 -1.2678  0.8555  0.7895
 3687SOL    HW222524   0.236   1.751   2.650  0.1113  3.0538 -0.4226
 3688SOL     OW22525   4.538   2.663   5.787 -0.6283 -0.5868  0.1005
 3688SOL    HW122526   4.600   2.636   5.855  0.2997  0.1499 -0.4682
 3688SOL    HW222527   4.482   2.585   5.784  0.5923 -1.5347  2.1237
 3689SOL     OW22528   3.915   3.115   1.665  0.3557  0.5626  0.1796
 3689SOL    HW122529   3.910   3.084   1.755  1.2832  1.3082  0.4844
 3689SOL    HW222530   3.969   3.194   1.662  0.2395  0.6131 -0.9299
 3690SOL     OW22531   3.526   2.657  14.851  0.2979 -0.3496  0.4522
 3690SOL    HW122532   3.582   2.734  14.864  1.8152 -1.2993 -0.3637
 3690SOL    HW222533   3.442   2.702  14.847  0.2818 -0.4904 -0.7514
 3691SOL     OW22534   1.748   2.794   3.857 -0.4737 -0.0266  0.1873
 3691SOL    HW122535   1.733   2.883   3.889 -0.9472  0.3040 -0.9353
 3691SOL    HW222536   1.662   2.785   3.815 -0.5055  0.3482  0.1696
 3692SOL     OW22537   0.814   4.348   6.190 -0.1183 -0.1458 -0.5336
 3692SOL    HW122538   0.907   4.327   6.194 -0.3507 -1.1116 -0.2260
 3692SOL    HW222539   0.778   4.266   6.225  1.8203 -0.9213 -0.3861
 3693SOL     OW22540   4.529   2.250   7.095 -0.1517  0.0376  0.0082
 3693SOL    HW122541   4.449   2.302   7.108  0.7513  1.5987 -0.6695
 3693SOL    HW222542   4.547   2.223   7.185 -0.3436 -1.8671 -0.5278
 3694SOL     OW22543   0.824   2.440   7.679  0.3636 -0.0993 -0.4592
 3694SOL    HW122544   0.754   2.502   7.698 -1.0340 -1.4101 -1.2985
 3694SOL    HW222545   0.780   2.355   7.684  1.8399 -0.8304  0.3947
 3695SOL     OW22546   1.436   0.003  17.501 -0.2596  0.1314 -0.0603
 3695SOL    HW122547   1.405   0.084  17.461 -2.4291 -0.0737  1.2671
 3695SOL    HW222548   1.425   0.018  17.594  0.6037 -1.4112  0.2820
 3696SOL     OW22549   4.661   0.693   5.280  0.3363  0.0910 -0.5752
 3696SOL    HW122550   4.652   0.769   5.222 -0.3993 -0.6374 -1.3964
 3696SOL    HW222551   0.026   0.664   5.272  0.4481  0.4762 -0.7157
 3697SOL     OW22552   3.770   2.644  13.106 -0.0936 -0.0973  0.8486
 3697SOL    HW122553   3.748   2.656  13.199  1.4191  0.2839  1.1688
 3697SOL    HW222554   3.696   2.596  13.070 -0.0095  0.9352 -0.6878
 3698SOL     OW22555   0.840   4.186   8.407 -0.2505 -0.1516 -0.2269
 3698SOL    HW122556   0.819   4.093   8.393 -0.7365 -0.1534  0.4973
 3698SOL    HW222557   0.797   4.198   8.491 -1.0913 -1.7172 -0.4351
 3699SOL     OW22558   1.769   2.898   4.331  0.0705  0.2165 -0.7892
 3699SOL    HW122559   1.719   2.975   4.358  1.8805  0.5083  1.7478
 3699SOL    HW222560   1.853   2.942   4.321  0.4055 -0.9387 -3.1171
 3700SOL     OW22561   2.909   1.064   3.040 -0.1072  0.1251 -0.8150
 3700SOL    HW122562   2.925   1.036   3.130  1.9122  1.6078 -0.7009
 3700SOL    HW222563   2.984   1.124   3.043 -0.3909  0.4677 -0.5684
 3701SOL     OW22564   2.736   1.823  10.898  0.0871  0.6405  0.4069
 3701SOL    HW122565   2.747   1.918  10.891  2.5985  0.4620  1.8477
 3701SOL    HW222566   2.771   1.810  10.986  1.1607  0.1381 -0.0938
 3702SOL     OW22567   0.767   4.246   7.361 -0.0307  0.1655 -0.0636
 3702SOL    HW122568   0.769   4.336   7.394  2.3133  0.1882 -0.2775
 3702SOL    HW222569   0.708   4.212   7.428  1.4388 -0.9242  0.6654
 3703SOL     OW22570   1.091   4.487  10.250  0.1690  0.1580  0.0622
 3703SOL    HW122571   1.134   4.565  10.215  0.0950  1.4486  2.8222
 3703SOL    HW222572   1.005   4.528  10.258 -1.5587 -3.7684  1.8178
 3704SOL     OW22573   1.272   4.663   4.216 -0.3344 -0.0094 -0.1801
 3704SOL    HW122574   1.284   4.663   4.121  1.5836  1.2809  0.0638
 3704SOL    HW222575   1.360   4.639   4.245  0.2112  3.3929  0.9825
 3705SOL     OW22576   2.463   3.170   4.518  0.4209  0.3180 -0.1478
 3705SOL    HW122577   2.482   3.264   4.520 -1.6848  0.6840  2.7949
 3705SOL    HW222578   2.532   3.134   4.462  1.0707  1.8515 -0.3127
 3706SOL     OW22579   3.237   0.406   3.665 -0.1458 -0.2300  0.2928
 3706SOL    HW122580   3.194   0.326   3.635 -0.4862 -1.0326  2.8878
 3706SOL    HW222581   3.328   0.378   3.650 -0.0623 -0.1409  0.6353
 3707SOL     OW22582   2.795   1.166   0.747 -0.1326  0.2750 -0.1570
 3707SOL    HW122583   2.804   1.257   0.718 -0.5944 -0.2834 -2.0588
 3707SOL    HW222584   2.802   1.164   0.842 -0.9648  0.5874 -0.0848
 3708SOL     OW22585   2.609   0.758  11.901  0.3011 -0.4428 -0.0189
 3708SOL    HW122586   2.531   0.774  11.955  1.0584 -1.0825  1.2630
 3708SOL    HW222587   2.664   0.802  11.966  0.0252  1.9181 -1.3844
 3709SOL     OW22588   4.147   3.769  14.263  0.3089  0.2949  0.3023
 3709SOL    HW122589   4.203   3.833  14.308 -0.2758 -0.1989  1.7462
 3709SOL    HW222590   4.215   3.717  14.221 -0.2455 -0.5069  0.3955
 3710SOL     OW22591   3.862   3.914  17.164 -0.5013 -0.1239 -0.0109
 3710SOL    HW122592   3.780   3.913  17.115 -0.6409 -3.3109  0.3064
 3710SOL    HW222593   3.846   3.990  17.219  0.6791  0.5074 -0.5255
 3711SOL     OW22594   1.359   4.432   4.610 -0.3428 -0.2220  0.0499
 3711SOL    HW122595   1.322   4.361   4.558 -0.0106 -1.4446  1.5023
 3711SOL    HW222596   1.449   4.445   4.578  0.0590  0.5309  1.4705
 3712SOL     OW22597   1.399   4.696   7.829 -0.2263  0.0379 -0.6936
 3712SOL    HW122598   1.405   0.064   7.812 -1.8292 -0.0692 -1.8017
 3712SOL    HW222599   1.324   4.691   7.887  0.2083 -0.9898 -0.2132
 3713SOL     OW22600   2.550   0.732   0.199 -0.5517 -0.4033 -0.0907
 3713SOL    HW122601   2.568   0.781   0.119 -1.8107  0.1152 -0.0564
 3713SOL    HW222602   2.637   0.696   0.219 -0.2524 -0.4442 -1.4512
 3714SOL     OW22603   0.723   4.570   3.154  0.0169 -0.0511 -0.4886
 3714SOL    HW122604   0.803   4.532   3.191 -0.1603  1.0331  0.9992
 3714SOL    HW222605   0.673   4.568   3.236 -0.2473  0.1719 -0.6456
 3715SOL     OW22606   1.428   2.429   1.955 -0.2039  0.3092  0.1087
 3715SOL    HW122607   1.432   2.334   1.943  0.1614  0.5586 -1.6662
 3715SOL    HW222608   1.387   2.457   1.873  2.4951  0.8921 -1.0437
 3716SOL     OW22609   1.723   2.561   9.406  0.4203  0.1226 -0.1932
 3716SOL    HW122610   1.809   2.578   9.367 -0.8586  1.2055 -2.5473
 3716SOL    HW222611   1.722   2.466   9.416  1.4620 -0.0513 -1.6441
 3717SOL     OW22612   1.275   3.391   5.073  0.0769  0.0605  0.4211
 3717SOL    HW122613   1.192   3.390   5.121 -1.0886 -0.8406 -1.6437
 3717SOL    HW222614   1.291   3.485   5.082  2.8929 -0.3801  0.0172
 3718SOL     OW22615   0.524   3.585   9.822  0.2623  0.3307  0.4020
 3718SOL    HW122616   0.616   3.559   9.830 -0.0059 -0.7955 -0.1775
 3718SOL    HW222617   0.510   3.598   9.728  0.7607  0.2790  0.3160
 3719SOL     OW22618   0.539   0.289   7.091 -0.5408 -0.1338 -0.4842
 3719SOL    HW122619   0.594   0.361   7.060 -0.2631 -0.2979 -0.3678
 3719SOL    HW222620   0.487   0.329   7.161  0.4178 -1.6374  1.0772
 3720SOL     OW22621   4.544   4.654   6.298  0.2952  0.3536  0.3854
 3720SOL    HW122622   4.637   4.652   6.321 -0.1430 -0.5583  2.0919
 3720SOL    HW222623   4.518   0.011   6.339  0.0261  1.4804 -2.0943
 3721SOL     OW22624   2.236   1.604   2.574  0.3531  0.2659  0.3877
 3721SOL    HW122625   2.277   1.580   2.491  1.5852  0.8153  0.8314
 3721SOL    HW222626   2.318   1.596   2.624  1.2803 -2.6995 -1.6157
 3722SOL     OW22627   0.021   2.805  10.360  0.1405 -0.4058 -0.2657
 3722SOL    HW122628   0.109   2.789  10.325  0.6535  0.4613  0.6086
 3722SOL    HW222629   0.033   2.777  10.450  1.4629 -0.8781 -0.5868
 3723SOL     OW22630   3.341   2.821   5.756 -0.1672  0.1153  0.3038
 3723SOL    HW122631   3.288   2.741   5.767  1.9620 -1.2721  0.3873
 3723SOL    HW222632   3.273   2.889   5.764  0.3764  0.3730  2.6661
 3724SOL     OW22633   3.626   1.129   3.270  0.5989  0.2169  0.6404
 3724SOL    HW122634   3.571   1.207   3.265  0.2669  0.0685  2.1944
 3724SOL    HW222635   3.615   1.091   3.357 -1.3243 -0.3053  0.1669
 3725SOL     OW22636   2.112   3.425  14.837  0.0884  0.5679 -0.3455
 3725SOL    HW122637   2.039   3.482  14.811  0.3983  0.4146 -1.5172
 3725SOL    HW222638   2.079   3.341  14.870 -0.7537  1.0440  0.0511
 3726SOL     OW22639   3.267   4.262   5.645 -0.1346 -0.6814  0.0924
 3726SOL    HW122640   3.262   4.356   5.661  1.0558 -0.7147  0.6387
 3726SOL    HW222641   3.347   4.249   5.593 -0.8159 -0.5575 -0.9946
 3727SOL     OW22642   1.376   1.415  11.253  0.4738  0.3951  0.0111
 3727SOL    HW122643   1.412   1.341  11.303  0.7483 -0.1129 -0.9519
 3727SOL    HW222644   1.438   1.487  11.268  1.0744  0.1004 -1.0161
 3728SOL     OW22645   1.459   0.528  12.077  0.0715 -0.2357 -0.5054
 3728SOL    HW122646   1.544   0.503  12.115  1.0121  2.8819 -0.5198
 3728SOL    HW222647   1.403   0.535  12.154  1.1887 -0.7694  0.3653
 3729SOL     OW22648   1.767   0.653   1.834 -0.3266  1.0248 -0.2337
 3729SOL    HW122649   1.819   0.680   1.910 -1.4188 -0.3599  1.0043
 3729SOL    HW222650   1.820   0.575   1.824 -1.9753 -0.3067  1.2750
 3730SOL     OW22651   2.618   2.893   3.705  0.0150 -0.0066 -0.1405
 3730SOL    HW122652   2.690   2.944   3.669  1.8388 -1.2815  1.6905
 3730SOL    HW222653   2.563   2.970   3.724  0.2016  0.1054 -0.0565
 3731SOL     OW22654   2.137   2.002   1.876 -0.1374 -0.3378  0.4454
 3731SOL    HW122655   2.214   2.031   1.924  0.6524 -0.1624 -0.9230
 3731SOL    HW222656   2.169   1.984   1.788 -1.4369 -2.1955  0.3440
 3732SOL     OW22657   0.372   4.610  16.897 -0.6600  0.5612 -0.0424
 3732SOL    HW122658   0.390   4.704  16.890  0.7172  0.6168  3.7694
 3732SOL    HW222659   0.452   4.558  16.908 -0.0324  1.5764  0.2635
 3733SOL     OW22660   2.400   3.046  14.975 -0.3806 -0.3561  0.3359
 3733SOL    HW122661   2.400   2.983  14.903 -2.0513  1.1560 -0.9700
 3733SOL    HW222662   2.355   3.119  14.932 -2.6639 -1.2369  1.2112
 3734SOL     OW22663   2.843   0.658   3.047  0.2035 -0.4497 -0.0535
 3734SOL    HW122664   2.824   0.637   3.138  1.1634 -0.0511  0.2429
 3734SOL    HW222665   2.776   0.725   3.032  0.1999 -0.7897 -1.6043
 3735SOL     OW22666   2.534   2.963   4.820  0.0944 -0.1292 -0.2536
 3735SOL    HW122667   2.581   2.947   4.738 -0.4541 -1.2122 -0.3503
 3735SOL    HW222668   2.456   2.912   4.800 -1.0415  2.1742 -1.7540
 3736SOL     OW22669   3.885   1.571   2.666 -0.2331 -0.7773 -0.0170
 3736SOL    HW122670   3.922   1.644   2.616  3.4849 -0.8715  2.5296
 3736SOL    HW222671   3.919   1.493   2.622 -0.2487 -0.7031 -0.1607
 3737SOL     OW22672   1.230   0.393   9.460 -0.7366  0.4342  0.4042
 3737SOL    HW122673   1.205   0.435   9.378  1.0048  0.1199 -0.2880
 3737SOL    HW222674   1.198   0.309   9.429  0.9293  0.3237 -0.9913
 3738SOL     OW22675   1.256   2.343   0.093  0.4081  0.0713  0.6198
 3738SOL    HW122676   1.283   2.293   0.170 -0.1329  0.3688  1.0079
 3738SOL    HW222677   1.323   2.324   0.027 -2.6320 -0.2624 -2.3695
 3739SOL     OW22678   0.314   1.545  13.553 -0.4983 -0.3147 -0.8128
 3739SOL    HW122679   0.291   1.597  13.629 -3.5259 -1.1803 -1.1093
 3739SOL    HW222680   0.382   1.493  13.596 -2.5448 -1.6741  0.7830
 3740SOL     OW22681   2.540   2.692  13.526  0.6274 -0.8627 -0.0682
 3740SOL    HW122682   2.494   2.776  13.521  1.0977 -0.4533  2.7112
 3740SOL    HW222683   2.485   2.629  13.480 -1.6321  0.1472  1.2356
 3741SOL     OW22684   3.930   4.380   7.924  0.2822 -0.5676 -0.4912
 3741SOL    HW122685   3.932   4.464   7.971 -1.2583  0.4054 -2.1307
 3741SOL    HW222686   3.843   4.379   7.883  0.3066  0.3405 -0.5783
 3742SOL     OW22687   2.186   0.288  14.409 -0.7653 -0.1026 -0.2232
 3742SOL    HW122688   2.232   0.372  14.415 -0.5938 -0.2284  0.2115
 3742SOL    HW222689   2.229   0.250  14.332  0.3192 -0.2429  0.4489
 3743SOL     OW22690   4.521   0.066  17.212 -0.1465 -0.6442  0.3850
 3743SOL    HW122691   4.501   4.726  17.145 -0.6204  0.1991 -0.3088
 3743SOL    HW222692   4.617   0.069  17.205 -0.2933  0.1584 -1.4022
 3744SOL     OW22693   2.084   3.879  17.179  0.4757  0.4900 -0.2421
 3744SOL    HW122694   2.144   3.808  17.205 -1.0970 -0.3168  1.1523
 3744SOL    HW222695   2.126   3.913  17.100 -1.5474  0.9482 -1.1104
 3745SOL     OW22696   0.943   2.397   1.254  0.5010 -0.4977  0.0711
 3745SOL    HW122697   0.918   2.306   1.245  1.2311 -0.6474 -0.5045
 3745SOL    HW222698   0.969   2.419   1.164  1.1517  1.1947  0.6678
 3746SOL     OW22699   3.190   3.492   1.397  0.5442  0.0984  0.0047
 3746SOL    HW122700   3.171   3.479   1.490  0.4706  0.0668 -0.0147
 3746SOL    HW222701   3.166   3.411   1.353 -0.4604  0.0392  0.6723
 3747SOL     OW22702   0.693   2.945   9.035  0.5861 -0.7238 -0.3087
 3747SOL    HW122703   0.698   3.040   9.029  0.0132 -0.6453  0.5400
 3747SOL    HW222704   0.603   2.919   9.053  1.2857 -2.3998  0.8168
 3748SOL     OW22705   4.112   4.090   6.124  0.3628 -0.0678 -0.0189
 3748SOL    HW122706   4.151   4.005   6.108 -1.0691 -0.7272 -0.0073
 3748SOL    HW222707   4.077   4.084   6.213  0.9907  3.7401  0.5254
 3749SOL     OW22708   4.243   4.113  15.289  0.0628 -0.2138 -0.3612
 3749SOL    HW122709   4.220   4.025  15.321 -1.2120  0.7031  1.2220
 3749SOL    HW222710   4.197   4.161  15.357  0.9845  1.2529 -0.7811
 3750SOL     OW22711   1.532   3.314   8.671  0.2470  0.2135 -0.3463
 3750SOL    HW122712   1.466   3.375   8.704 -0.0429 -1.0040  1.3227
 3750SOL    HW222713   1.503   3.228   8.702 -0.9900  0.4962 -0.7224
 3751SOL     OW22714   3.727   2.001  15.999  0.4870 -0.5445  0.1045
 3751SOL    HW122715   3.801   2.046  15.957 -0.3301  0.1186 -0.6501
 3751SOL    HW222716   3.750   1.913  16.027 -0.4337 -1.1684 -1.0815
 3752SOL     OW22717   2.592   4.698   0.050  0.5831  0.4990  0.1356
 3752SOL    HW122718   2.574   0.066   0.041 -0.2010  0.4950  1.6691
 3752SOL    HW222719   2.572   4.666  17.667  1.1222  0.8442 -0.1121
 3753SOL     OW22720   0.837   0.742   4.395  0.1507  0.5469  0.0054
 3753SOL    HW122721   0.794   0.658   4.413  0.5652  0.0689 -1.2802
 3753SOL    HW222722   0.762   0.791   4.360 -0.0179  0.4527  0.2271
 3754SOL     OW22723   0.678   0.794   7.737 -0.1049 -0.2247  0.8219
 3754SOL    HW122724   0.670   0.865   7.674 -0.3987  0.0589  1.1800
 3754SOL    HW222725   0.770   0.771   7.725 -0.6342 -1.8396 -0.0918
 3755SOL     OW22726   2.509   0.966   4.250  0.2482  0.0529  0.5891
 3755SOL    HW122727   2.490   0.925   4.166  2.1797 -1.3706  0.8621
 3755SOL    HW222728   2.574   1.033   4.231 -1.0611  1.0225 -0.4433
 3756SOL     OW22729   3.260   4.710  10.697 -0.0532  0.4438 -0.4177
 3756SOL    HW122730   3.272   0.023  10.784  1.2119  1.0189 -0.8511
 3756SOL    HW222731   3.310   0.044  10.642  0.2082  1.3525  0.8023
 3757SOL     OW22732   1.205   2.588   2.448 -0.9772  0.1573 -0.1117
 3757SOL    HW122733   1.276   2.651   2.460 -2.6150  2.3567 -2.1055
 3757SOL    HW222734   1.199   2.578   2.353  1.4297  0.1242 -0.2691
 3758SOL     OW22735   3.375   1.957   4.482 -0.7166  1.2309  0.0386
 3758SOL    HW122736   3.360   2.052   4.476  0.2482  1.3933  0.2553
 3758SOL    HW222737   3.467   1.957   4.457 -0.5065  1.3446  0.8347
 3759SOL     OW22738   4.524   4.059  10.974  0.0413  0.5081 -0.3052
 3759SOL    HW122739   4.433   4.031  10.983 -0.4675  1.6786 -1.7177
 3759SOL    HW222740   4.535   4.143  11.019  1.1479 -1.2722  2.7445
 3760SOL     OW22741   3.386   2.400   8.687 -0.7139 -0.1070  0.5520
 3760SOL    HW122742   3.310   2.342   8.682 -0.2462 -0.7751  1.1095
 3760SOL    HW222743   3.348   2.483   8.715 -0.3314 -0.4584  2.1155
 3761SOL     OW22744   0.722   0.035   4.234  0.1971 -0.2336 -0.4930
 3761SOL    HW122745   0.747   0.103   4.296  1.4245 -1.1713  0.0397
 3761SOL    HW222746   0.810   0.012   4.203  1.1831  1.4823  1.0662
 3762SOL     OW22747   1.538   0.374  12.347  0.7373 -0.6655  0.2659
 3762SOL    HW122748   1.492   0.313  12.290  1.0931 -2.9740  2.4621
 3762SOL    HW222749   1.468   0.438  12.363  1.6156  0.3409  0.1182
 3763SOL     OW22750   1.732   3.971   3.920  0.7562  0.4422 -0.2787
 3763SOL    HW122751   1.782   3.900   3.961 -2.4539 -2.4492 -1.3425
 3763SOL    HW222752   1.723   4.031   3.994  0.5029 -1.4805  1.2516
 3764SOL     OW22753   1.908   3.031   6.797 -0.2046  0.2652  0.6193
 3764SOL    HW122754   1.894   3.093   6.869  0.0823  2.5427 -1.3030
 3764SOL    HW222755   1.953   2.960   6.843  0.5923  0.8234  0.7003
 3765SOL     OW22756   0.790   2.528   8.783 -0.1209  0.3607 -0.8872
 3765SOL    HW122757   0.723   2.596   8.789 -2.0194 -1.6302  0.2136
 3765SOL    HW222758   0.846   2.554   8.856 -0.5709 -0.7116 -0.1605
 3766SOL     OW22759   1.281   2.411   8.005 -0.5330  0.1025  0.1482
 3766SOL    HW122760   1.236   2.415   8.090 -0.6721 -2.1151  0.1780
 3766SOL    HW222761   1.210   2.420   7.942  0.2924  1.7052 -0.5750
 3767SOL     OW22762   3.843   3.318   7.055  0.2158 -0.0730  0.1272
 3767SOL    HW122763   3.829   3.228   7.083 -2.6455  1.2407  2.9176
 3767SOL    HW222764   3.760   3.361   7.076  1.2013  1.4274  0.9655
 3768SOL     OW22765   2.486   3.377   6.333  0.1150 -0.8114 -0.7579
 3768SOL    HW122766   2.563   3.433   6.337 -1.0760  0.7481  0.1594
 3768SOL    HW222767   2.439   3.416   6.259  3.3156 -0.2308 -2.4732
 3769SOL     OW22768   2.605   2.861   4.313 -0.1746 -0.2184  0.0521
 3769SOL    HW122769   2.555   2.869   4.231 -1.4998  0.1791  0.8926
 3769SOL    HW222770   2.631   2.952   4.320 -0.6218 -0.0304 -0.6852
 3770SOL     OW22771   4.536   1.497   5.148  0.1331  1.0177 -0.1438
 3770SOL    HW122772   4.505   1.576   5.103 -0.4287  1.5141  1.1350
 3770SOL    HW222773   4.545   1.535   5.235  0.8007  0.8505 -0.1349
 3771SOL     OW22774   2.166   4.719   2.048  0.3609 -0.4048  0.0941
 3771SOL    HW122775   2.218   0.006   2.127  0.7856 -1.5904 -0.0031
 3771SOL    HW222776   2.128   4.632   2.058 -0.3070  0.0221  1.2130
 3772SOL     OW22777   1.469   1.210   8.318 -0.4229 -0.2847 -0.2215
 3772SOL    HW122778   1.374   1.207   8.333 -0.6073  0.5309 -1.2816
 3772SOL    HW222779   1.476   1.306   8.316  1.6708 -0.4199  0.4556
 3773SOL     OW22780   2.252   3.650   8.576 -0.2796 -0.6095 -0.1132
 3773SOL    HW122781   2.171   3.632   8.624 -0.4578  3.8048  1.3125
 3773SOL    HW222782   2.314   3.683   8.642  1.2333  1.1848 -2.4440
 3774SOL     OW22783   4.643   3.977   1.989  0.7605  0.1687 -0.1205
 3774SOL    HW122784   4.690   3.899   1.957 -1.4559 -0.6495 -1.3799
 3774SOL    HW222785   4.719   4.030   2.014 -0.8974  2.0157  0.9902
 3775SOL     OW22786   3.278   4.404   2.395  0.2574  0.7112  0.2030
 3775SOL    HW122787   3.262   4.495   2.419 -2.1663  1.1203 -2.9651
 3775SOL    HW222788   3.351   4.418   2.335 -0.5771 -1.2249 -1.2654
 3776SOL     OW22789   1.161   0.410  16.392 -0.5366 -0.3412 -0.3352
 3776SOL    HW122790   1.204   0.388  16.310 -4.2571 -0.1132 -2.3126
 3776SOL    HW222791   1.222   0.371  16.455 -0.5612 -1.8939 -1.2956
 3777SOL     OW22792   4.138   0.009   0.922 -0.1821  0.2352 -1.0736
 3777SOL    HW122793   4.126   0.064   0.844 -1.8354  1.0210 -0.2467
 3777SOL    HW222794   4.156   0.071   0.992 -1.6497  0.0246 -0.5285
 3778SOL     OW22795   2.371   2.379   8.755 -0.2117  0.2703  0.0885
 3778SOL    HW122796   2.302   2.334   8.804 -0.5533 -0.3954 -1.0156
 3778SOL    HW222797   2.454   2.361   8.799  0.6855  1.1218 -1.2593
 3779SOL     OW22798   4.574   4.253   9.069 -0.5125  0.6191 -0.1274
 3779SOL    HW122799   4.567   4.170   9.023  0.4541 -0.4036  1.5510
 3779SOL    HW222800   4.668   4.265   9.054 -0.0262 -0.1386  2.2941
 3780SOL     OW22801   1.557   2.535   1.399  0.0048 -0.2862  0.5198
 3780SOL    HW122802   1.550   2.556   1.492 -1.2114  0.2782  0.3028
 3780SOL    HW222803   1.478   2.577   1.366  0.4643 -0.6438 -1.0164
 3781SOL     OW22804   1.757   3.346   3.241  0.2786 -0.4039  0.0547
 3781SOL    HW122805   1.824   3.301   3.292  1.1024  1.5134  0.6689
 3781SOL    HW222806   1.795   3.432   3.220 -2.4808  0.5197 -1.0649
 3782SOL     OW22807   0.184   3.314   5.442  0.5227  0.0267 -0.1468
 3782SOL    HW122808   0.136   3.377   5.388  0.1339  0.0039  0.1715
 3782SOL    HW222809   0.115   3.263   5.485 -0.4974  0.8800 -0.7599
 3783SOL     OW22810   1.858   2.176   1.100  0.4698  0.1706 -0.4411
 3783SOL    HW122811   1.808   2.233   1.158  0.2487 -0.6685  0.1986
 3783SOL    HW222812   1.805   2.097   1.109 -2.6822  2.0985 -2.3170
 3784SOL     OW22813   3.860   3.138   3.111 -0.0280  0.3814 -0.2721
 3784SOL    HW122814   3.785   3.176   3.156 -1.1460 -1.5677 -0.4786
 3784SOL    HW222815   3.818   3.062   3.071  1.5921 -0.6625 -0.0373
 3785SOL     OW22816   0.316   2.854   2.755  0.2560  0.0412  0.2515
 3785SOL    HW122817   0.290   2.762   2.758 -1.6345  0.4304 -3.5687
 3785SOL    HW222818   0.409   2.839   2.734  0.1652 -1.5014  0.9922
 3786SOL     OW22819   1.516   1.233  13.693 -0.4029 -0.2036  0.0592
 3786SOL    HW122820   1.577   1.299  13.726  0.4203 -1.8200  1.7334
 3786SOL    HW222821   1.437   1.271  13.732  0.0680  0.5317  0.2989
 3787SOL     OW22822   4.415   2.704   7.518  0.2520 -0.3403 -0.0600
 3787SOL    HW122823   4.384   2.766   7.584  2.2589 -0.4087  0.9557
 3787SOL    HW222824   4.444   2.633   7.574 -0.4876 -0.4158  0.2275
 3788SOL     OW22825   1.719   2.241  16.122  0.3815 -0.2618  0.3815
 3788SOL    HW122826   1.652   2.185  16.082  0.3854 -0.9889  1.3993
 3788SOL    HW222827   1.669   2.304  16.175 -0.3455 -0.9610  0.5322
 3789SOL     OW22828   3.754   0.358   5.103  0.8520  0.0198 -0.2009
 3789SOL    HW122829   3.807   0.438   5.097  1.7152 -0.5325 -0.0013
 3789SOL    HW222830   3.809   0.310   5.041 -0.3451 -0.4629 -0.8929
 3790SOL     OW22831   0.199   0.848   3.490 -0.1546 -0.3782  0.6668
 3790SOL    HW122832   0.197   0.753   3.478  2.6978 -0.4238  0.6530
 3790SOL    HW222833   0.135   0.882   3.427  0.1259  0.5155  0.8674
 3791SOL     OW22834   0.023   0.509   5.606  0.3482  0.1085  0.2651
 3791SOL    HW122835   0.113   0.536   5.590  0.4411  0.3810  1.2592
 3791SOL    HW222836   0.024   0.419   5.637  0.1960  0.7098  2.0216
 3792SOL     OW22837   1.628   4.024   4.694 -0.3067  0.1122  0.3260
 3792SOL    HW122838   1.535   4.031   4.716 -0.8031 -2.6591 -0.9856
 3792SOL    HW222839   1.658   3.980   4.774  1.2259  1.0830  0.2938
 3793SOL     OW22840   1.251   3.519   5.653  0.5040  0.1101 -0.1045
 3793SOL    HW122841   1.261   3.532   5.747  0.5805  1.0862 -0.2525
 3793SOL    HW222842   1.340   3.532   5.620  0.8498 -2.3218 -0.1454
 3794SOL     OW22843   0.528   1.406   2.161  0.2179 -0.1266 -0.2929
 3794SOL    HW122844   0.592   1.360   2.106 -0.1150 -1.3773  0.3507
 3794SOL    HW222845   0.559   1.495   2.149  0.1650 -0.1184 -0.3710
 3795SOL     OW22846   2.034   0.482   5.511  0.1279  0.4463  0.0865
 3795SOL    HW122847   2.062   0.570   5.539  2.6492 -0.5570  0.7477
 3795SOL    HW222848   2.020   0.438   5.595 -1.7295 -0.8071 -0.8954
 3796SOL     OW22849   3.915   0.108   8.080 -0.7420  0.0193  0.4821
 3796SOL    HW122850   3.874   0.023   8.096  0.2868 -0.2316  1.7146
 3796SOL    HW222851   3.872   0.139   8.000 -0.5161 -0.3259  0.2245
 3797SOL     OW22852   1.578   2.500  14.563 -0.1391 -0.4914 -0.1721
 3797SOL    HW122853   1.553   2.587  14.534  0.5249 -0.5576 -0.9485
 3797SOL    HW222854   1.509   2.473  14.624  1.0539 -0.4148  1.2091
 3798SOL     OW22855   0.737   4.583  15.073 -0.6001  0.4890  0.0641
 3798SOL    HW122856   0.730   4.592  15.168 -1.1906 -1.3981  0.2009
 3798SOL    HW222857   0.827   4.612  15.056 -0.9022  1.2824 -0.1646
 3799SOL     OW22858   2.800   0.167   9.716  1.2083 -0.0154  0.3042
 3799SOL    HW122859   2.759   0.199   9.635 -0.4756 -0.8922  0.8239
 3799SOL    HW222860   2.854   0.100   9.674 -0.1137 -0.5136 -0.5871
 3800SOL     OW22861   4.037   4.317   5.197  0.4728  0.0446 -0.0254
 3800SOL    HW122862   4.037   4.405   5.161 -0.0020 -0.7197 -1.8736
 3800SOL    HW222863   4.044   4.340   5.290  1.5013 -0.9747  0.1470
 3801SOL     OW22864   0.194   0.633   2.104 -0.3001  0.1593  0.1109
 3801SOL    HW122865   0.239   0.554   2.133  2.6719  1.7733 -0.0377
 3801SOL    HW222866   0.256   0.701   2.129  1.9073 -1.4703 -0.9065
 3802SOL     OW22867   3.133   1.227   7.769  0.1932  0.2983 -0.3229
 3802SOL    HW122868   3.042   1.212   7.795  0.3854  2.7655  1.7780
 3802SOL    HW222869   3.129   1.319   7.743  0.1605 -0.1165 -1.7624
 3803SOL     OW22870   0.282   1.884   3.662 -0.4221 -0.0571 -0.2494
 3803SOL    HW122871   0.189   1.869   3.674 -0.5107 -0.2166 -1.1007
 3803SOL    HW222872   0.289   1.972   3.698  1.9099 -1.0351  1.7093
 3804SOL     OW22873   1.669   3.364   2.397 -0.0247 -0.5086 -0.0304
 3804SOL    HW122874   1.607   3.347   2.325  0.5397 -0.6864 -0.4776
 3804SOL    HW222875   1.751   3.385   2.351 -0.9437  0.2106 -1.3553
 3805SOL     OW22876   1.196   0.794   7.381  0.3360 -0.2537 -0.3868
 3805SOL    HW122877   1.258   0.721   7.375  1.4804  0.8334 -1.8612
 3805SOL    HW222878   1.245   0.868   7.417 -1.3764  0.7289 -0.1216
 3806SOL     OW22879   1.295   3.196   4.480  0.3301  0.0415  0.3670
 3806SOL    HW122880   1.265   3.212   4.391 -0.6459 -0.5053  0.5975
 3806SOL    HW222881   1.335   3.110   4.468 -1.5510 -0.7504 -0.2488
 3807SOL     OW22882   4.015   1.361  11.352 -0.2445  0.0856  0.0161
 3807SOL    HW122883   3.982   1.450  11.339  0.0873  0.4059  1.4210
 3807SOL    HW222884   4.094   1.368  11.404  1.1602 -2.2554 -1.7830
 3808SOL     OW22885   0.037   3.906   3.286  0.0274  0.3750 -0.3642
 3808SOL    HW122886   0.114   3.884   3.234  0.0896  0.3088 -0.2426
 3808SOL    HW222887   4.698   3.851   3.242  0.5934  0.3079 -1.1208
 3809SOL     OW22888   0.253   4.128   5.693  0.2430 -0.0159 -0.8534
 3809SOL    HW122889   0.257   4.087   5.607 -1.0440 -0.0559 -0.8947
 3809SOL    HW222890   0.218   4.215   5.671 -0.2190  0.0968  0.3072
 3810SOL     OW22891   1.431   1.031   2.256  0.5372 -0.0373  0.2976
 3810SOL    HW122892   1.485   0.963   2.296 -0.5621 -0.1978  1.4899
 3810SOL    HW222893   1.481   1.048   2.176  1.1617  1.6470  1.0364
 3811SOL     OW22894   2.490   3.558   1.702  0.3467 -0.0562 -0.0791
 3811SOL    HW122895   2.507   3.471   1.666 -0.1188 -0.3354  0.3623
 3811SOL    HW222896   2.419   3.541   1.764  0.4422  0.7178  0.2487
 3812SOL     OW22897   3.484   0.329  15.062 -0.1863 -0.4242 -0.0194
 3812SOL    HW122898   3.579   0.322  15.053 -0.1375  0.7650 -0.4751
 3812SOL    HW222899   3.473   0.404  15.003 -3.1634 -0.5521  0.3884
 3813SOL     OW22900   2.831   1.343   2.169 -0.1847 -0.7792  0.0252
 3813SOL    HW122901   2.810   1.259   2.129 -1.3959 -0.2704 -0.4028
 3813SOL    HW222902   2.827   1.393   2.088  0.6834 -2.5353 -1.1042
 3814SOL     OW22903   4.501   2.174   4.160  0.0329 -0.1373  0.1064
 3814SOL    HW122904   4.535   2.116   4.092 -1.0430  0.7359 -1.1803
 3814SOL    HW222905   4.515   2.261   4.122  1.0121 -0.5458 -0.4711
 3815SOL     OW22906   3.254   2.001   6.071  0.1657  0.0537  0.8162
 3815SOL    HW122907   3.174   1.948   6.072 -0.4617  1.0173  1.0663
 3815SOL    HW222908   3.306   1.933   6.029 -1.1439 -0.5654  0.1791
 3816SOL     OW22909   2.867   1.759   2.838  0.4189  0.0074  0.5693
 3816SOL    HW122910   2.865   1.666   2.857  4.2003 -0.2585 -0.2297
 3816SOL    HW222911   2.898   1.756   2.747 -1.0278  0.9133  0.0450
 3817SOL     OW22912   2.307   2.717   6.588 -0.3455 -0.1554 -0.1732
 3817SOL    HW122913   2.396   2.682   6.598 -0.7533 -1.3611 -0.7420
 3817SOL    HW222914   2.272   2.692   6.673 -1.0887 -2.6528 -1.2142
 3818SOL     OW22915   4.279   3.391   3.517 -0.2316  0.2239 -0.0123
 3818SOL    HW122916   4.203   3.400   3.459 -0.8726 -0.9354  0.6372
 3818SOL    HW222917   4.350   3.353   3.466 -1.2362  0.3275 -1.4841
 3819SOL     OW22918   1.739   1.078   9.096 -0.4187 -0.0197  0.0649
 3819SOL    HW122919   1.676   1.023   9.049  2.5703 -2.3606 -1.1673
 3819SOL    HW222920   1.706   1.167   9.111 -2.9729 -0.7703 -1.1147
 3820SOL     OW22921   0.687   3.466   9.256 -0.7502  0.1778  0.1048
 3820SOL    HW122922   0.743   3.508   9.321 -2.4155  0.9056  1.0600
 3820SOL    HW222923   0.680   3.534   9.189  1.0331  3.0877  2.8605
 3821SOL     OW22924   2.693   0.543  17.196  0.1494 -0.7517  0.1110
 3821SOL    HW122925   2.621   0.585  17.149 -0.9424 -0.1919  2.2930
 3821SOL    HW222926   2.681   0.450  17.177 -0.9902 -0.4016 -0.8364
 3822SOL     OW22927   1.299   4.648   1.330  0.1996 -0.0968 -0.4035
 3822SOL    HW122928   1.209   4.618   1.322 -1.2615  4.1236  0.3067
 3822SOL    HW222929   1.363   4.597   1.281  1.1717  0.1610  0.5842
 3823SOL     OW22930   0.072   2.463   6.722 -0.0849 -0.2904 -0.0312
 3823SOL    HW122931   0.042   2.398   6.786  2.8967 -2.5451 -0.9460
 3823SOL    HW222932   0.167   2.461   6.733  0.0343  0.0200 -1.0131
 3824SOL     OW22933   0.427   0.178   9.456  0.2138  0.0114  0.3386
 3824SOL    HW122934   0.431   0.271   9.475  0.4831  0.2615 -0.9367
 3824SOL    HW222935   0.332   0.166   9.444  0.5785 -0.9859 -1.6919
 3825SOL     OW22936   4.573   4.361   2.436 -0.1631 -0.6704  0.6129
 3825SOL    HW122937   4.508   4.297   2.407  0.2665 -1.2139  0.8595
 3825SOL    HW222938   4.559   4.425   2.366 -0.1257 -0.4141  0.8402
 3826SOL     OW22939   1.213   2.049   3.430  0.4040  0.3971  0.3353
 3826SOL    HW122940   1.271   2.041   3.355  2.0768  1.3399  1.5322
 3826SOL    HW222941   1.137   2.088   3.388 -0.5332 -0.8932  0.8241
 3827SOL     OW22942   0.538   2.092   0.263  0.4425  0.1380 -0.1005
 3827SOL    HW122943   0.578   2.179   0.260 -0.9544  0.7913  0.1213
 3827SOL    HW222944   0.478   2.101   0.337  0.2943  0.6114 -0.2796
 3828SOL     OW22945   0.077   3.616   7.726 -0.1138 -0.3385  0.9308
 3828SOL    HW122946   0.018   3.667   7.671 -0.5093 -1.2175  0.5365
 3828SOL    HW222947   0.010   3.552   7.750 -0.1230 -0.9653 -0.7805
 3829SOL     OW22948   1.047   1.100  16.700  0.0018  0.0843  0.0783
 3829SOL    HW122949   0.956   1.123  16.718  0.2026  0.3204  0.7911
 3829SOL    HW222950   1.038   1.005  16.706  2.0496 -0.0969  0.1739
 3830SOL     OW22951   1.621   2.251  13.270 -0.0922  0.0479 -0.1878
 3830SOL    HW122952   1.560   2.179  13.289  0.4081 -0.5966 -1.0276
 3830SOL    HW222953   1.619   2.294  13.355  1.4023 -3.6671  1.7344
 3831SOL     OW22954   0.473   3.641   7.945  0.3626 -0.2940 -0.1993
 3831SOL    HW122955   0.486   3.732   7.920 -3.3527  0.0783 -0.6621
 3831SOL    HW222956   0.545   3.599   7.897  0.1848 -1.0472  0.1867
 3832SOL     OW22957   4.336   2.800   6.018  0.3621  0.3068 -0.0593
 3832SOL    HW122958   4.404   2.861   5.990 -1.1648  1.8249 -0.4571
 3832SOL    HW222959   4.396   2.731   6.047 -0.1283  0.2315  0.7557
 3833SOL     OW22960   3.666   3.318   2.795  0.2094 -0.3835 -0.2000
 3833SOL    HW122961   3.719   3.282   2.724 -0.5855  0.1606 -1.0694
 3833SOL    HW222962   3.601   3.248   2.800  0.5712 -0.6225  1.3180
 3834SOL     OW22963   4.071   1.081  10.229 -0.2466  0.4826  0.5479
 3834SOL    HW122964   4.005   1.046  10.289 -1.4627 -2.3773 -2.5079
 3834SOL    HW222965   4.071   1.021  10.155 -0.2390  0.1762  0.7966
 3835SOL     OW22966   4.437   1.295   1.009 -0.5093 -0.3817  0.0043
 3835SOL    HW122967   4.520   1.261   1.041 -0.5065  0.3159  0.7311
 3835SOL    HW222968   4.396   1.322   1.092 -0.3443 -1.2907  0.3860
 3836SOL     OW22969   3.392   2.496   6.344  0.4743  0.1111 -0.1323
 3836SOL    HW122970   3.407   2.518   6.252  0.5857  0.1229 -0.1117
 3836SOL    HW222971   3.401   2.401   6.341 -1.4521 -0.0730 -0.2549
 3837SOL     OW22972   2.289   0.550   8.201  0.0056  0.2426 -0.8181
 3837SOL    HW122973   2.276   0.497   8.122 -1.6391  0.1319 -0.4743
 3837SOL    HW222974   2.218   0.519   8.258 -0.0382 -1.2702 -1.6854
 3838SOL     OW22975   4.603   3.345   3.753 -0.2103 -0.1051  0.2618
 3838SOL    HW122976   4.686   3.363   3.798 -1.1369  2.0894  1.0892
 3838SOL    HW222977   4.596   3.429   3.709 -1.1072 -0.2756  0.0841
 3839SOL     OW22978   0.980   1.182   3.900  0.1429  0.1012  0.1415
 3839SOL    HW122979   1.059   1.136   3.929 -1.7516 -1.9904  2.0406
 3839SOL    HW222980   0.932   1.105   3.871 -0.5741  1.1967 -1.5416
 3840SOL     OW22981   4.322   3.908  14.395  0.0742  0.0287 -0.1566
 3840SOL    HW122982   4.313   3.828  14.446  0.4361 -0.0704 -0.2496
 3840SOL    HW222983   4.374   3.963  14.454 -1.2729 -0.3856  1.4215
 3841SOL     OW22984   3.926   4.192   9.547  0.4108  0.2675 -0.3041
 3841SOL    HW122985   3.939   4.167   9.456 -1.0102 -0.1295 -0.3878
 3841SOL    HW222986   3.932   4.111   9.597 -2.5637  0.4784  0.4051
 3842SOL     OW22987   3.125   3.313   3.876 -0.6182 -0.1510  0.3041
 3842SOL    HW122988   3.116   3.408   3.883 -1.8559 -0.2532  0.0104
 3842SOL    HW222989   3.168   3.300   3.961 -1.2719 -0.9713  0.5110
 3843SOL     OW22990   0.271   0.906  10.211 -0.1781  0.3565 -0.0270
 3843SOL    HW122991   0.351   0.958  10.213  0.6016 -0.8609  0.4906
 3843SOL    HW222992   0.318   0.825  10.191 -1.4863 -0.8462  1.8725
 3844SOL     OW22993   4.439   1.867   6.117  0.2002 -0.1364  0.3941
 3844SOL    HW122994   4.515   1.813   6.137  0.9587 -0.0121 -2.0988
 3844SOL    HW222995   4.388   1.795   6.080 -3.1528  1.8768  1.1166
 3845SOL     OW22996   0.766   2.906   5.559  0.1580 -0.0050  0.1020
 3845SOL    HW122997   0.834   2.951   5.510 -2.0165  0.3697 -2.5798
 3845SOL    HW222998   0.821   2.901   5.637  1.0128  3.2168 -0.3073
 3846SOL     OW22999   1.757   3.774  11.426 -0.2085  0.0317  0.5731
 3846SOL    HW123000   1.705   3.772  11.506  0.1311  3.5589  0.8663
 3846SOL    HW223001   1.733   3.862  11.398 -0.5273  0.6140  2.7331
 3847SOL     OW23002   3.454   0.900   0.667 -0.3858 -0.0088 -0.3014
 3847SOL    HW123003   3.537   0.881   0.712 -0.4537 -0.1328 -0.2266
 3847SOL    HW223004   3.469   0.977   0.612 -1.4569  0.3307 -0.1106
 3848SOL     OW23005   3.830   4.712   0.769 -0.6215  0.5923  0.0836
 3848SOL    HW123006   3.888   4.657   0.715 -1.3838 -1.2504  1.1639
 3848SOL    HW223007   3.764   4.648   0.794  0.0308 -0.9908 -2.1676
 3849SOL     OW23008   3.708   3.507   3.020 -0.3318 -0.3786 -0.4882
 3849SOL    HW123009   3.636   3.466   3.068 -2.0592  2.5569 -0.5710
 3849SOL    HW223010   3.728   3.439   2.956 -1.6321 -0.0775 -1.2160
 3850SOL     OW23011   1.444   2.065  13.296  0.0206 -0.0515  0.4761
 3850SOL    HW123012   1.406   2.102  13.217 -1.7018 -0.3997  1.1399
 3850SOL    HW223013   1.445   1.971  13.276 -0.9431 -0.0357  0.3290
 3851SOL     OW23014   1.525   3.692   8.664 -0.0174 -0.4360  0.3102
 3851SOL    HW123015   1.466   3.624   8.697 -2.4160  1.3644 -0.3198
 3851SOL    HW223016   1.509   3.688   8.570 -1.3505  1.6579  0.4512
 3852SOL     OW23017   3.301   1.575  17.537 -0.5389 -0.2144  0.0979
 3852SOL    HW123018   3.272   1.599  17.625  0.2783 -1.8189  0.7887
 3852SOL    HW223019   3.216   1.591  17.495 -0.3169 -0.1469 -0.3253
 3853SOL     OW23020   2.907   4.420   8.805  0.4857  0.2522  0.3478
 3853SOL    HW123021   2.841   4.434   8.873  0.5439 -0.1502  0.4853
 3853SOL    HW223022   2.896   4.501   8.755 -1.9355  1.5157  2.9114
 3854SOL     OW23023   1.873   1.117  14.730  0.2713  0.2754  0.5906
 3854SOL    HW123024   1.860   1.193  14.674  0.2062 -0.5897 -0.5605
 3854SOL    HW223025   1.784   1.113  14.766  0.7863 -1.1624  1.7084
 3855SOL     OW23026   3.850   2.732   4.621  0.2857 -0.0984  0.4918
 3855SOL    HW123027   3.835   2.645   4.658 -0.7221  0.1870  0.7758
 3855SOL    HW223028   3.791   2.780   4.679  2.4563  1.0849  1.6911
 3856SOL     OW23029   2.768   0.658   5.341  0.1951 -0.1873  0.0182
 3856SOL    HW123030   2.846   0.646   5.287  0.9159 -1.4752  1.3455
 3856SOL    HW223031   2.805   0.652   5.429  1.3372  0.9406 -0.3785
 3857SOL     OW23032   2.516   1.118   2.125 -0.0992  0.2001 -0.1080
 3857SOL    HW123033   2.471   1.085   2.203  2.3874 -1.4058  0.6449
 3857SOL    HW223034   2.447   1.177   2.096 -1.0307 -1.5190 -1.3494
 3858SOL     OW23035   0.623   4.554   6.427  0.0503 -0.3349  0.1982
 3858SOL    HW123036   0.535   4.546   6.463 -0.7292  2.5080 -1.0945
 3858SOL    HW223037   0.678   4.506   6.489 -0.8038  1.1984  2.1306
 3859SOL     OW23038   3.981   0.633   6.788 -0.8465  0.9328  0.1285
 3859SOL    HW123039   4.048   0.612   6.854 -0.9813  0.1665  0.0295
 3859SOL    HW223040   3.988   0.552   6.737 -0.3461 -0.5936  2.5979
 3860SOL     OW23041   1.466   2.385  10.998 -0.1685 -0.1860  0.5710
 3860SOL    HW123042   1.561   2.375  10.986  0.1496  0.5720  2.4057
 3860SOL    HW223043   1.452   2.297  11.034 -0.7290 -0.8620 -1.3068
 3861SOL     OW23044   0.563   4.346   1.801  0.0029  0.2632 -0.1610
 3861SOL    HW123045   0.519   4.310   1.879 -0.9432  0.0509 -0.7922
 3861SOL    HW223046   0.489   4.357   1.741 -0.2774  1.3560  0.3778
 3862SOL     OW23047   4.472   0.897   8.310 -0.9846  0.3719  0.6105
 3862SOL    HW123048   4.401   0.843   8.346  0.3343 -0.5228  1.8880
 3862SOL    HW223049   4.427   0.971   8.268 -0.0282  0.5781 -0.0318
 3863SOL     OW23050   0.102   0.910   4.416  0.1821  0.0727  0.5986
 3863SOL    HW123051   0.121   0.851   4.489  0.7439 -2.1329 -1.3172
 3863SOL    HW223052   0.177   0.907   4.357 -1.3608 -1.3793 -1.3140
 3864SOL     OW23053   0.656   0.545  10.540  0.1882  0.4323 -0.1434
 3864SOL    HW123054   0.661   0.488  10.617  0.2837  2.2800  1.2260
 3864SOL    HW223055   0.664   0.475  10.476 -0.7698  0.3870 -0.2053
 3865SOL     OW23056   4.045   1.921   4.809 -0.0037  0.3808 -0.3617
 3865SOL    HW123057   3.996   1.929   4.727 -0.3668 -1.7744 -0.3471
 3865SOL    HW223058   3.981   1.965   4.865  1.3001  2.4169 -0.4420
 3866SOL     OW23059   1.637   3.827   9.498  0.2081  0.2818  0.5263
 3866SOL    HW123060   1.637   3.759   9.430 -1.1348  1.1600 -0.3459
 3866SOL    HW223061   1.590   3.774   9.563  1.0503  1.5358  2.1413
 3867SOL     OW23062   2.315   4.108   0.691 -0.1692  1.0823 -0.4833
 3867SOL    HW123063   2.392   4.126   0.638 -0.8790  0.3211 -1.7511
 3867SOL    HW223064   2.284   4.021   0.669  0.5570  0.7854 -0.3573
 3868SOL     OW23065   0.777   3.912   8.090 -0.2049 -0.1423 -0.5787
 3868SOL    HW123066   0.823   3.829   8.096 -0.5610 -0.2419  0.6876
 3868SOL    HW223067   0.782   3.936   7.997  0.0954 -0.9246 -0.7622
 3869SOL     OW23068   3.401   0.015   3.009 -0.6486 -0.2719 -0.0541
 3869SOL    HW123069   3.360   0.028   3.094  3.0508  2.9073  1.2452
 3869SOL    HW223070   3.387   4.647   2.996 -0.0840 -0.4566  0.7227
 3870SOL     OW23071   3.203   2.316  12.002  0.3269  0.1895  0.3521
 3870SOL    HW123072   3.155   2.398  12.012 -0.7102 -0.2550 -0.9401
 3870SOL    HW223073   3.199   2.278  12.090 -2.0118 -0.4796 -0.0181
 3871SOL     OW23074   0.950   2.238   7.167 -0.3826  0.0675 -0.0779
 3871SOL    HW123075   0.997   2.317   7.194  1.9542 -1.1699 -0.5005
 3871SOL    HW223076   0.977   2.219   7.078 -2.1131  1.7972 -0.9613
 3872SOL     OW23077   3.162   4.396   6.612  0.1720 -0.4197 -0.8666
 3872SOL    HW123078   3.195   4.463   6.671 -0.7313 -0.4851 -0.2968
 3872SOL    HW223079   3.168   4.322   6.673 -2.3941 -0.1426 -0.2796
 3873SOL     OW23080   4.235   0.849   9.518 -0.2998 -0.4215 -0.0884
 3873SOL    HW123081   4.233   0.869   9.424 -0.6680  0.5686  0.1218
 3873SOL    HW223082   4.266   0.934   9.549  0.2473 -1.2060  1.4912
 3874SOL     OW23083   0.629   3.134   7.839 -0.0712 -0.4833 -0.3969
 3874SOL    HW123084   0.548   3.086   7.821 -0.8504 -0.2605  2.4279
 3874SOL    HW223085   0.639   3.174   7.753  0.8226 -2.5276 -1.2447
 3875SOL     OW23086   0.724   2.001  17.590 -0.7300 -0.4567 -0.0781
 3875SOL    HW123087   0.633   1.987  17.614 -0.0661 -1.7829  1.6245
 3875SOL    HW223088   0.737   2.070  17.656  3.5598 -0.7178 -0.6180
 3876SOL     OW23089   4.489   2.094   4.431 -0.2584  0.2732 -0.0397
 3876SOL    HW123090   4.573   2.136   4.410  0.0199 -0.6191 -0.7142
 3876SOL    HW223091   4.452   2.092   4.343  1.9444 -1.1919 -0.9238
 3877SOL     OW23092   2.361   3.739   0.851 -0.8554 -0.4852  0.6168
 3877SOL    HW123093   2.291   3.794   0.816  0.4266  0.3296 -0.6941
 3877SOL    HW223094   2.354   3.770   0.941  1.5013 -0.5500  0.8321
 3878SOL     OW23095   2.180   3.346   7.169  0.2197 -0.2554 -0.3833
 3878SOL    HW123096   2.143   3.399   7.240  0.5374 -2.3608  1.3476
 3878SOL    HW223097   2.150   3.262   7.203  0.7336  0.3297  1.4888
 3879SOL     OW23098   1.561   3.716   3.730 -0.5818  0.3360 -0.0154
 3879SOL    HW123099   1.569   3.651   3.800  1.6046 -0.6073 -1.1307
 3879SOL    HW223100   1.602   3.793   3.771  0.4378 -0.2777  0.1240
 3880SOL     OW23101   1.570   3.466  16.383 -0.1204  0.3464  0.5660
 3880SOL    HW123102   1.591   3.554  16.416  0.4738  0.5306 -0.2951
 3880SOL    HW223103   1.567   3.418  16.465 -2.8032  0.1420  0.3256
 3881SOL     OW23104   2.404   1.012   9.473 -0.2796 -0.6801 -0.4819
 3881SOL    HW123105   2.489   0.994   9.432 -0.3195 -1.5184 -0.2017
 3881SOL    HW223106   2.425   1.102   9.500 -2.0764 -0.2220 -0.6439
 3882SOL     OW23107   0.182   2.085   8.959 -0.1123  0.2497  0.4004
 3882SOL    HW123108   0.114   2.148   8.982 -0.2848  0.3745 -0.4436
 3882SOL    HW223109   0.169   2.007   9.012  0.7016 -0.4492 -0.4279
 3883SOL     OW23110   2.760   2.924   8.650  0.0123  0.1380  0.7264
 3883SOL    HW123111   2.699   2.863   8.691 -2.0210  0.3161 -2.0436
 3883SOL    HW223112   2.775   2.875   8.569  1.1265  2.0855 -0.2459
 3884SOL     OW23113   2.962   2.838   0.966  0.4545  0.2356  0.0416
 3884SOL    HW123114   2.995   2.756   1.003  1.0292 -0.8368 -2.8068
 3884SOL    HW223115   2.869   2.818   0.958  0.3602  1.3480 -1.8432
 3885SOL     OW23116   1.773   0.578   8.115 -0.3058  0.0790  0.1716
 3885SOL    HW123117   1.746   0.569   8.207  0.5954  1.0610  0.5295
 3885SOL    HW223118   1.793   0.671   8.105  1.9417 -0.3712  0.3640
 3886SOL     OW23119   2.767   2.722  15.674  0.1873  0.0437  0.6038
 3886SOL    HW123120   2.854   2.728  15.634 -0.4962  1.8601 -0.6329
 3886SOL    HW223121   2.787   2.655  15.739  1.3576  0.1444  0.3403
 3887SOL     OW23122   2.751   0.539   7.525 -0.3404 -0.0542  0.1400
 3887SOL    HW123123   2.728   0.506   7.612 -0.5657  2.9848  1.2205
 3887SOL    HW223124   2.821   0.601   7.543  0.6932 -0.7812 -1.3805
 3888SOL     OW23125   2.289   1.555   8.683  0.1073 -0.1170  0.3090
 3888SOL    HW123126   2.327   1.626   8.631  0.3058 -0.4543  0.0030
 3888SOL    HW223127   2.242   1.515   8.610  1.2158  1.0594 -1.0314
 3889SOL     OW23128   3.603   3.652   8.604  0.1381 -0.0178  0.0552
 3889SOL    HW123129   3.575   3.596   8.532 -1.2696 -2.1701  2.2678
 3889SOL    HW223130   3.624   3.585   8.669 -1.4793 -1.6061 -1.0711
 3890SOL     OW23131   3.526   1.635   6.811 -0.5167 -0.2685  0.4078
 3890SOL    HW123132   3.495   1.708   6.757  0.1647 -0.0011  0.3794
 3890SOL    HW223133   3.475   1.566   6.768  0.6319  0.0395 -1.4391
 3891SOL     OW23134   2.517   3.441   4.483  0.7859  0.4025  0.6980
 3891SOL    HW123135   2.514   3.487   4.399  1.0101 -0.0582  0.4395
 3891SOL    HW223136   2.450   3.484   4.536 -0.2804 -0.4212  0.0404
 3892SOL     OW23137   3.506   1.139  11.073  0.4208 -0.2526 -0.0778
 3892SOL    HW123138   3.460   1.089  11.140  0.0645  0.1572 -0.0201
 3892SOL    HW223139   3.487   1.102  10.987 -1.0047  3.1527 -1.2319
 3893SOL     OW23140   2.516   3.541  11.823  0.1698 -0.6980 -0.4572
 3893SOL    HW123141   2.474   3.477  11.880  0.0347 -1.0859 -0.9892
 3893SOL    HW223142   2.601   3.524  11.862  0.5282  0.5150 -0.7057
 3894SOL     OW23143   3.347   3.898   1.927  0.4597 -0.2767 -0.1665
 3894SOL    HW123144   3.269   3.933   1.970  0.0195 -1.4892  0.0214
 3894SOL    HW223145   3.311   3.862   1.846  0.2662  0.3302 -0.3498
 3895SOL     OW23146   1.570   4.443  17.272  0.5467 -0.2079  0.6990
 3895SOL    HW123147   1.635   4.470  17.206  0.1997  1.3069  0.9797
 3895SOL    HW223148   1.495   4.499  17.251  0.7230 -0.1004  0.3467
 3896SOL     OW23149   3.478   1.378   7.140  0.0070  0.3382 -0.1638
 3896SOL    HW123150   3.428   1.338   7.070  2.9485 -1.2864 -1.3377
 3896SOL    HW223151   3.410   1.411   7.198 -0.6920  0.0199 -0.8100
 3897SOL     OW23152   0.304   3.378  14.685 -0.0415  0.1305  0.6543
 3897SOL    HW123153   0.221   3.394  14.640  0.4248 -0.2573 -0.3459
 3897SOL    HW223154   0.278   3.315  14.752  2.6546 -2.2963 -0.5876
 3898SOL     OW23155   1.229   4.377   5.919 -0.2916  0.6272  0.1730
 3898SOL    HW123156   1.250   4.420   6.002 -1.2798 -0.6804  1.0821
 3898SOL    HW223157   1.305   4.401   5.865 -0.5390 -2.0621 -1.3558
 3899SOL     OW23158   3.440   0.010   9.261 -0.3235 -0.0644 -0.2009
 3899SOL    HW123159   3.472   4.648   9.283  0.9003  0.5380  0.4716
 3899SOL    HW223160   3.476   0.063   9.332 -0.4008 -0.6734  0.2984
 3900SOL     OW23161   3.284   1.955   1.888  1.0759  0.2068 -0.1281
 3900SOL    HW123162   3.359   2.009   1.864  0.9719 -0.1586 -1.2786
 3900SOL    HW223163   3.214   2.020   1.890 -2.2205 -3.2800 -1.2694
 3901SOL     OW23164   0.683   1.124   1.349 -0.0616 -0.2466 -0.2940
 3901SOL    HW123165   0.717   1.057   1.290  0.0725 -0.3366 -0.1135
 3901SOL    HW223166   0.763   1.174   1.363 -1.0543  1.4023 -0.5230
 3902SOL     OW23167   0.307   1.954   2.290  0.2538 -0.0610  0.4151
 3902SOL    HW123168   0.356   1.965   2.209  1.1283 -0.5893  0.8791
 3902SOL    HW223169   0.343   1.871   2.319 -0.8996 -0.7570 -0.1489
 3903SOL     OW23170   4.614   1.655   2.938  0.4230  0.1635  0.0312
 3903SOL    HW123171   4.548   1.711   2.980 -1.2000 -1.1860 -0.7435
 3903SOL    HW223172   4.688   1.714   2.929  0.5121  0.2352  1.2396
 3904SOL     OW23173   0.461   4.321  16.865  0.0910  0.1753  0.3457
 3904SOL    HW123174   0.381   4.313  16.814  0.8347 -0.7795 -0.6919
 3904SOL    HW223175   0.459   4.243  16.921 -0.7538  0.2832  0.4541
 3905SOL     OW23176   0.175   3.021   3.516 -0.1274  0.5351  0.2745
 3905SOL    HW123177   0.089   3.043   3.553 -0.0330 -0.2129  0.9276
 3905SOL    HW223178   0.142   2.977   3.438  0.4159  0.8161 -0.1156
 3906SOL     OW23179   1.004   2.493   9.492  0.2076  0.2065 -0.5356
 3906SOL    HW123180   1.081   2.448   9.457  0.3343  1.3586 -1.7554
 3906SOL    HW223181   1.040   2.576   9.523  1.5984 -1.4050  2.1190
 3907SOL     OW23182   1.710   3.212   1.991  0.0606  0.6122 -0.1766
 3907SOL    HW123183   1.633   3.227   1.935  1.5224 -0.4125 -2.4720
 3907SOL    HW223184   1.781   3.229   1.929  2.3089 -3.4995  1.2981
 3908SOL     OW23185   2.582   3.854   4.267 -0.2276  0.6312 -0.2280
 3908SOL    HW123186   2.516   3.907   4.222 -0.1826  0.3092 -0.6821
 3908SOL    HW223187   2.647   3.838   4.198 -0.0533 -1.0472  0.3147
 3909SOL     OW23188   1.055   3.324  10.767 -0.1183  0.0358  0.1566
 3909SOL    HW123189   0.981   3.266  10.784  0.2395  0.2000  2.2161
 3909SOL    HW223190   1.114   3.253  10.740  0.5957  0.8401 -0.3953
 3910SOL     OW23191   2.244   3.829   3.214 -0.5228  0.3415 -0.2507
 3910SOL    HW123192   2.334   3.846   3.241  0.0348  1.5987 -2.9810
 3910SOL    HW223193   2.236   3.735   3.230  2.4908  0.0073 -0.5707
 3911SOL     OW23194   2.447   1.651   5.114 -0.1972  0.0118 -0.2510
 3911SOL    HW123195   2.421   1.583   5.052 -0.0351  0.2937 -0.6279
 3911SOL    HW223196   2.471   1.721   5.053 -2.6056  2.4249  1.5866
 3912SOL     OW23197   0.976   0.450  14.436 -0.1860 -0.6525  0.0587
 3912SOL    HW123198   0.987   0.383  14.504 -0.0064  0.2321  0.9073
 3912SOL    HW223199   0.893   0.487  14.464 -0.7027  0.9785 -3.7513
 3913SOL     OW23200   2.948   3.820   4.208  0.4507  0.6447  0.0876
 3913SOL    HW123201   2.959   3.913   4.226  0.6756  0.5159  0.6372
 3913SOL    HW223202   2.893   3.825   4.130  0.0038  0.5385  0.3886
 3914SOL     OW23203   4.372   2.303   0.115  0.3632 -0.2719  0.3554
 3914SOL    HW123204   4.298   2.326   0.171 -0.5383 -0.7683 -0.6304
 3914SOL    HW223205   4.442   2.292   0.180 -0.5575  1.0501  1.5658
 3915SOL     OW23206   4.546   2.002   2.473 -0.0997 -0.3962  0.0083
 3915SOL    HW123207   4.541   2.092   2.443  0.9441  0.1000  1.3242
 3915SOL    HW223208   4.630   1.970   2.439  0.8845  1.6522  0.5171
 3916SOL     OW23209   3.767   0.970   8.655  0.3372 -0.3249 -0.3064
 3916SOL    HW123210   3.804   1.057   8.640  1.1490 -0.4268  1.1057
 3916SOL    HW223211   3.713   0.996   8.730 -0.6851  1.4720 -1.6361
 3917SOL     OW23212   0.641   4.619   1.479  0.0198 -0.0554 -0.0225
 3917SOL    HW123213   0.623   4.673   1.557 -0.5320 -0.5583  0.1979
 3917SOL    HW223214   0.550   4.626   1.450  0.4202  1.0368 -1.0271
 3918SOL     OW23215   1.530   3.737   4.123  0.1996 -0.2362 -0.7748
 3918SOL    HW123216   1.466   3.666   4.121 -0.9401  0.7137  1.7483
 3918SOL    HW223217   1.596   3.704   4.062 -0.6239  0.6790 -2.1584
 3919SOL     OW23218   2.167   1.497  13.580  0.2864 -0.4761  0.1665
 3919SOL    HW123219   2.096   1.560  13.569  0.5454 -0.6152 -2.3555
 3919SOL    HW223220   2.191   1.506  13.672 -0.0918 -2.4365  0.4635
 3920SOL     OW23221   3.670   3.041   6.914 -0.3284  0.2446  0.5297
 3920SOL    HW123222   3.742   2.990   6.950  0.0905  0.7542  0.4121
 3920SOL    HW223223   3.624   3.055   6.997 -2.4572  0.7809 -0.7363
 3921SOL     OW23224   0.420   0.721   8.935  0.0114  0.0603  0.0891
 3921SOL    HW123225   0.459   0.808   8.930  0.3598 -0.1178 -0.2646
 3921SOL    HW223226   0.396   0.707   9.027  1.6214 -0.9129  0.3635
 3922SOL     OW23227   1.727   3.741   0.736 -0.5981  0.2646 -0.3466
 3922SOL    HW123228   1.674   3.819   0.754 -0.1195  0.3783  0.5587
 3922SOL    HW223229   1.739   3.737   0.641  0.1697  3.4761 -0.3645
 3923SOL     OW23230   3.369   0.866   8.104 -0.3857 -0.8019  0.1808
 3923SOL    HW123231   3.312   0.941   8.119  0.0683 -0.2462 -0.8716
 3923SOL    HW223232   3.380   0.833   8.193 -0.3467 -1.6109 -0.1229
 3924SOL     OW23233   0.292   1.154   4.492  0.5873 -0.8834 -0.3301
 3924SOL    HW123234   0.216   1.130   4.440  0.3675 -0.3423 -0.2610
 3924SOL    HW223235   0.353   1.191   4.428 -1.9266  0.0829 -2.1536
 3925SOL     OW23236   2.054   2.553   2.823  0.0309 -0.3583 -0.2278
 3925SOL    HW123237   2.108   2.631   2.810 -1.0944  0.5238  0.3778
 3925SOL    HW223238   2.108   2.501   2.882 -0.5403 -1.2188 -0.4656
 3926SOL     OW23239   2.162   4.109   7.143  0.3281 -0.9019  0.8697
 3926SOL    HW123240   2.145   4.093   7.236 -1.4267 -0.7750  0.5690
 3926SOL    HW223241   2.257   4.113   7.137  0.3162 -1.1442  0.5223
 3927SOL     OW23242   2.776   4.241   3.483  0.0644  0.0328 -1.0516
 3927SOL    HW123243   2.761   4.319   3.535 -3.3941 -2.9392  2.4336
 3927SOL    HW223244   2.830   4.277   3.412  2.0672 -1.6689 -0.3918
 3928SOL     OW23245   0.189   1.874   7.137 -0.0050  0.0167 -0.2152
 3928SOL    HW123246   0.240   1.870   7.056 -1.5366 -4.3059 -0.9085
 3928SOL    HW223247   0.163   1.782   7.139  0.0545  0.0367  1.4960
 3929SOL     OW23248   4.374   3.948   3.126  0.0667 -0.1295 -0.2488
 3929SOL    HW123249   4.425   3.867   3.134  0.7992  0.4844  1.1996
 3929SOL    HW223250   4.361   3.971   3.218 -0.3192  3.0190 -1.1096
 3930SOL     OW23251   1.634   1.005   5.473 -0.0232  0.4514  0.0402
 3930SOL    HW123252   1.585   1.055   5.539 -1.7103 -2.3634  0.9210
 3930SOL    HW223253   1.588   0.921   5.466  0.9275 -0.1811  1.3237
 3931SOL     OW23254   0.581   0.062   7.666  0.1278 -0.5702 -1.1640
 3931SOL    HW123255   0.636   0.024   7.734 -0.2100 -1.6401 -1.5004
 3931SOL    HW223256   0.536   4.708   7.637 -3.6096  0.0649  2.8179
 3932SOL     OW23257   3.161   4.048   7.174  0.0707  0.2933 -0.0443
 3932SOL    HW123258   3.192   4.016   7.089 -1.3502 -0.2606 -0.3434
 3932SOL    HW223259   3.239   4.028   7.226 -0.6730  0.0720  0.9767
 3933SOL     OW23260   0.226   1.659   4.233 -0.0633 -0.4968  0.0028
 3933SOL    HW123261   0.195   1.718   4.302 -0.1813 -0.1023 -0.3948
 3933SOL    HW223262   0.216   1.707   4.151  2.0010 -1.1965 -0.6512
 3934SOL     OW23263   2.793   0.804   3.838 -0.1815  0.0677 -0.4563
 3934SOL    HW123264   2.832   0.792   3.924 -1.6258  2.4078  0.5464
 3934SOL    HW223265   2.870   0.823   3.784  0.5988  0.0861  0.6689
 3935SOL     OW23266   4.120   1.690   6.799  0.4370  0.1040 -0.5027
 3935SOL    HW123267   4.050   1.649   6.850  1.0801 -0.6057 -0.1924
 3935SOL    HW223268   4.189   1.665   6.860 -0.1450  2.9057  1.2851
 3936SOL     OW23269   3.961   1.332   8.299 -0.5463 -0.2640 -0.3973
 3936SOL    HW123270   3.931   1.384   8.225  0.3386 -1.7267 -1.8000
 3936SOL    HW223271   3.983   1.251   8.252 -3.7071 -1.5383  0.3144
 3937SOL     OW23272   1.128   1.528  16.741  0.3405 -0.3801 -0.1831
 3937SOL    HW123273   1.158   1.507  16.829 -0.6992  1.2470  0.5630
 3937SOL    HW223274   1.205   1.512  16.687  1.5477 -0.4680  1.5821
 3938SOL     OW23275   3.806   2.649   2.296 -0.5108  0.0112 -0.3461
 3938SOL    HW123276   3.781   2.730   2.340  1.1190  0.9475 -1.1577
 3938SOL    HW223277   3.717   2.630   2.265 -0.4560 -2.4975  1.0594
 3939SOL     OW23278   0.608   2.008   5.306  0.1461  0.0892 -0.4697
 3939SOL    HW123279   0.668   1.990   5.378  0.1167  1.6186 -0.0494
 3939SOL    HW223280   0.672   2.061   5.258 -0.9262  1.7707 -0.0351
 3940SOL     OW23281   3.785   0.827  15.513  0.5797  0.5162  0.4408
 3940SOL    HW123282   3.756   0.896  15.453  1.9349 -0.1431 -0.9786
 3940SOL    HW223283   3.717   0.824  15.580  1.9140  0.7684  1.7885
 3941SOL     OW23284   0.807   0.972   5.310 -0.3556  0.2699  0.7905
 3941SOL    HW123285   0.860   0.923   5.374  0.5749  1.5680  1.0238
 3941SOL    HW223286   0.860   0.957   5.232 -1.6296  0.8207 -0.1639
 3942SOL     OW23287   3.881   0.584   5.144 -0.2348 -0.6062 -0.2695
 3942SOL    HW123288   3.850   0.663   5.099  1.3151 -1.0665 -2.1372
 3942SOL    HW223289   3.859   0.612   5.233 -0.7834 -0.2390 -0.5124
 3943SOL     OW23290   0.971   0.725   7.607  0.2561  0.6726  0.0010
 3943SOL    HW123291   0.969   0.740   7.701 -0.6917  2.6836 -0.3301
 3943SOL    HW223292   1.065   0.731   7.589  0.5986  0.9081  1.8584
 3944SOL     OW23293   1.572   4.339   6.756  0.7572  1.0218 -0.3711
 3944SOL    HW123294   1.654   4.348   6.805 -0.3497  2.4365  1.1826
 3944SOL    HW223295   1.591   4.334   6.662 -0.3598  1.4196 -0.6126
 3945SOL     OW23296   1.682   0.344  14.872  0.0665 -0.0261  0.3555
 3945SOL    HW123297   1.664   0.278  14.938 -0.1802 -0.0123  0.2992
 3945SOL    HW223298   1.726   0.299  14.799 -0.6900 -3.6248  2.1230
 3946SOL     OW23299   1.656   1.764   3.498 -0.4459 -0.1306 -0.7666
 3946SOL    HW123300   1.585   1.825   3.514  1.2265  1.1324  1.8181
 3946SOL    HW223301   1.706   1.785   3.576 -0.7246  0.5513 -0.7726
 3947SOL     OW23302   3.279   0.033   8.763 -0.5264  0.0760  0.3446
 3947SOL    HW123303   3.294   0.052   8.856 -0.4973 -2.2883  0.8427
 3947SOL    HW223304   3.363   0.051   8.720 -1.3409  2.1631 -0.3517
 3948SOL     OW23305   4.175   2.749   9.326  0.2303  0.3343 -0.8062
 3948SOL    HW123306   4.224   2.791   9.398 -0.7756  1.2774 -0.6727
 3948SOL    HW223307   4.095   2.724   9.371  1.0356 -1.2054 -0.2648
 3949SOL     OW23308   2.054   4.038  16.667 -0.4110 -0.2210 -0.1776
 3949SOL    HW123309   2.006   3.962  16.634 -1.8108 -0.2194  1.8518
 3949SOL    HW223310   1.991   4.102  16.635 -1.8144  0.5313  4.1662
 3950SOL     OW23311   4.647   4.209  17.246 -0.8178  0.8260 -0.3895
 3950SOL    HW123312   4.577   4.213  17.312  0.3497 -0.1796  0.9104
 3950SOL    HW223313   4.626   4.132  17.194 -0.3209  0.3134  0.1692
 3951SOL     OW23314   0.248   2.880  10.129  0.2291  0.3234 -0.4083
 3951SOL    HW123315   0.164   2.861  10.085  0.0038 -2.4356  1.2136
 3951SOL    HW223316   0.259   2.803  10.184  1.5407 -1.0998 -2.6351
 3952SOL     OW23317   3.207   1.553  16.381 -0.1133  0.2790 -0.0427
 3952SOL    HW123318   3.249   1.597  16.455  2.1778 -0.4261 -0.9373
 3952SOL    HW223319   3.284   1.529  16.330  0.6135  1.6200  0.4117
 3953SOL     OW23320   3.454   0.684   2.390  0.3144  0.8733 -0.3468
 3953SOL    HW123321   3.538   0.639   2.377 -0.6590 -1.0864  0.1271
 3953SOL    HW223322   3.480   0.740   2.462  1.0024 -1.3667  1.1485
 3954SOL     OW23323   4.462   0.281   0.623  0.4251 -0.3423 -0.2148
 3954SOL    HW123324   4.550   0.290   0.585 -0.4078  3.9175 -1.1628
 3954SOL    HW223325   4.431   0.372   0.616  2.0775  0.3293  1.2301
 3955SOL     OW23326   0.591   3.799   6.433  0.6992 -0.6066  0.2445
 3955SOL    HW123327   0.511   3.772   6.478  1.2337  2.2222  2.9007
 3955SOL    HW223328   0.558   3.889   6.430 -0.5476 -1.1398 -2.2782
 3956SOL     OW23329   3.704   2.802   3.225 -0.3898  0.0533 -0.1188
 3956SOL    HW123330   3.737   2.835   3.142 -0.3959 -2.1374 -0.9675
 3956SOL    HW223331   3.776   2.743   3.245  1.1918  2.8322  2.5405
 3957SOL     OW23332   4.348   2.252   5.525  0.2496 -0.1565  0.4618
 3957SOL    HW123333   4.265   2.299   5.536 -0.0528 -0.8421  1.0993
 3957SOL    HW223334   4.333   2.176   5.582  0.9115 -0.3015  0.4440
 3958SOL     OW23335   3.699   0.362   1.300 -0.3664 -0.4039 -0.0433
 3958SOL    HW123336   3.696   0.268   1.322 -4.3496  0.6559  3.8616
 3958SOL    HW223337   3.784   0.390   1.335  0.0478 -1.2851 -0.3298
 3959SOL     OW23338   1.947   2.985   7.509  0.2604  0.3187 -0.6629
 3959SOL    HW123339   1.911   3.047   7.572  0.9890  2.4975 -2.4118
 3959SOL    HW223340   1.996   2.928   7.569  1.1059  0.7599 -0.9545
 3960SOL     OW23341   0.826   1.108  11.439 -0.1615  0.1370  0.4443
 3960SOL    HW123342   0.913   1.072  11.456  0.3476 -0.1064 -2.5347
 3960SOL    HW223343   0.771   1.030  11.448  0.2039 -0.1844 -0.0746
 3961SOL     OW23344   1.309   3.174   1.916  0.5605  0.2956  0.0326
 3961SOL    HW123345   1.301   3.265   1.945 -1.6019 -0.3992  1.6486
 3961SOL    HW223346   1.391   3.174   1.868 -0.1110  0.2836 -1.1098
 3962SOL     OW23347   4.128   2.036   3.070  0.6633  0.4362 -0.3421
 3962SOL    HW123348   4.188   2.006   3.001 -0.8524 -1.8452 -0.6300
 3962SOL    HW223349   4.069   2.092   3.019  0.0397  2.2453  2.3833
 3963SOL     OW23350   1.993   4.723   6.155  0.7968  0.3236  0.2564
 3963SOL    HW123351   2.002   4.660   6.084 -0.3418 -1.7939  2.0178
 3963SOL    HW223352   1.964   0.071   6.101  0.4292  1.7413  2.4005
 3964SOL     OW23353   3.916   2.620   2.615 -0.7285  0.8155  0.2981
 3964SOL    HW123354   3.899   2.552   2.550 -0.1529 -1.2017  2.2595
 3964SOL    HW223355   3.888   2.695   2.563 -0.9593  0.3563 -0.2411
 3965SOL     OW23356   4.600   1.577  16.311 -0.0224 -0.2281 -0.4281
 3965SOL    HW123357   4.553   1.504  16.351 -0.0254 -0.0501 -0.1072
 3965SOL    HW223358   4.621   1.632  16.386 -2.3500 -0.8490  0.6860
 3966SOL     OW23359   0.537   2.220   9.524 -0.0180  0.1155 -0.1790
 3966SOL    HW123360   0.603   2.165   9.566  0.9829  0.4775 -1.2654
 3966SOL    HW223361   0.521   2.173   9.443  0.4503 -1.3555  0.5912
 3967SOL     OW23362   4.333   2.961  12.584 -0.1657  0.7135 -0.0603
 3967SOL    HW123363   4.390   2.886  12.572 -0.0039  1.2195 -2.3925
 3967SOL    HW223364   4.278   2.934  12.658  0.7300 -1.2537 -0.1148
 3968SOL     OW23365   2.376   3.368   1.887  0.3922 -0.2104 -0.0016
 3968SOL    HW123366   2.282   3.356   1.897  0.1166 -1.7296 -4.3896
 3968SOL    HW223367   2.394   3.333   1.800 -0.5355  2.8463 -1.4291
 3969SOL     OW23368   2.871   0.169   4.258  0.0025 -0.0394 -0.4953
 3969SOL    HW123369   2.782   0.135   4.260 -0.5570  1.4842 -0.4002
 3969SOL    HW223370   2.878   0.192   4.165  0.3485  0.6700 -0.2884
 3970SOL     OW23371   3.749   0.310   3.361 -0.5611  0.4490 -0.4089
 3970SOL    HW123372   3.697   0.386   3.333  1.5012  2.0192  0.0534
 3970SOL    HW223373   3.731   0.253   3.286  1.0646  1.5099 -1.5899
 3971SOL     OW23374   1.472   1.527   3.833  0.1466  0.7856 -0.2332
 3971SOL    HW123375   1.444   1.619   3.839  0.1456  0.7703 -0.0067
 3971SOL    HW223376   1.396   1.492   3.879  1.6736  1.2239  2.6557
 3972SOL     OW23377   3.471   2.122  16.360 -0.3559 -0.1289 -0.4011
 3972SOL    HW123378   3.406   2.177  16.404  0.7350  0.0851  0.9421
 3972SOL    HW223379   3.411   2.083  16.296 -0.2930 -0.1241 -0.4625
 3973SOL     OW23380   3.151   3.098   9.906 -0.0394 -0.2788 -0.2431
 3973SOL    HW123381   3.096   3.019   9.912  1.7277 -1.3944  1.3005
 3973SOL    HW223382   3.154   3.115   9.812 -3.0202  0.9172 -0.1122
 3974SOL     OW23383   3.528   2.553   6.675  0.4588 -0.5831  0.2624
 3974SOL    HW123384   3.448   2.593   6.709  1.0049 -0.5869  1.5542
 3974SOL    HW223385   3.501   2.462   6.686 -1.3588 -0.1590 -0.7723
 3975SOL     OW23386   3.303   0.885   5.962 -0.1077  0.9527  0.2874
 3975SOL    HW123387   3.245   0.813   5.986  1.2962 -0.6571 -1.0920
 3975SOL    HW223388   3.343   0.899   6.048 -1.2613  0.4686  0.9042
 3976SOL     OW23389   1.326   3.084   3.076  0.0215 -0.3365  0.0574
 3976SOL    HW123390   1.386   3.151   3.109 -3.0493  1.3139  2.2303
 3976SOL    HW223391   1.384   3.057   3.005  0.9873  1.7362  0.0708
 3977SOL     OW23392   1.379   3.738   7.213  0.0691 -0.2947  0.5823
 3977SOL    HW123393   1.460   3.687   7.209 -0.0216 -0.2381 -2.0416
 3977SOL    HW223394   1.383   3.798   7.139 -0.4282 -0.2640  0.5778
 3978SOL     OW23395   1.343   1.399   7.200 -0.0292 -1.0003  0.0303
 3978SOL    HW123396   1.370   1.307   7.196  1.1081 -0.6953  0.6574
 3978SOL    HW223397   1.256   1.383   7.162  0.3451  1.8210 -1.9599
 3979SOL     OW23398   2.972   0.405   6.884 -0.1658 -0.2158 -0.1142
 3979SOL    HW123399   2.985   0.335   6.948 -2.0573 -0.8193 -0.3810
 3979SOL    HW223400   2.944   0.361   6.803 -0.6669  1.4906 -0.8659
 3980SOL     OW23401   4.544   1.466   6.692 -0.1358 -0.2933 -0.3412
 3980SOL    HW123402   4.513   1.455   6.782 -0.0006 -1.1939 -0.3991
 3980SOL    HW223403   4.594   1.547   6.695  2.9463 -2.0820 -3.6415
 3981SOL     OW23404   2.685   2.111   8.883  0.4046  0.0237 -0.0699
 3981SOL    HW123405   2.713   2.070   8.965 -1.2305  0.0437  0.5023
 3981SOL    HW223406   2.652   2.031   8.843 -1.2438  0.4787  0.4057
 3982SOL     OW23407   0.789   0.703   8.620  0.0257  0.7060  0.4887
 3982SOL    HW123408   0.806   0.722   8.527  1.3610 -2.2722  0.1117
 3982SOL    HW223409   0.864   0.745   8.662  0.5299 -0.7867  1.0548
 3983SOL     OW23410   3.018   1.885  17.610  0.1469 -0.1011 -0.0737
 3983SOL    HW123411   3.025   1.791  17.596  0.2879  0.0424 -0.9955
 3983SOL    HW223412   3.048   1.928  17.529 -0.3120  1.2791  0.4911
 3984SOL     OW23413   1.744   1.930   9.698 -0.0476 -0.3651 -0.5025
 3984SOL    HW123414   1.771   1.911   9.608  2.9347  1.3689  0.0502
 3984SOL    HW223415   1.818   1.944   9.756 -0.6491  1.8176 -0.2602
 3985SOL     OW23416   2.253   1.924  14.405  0.1479  0.1015 -0.3631
 3985SOL    HW123417   2.170   1.956  14.370 -0.7643 -0.5374  1.2194
 3985SOL    HW223418   2.318   1.988  14.374  1.2341 -1.5242 -1.4631
 3986SOL     OW23419   1.590   0.409   0.549  0.3282 -0.0327 -0.2271
 3986SOL    HW123420   1.671   0.450   0.516 -2.5248  1.3106 -5.5024
 3986SOL    HW223421   1.602   0.317   0.527 -1.3539  0.4451 -3.0474
 3987SOL     OW23422   0.541   0.285  16.534 -0.4881 -0.1809  0.0154
 3987SOL    HW123423   0.615   0.343  16.554  1.0151 -1.3177 -2.2842
 3987SOL    HW223424   0.576   0.267  16.447 -2.1236  2.1426 -1.1395
 3988SOL     OW23425   3.530   3.126   9.234  0.1625  0.1829 -0.0225
 3988SOL    HW123426   3.623   3.106   9.245 -0.2890 -1.8419  0.0360
 3988SOL    HW223427   3.530   3.219   9.210  2.1895  0.7789  2.2203
 3989SOL     OW23428   4.076   1.242   5.976  0.0532  0.4765 -0.3675
 3989SOL    HW123429   4.099   1.193   5.897 -2.0604 -0.1290 -0.5886
 3989SOL    HW223430   4.112   1.179   6.038 -0.5671 -0.1099 -0.6034
 3990SOL     OW23431   3.633   4.258   3.087 -0.5439 -0.3462  0.0835
 3990SOL    HW123432   3.589   4.248   3.003  1.3044 -0.6081 -0.8667
 3990SOL    HW223433   3.567   4.256   3.156 -0.2217 -1.5660  0.3629
 3991SOL     OW23434   4.596   4.435   8.290 -0.4444 -0.1647  0.0124
 3991SOL    HW123435   4.612   4.449   8.196 -3.8075 -1.8069 -0.8295
 3991SOL    HW223436   4.536   4.503   8.320  0.8833  1.3939 -0.8526
 3992SOL     OW23437   1.741   4.482  12.671 -0.1958  0.0880  0.3882
 3992SOL    HW123438   1.805   4.551  12.652  0.0512  0.0526  1.0811
 3992SOL    HW223439   1.694   4.512  12.749  0.2916  1.5828  0.1115
 3993SOL     OW23440   0.496   2.836   8.230 -0.6983  0.3298 -0.2040
 3993SOL    HW123441   0.533   2.882   8.305  1.5865 -0.7881 -0.6352
 3993SOL    HW223442   0.406   2.866   8.217 -0.3807  0.9356 -1.0120
 3994SOL     OW23443   3.605   0.664   4.552 -0.4600  0.1185 -0.0352
 3994SOL    HW123444   3.698   0.644   4.537 -0.2303  0.5282  0.8841
 3994SOL    HW223445   3.562   0.592   4.506  1.2352 -1.5503  1.0048
 3995SOL     OW23446   3.793   4.707   6.472  0.5685 -0.3311  0.4543
 3995SOL    HW123447   3.873   0.014   6.515  0.1504  1.3270 -0.0147
 3995SOL    HW223448   3.835   4.656   6.403  2.0595  0.3822  0.8195
 3996SOL     OW23449   2.071   1.471   1.866  0.4220 -0.3515  0.0629
 3996SOL    HW123450   1.986   1.428   1.857  0.2893  0.1897 -1.3525
 3996SOL    HW223451   2.133   1.398   1.869  0.1765 -0.5962 -0.9086
 3997SOL     OW23452   3.960   4.122   9.288 -0.2152 -0.2146 -0.8267
 3997SOL    HW123453   3.880   4.097   9.242 -0.1783 -0.9205 -0.4928
 3997SOL    HW223454   3.999   4.170   9.215 -1.8887  0.4760 -1.2723
 3998SOL     OW23455   2.619   3.441   8.648  0.2204  0.1530  0.4856
 3998SOL    HW123456   2.563   3.364   8.655 -1.3440  1.2911  0.4433
 3998SOL    HW223457   2.707   3.406   8.665 -0.2405  0.3055  3.0956
 3999SOL     OW23458   3.681   0.598   7.442 -0.1971 -0.5535 -0.5368
 3999SOL    HW123459   3.684   0.690   7.469 -1.0012 -0.8628  0.5799
 3999SOL    HW223460   3.591   0.585   7.473  0.1005 -0.2325  0.4630
 4000SOL     OW23461   1.348   2.785   7.225  0.5829  0.1666  0.7533
 4000SOL    HW123462   1.312   2.740   7.149 -0.8746  1.3892  0.7210
 4000SOL    HW223463   1.275   2.846   7.235  0.1682 -0.5658  2.1737
 4001SOL     OW23464   3.611   1.040   2.295 -0.6603 -0.1367 -0.2690
 4001SOL    HW123465   3.612   0.974   2.226 -0.9459 -1.3169  0.8407
 4001SOL    HW223466   3.701   1.065   2.314 -0.3398 -1.0821 -0.5563
 4002SOL     OW23467   0.596   1.763   0.799 -0.1868 -0.3092 -0.0825
 4002SOL    HW123468   0.672   1.706   0.802  0.9233  1.2491  1.1522
 4002SOL    HW223469   0.594   1.774   0.894  3.0413  2.1158 -0.3110
 4003SOL     OW23470   4.253   4.608  17.281  0.1142  0.1119  0.3717
 4003SOL    HW123471   4.202   4.653  17.348 -1.2448 -2.3172  0.9560
 4003SOL    HW223472   4.230   4.655  17.201 -1.6705  0.4441  1.0795
 4004SOL     OW23473   2.264   0.855   5.093 -0.3460  0.3077  0.4220
 4004SOL    HW123474   2.242   0.783   5.034  0.9423 -0.3126  0.7025
 4004SOL    HW223475   2.296   0.813   5.173  1.4935  1.4997  0.3265
 4005SOL     OW23476   0.045   2.889   3.337  0.4154 -0.2168 -0.3141
 4005SOL    HW123477   4.697   2.829   3.337  1.6939 -1.7813  3.5787
 4005SOL    HW223478   0.077   2.876   3.248 -1.5901 -0.1255 -1.0446
 4006SOL     OW23479   1.523   3.753   9.131 -0.1860 -0.0197 -0.2116
 4006SOL    HW123480   1.585   3.707   9.188 -1.8559 -0.7369  1.0533
 4006SOL    HW223481   1.579   3.766   9.055  0.4889 -1.4416  0.0387
 4007SOL     OW23482   2.276   0.310   5.460  0.4629  0.2902 -0.3253
 4007SOL    HW123483   2.340   0.375   5.432 -1.2824  2.1748  0.1008
 4007SOL    HW223484   2.196   0.358   5.438  0.0851 -0.8074 -1.3785
 4008SOL     OW23485   3.110   3.508   8.815 -0.1604 -0.2919 -0.0519
 4008SOL    HW123486   3.056   3.468   8.883 -0.1717  1.3585  0.9193
 4008SOL    HW223487   3.076   3.467   8.735 -1.2323  0.8828 -0.2081
 4009SOL     OW23488   2.401   0.452   2.510  0.0778 -0.3879 -0.5028
 4009SOL    HW123489   2.383   0.387   2.441 -0.8702  0.8799 -1.4616
 4009SOL    HW223490   2.378   0.530   2.460  1.2089  0.9017  0.9883
 4010SOL     OW23491   4.649   0.285   4.113 -0.4341 -0.0993  0.0067
 4010SOL    HW123492   0.005   0.321   4.080  0.4094  0.0003  2.1847
 4010SOL    HW223493   4.642   0.205   4.060  0.8051 -1.1080  1.3493
 4011SOL     OW23494   1.870   4.258   3.615  0.0657  0.1549  0.2202
 4011SOL    HW123495   1.840   4.247   3.525 -0.9161 -0.7629  0.6512
 4011SOL    HW223496   1.800   4.233   3.675  0.3355  0.9110  0.8468
 4012SOL     OW23497   3.908   3.910   6.759 -0.1163 -0.3910  0.2689
 4012SOL    HW123498   3.871   3.991   6.792 -0.7615 -0.5605 -0.0514
 4012SOL    HW223499   3.861   3.845   6.811  0.3789 -2.1866 -1.5086
 4013SOL     OW23500   2.834   3.140   7.582 -0.4481  0.5888  0.3210
 4013SOL    HW123501   2.905   3.080   7.558 -1.4674  0.1000 -1.4515
 4013SOL    HW223502   2.771   3.074   7.612  1.1114 -2.0003 -2.0701
 4014SOL     OW23503   2.458   1.705   3.122  0.0048 -0.3105 -0.5775
 4014SOL    HW123504   2.373   1.687   3.162  0.9256  3.1318  2.8229
 4014SOL    HW223505   2.489   1.621   3.087 -2.6221 -0.6293 -2.1096
 4015SOL     OW23506   3.807   4.229  10.517  0.4192  0.7530 -0.0390
 4015SOL    HW123507   3.874   4.208  10.452  0.4828  0.7827  0.0166
 4015SOL    HW223508   3.869   4.269  10.579  0.3668  0.3901  0.2449
 4016SOL     OW23509   1.732   3.961   2.814 -0.0034  0.8590 -0.0493
 4016SOL    HW123510   1.773   4.046   2.797  1.8395  0.1975  1.0415
 4016SOL    HW223511   1.650   3.968   2.766 -1.7134 -0.0980  2.7245
 4017SOL     OW23512   1.495   4.307  14.031  0.3378  0.1978 -0.3950
 4017SOL    HW123513   1.464   4.228  14.074 -0.9621  0.3349 -1.0697
 4017SOL    HW223514   1.550   4.275  13.959  0.3207  0.7239 -0.6459
 4018SOL     OW23515   1.781   2.340   8.689  0.3538 -0.5451 -0.0660
 4018SOL    HW123516   1.837   2.416   8.673 -1.2718  0.3920 -1.3741
 4018SOL    HW223517   1.708   2.349   8.626  0.7189 -0.4546 -0.4772
 4019SOL     OW23518   4.560   3.899   8.819  0.1223 -0.0011 -0.8239
 4019SOL    HW123519   4.532   3.814   8.784 -1.9835 -0.0361  0.9396
 4019SOL    HW223520   4.543   3.954   8.742  0.3039  1.5548  0.2387
 4020SOL     OW23521   1.312   2.771  15.012 -0.2555 -0.6201  0.7118
 4020SOL    HW123522   1.337   2.694  15.064 -1.0546 -1.6144 -0.3855
 4020SOL    HW223523   1.218   2.757  15.018 -0.5144  0.1970 -1.7644
 4021SOL     OW23524   2.369   1.475   0.982 -0.0428 -0.1656  0.2559
 4021SOL    HW123525   2.383   1.422   1.061  2.8671 -1.7450 -1.3353
 4021SOL    HW223526   2.439   1.457   0.919 -0.0945  0.6853 -0.0484
 4022SOL     OW23527   4.200   4.626  13.174  0.0344  0.1414  0.1289
 4022SOL    HW123528   4.167   4.639  13.263 -2.7751  0.4063 -0.9573
 4022SOL    HW223529   4.273   4.565  13.188  1.7525  2.4468  1.1197
 4023SOL     OW23530   4.491   0.655   4.853 -0.4921  0.5153  0.0423
 4023SOL    HW123531   4.460   0.663   4.944  0.1383  2.5420  0.0777
 4023SOL    HW223532   4.564   0.594   4.867 -0.3205  0.4886 -0.9641
 4024SOL     OW23533   4.063   1.846   2.219  0.1916  0.5080 -0.1164
 4024SOL    HW123534   3.987   1.903   2.224 -1.0372 -1.1753  0.3162
 4024SOL    HW223535   4.059   1.823   2.126 -2.5502 -1.2650  0.4492
 4025SOL     OW23536   0.840   3.331  10.389  0.6808 -0.7243 -0.2792
 4025SOL    HW123537   0.822   3.237  10.392  1.6234 -0.9981 -2.5053
 4025SOL    HW223538   0.931   3.331  10.359  0.7989 -0.7771  0.0848
 4026SOL     OW23539   0.947   4.123  16.454 -0.4302  0.3384  0.5331
 4026SOL    HW123540   1.009   4.159  16.517  1.2863  1.6523 -1.9308
 4026SOL    HW223541   0.967   4.166  16.371 -1.1105 -1.5880 -0.6266
 4027SOL     OW23542   2.513   2.771   5.527  0.1311 -0.2026  0.5647
 4027SOL    HW123543   2.571   2.730   5.463  1.3329  2.7778 -0.2455
 4027SOL    HW223544   2.563   2.850   5.545  0.9962 -0.7586  0.5844
 4028SOL     OW23545   2.631   3.723   0.907 -0.3067  0.0680 -0.3446
 4028SOL    HW123546   2.627   3.667   0.985  0.3095 -0.8664 -0.9803
 4028SOL    HW223547   2.541   3.755   0.901  0.5396  2.0273 -2.2958
 4029SOL     OW23548   3.142   1.241   1.708  0.0579 -0.1621 -0.4677
 4029SOL    HW123549   3.093   1.251   1.790  1.5718  0.3830  0.3827
 4029SOL    HW223550   3.175   1.151   1.713  4.2336  1.3551 -1.2641
 4030SOL     OW23551   3.817   3.501   9.696  0.0843  0.0710 -0.0988
 4030SOL    HW123552   3.810   3.572   9.760 -1.0231  0.9822 -1.2466
 4030SOL    HW223553   3.881   3.538   9.636 -0.8103 -0.5498 -1.4309
 4031SOL     OW23554   1.517   2.688   5.640  0.1973  0.3504 -0.2599
 4031SOL    HW123555   1.594   2.631   5.641  0.1602  0.3829  2.7187
 4031SOL    HW223556   1.480   2.693   5.551 -1.1693  1.9675  0.3911
 4032SOL     OW23557   1.430   3.094   4.789 -0.0401  0.6019 -0.2014
 4032SOL    HW123558   1.440   3.173   4.736  2.1518  1.6450  1.7529
 4032SOL    HW223559   1.519   3.092   4.826 -0.8321 -1.1685  1.6010
 4033SOL     OW23560   2.461   4.504   8.511  0.1446  0.3928  0.0619
 4033SOL    HW123561   2.541   4.482   8.557 -0.5631 -0.2845  0.9644
 4033SOL    HW223562   2.490   4.583   8.465  0.4833 -0.1506 -0.6712
 4034SOL     OW23563   2.405   3.360   5.717  0.0240  0.6580  0.5646
 4034SOL    HW123564   2.486   3.391   5.678 -0.1193  0.9800  0.5264
 4034SOL    HW223565   2.425   3.274   5.754 -0.3042 -0.0802 -0.9727
 4035SOL     OW23566   3.560   0.366   0.070 -0.4019 -0.1923 -0.2068
 4035SOL    HW123567   3.473   0.405   0.062 -0.2698  0.3716  1.0886
 4035SOL    HW223568   3.625   0.435   0.085  0.3973 -1.4843  2.4491
 4036SOL     OW23569   1.170   2.424   7.001  0.2065  0.0695 -0.0402
 4036SOL    HW123570   1.233   2.388   7.063 -1.7125  0.2396  2.0063
 4036SOL    HW223571   1.177   2.519   7.011  0.9747 -0.0097  0.1418
 4037SOL     OW23572   1.579   0.801   7.242 -0.0575  0.3166 -0.2707
 4037SOL    HW123573   1.507   0.796   7.305 -0.1829  1.7308 -0.2943
 4037SOL    HW223574   1.626   0.719   7.255  3.0149  2.2247  0.7968
 4038SOL     OW23575   4.152   4.253   7.582  0.3087 -0.3024  0.2515
 4038SOL    HW123576   4.153   4.344   7.614 -1.4675 -0.5769  1.1030
 4038SOL    HW223577   4.094   4.203   7.639  0.9605 -0.5802  0.6828
 4039SOL     OW23578   2.891   0.902  16.892 -0.0490 -0.1827  0.0039
 4039SOL    HW123579   2.800   0.882  16.914  0.1559  0.0520  1.0814
 4039SOL    HW223580   2.909   0.808  16.892  0.4596 -0.0944  1.2668
 4040SOL     OW23581   1.901   0.964   4.176  0.0549  0.0395  0.1849
 4040SOL    HW123582   1.815   0.933   4.150  0.4567 -1.7210  0.9110
 4040SOL    HW223583   1.941   0.967   4.089  1.0303 -1.2306  0.5890
 4041SOL     OW23584   3.990   4.050  14.853 -0.0107  0.5484  0.4892
 4041SOL    HW123585   3.984   3.973  14.796 -0.3953  0.8494  0.1227
 4041SOL    HW223586   4.013   4.120  14.792  1.5577 -0.0597  0.3957
 4042SOL     OW23587   4.115   2.003   3.616 -0.1018  0.2885  0.6376
 4042SOL    HW123588   4.164   2.073   3.658 -0.8107  1.0875  0.1388
 4042SOL    HW223589   4.187   1.957   3.574  1.1980  1.0947  2.0090
 4043SOL     OW23590   1.443   3.844   5.037 -0.3747 -0.2148  0.1786
 4043SOL    HW123591   1.382   3.770   5.030 -1.4052  0.4300  2.0674
 4043SOL    HW223592   1.448   3.851   5.133  2.7149  4.6171 -0.4035
 4044SOL     OW23593   3.669   4.278   8.373  0.2240 -0.6737  0.1399
 4044SOL    HW123594   3.658   4.208   8.438 -1.0916 -1.8942 -1.3953
 4044SOL    HW223595   3.590   4.331   8.380  1.3433  1.0538 -0.3342
 4045SOL     OW23596   1.512   4.230  11.495  0.2640  0.0284 -0.1205
 4045SOL    HW123597   1.491   4.310  11.446  2.4384 -0.4492 -1.8182
 4045SOL    HW223598   1.429   4.208  11.537  1.0495  2.1869  2.4846
 4046SOL     OW23599   4.550   0.260   6.289  0.1613  0.2464  0.0420
 4046SOL    HW123600   4.530   0.290   6.377 -0.0732  0.6847 -0.1568
 4046SOL    HW223601   4.581   0.335   6.238  0.4509  0.3937  0.4352
 4047SOL     OW23602   0.725   1.343   6.872  0.4540 -0.6615 -0.2880
 4047SOL    HW123603   0.686   1.425   6.841  0.6376  0.1812  1.7282
 4047SOL    HW223604   0.731   1.300   6.787  3.0345 -1.3947  0.2675
 4048SOL     OW23605   1.103   3.649  11.680 -1.0506 -0.1066  0.1399
 4048SOL    HW123606   1.046   3.575  11.659  0.1843 -1.0255  0.0782
 4048SOL    HW223607   1.041   3.718  11.703 -2.5863 -1.5423  0.3327
 4049SOL     OW23608   1.268   1.060   2.618  0.6335  0.3419 -0.0902
 4049SOL    HW123609   1.290   1.139   2.569 -1.4459  0.8587 -0.1932
 4049SOL    HW223610   1.326   0.997   2.575  0.5098  0.2562 -0.1291
 4050SOL     OW23611   3.017   2.097   1.109 -0.0277 -0.0629  0.5449
 4050SOL    HW123612   3.063   2.096   1.192 -1.6861  3.5952  1.4986
 4050SOL    HW223613   3.081   2.035   1.072  0.8846  2.7825 -2.7052
 4051SOL     OW23614   3.236   3.085   7.381 -0.3932 -0.1165  0.1527
 4051SOL    HW123615   3.170   3.026   7.417 -0.2323 -0.0387  0.5797
 4051SOL    HW223616   3.316   3.045   7.417  0.5806  1.2148 -0.5356
 4052SOL     OW23617   2.784   3.320   9.638 -0.1318  0.1383 -0.6087
 4052SOL    HW123618   2.823   3.264   9.570 -1.0729  0.9250 -1.8145
 4052SOL    HW223619   2.840   3.398   9.637  1.0858 -0.7392 -1.9181
 4053SOL     OW23620   1.073   4.213   7.737  0.0311  0.7083 -0.3885
 4053SOL    HW123621   1.009   4.283   7.747 -1.9849 -1.0944 -0.6166
 4053SOL    HW223622   1.104   4.210   7.827 -0.4563 -2.4620 -0.3004
 4054SOL     OW23623   0.325   3.089   8.698  0.1486 -0.1079 -0.2939
 4054SOL    HW123624   0.417   3.072   8.675  0.3479  1.2003 -0.5057
 4054SOL    HW223625   0.315   3.181   8.672 -0.8122 -0.1785 -0.1738
 4055SOL     OW23626   2.663   2.434   1.099 -0.3186  0.0996 -0.3029
 4055SOL    HW123627   2.632   2.394   1.018  3.6294  0.5753 -2.0373
 4055SOL    HW223628   2.754   2.461   1.086 -0.4714 -0.2589 -2.1763
 4056SOL     OW23629   0.144   1.543   9.443  0.2436 -0.1149 -0.4331
 4056SOL    HW123630   0.078   1.600   9.403 -1.0614 -0.0430  1.7989
 4056SOL    HW223631   0.165   1.494   9.364 -0.5119 -1.6070  0.2726
 4057SOL     OW23632   2.154   3.220   4.109  0.1752 -0.1353 -0.0132
 4057SOL    HW123633   2.240   3.256   4.127  0.1773 -0.2503  0.2087
 4057SOL    HW223634   2.159   3.216   4.013 -1.7246 -1.4208 -0.0578
 4058SOL     OW23635   4.221   1.306  10.808  0.7967 -0.2342  0.5737
 4058SOL    HW123636   4.195   1.267  10.724  0.7361  0.4040  0.2930
 4058SOL    HW223637   4.314   1.316  10.789  0.6524  1.2705  0.6271
 4059SOL     OW23638   1.334   3.441   9.553  0.4556  0.1499 -0.1074
 4059SOL    HW123639   1.373   3.375   9.497 -0.4331 -1.9615  1.7804
 4059SOL    HW223640   1.273   3.480   9.491  1.0035  0.2038 -0.6055
 4060SOL     OW23641   2.238   0.637   1.241  0.2157  0.2139  0.1531
 4060SOL    HW123642   2.259   0.688   1.319  1.5207 -0.8022  0.4638
 4060SOL    HW223643   2.319   0.586   1.240  0.4803  0.6389  0.0936
 4061SOL     OW23644   2.522   1.275  15.019  0.3853 -0.7267 -0.0381
 4061SOL    HW123645   2.580   1.208  15.055  0.8818 -0.0112  0.4757
 4061SOL    HW223646   2.504   1.244  14.930 -1.7020 -3.0497  1.2139
 4062SOL     OW23647   1.195   0.030  12.293  0.4452  0.0273 -0.0932
 4062SOL    HW123648   1.111   0.051  12.335 -0.5847  0.2007 -2.2565
 4062SOL    HW223649   1.168   4.694  12.225 -1.1286 -1.0341  1.4706
 4063SOL     OW23650   2.381   4.283   3.638 -0.2919  0.5445  0.3799
 4063SOL    HW123651   2.330   4.343   3.693 -2.0602 -1.1245  0.5616
 4063SOL    HW223652   2.451   4.257   3.698 -1.0044 -2.5174 -0.1451
 4064SOL     OW23653   3.162   2.159   5.832  0.6452  0.3887 -0.2684
 4064SOL    HW123654   3.195   2.086   5.780  1.7256 -0.5332  1.7059
 4064SOL    HW223655   3.169   2.136   5.925  0.5612 -1.3009 -0.6863
 4065SOL     OW23656   2.255   4.403   1.112  0.1204 -0.6648  0.2622
 4065SOL    HW123657   2.341   4.361   1.114  0.5143  0.2689  2.6480
 4065SOL    HW223658   2.254   4.443   1.199 -1.5566  0.7696 -0.4229
 4066SOL     OW23659   0.864   3.213   4.377 -0.2451  0.5624 -0.7709
 4066SOL    HW123660   0.770   3.210   4.364 -0.3927 -0.8350  0.5003
 4066SOL    HW223661   0.885   3.265   4.455 -4.0140 -0.6244  1.0105
 4067SOL     OW23662   2.500   4.217   7.814  0.8308 -0.3466  0.2606
 4067SOL    HW123663   2.490   4.223   7.719 -1.3774  1.9432  0.6395
 4067SOL    HW223664   2.519   4.307   7.841 -0.9766  0.8491 -2.5432
 4068SOL     OW23665   2.553   2.177   5.224  0.4635 -0.2339 -0.1704
 4068SOL    HW123666   2.504   2.095   5.220  1.6623 -0.9700  0.4407
 4068SOL    HW223667   2.558   2.203   5.132 -1.3677  0.5614 -0.0374
 4069SOL     OW23668   3.398   3.868   2.208  0.0899  0.3992 -0.3137
 4069SOL    HW123669   3.386   3.922   2.130  0.1186 -1.2272 -1.4373
 4069SOL    HW223670   3.466   3.813   2.169 -1.5395 -0.9541 -1.1887
 4070SOL     OW23671   4.088   0.558   6.497 -0.0437 -0.0407  0.4129
 4070SOL    HW123672   4.066   0.504   6.573 -1.0688 -0.3652 -0.1110
 4070SOL    HW223673   4.004   0.564   6.452 -0.3656  1.6524  1.2207
 4071SOL     OW23674   4.313   4.406   1.895 -0.0613  0.4097 -0.1540
 4071SOL    HW123675   4.322   4.470   1.966  2.6867  0.3278 -0.4188
 4071SOL    HW223676   4.369   4.337   1.931  0.9102  0.6601 -1.2058
 4072SOL     OW23677   0.901   4.455   3.323  0.0689 -0.0171 -0.0879
 4072SOL    HW123678   0.996   4.468   3.328 -0.2856  1.9432  1.4479
 4072SOL    HW223679   0.893   4.376   3.377 -1.8087 -0.4148 -0.9434
 4073SOL     OW23680   0.303   1.059   1.248 -0.0103 -0.1547  0.6100
 4073SOL    HW123681   0.335   0.972   1.224  0.0462  0.0748 -0.1424
 4073SOL    HW223682   0.335   1.117   1.179 -0.8191 -1.5387 -0.9426
 4074SOL     OW23683   2.652   4.428   3.115 -0.2128  0.4540 -0.0035
 4074SOL    HW123684   2.588   4.437   3.044  1.4963  0.6506 -1.5352
 4074SOL    HW223685   2.717   4.379   3.065  0.0674  0.8579 -0.0342
 4075SOL     OW23686   4.670   2.331  13.796  0.3567  0.2526  0.5431
 4075SOL    HW123687   0.013   2.278  13.837  1.7070  0.9458 -0.8360
 4075SOL    HW223688   4.597   2.297  13.848 -0.9852  0.4159 -1.2303
 4076SOL     OW23689   3.066   3.571   6.615 -0.5186 -0.0032  0.0487
 4076SOL    HW123690   3.124   3.584   6.540  0.3573  0.4305  0.8044
 4076SOL    HW223691   3.124   3.616   6.676 -0.2353 -1.6395  0.9904
 4077SOL     OW23692   1.535   4.118   6.010  0.3672  0.1239 -0.3523
 4077SOL    HW123693   1.445   4.087   6.021  0.3136  1.1661  2.3257
 4077SOL    HW223694   1.546   4.125   5.916  0.9235  1.4807 -0.1862
 4078SOL     OW23695   1.446   2.787  10.431  0.0032  0.3484 -0.1802
 4078SOL    HW123696   1.521   2.732  10.407 -1.5586  0.6039 -5.5634
 4078SOL    HW223697   1.441   2.771  10.526 -1.8727  1.9493 -0.0116
 4079SOL     OW23698   4.284   4.557   3.156  0.5026 -0.0661 -0.3565
 4079SOL    HW123699   4.236   4.564   3.073  1.8670 -1.0323 -1.2251
 4079SOL    HW223700   4.347   4.490   3.127  0.8554  0.3902 -0.6496
 4080SOL     OW23701   0.545   4.626  17.197 -0.0158 -0.0264 -0.1466
 4080SOL    HW123702   0.502   4.571  17.262  0.1943  0.0659  0.0690
 4080SOL    HW223703   0.595   4.553  17.160  1.4898  1.4112 -0.9793
 4081SOL     OW23704   1.746   2.909   1.657  0.8049 -0.1539  0.3447
 4081SOL    HW123705   1.698   2.855   1.721  0.9619  1.9445  2.2492
 4081SOL    HW223706   1.754   2.856   1.578  0.2980 -0.3919  0.4505
 4082SOL     OW23707   1.988   1.934   9.479 -0.2090 -0.0743 -0.4366
 4082SOL    HW123708   2.051   1.886   9.532 -0.6010 -0.0064  0.0930
 4082SOL    HW223709   1.959   1.862   9.423  2.5594  0.0641 -2.0628
 4083SOL     OW23710   2.233   3.112   2.475 -0.1142 -0.0849 -0.1892
 4083SOL    HW123711   2.273   3.144   2.555  1.0824  0.0499 -0.8415
 4083SOL    HW223712   2.295   3.044   2.448  0.7311 -0.5181  2.8179
 4084SOL     OW23713   3.598   1.439   8.233 -0.7368  0.7689  0.7184
 4084SOL    HW123714   3.678   1.387   8.243 -2.2659 -1.2808  2.2382
 4084SOL    HW223715   3.585   1.433   8.139  2.9702  0.5468  0.2285
 4085SOL     OW23716   4.330   0.975   1.517  0.1799 -0.9524 -0.1534
 4085SOL    HW123717   4.421   0.991   1.542 -0.1346  3.0070 -1.4567
 4085SOL    HW223718   4.340   0.911   1.447 -0.6584  0.5055 -1.6155
 4086SOL     OW23719   1.178   1.877   4.525 -0.4127 -0.5519 -0.1864
 4086SOL    HW123720   1.233   1.878   4.603 -0.4293  0.9569 -0.1944
 4086SOL    HW223721   1.205   1.963   4.492  2.7014 -1.8944 -1.2095
 4087SOL     OW23722   4.367   2.820   9.627  0.6442  0.1614 -0.2045
 4087SOL    HW123723   4.398   2.847   9.714  0.8176 -1.9237  0.3769
 4087SOL    HW223724   4.288   2.873   9.617 -0.4124 -1.4419 -0.3210
 4088SOL     OW23725   3.928   3.454   7.818  0.0027  0.5026  0.9589
 4088SOL    HW123726   3.909   3.431   7.909  0.5881 -1.0366  0.6947
 4088SOL    HW223727   3.965   3.538   7.844  2.1795 -0.1187 -0.0538
 4089SOL     OW23728   2.981   1.906  15.169 -0.4643  0.0193 -0.5662
 4089SOL    HW123729   2.939   1.849  15.234  1.2182 -0.6549 -0.0659
 4089SOL    HW223730   2.936   1.870  15.092 -1.3980  1.8594 -0.8796
 4090SOL     OW23731   3.418   1.356   1.575  0.1647  0.0931  0.0251
 4090SOL    HW123732   3.397   1.381   1.664 -1.4632  2.2611 -0.9586
 4090SOL    HW223733   3.512   1.342   1.569 -0.1330 -2.5402  1.7399
 4091SOL     OW23734   4.099   1.770  13.981  0.1990  0.0599  0.8412
 4091SOL    HW123735   4.068   1.837  14.041  0.1604 -1.5285  2.5941
 4091SOL    HW223736   4.012   1.731  13.982 -0.2898  1.2054  2.5363
 4092SOL     OW23737   1.849   2.090   0.799  0.4052 -0.2813  0.3120
 4092SOL    HW123738   1.927   2.046   0.765  2.3493  1.1357  2.9283
 4092SOL    HW223739   1.862   2.105   0.892 -0.6373  0.9101  0.2644
 4093SOL     OW23740   3.408   3.488   3.691  0.0979  0.5257  0.4356
 4093SOL    HW123741   3.352   3.410   3.693 -0.3641  0.7692 -3.7807
 4093SOL    HW223742   3.488   3.439   3.674  0.1235  0.8980 -0.5083
 4094SOL     OW23743   1.363   0.747   8.298 -0.1578 -0.5519  0.1632
 4094SOL    HW123744   1.417   0.754   8.219 -1.7851 -0.2210 -0.9214
 4094SOL    HW223745   1.301   0.819   8.292  0.4540  0.1532  2.3152
 4095SOL     OW23746   3.775   3.688   5.074  0.5412 -0.1853  0.6550
 4095SOL    HW123747   3.797   3.738   5.153 -0.8618 -0.8319  1.4670
 4095SOL    HW223748   3.682   3.672   5.089  0.8631 -3.1599 -0.3653
 4096SOL     OW23749   2.380   1.042  16.016  0.1789 -0.4008 -0.1777
 4096SOL    HW123750   2.330   1.078  15.943 -0.4857 -1.1875 -0.1069
 4096SOL    HW223751   2.468   1.064  15.984  0.5540 -0.8985  0.5111
 4097SOL     OW23752   2.579   1.990   2.192  0.4268 -0.1097 -0.0518
 4097SOL    HW123753   2.569   1.895   2.196 -0.2391 -0.1776 -3.6366
 4097SOL    HW223754   2.607   1.993   2.284  2.3195 -0.5557 -0.6015
 4098SOL     OW23755   2.667   2.964   3.133  0.3424 -0.1386 -0.3746
 4098SOL    HW123756   2.633   3.047   3.099 -2.6469 -0.6974  1.2855
 4098SOL    HW223757   2.635   2.965   3.224 -2.4873 -2.4787 -1.3589
 4099SOL     OW23758   0.874   4.578   3.559 -0.1650  0.3227  0.2446
 4099SOL    HW123759   0.823   4.518   3.615  0.6056 -0.7816 -0.2415
 4099SOL    HW223760   0.880   4.528   3.478 -4.3945 -2.1533  1.4462
 4100SOL     OW23761   2.601   3.799   1.597 -0.2953  0.1624  0.1749
 4100SOL    HW123762   2.588   3.718   1.646  0.3719  0.5948  1.0620
 4100SOL    HW223763   2.670   3.840   1.651  0.0845 -0.6195  0.2795
 4101SOL     OW23764   3.146   1.808   0.736  0.3123 -0.3924  0.7430
 4101SOL    HW123765   3.058   1.839   0.715  0.5963  0.0178  0.1428
 4101SOL    HW223766   3.148   1.840   0.826 -2.5711  0.9623  0.3257
 4102SOL     OW23767   2.592   4.606  15.408 -0.5174  0.1590 -0.6125
 4102SOL    HW123768   2.600   4.698  15.433 -0.7375 -0.7780  2.7774
 4102SOL    HW223769   2.661   4.608  15.341 -0.5892  0.2262 -0.6849
 4103SOL     OW23770   2.883   2.340  10.984 -0.1557 -0.5131 -0.3935
 4103SOL    HW123771   2.964   2.381  11.016 -0.7872 -0.2059  0.7967
 4103SOL    HW223772   2.826   2.416  10.970  0.8478  0.4457  0.6971
 4104SOL     OW23773   0.078   4.431  11.809 -0.2773  0.0012 -0.1147
 4104SOL    HW123774   0.101   4.433  11.902  0.8126  1.1799 -0.4037
 4104SOL    HW223775   0.165   4.428  11.769  0.4144 -1.4837  1.4708
 4105SOL     OW23776   0.373   4.153  15.120 -0.1038  0.3479  0.2070
 4105SOL    HW123777   0.427   4.161  15.042  0.4447 -0.5715  0.4924
 4105SOL    HW223778   0.362   4.058  15.115  0.8154  0.3233 -1.2312
 4106SOL     OW23779   4.303   1.341   2.244  0.1792  0.3794  0.0289
 4106SOL    HW123780   4.252   1.336   2.324 -1.6443  0.3794 -1.1194
 4106SOL    HW223781   4.328   1.250   2.226 -1.9088 -0.2013  0.1058
 4107SOL     OW23782   4.724   1.162   9.622  0.1681  0.1228 -0.1609
 4107SOL    HW123783   0.055   1.092   9.590  1.8611  2.2025 -1.6915
 4107SOL    HW223784   0.062   1.234   9.628 -0.5140  0.9402 -2.4727
 4108SOL     OW23785   3.522   0.747   6.194 -0.1441  0.2177 -0.1244
 4108SOL    HW123786   3.590   0.791   6.144  1.9164 -2.0921  0.6727
 4108SOL    HW223787   3.555   0.761   6.283  0.3684 -0.2839 -0.2332
 4109SOL     OW23788   2.716   3.704  17.647  0.2171  0.4340 -0.4225
 4109SOL    HW123789   2.726   3.765  17.574  0.2121 -1.4507 -2.0190
 4109SOL    HW223790   2.741   3.623  17.602 -2.9055 -0.3833 -0.6986
 4110SOL     OW23791   2.303   3.654  16.464  0.3010  0.1409 -0.4000
 4110SOL    HW123792   2.308   3.675  16.371 -0.3437 -1.1274 -0.7080
 4110SOL    HW223793   2.275   3.566  16.439 -1.8979  0.8356 -0.3105
 4111SOL     OW23794   2.253   4.254   8.663  0.0415  0.8099 -0.7870
 4111SOL    HW123795   2.174   4.247   8.717  0.1588 -2.9333 -1.0729
 4111SOL    HW223796   2.270   4.348   8.657  0.0111  1.0713  3.5768
 4112SOL     OW23797   4.356   0.386   3.440  0.0603  0.4497  0.1194
 4112SOL    HW123798   4.381   0.402   3.349  0.2858  2.0025  0.4574
 4112SOL    HW223799   4.277   0.333   3.433 -0.8232  1.8142 -0.1714
 4113SOL     OW23800   0.930   2.657  15.207 -0.4983 -0.3206  0.6395
 4113SOL    HW123801   0.937   2.605  15.287 -1.0569  1.3045  1.7273
 4113SOL    HW223802   0.859   2.613  15.159 -1.9914  1.5027  1.1595
 4114SOL     OW23803   0.058   2.313   7.876  0.1588  0.0673 -0.3236
 4114SOL    HW123804   0.012   2.337   7.957  3.1273 -0.9743  1.6805
 4114SOL    HW223805   4.724   2.258   7.826  0.9806 -1.5676  0.4956
 4115SOL     OW23806   3.384   4.458  14.788 -0.3417  0.5782  0.1413
 4115SOL    HW123807   3.435   4.386  14.827  0.1152 -1.0567 -3.5264
 4115SOL    HW223808   3.432   4.465  14.706 -3.2737 -0.5796 -1.6607
 4116SOL     OW23809   0.861   4.430  14.657  0.5566  0.2569 -0.1537
 4116SOL    HW123810   0.914   4.437  14.736 -1.0474  0.3155  0.9163
 4116SOL    HW223811   0.787   4.484  14.685 -0.3302 -2.4098  2.6940
 4117SOL     OW23812   0.902   1.273   1.383 -0.1511  0.2462 -0.0248
 4117SOL    HW123813   0.926   1.277   1.291 -0.3948 -1.3094 -0.1591
 4117SOL    HW223814   0.975   1.318   1.426 -1.3723  1.5324  0.7065
 4118SOL     OW23815   2.961   3.130   0.874 -0.2767  0.3120  0.1868
 4118SOL    HW123816   2.983   3.045   0.837  0.9841  1.0261 -0.7175
 4118SOL    HW223817   2.869   3.130   0.899 -0.0105  1.2769  1.1691
 4119SOL     OW23818   0.445   0.149   6.866 -0.0852  0.1338  0.7924
 4119SOL    HW123819   0.483   0.201   6.937 -0.8296  0.6570  0.8041
 4119SOL    HW223820   0.355   0.180   6.860 -0.5764 -1.5087 -0.2436
 4120SOL     OW23821   2.307   1.345  15.301  0.2520 -0.2700 -0.4206
 4120SOL    HW123822   2.365   1.377  15.370  1.0036 -1.8737 -0.3099
 4120SOL    HW223823   2.301   1.254  15.329  0.7666 -0.3176 -0.4735
 4121SOL     OW23824   0.795   1.827   0.054  0.0653  0.6860 -0.0434
 4121SOL    HW123825   0.775   1.899  17.698 -0.0274  0.1244 -0.6800
 4121SOL    HW223826   0.772   1.752  17.703 -0.7370  0.1698  0.9942
 4122SOL     OW23827   3.763   2.203   6.861 -0.4627 -0.4709 -0.4023
 4122SOL    HW123828   3.767   2.284   6.911  1.2583 -2.2356  2.3480
 4122SOL    HW223829   3.814   2.220   6.782  0.5697  3.6056  1.1220
 4123SOL     OW23830   3.828   3.982  14.040 -0.4036 -0.1086 -0.0506
 4123SOL    HW123831   3.918   3.978  14.007 -0.3254  0.7060  0.0577
 4123SOL    HW223832   3.778   3.933  13.975  1.2702 -0.3809 -1.1212
 4124SOL     OW23833   2.994   3.725   2.947 -0.2645 -0.5535 -0.2592
 4124SOL    HW123834   3.088   3.741   2.953 -0.4243  0.5658 -0.6540
 4124SOL    HW223835   2.978   3.670   2.870  1.9761  2.4414 -2.8343
 4125SOL     OW23836   2.727   3.057  11.249  0.2711 -0.9661  0.3752
 4125SOL    HW123837   2.667   2.998  11.203 -1.5257  0.4804  0.8406
 4125SOL    HW223838   2.815   3.021  11.238 -0.3207 -1.4666 -2.8130
 4126SOL     OW23839   3.903   2.963  12.200  0.5994 -0.4547 -0.2442
 4126SOL    HW123840   3.972   2.968  12.135 -0.0501  1.7358 -0.7437
 4126SOL    HW223841   3.861   2.886  12.161 -1.4081  0.4028  0.1903
 4127SOL     OW23842   2.345   1.807  12.410 -0.1041 -0.3831  0.0350
 4127SOL    HW123843   2.287   1.733  12.388  0.9849 -0.9121 -1.0349
 4127SOL    HW223844   2.287   1.850  12.473  0.5686  1.3633 -0.5503
 4128SOL     OW23845   3.007   2.002   7.452 -0.1091  0.5175  0.3892
 4128SOL    HW123846   2.923   1.988   7.408  0.1936  0.8822 -0.3111
 4128SOL    HW223847   3.037   1.916   7.421 -1.5317  0.9109 -2.0765
 4129SOL     OW23848   4.688   3.546   8.231 -0.1753 -0.0635  0.0850
 4129SOL    HW123849   0.021   3.607   8.185 -0.1658  1.0800  1.6122
 4129SOL    HW223850   4.610   3.549   8.176 -1.2758  1.0056  1.6951
 4130SOL     OW23851   3.370   2.143   2.662 -0.3460 -0.2525  0.0975
 4130SOL    HW123852   3.341   2.060   2.700  0.7571  0.1979  1.9120
 4130SOL    HW223853   3.366   2.120   2.569  0.3039 -0.4794  0.1194
 4131SOL     OW23854   1.290   1.997   3.136 -0.2370  0.4002  0.3998
 4131SOL    HW123855   1.365   1.949   3.171  1.7706  1.2614 -2.7453
 4131SOL    HW223856   1.222   1.933   3.160  0.7639 -0.8707 -0.1435
 4132SOL     OW23857   1.306   3.982  16.577  0.5860  0.6099  0.1221
 4132SOL    HW123858   1.249   3.912  16.545  0.3954  0.1532  1.4569
 4132SOL    HW223859   1.389   3.947  16.544  1.0578  1.4532  0.4038
 4133SOL     OW23860   1.988   3.271   1.596  0.6459  0.0652  0.3947
 4133SOL    HW123861   2.082   3.286   1.585  0.3530  0.2806 -1.8634
 4133SOL    HW223862   1.959   3.266   1.505 -0.0245  0.9476  0.5593
 4134SOL     OW23863   1.451   3.326   5.255  0.4850 -0.3835  0.0473
 4134SOL    HW123864   1.390   3.333   5.181  1.7972  2.0286 -0.8188
 4134SOL    HW223865   1.472   3.416   5.278  0.0190 -0.3078  0.1736
 4135SOL     OW23866   0.729   1.475  13.131 -0.0141 -0.3342 -0.0583
 4135SOL    HW123867   0.710   1.558  13.088  3.1890  0.9342  0.9366
 4135SOL    HW223868   0.651   1.466  13.186 -0.6876  0.3497 -0.8970
 4136SOL     OW23869   2.457   2.498   4.768 -0.4895  0.3500 -1.1353
 4136SOL    HW123870   2.366   2.477   4.792 -0.2749 -0.2373 -0.8406
 4136SOL    HW223871   2.458   2.467   4.677 -0.9855 -2.5442 -0.1443
 4137SOL     OW23872   2.540   0.806   5.352  0.7654 -0.1379 -0.2438
 4137SOL    HW123873   2.547   0.843   5.264 -1.6330 -0.3711 -0.5432
 4137SOL    HW223874   2.619   0.753   5.361  0.7621 -0.0704  0.2140
 4138SOL     OW23875   0.297   4.050   9.283  0.4956 -0.1657 -0.1632
 4138SOL    HW123876   0.271   4.079   9.370  0.4596  0.2936 -0.3293
 4138SOL    HW223877   0.389   4.077   9.282  0.2107  1.0860  4.9246
 4139SOL     OW23878   4.289   0.241   1.063  0.3881 -0.0850  0.4293
 4139SOL    HW123879   4.324   0.243   1.151  1.4840 -0.7949  0.0156
 4139SOL    HW223880   4.355   0.186   1.020  0.3823 -0.1964  0.5620
 4140SOL     OW23881   3.662   3.590  14.014  0.3208  0.1763  0.0378
 4140SOL    HW123882   3.610   3.666  14.040 -2.2219 -2.0436  1.4636
 4140SOL    HW223883   3.745   3.632  14.034 -0.9140  1.4909  2.4258
 4141SOL     OW23884   0.051   0.030  17.097  0.4527  0.1939 -0.1220
 4141SOL    HW123885   0.064   4.671  17.053 -0.6755  0.1822 -0.4489
 4141SOL    HW223886   0.130   0.021  17.150  0.0220  1.9397  0.7971
 4142SOL     OW23887   1.917   1.840  11.107  0.2711  0.0194 -0.4797
 4142SOL    HW123888   1.868   1.798  11.178  1.1423  0.4827  0.3925
 4142SOL    HW223889   2.002   1.833  11.150 -0.4778 -1.7330  0.7503
 4143SOL     OW23890   0.913   1.676   2.686 -0.1431 -0.0016  0.0560
 4143SOL    HW123891   0.946   1.750   2.737 -1.3455  0.3504  0.3097
 4143SOL    HW223892   0.819   1.695   2.685 -0.6637 -2.5976  0.2931
 4144SOL     OW23893   2.392   4.382   3.398  0.1535  0.2466 -0.2146
 4144SOL    HW123894   2.338   4.319   3.349  1.5176  0.4565 -1.9613
 4144SOL    HW223895   2.378   4.355   3.489 -0.3505  0.6966 -0.1618
 4145SOL     OW23896   3.451   1.315   5.185 -0.2017  0.1994  0.2678
 4145SOL    HW123897   3.541   1.344   5.169 -0.6200  3.2591  3.4626
 4145SOL    HW223898   3.471   1.226   5.214  0.0440  0.4309  0.7962
 4146SOL     OW23899   3.253   0.442   0.027 -0.3211 -0.2350 -0.3355
 4146SOL    HW123900   3.223   0.471   0.114  1.2784 -3.3081  1.2525
 4146SOL    HW223901   3.189   0.371   0.020  0.2040 -0.5576 -1.7338
 4147SOL     OW23902   0.316   3.974  11.644  0.1774  0.0652 -0.2926
 4147SOL    HW123903   0.378   3.994  11.715 -3.0218  0.0851  2.4867
 4147SOL    HW223904   0.254   3.918  11.690  0.8090  1.9382  2.8934
 4148SOL     OW23905   1.292   1.370  14.040  0.5841  0.0890 -0.3553
 4148SOL    HW123906   1.269   1.400  13.953 -2.5672  1.5014  0.9611
 4148SOL    HW223907   1.257   1.444  14.090 -3.3183 -0.7862 -1.7373
 4149SOL     OW23908   4.644   1.105   2.253  0.3303  0.2255 -0.3668
 4149SOL    HW123909   4.680   1.032   2.202 -0.3897  0.1012 -0.6980
 4149SOL    HW223910   4.659   1.175   2.191  1.2624  0.4759  0.1379
 4150SOL     OW23911   2.855   3.071  10.388 -0.2616  0.5574 -1.3430
 4150SOL    HW123912   2.831   3.093  10.298 -1.1185 -1.1036 -1.5244
 4150SOL    HW223913   2.909   2.994  10.373 -0.4664  0.2329 -0.4181
 4151SOL     OW23914   0.940   2.850   9.987  0.1993 -0.1454  0.4935
 4151SOL    HW123915   1.020   2.800   9.971  1.1634  1.5719 -0.0204
 4151SOL    HW223916   0.907   2.843   9.898 -0.7313  0.2674  0.8025
 4152SOL     OW23917   3.022   2.614   2.778  0.0498 -0.0063  0.3587
 4152SOL    HW123918   3.038   2.573   2.863 -2.2471 -1.1051  0.2740
 4152SOL    HW223919   2.986   2.698   2.808  2.2160  0.9062  0.3780
 4153SOL     OW23920   4.695   2.194  15.474  0.9562 -0.3438  0.3990
 4153SOL    HW123921   0.036   2.263  15.467 -0.5837  1.4179  3.1261
 4153SOL    HW223922   4.622   2.254  15.458  1.0726  0.1290  1.6137
 4154SOL     OW23923   4.372   4.137   8.003  0.1983  0.0955 -0.3849
 4154SOL    HW123924   4.431   4.180   8.064 -1.0850  0.6861  0.4417
 4154SOL    HW223925   4.290   4.174   8.035  1.3750  0.9653  1.5681
 4155SOL     OW23926   2.306   2.037   5.622 -0.5450 -0.0692 -0.6512
 4155SOL    HW123927   2.283   1.956   5.577 -1.0957  0.7268 -1.8232
 4155SOL    HW223928   2.288   2.107   5.559  3.6451 -0.3766 -2.2184
 4156SOL     OW23929   0.333   1.574   5.931 -0.9162  0.0467 -0.3836
 4156SOL    HW123930   0.361   1.664   5.916 -1.2731  0.5073  1.6949
 4156SOL    HW223931   0.371   1.549   6.016  1.7060  1.1972 -1.2245
 4157SOL     OW23932   1.959   4.483   4.128  0.4660  0.3319  0.5377
 4157SOL    HW123933   1.937   4.439   4.046 -0.2244  2.0288 -0.1917
 4157SOL    HW223934   1.905   4.561   4.115 -0.5699 -0.3636  0.6415
 4158SOL     OW23935   3.115   1.566   4.352 -0.2815  0.1152 -0.0027
 4158SOL    HW123936   3.072   1.648   4.377 -0.4578  0.1889 -0.5569
 4158SOL    HW223937   3.204   1.601   4.355 -0.8871  1.6072  0.4901
 4159SOL     OW23938   3.277   4.358   0.625  0.0505 -0.1452 -0.1144
 4159SOL    HW123939   3.289   4.313   0.709  0.8068 -1.3685 -0.8770
 4159SOL    HW223940   3.362   4.402   0.625 -0.0112 -0.0263 -1.7765
 4160SOL     OW23941   1.532   2.336   8.580  0.6602 -0.1091  0.3543
 4160SOL    HW123942   1.502   2.268   8.518 -1.9381  0.0073  1.5082
 4160SOL    HW223943   1.494   2.413   8.539  0.2432 -1.0950 -1.1411
 4161SOL     OW23944   0.569   3.299   2.955  0.7981  0.1448 -0.5775
 4161SOL    HW123945   0.652   3.339   2.927  0.1122  0.8119 -1.6325
 4161SOL    HW223946   0.592   3.207   2.963  0.4961 -0.3313 -5.1151
 4162SOL     OW23947   2.428   3.075   2.001 -0.3764  0.6055  0.1595
 4162SOL    HW123948   2.355   3.047   1.946  0.4613 -1.9051  0.2943
 4162SOL    HW223949   2.379   3.138   2.053 -1.0515 -0.5209  0.8822
 4163SOL     OW23950   4.141   1.325  16.890  0.0785  0.0438  0.5349
 4163SOL    HW123951   4.070   1.361  16.944 -1.3334  0.2708 -1.4622
 4163SOL    HW223952   4.083   1.273  16.833  0.6894 -1.3097  1.1633
 4164SOL     OW23953   3.279   2.735   1.995 -0.1388 -0.4936  0.4128
 4164SOL    HW123954   3.251   2.698   2.078 -2.0999  0.1419  0.0271
 4164SOL    HW223955   3.352   2.681   1.965 -0.2667  0.1123 -0.9869
 4165SOL     OW23956   0.663   3.596  12.401 -0.1716 -0.0753 -0.5283
 4165SOL    HW123957   0.743   3.566  12.358  1.1564  1.4163  0.9212
 4165SOL    HW223958   0.655   3.691  12.391 -1.8532 -0.3690 -1.9853
 4166SOL     OW23959   0.651   0.552   6.252 -0.0885  0.4033  0.6259
 4166SOL    HW123960   0.564   0.590   6.239 -0.3690  0.2083  1.9809
 4166SOL    HW223961   0.701   0.630   6.229 -1.0337  0.3397 -1.6699
 4167SOL     OW23962   1.525   3.943   3.049  0.1148  0.2209 -0.5996
 4167SOL    HW123963   1.518   3.860   3.002  0.2272  0.6464 -1.3678
 4167SOL    HW223964   1.495   3.909   3.134 -1.0485  0.3132 -0.9777
 4168SOL     OW23965   2.907   2.466   6.478  0.2710  0.1112 -0.3000
 4168SOL    HW123966   2.996   2.465   6.514  0.8929  2.0422 -1.7495
 4168SOL    HW223967   2.861   2.413   6.542  0.0425 -2.9714 -2.9824
 4169SOL     OW23968   3.867   3.352  10.619 -0.5481  0.2570 -0.2217
 4169SOL    HW123969   3.853   3.410  10.544 -0.5999 -1.3288 -1.4276
 4169SOL    HW223970   3.962   3.359  10.633 -1.1866  0.8882  3.7200
 4170SOL     OW23971   4.606   1.209  16.955  0.0186 -0.3985 -0.7376
 4170SOL    HW123972   4.677   1.271  16.935  2.6265 -2.5840  1.6111
 4170SOL    HW223973   4.539   1.262  16.997  0.7296 -1.6938  2.0464
 4171SOL     OW23974   0.651   3.099   9.360 -0.4195  0.4684  0.8184
 4171SOL    HW123975   0.670   3.007   9.379  1.0320  0.8916  1.4144
 4171SOL    HW223976   0.729   3.129   9.313 -1.9954  2.5785 -0.4597
 4172SOL     OW23977   0.587   3.114   3.559  0.0599  0.7112 -0.1013
 4172SOL    HW123978   0.526   3.061   3.611  1.6987 -0.2366  0.8484
 4172SOL    HW223979   0.554   3.101   3.470 -2.1545  0.5268  0.7485
 4173SOL     OW23980   0.914   0.409   5.090 -0.2032 -0.6214  0.0162
 4173SOL    HW123981   0.831   0.415   5.138  1.3282  2.4253  2.3089
 4173SOL    HW223982   0.873   0.422   5.004 -1.9986  1.6262  1.1852
 4174SOL     OW23983   2.023   0.689   5.923  0.4102  0.0232  0.0447
 4174SOL    HW123984   2.102   0.740   5.940  1.5521 -2.3315  1.7304
 4174SOL    HW223985   2.045   0.612   5.975 -0.5953 -1.2389 -1.3999
 4175SOL     OW23986   1.037   1.963   7.809  0.0141  0.0906  0.1167
 4175SOL    HW123987   1.116   1.914   7.827  0.9767  0.7330 -2.2717
 4175SOL    HW223988   0.982   1.914   7.869 -0.4658  1.4065  0.7568
 4176SOL     OW23989   2.041   2.447   1.441  0.1997 -0.6172 -0.2764
 4176SOL    HW123990   2.038   2.356   1.412  0.0981 -1.1407  1.3563
 4176SOL    HW223991   2.130   2.458   1.475 -0.6139 -0.2473  1.7572
 4177SOL     OW23992   4.117   3.341   9.417  0.1907 -0.4482  0.1260
 4177SOL    HW123993   4.162   3.381   9.343 -0.1286 -1.2862 -0.5234
 4177SOL    HW223994   4.115   3.254   9.378  0.5675  0.2685 -1.4879
 4178SOL     OW23995   2.683   0.507  11.043 -0.0815  0.1556 -0.0498
 4178SOL    HW123996   2.711   0.438  10.982 -2.9794 -1.3031  0.2220
 4178SOL    HW223997   2.696   0.464  11.127  0.3064  1.4804  0.5612
 4179SOL     OW23998   0.970   4.668   0.596  1.1879 -0.1226 -0.8893
 4179SOL    HW123999   1.017   4.676   0.513  0.4536  1.1649 -1.1888
 4179SOL    HW224000   1.040   4.688   0.659  0.7726 -1.6366  0.0424
 4180SOL     OW24001   4.362   3.070   6.446  0.7073 -0.2042  0.5848
 4180SOL    HW124002   4.358   2.975   6.456  1.8987 -0.4049 -0.8611
 4180SOL    HW224003   4.451   3.079   6.413  0.9082  4.2276  2.3983
 4181SOL     OW24004   0.669   1.348  12.851 -0.3534 -0.8657  0.2376
 4181SOL    HW124005   0.642   1.439  12.838  1.9796 -0.1821  0.2484
 4181SOL    HW224006   0.722   1.326  12.774 -0.8912 -0.7247 -0.1719
 4182SOL     OW24007   0.939   1.042   9.742 -0.2820 -0.1406  0.4883
 4182SOL    HW124008   0.934   0.984   9.665  0.5637  2.4118 -1.4719
 4182SOL    HW224009   0.894   1.117   9.703  1.5555  1.8069  2.1528
 4183SOL     OW24010   3.399   1.511   6.610 -0.1365 -0.2794 -0.2349
 4183SOL    HW124011   3.337   1.581   6.589  0.5879  1.1090  2.3488
 4183SOL    HW224012   3.426   1.477   6.525  0.9254  0.6570 -0.2746
 4184SOL     OW24013   0.873   4.387   0.616  0.1266 -0.1688 -0.1596
 4184SOL    HW124014   0.879   4.482   0.616  0.1756 -0.1723 -0.6311
 4184SOL    HW224015   0.876   4.355   0.526 -1.0743 -0.5473 -0.0680
 4185SOL     OW24016   4.032   2.465   5.882  0.8649 -0.0414 -0.0783
 4185SOL    HW124017   4.081   2.388   5.912 -2.2411 -0.7946  3.0636
 4185SOL    HW224018   3.945   2.453   5.920  0.9372 -2.8398 -0.7234
 4186SOL     OW24019   0.983   2.334   3.494 -0.2600  0.0688 -0.4103
 4186SOL    HW124020   1.003   2.268   3.429 -5.3091 -1.0914 -0.7846
 4186SOL    HW224021   1.034   2.403   3.450 -0.5528 -0.3634 -1.4194
 4187SOL     OW24022   2.501   1.433   2.277  0.1451  0.1878 -0.2114
 4187SOL    HW124023   2.450   1.375   2.220  2.1879 -0.5290 -1.3130
 4187SOL    HW224024   2.442   1.508   2.277  0.9644  0.8193  1.4446
 4188SOL     OW24025   0.490   1.581  16.232 -0.1031 -0.2183  0.1148
 4188SOL    HW124026   0.396   1.568  16.244 -0.3375  0.5111 -0.9976
 4188SOL    HW224027   0.490   1.618  16.144  0.6071 -0.9670 -0.2057
 4189SOL     OW24028   1.287   4.668   4.541 -0.1413 -0.6846  0.0079
 4189SOL    HW124029   1.316   4.579   4.559 -0.1160 -0.6844 -0.0301
 4189SOL    HW224030   1.276   4.662   4.446  0.4298  1.7139 -0.2163
 4190SOL     OW24031   0.774   1.171  11.723 -0.0439 -0.1087  0.5008
 4190SOL    HW124032   0.863   1.136  11.715 -0.4182 -0.0567 -3.8774
 4190SOL    HW224033   0.750   1.183  11.631  1.7840  1.5447  0.2184
 4191SOL     OW24034   1.368   4.396  16.608  0.2572 -0.3332  0.4098
 4191SOL    HW124035   1.377   4.361  16.520 -1.1132  0.2564  0.0377
 4191SOL    HW224036   1.317   4.327  16.651  1.8316 -1.3734  0.6204
 4192SOL     OW24037   3.274   4.532   7.811 -0.1411  0.2237 -0.6908
 4192SOL    HW124038   3.265   4.517   7.905 -1.7855  1.4249 -0.6684
 4192SOL    HW224039   3.291   4.626   7.812  0.8949  0.0109  0.7742
 4193SOL     OW24040   2.669   1.383  12.906 -0.4234  0.4394 -0.0924
 4193SOL    HW124041   2.646   1.319  12.972  1.2297  0.8562  0.8722
 4193SOL    HW224042   2.747   1.421  12.946  0.6645 -2.2726  0.3212
 4194SOL     OW24043   2.824   0.215  14.231  0.0069 -0.0163  0.3435
 4194SOL    HW124044   2.870   0.282  14.180  0.6687 -1.3136 -0.7540
 4194SOL    HW224045   2.876   0.199  14.310  0.5456  0.9075  0.1740
 4195SOL     OW24046   1.135   2.812   7.687 -0.6505  0.0795  0.2248
 4195SOL    HW124047   1.182   2.856   7.759 -1.5324 -1.4683  1.7374
 4195SOL    HW224048   1.081   2.751   7.736 -1.1176 -0.7213 -1.3180
 4196SOL     OW24049   0.502   1.095  12.495 -0.0948  0.2025  0.3161
 4196SOL    HW124050   0.495   1.106  12.400  2.4928 -0.6452  0.0356
 4196SOL    HW224051   0.489   1.188  12.515  0.7512  0.0519  1.5565
 4197SOL     OW24052   1.590   1.703   5.816 -0.7948  0.0285  0.1960
 4197SOL    HW124053   1.541   1.664   5.888 -2.1268 -1.3120 -1.4313
 4197SOL    HW224054   1.525   1.702   5.746 -0.8310 -0.7582  0.2380
 4198SOL     OW24055   0.015   2.968  12.602  0.0071 -0.2819 -0.2620
 4198SOL    HW124056   4.721   3.050  12.557  0.1462 -0.5618 -0.8269
 4198SOL    HW224057   4.654   2.929  12.611 -0.3639  1.3415  3.4871
 4199SOL     OW24058   2.916   1.948   5.654 -0.4817 -0.1284 -0.1251
 4199SOL    HW124059   2.875   2.030   5.683  1.9159  1.1891 -0.4447
 4199SOL    HW224060   2.948   1.928   5.742  0.3708  0.2050 -0.3563
 4200SOL     OW24061   3.341   4.004   2.453 -0.2562 -0.5447  0.3331
 4200SOL    HW124062   3.364   3.960   2.371 -0.1163  0.6209 -0.2632
 4200SOL    HW224063   3.403   4.077   2.452 -0.0956 -0.6994 -2.2355
 4201SOL     OW24064   3.661   3.764  13.118  0.4674 -0.4121 -0.1782
 4201SOL    HW124065   3.598   3.703  13.156 -0.3810  1.6774  1.7719
 4201SOL    HW224066   3.686   3.828  13.185  0.6408  1.0605 -1.6490
 4202SOL     OW24067   4.642   1.525   4.887  0.0322  0.1269 -0.8004
 4202SOL    HW124068   4.724   1.482   4.908  0.7296  1.8186 -0.0652
 4202SOL    HW224069   4.593   1.491   4.963 -0.1740  0.3875 -0.8146
 4203SOL     OW24070   1.072   3.577   0.346  0.0384 -0.5762 -0.1193
 4203SOL    HW124071   0.999   3.519   0.324  0.4721 -2.1118  2.5086
 4203SOL    HW224072   1.094   3.534   0.428  1.3102 -1.4638 -0.9247
 4204SOL     OW24073   2.121   0.770   3.800 -0.1051 -0.5124 -0.2479
 4204SOL    HW124074   2.137   0.789   3.892 -2.3177  0.0604 -0.0014
 4204SOL    HW224075   2.095   0.679   3.813 -2.4699  0.0549 -1.1023
 4205SOL     OW24076   4.310   0.261   7.767  0.2676 -0.2713 -0.4634
 4205SOL    HW124077   4.316   0.209   7.847  0.6085 -1.0471 -0.9829
 4205SOL    HW224078   4.217   0.284   7.770  0.1985 -0.8261  1.5315
 4206SOL     OW24079   0.165   0.994   7.955 -0.0059 -0.1197  0.2551
 4206SOL    HW124080   0.177   0.915   8.008  0.6387 -0.8433 -0.9908
 4206SOL    HW224081   0.219   1.055   8.006 -2.2433  0.4823  1.9431
 4207SOL     OW24082   3.879   0.832   5.011 -0.7683 -0.1207  0.4693
 4207SOL    HW124083   3.921   0.783   4.940  2.9417  2.4292  0.8932
 4207SOL    HW224084   3.929   0.913   5.019  0.1916 -0.9101  2.4138
 4208SOL     OW24085   0.654   1.060  13.361  0.1708 -0.1892  0.3620
 4208SOL    HW124086   0.586   1.025  13.304 -0.8067 -1.1770  2.1407
 4208SOL    HW224087   0.711   1.117  13.309  0.4269  0.6126  1.5058
 4209SOL     OW24088   3.665   0.633   7.910  0.6858 -0.6866  0.0124
 4209SOL    HW124089   3.612   0.682   7.847 -0.4480  0.8095  2.1252
 4209SOL    HW224090   3.594   0.606   7.969  0.4577  0.0213  0.0596
 4210SOL     OW24091   4.567   3.289   4.293  0.0332 -0.4022 -0.2204
 4210SOL    HW124092   4.538   3.246   4.212 -2.8861 -0.2451  0.7654
 4210SOL    HW224093   4.582   3.377   4.258  0.8938 -0.5454 -0.2217
 4211SOL     OW24094   2.910   4.030   1.727 -0.3944  0.7070  0.5837
 4211SOL    HW124095   2.880   3.985   1.806  1.8114 -0.7060  0.6000
 4211SOL    HW224096   2.828   4.076   1.706 -0.3499 -0.2011 -1.5057
 4212SOL     OW24097   0.062   0.725   9.060  0.0347 -0.3066 -0.1767
 4212SOL    HW124098   0.136   0.683   9.104 -0.9231 -0.8220  0.9198
 4212SOL    HW224099   0.076   0.687   8.973  0.9174 -2.5387  0.9269
 4213SOL     OW24100   0.306   3.915   7.250 -0.1450 -0.0694 -0.2855
 4213SOL    HW124101   0.302   4.002   7.290  2.6180 -0.8924  1.8022
 4213SOL    HW224102   0.235   3.873   7.298  1.0028 -0.2534  1.2180
 4214SOL     OW24103   0.126   4.692   7.690  0.7530  0.6596 -0.4249
 4214SOL    HW124104   0.166   0.040   7.737  0.2465  1.2770 -0.9692
 4214SOL    HW224105   0.091   0.014   7.615 -1.9203  1.7670  1.5455
 4215SOL     OW24106   2.641   3.713  10.452 -0.0958  0.0625 -0.1505
 4215SOL    HW124107   2.702   3.748  10.387 -0.1083  0.1545 -0.1130
 4215SOL    HW224108   2.611   3.793  10.496  0.0176  0.6210 -1.0759
 4216SOL     OW24109   2.027   1.398   1.546 -0.4138  0.3853  0.1199
 4216SOL    HW124110   2.049   1.429   1.459 -0.6880 -2.9512 -1.1210
 4216SOL    HW224111   2.081   1.321   1.561 -0.8915 -0.4071 -2.2711
 4217SOL     OW24112   0.586   0.262  14.648  0.2539  0.7699  0.5186
 4217SOL    HW124113   0.565   0.283  14.557  0.3013 -0.2387  0.2813
 4217SOL    HW224114   0.508   0.211  14.668  0.5315  0.1597  0.0650
 4218SOL     OW24115   3.796   1.706   1.189 -0.6192  0.0510 -0.4858
 4218SOL    HW124116   3.750   1.790   1.189  3.0460  2.0244 -0.9862
 4218SOL    HW224117   3.715   1.654   1.187 -0.6933  0.1521 -0.0961
 4219SOL     OW24118   1.821   0.840   8.173  0.3040 -0.1495  0.7086
 4219SOL    HW124119   1.759   0.913   8.178  0.5494  0.0791  0.4033
 4219SOL    HW224120   1.891   0.874   8.229  0.5464 -0.4570  0.5865
 4220SOL     OW24121   0.594   4.615   6.143  0.4062 -0.8346 -0.0738
 4220SOL    HW124122   0.632   4.549   6.084 -0.6077 -1.3252 -0.1778
 4220SOL    HW224123   0.604   4.582   6.232  0.3703  0.0644  0.2593
 4221SOL     OW24124   0.318   4.190   8.164 -0.1137 -0.3697 -0.1542
 4221SOL    HW124125   0.273   4.214   8.245  0.2389  1.4174 -0.4849
 4221SOL    HW224126   0.298   4.097   8.162 -1.8944  0.0106 -0.0846
 4222SOL     OW24127   1.890   2.053   3.806  0.6201 -0.1198 -0.1044
 4222SOL    HW124128   1.892   2.025   3.898 -1.6234  1.6229  0.4922
 4222SOL    HW224129   1.814   2.110   3.800  2.2886  2.0644 -0.2554
 4223SOL     OW24130   3.521   1.700   9.283 -0.4120  0.3338  0.4306
 4223SOL    HW124131   3.542   1.685   9.191 -3.2781 -3.8357  0.4336
 4223SOL    HW224132   3.509   1.609   9.310 -1.0384  1.0107  2.4537
 4224SOL     OW24133   3.573   1.371  15.280 -0.6505  0.1864 -0.0754
 4224SOL    HW124134   3.494   1.388  15.331 -0.7840 -5.8182  1.6778
 4224SOL    HW224135   3.602   1.285  15.310 -1.0980  0.3383  0.7823
 4225SOL     OW24136   0.575   0.668   4.302  0.4827 -0.4962 -0.5322
 4225SOL    HW124137   0.509   0.644   4.237 -0.6519  1.1210  0.0123
 4225SOL    HW224138   0.530   0.661   4.386 -0.8579 -0.6505 -1.2571
 4226SOL     OW24139   0.423   1.078   7.685 -0.4119  0.3708 -0.3685
 4226SOL    HW124140   0.489   1.021   7.724 -0.4819  0.6006  0.0854
 4226SOL    HW224141   0.338   1.036   7.702  0.6395 -1.8500 -0.6734
 4227SOL     OW24142   1.849   4.140   5.069 -0.4630  0.4237  0.0264
 4227SOL    HW124143   1.893   4.122   4.986  0.7069  0.9242  0.5356
 4227SOL    HW224144   1.761   4.110   5.046  0.7005 -2.5402 -0.5249
 4228SOL     OW24145   0.637   0.886   3.478  0.4541 -0.1585 -0.1427
 4228SOL    HW124146   0.578   0.903   3.404 -0.7524 -0.9797  0.6268
 4228SOL    HW224147   0.658   0.973   3.511  1.5384  0.6573 -3.0297
 4229SOL     OW24148   4.388   4.060  10.376  0.3263  0.1136  0.5056
 4229SOL    HW124149   4.331   4.031  10.446  0.8750 -0.8688  0.5390
 4229SOL    HW224150   4.326   4.114  10.327  1.1302  0.8124  0.2479
 4230SOL     OW24151   3.808   0.903  11.310  0.2286 -0.3853  0.1066
 4230SOL    HW124152   3.866   0.979  11.304  0.0210 -0.3328 -1.2473
 4230SOL    HW224153   3.756   0.913  11.230  1.5429 -1.6647 -0.8907
 4231SOL     OW24154   1.441   3.941   8.779  0.0533  0.0739  0.3924
 4231SOL    HW124155   1.496   3.975   8.708  1.2024 -1.7185  0.4394
 4231SOL    HW224156   1.445   3.846   8.766 -1.7547  0.0637 -0.0915
 4232SOL     OW24157   3.661   3.974   2.440 -0.0251 -0.4732 -0.0652
 4232SOL    HW124158   3.609   4.023   2.377 -1.1637 -0.7048  0.6955
 4232SOL    HW224159   3.724   3.928   2.384  0.0175 -0.0275 -0.3863
 4233SOL     OW24160   1.795   1.404   3.146 -0.0917  0.0407  0.6538
 4233SOL    HW124161   1.737   1.339   3.108 -0.1596 -0.4051  1.5317
 4233SOL    HW224162   1.864   1.408   3.080 -0.6113  0.6004  0.1519
 4234SOL     OW24163   4.546   0.600   1.057  0.6136  0.1684 -0.5571
 4234SOL    HW124164   4.464   0.567   1.094  0.5464 -0.2427 -1.0722
 4234SOL    HW224165   4.582   0.633   1.138 -0.7174  0.1753  0.0407
 4235SOL     OW24166   3.555   1.052   0.473 -0.0023 -0.3873  0.1390
 4235SOL    HW124167   3.553   1.147   0.459  0.0151 -0.4966 -0.5869
 4235SOL    HW224168   3.644   1.045   0.509 -0.2846 -0.3873  0.8456
 4236SOL     OW24169   2.529   3.188   5.447  0.2001  0.2914 -0.4364
 4236SOL    HW124170   2.580   3.108   5.454 -0.4908  0.0024  1.1651
 4236SOL    HW224171   2.573   3.249   5.507  0.6338 -2.4096  1.9726
 4237SOL     OW24172   0.444   0.026   8.265 -1.0721 -0.2710 -0.4133
 4237SOL    HW124173   0.411   4.720   8.349  1.1822 -1.1930  0.1121
 4237SOL    HW224174   0.523   0.062   8.305 -1.4944 -1.0876  1.1553
 4238SOL     OW24175   3.768   3.056   3.711  0.0647 -0.4030  0.5587
 4238SOL    HW124176   3.816   2.999   3.771 -0.2591 -0.2122  0.9948
 4238SOL    HW224177   3.827   3.084   3.641  0.6575  2.2281  2.1430
 4239SOL     OW24178   3.246   4.443   5.326 -0.0548  0.0418 -0.1527
 4239SOL    HW124179   3.320   4.391   5.357 -0.9109 -1.7174 -1.0720
 4239SOL    HW224180   3.185   4.383   5.283  0.0594 -0.2264  0.0631
 4240SOL     OW24181   2.737   3.686   9.586  0.7630  0.2365 -0.2369
 4240SOL    HW124182   2.724   3.620   9.518  0.5218  0.9356 -0.8745
 4240SOL    HW224183   2.665   3.748   9.572 -1.7116 -2.6550 -0.5908
 4241SOL     OW24184   3.046   2.803   5.973  0.2405 -0.1681 -0.5875
 4241SOL    HW124185   3.138   2.779   5.958  0.0826 -2.7089  2.5104
 4241SOL    HW224186   3.028   2.762   6.057  0.5810 -1.6807 -1.2395
 4242SOL     OW24187   2.149   4.071   4.005 -0.7269 -0.7059 -0.1869
 4242SOL    HW124188   2.141   4.149   3.950 -0.5074  2.1143  3.8073
 4242SOL    HW224189   2.103   4.003   3.956  0.8578 -0.8071 -1.5442
 4243SOL     OW24190   3.812   3.758   7.526 -0.4272 -0.1870 -0.5286
 4243SOL    HW124191   3.864   3.832   7.497  0.8628 -0.2771  1.5397
 4243SOL    HW224192   3.831   3.700   7.453  1.1401 -2.9209  2.0347
 4244SOL     OW24193   1.777   0.876  13.801  0.2772  0.0370  0.2157
 4244SOL    HW124194   1.719   0.801  13.814  1.4071 -0.8424  0.1053
 4244SOL    HW224195   1.791   0.913  13.889 -0.5198  3.0708 -0.9338
 4245SOL     OW24196   3.951   4.517   7.190 -0.0064  0.0076  0.7280
 4245SOL    HW124197   3.947   4.511   7.285 -1.2812  1.0983  0.7543
 4245SOL    HW224198   3.866   4.558   7.169 -0.6231 -1.3873  0.5002
 4246SOL     OW24199   2.396   2.239  17.184 -0.0476 -0.1676  0.1069
 4246SOL    HW124200   2.438   2.153  17.183 -1.9803 -1.1118 -0.3121
 4246SOL    HW224201   2.365   2.232  17.274  0.6474 -0.3948  0.3322
 4247SOL     OW24202   0.104   0.259   4.529 -0.1865 -0.0857  0.1016
 4247SOL    HW124203   0.117   0.169   4.499 -0.1481 -0.2395  0.5700
 4247SOL    HW224204   0.016   0.273   4.493  0.1865  2.2770  0.0897
 4248SOL     OW24205   0.143   4.547   6.147 -0.3418  0.2333 -0.0581
 4248SOL    HW124206   0.236   4.558   6.128  0.1380 -1.4074  1.3116
 4248SOL    HW224207   0.119   4.636   6.175  2.3632  0.8026  0.4612
 4249SOL     OW24208   3.235   3.679   4.092 -0.2088 -0.0688 -0.1824
 4249SOL    HW124209   3.316   3.652   4.049  0.0590  0.0773  0.2361
 4249SOL    HW224210   3.258   3.763   4.130  0.1388  0.2414 -1.0803
 4250SOL     OW24211   0.011   4.598   3.813 -0.1496 -0.0287 -0.1023
 4250SOL    HW124212   0.025   4.591   3.718 -0.2434  1.9424 -0.2716
 4250SOL    HW224213   4.643   4.616   3.802 -0.4024 -0.4882  1.3570
 4251SOL     OW24214   4.587   2.165  12.608  0.8842 -0.0027  0.3928
 4251SOL    HW124215   4.621   2.112  12.535  0.4413  1.0443 -0.5652
 4251SOL    HW224216   4.493   2.166  12.591  0.9701 -1.7938 -0.1681
 4252SOL     OW24217   2.709   2.289   4.763 -0.0051  0.2081 -0.1463
 4252SOL    HW124218   2.628   2.320   4.722 -1.1148 -0.1174  1.8132
 4252SOL    HW224219   2.774   2.336   4.710 -0.5392  0.4114 -0.6230
 4253SOL     OW24220   0.846   2.595   4.688  0.0994  0.2751 -0.5717
 4253SOL    HW124221   0.925   2.547   4.712 -0.9314 -0.2488  1.8022
 4253SOL    HW224222   0.814   2.619   4.775 -1.0572  1.2036 -1.2603
 4254SOL     OW24223   0.512   0.133   6.365 -0.1606 -0.4960  0.6925
 4254SOL    HW124224   0.573   0.200   6.335 -3.0786  1.4262 -0.9738
 4254SOL    HW224225   0.541   0.052   6.322 -0.9505 -0.2527 -0.3079
 4255SOL     OW24226   0.649   2.648   4.232 -0.1395  0.1266  0.0772
 4255SOL    HW124227   0.719   2.606   4.182  0.9066  0.3956  1.3065
 4255SOL    HW224228   0.581   2.581   4.228 -0.3688  0.4027 -0.6323
 4256SOL     OW24229   1.319   1.337   4.665 -0.0711 -0.0645 -0.2455
 4256SOL    HW124230   1.312   1.308   4.756  1.8572 -2.1160 -0.7668
 4256SOL    HW224231   1.306   1.255   4.619  0.5628 -0.8291  0.9407
 4257SOL     OW24232   1.371   4.648   5.242 -0.1919 -0.8640  0.0494
 4257SOL    HW124233   1.316   4.687   5.310 -1.3248 -3.4584  0.6152
 4257SOL    HW224234   1.322   4.571   5.213  0.2520 -2.4088  3.4230
 4258SOL     OW24235   1.355   0.252  17.346  0.5293  0.4567  0.0330
 4258SOL    HW124236   1.367   0.341  17.380  2.8431 -0.7354  2.3415
 4258SOL    HW224237   1.290   0.226  17.411 -0.0198  2.9319  0.4658
 4259SOL     OW24238   2.403   1.485   3.415 -0.5631 -0.7688 -0.1517
 4259SOL    HW124239   2.344   1.541   3.466 -0.7237 -1.2940  0.2292
 4259SOL    HW224240   2.347   1.456   3.343 -1.4894  0.1715  0.1874
 4260SOL     OW24241   0.368   2.919  15.051  0.2357 -0.5078  0.1425
 4260SOL    HW124242   0.393   3.000  15.007 -0.3571  0.1253  0.9727
 4260SOL    HW224243   0.452   2.897  15.093  0.0004 -0.0619  0.8484
 4261SOL     OW24244   3.578   4.509   9.330 -0.2147 -0.5062 -0.0767
 4261SOL    HW124245   3.648   4.559   9.371  0.4975 -0.0981 -1.7711
 4261SOL    HW224246   3.589   4.430   9.384  0.9884  0.8599  1.6509
 4262SOL     OW24247   2.750   1.355   4.746 -0.5744 -0.0477  0.2650
 4262SOL    HW124248   2.755   1.360   4.841  0.8415 -0.9511  0.2382
 4262SOL    HW224249   2.737   1.262   4.727 -0.4711  0.0402 -0.2379
 4263SOL     OW24250   3.220   4.508   5.766 -0.0804  0.3912 -0.4675
 4263SOL    HW124251   3.136   4.553   5.779  1.3320  2.8941 -0.1145
 4263SOL    HW224252   3.267   4.557   5.833 -2.8768 -2.2373  3.3457
 4264SOL     OW24253   2.439   4.501   7.442 -0.1469 -0.5269 -0.2140
 4264SOL    HW124254   2.411   4.555   7.368 -0.0904  0.0043  0.1517
 4264SOL    HW224255   2.389   4.537   7.515 -1.1062  1.9584 -2.0777
 4265SOL     OW24256   2.600   0.481   2.144  0.2781 -0.3248 -0.1286
 4265SOL    HW124257   2.548   0.501   2.066  0.1179  0.0614  0.0760
 4265SOL    HW224258   2.571   0.556   2.196 -0.4412 -0.4620 -0.3365
 4266SOL     OW24259   3.734   4.024  10.269  0.1118 -0.1874  0.6099
 4266SOL    HW124260   3.756   3.931  10.269 -0.4405 -0.3189  0.2630
 4266SOL    HW224261   3.814   4.063  10.303  1.0618  1.6295 -3.7084
 4267SOL     OW24262   4.237   4.019   2.789  0.1325 -0.1398 -0.0332
 4267SOL    HW124263   4.162   4.070   2.819 -1.3942 -1.1348 -2.1669
 4267SOL    HW224264   4.303   4.081   2.757 -0.0102  0.1439  0.2291
 4268SOL     OW24265   1.755   1.471   1.297  0.0065 -0.0359 -0.3715
 4268SOL    HW124266   1.701   1.505   1.225 -0.9975  1.5583  1.1495
 4268SOL    HW224267   1.723   1.522   1.371  1.7184 -0.4104  0.6344
 4269SOL     OW24268   3.255   4.564   6.116 -0.0203 -0.1756  0.1946
 4269SOL    HW124269   3.336   4.559   6.166 -0.8089 -2.4371  1.2668
 4269SOL    HW224270   3.240   4.474   6.086  2.4474 -0.9174  1.1590
 4270SOL     OW24271   2.729   1.315   8.680  0.3169  0.0912  0.3124
 4270SOL    HW124272   2.667   1.374   8.723 -0.3700  0.0054 -0.5749
 4270SOL    HW224273   2.742   1.249   8.749  1.8389 -0.8802 -0.9007
 4271SOL     OW24274   4.058   0.790   3.845  0.0235 -0.3699 -0.1100
 4271SOL    HW124275   4.140   0.839   3.854 -0.1632 -0.4305  1.7923
 4271SOL    HW224276   4.037   0.834   3.762 -1.3763  0.0776  0.4830
 4272SOL     OW24277   2.080   2.619   7.835 -0.1762  0.0705  0.5848
 4272SOL    HW124278   1.995   2.598   7.875 -1.0710  0.6447 -1.0024
 4272SOL    HW224279   2.112   2.532   7.809 -1.4759 -0.2354  0.0219
 4273SOL     OW24280   1.459   4.697  15.874  0.0915  0.4577 -0.1305
 4273SOL    HW124281   1.454   0.048  15.931  1.1885  0.1840  0.3359
 4273SOL    HW224282   1.527   0.006  15.816  1.4412  0.7718  1.6608
 4274SOL     OW24283   3.607   1.670   7.083  0.2761  0.2882 -0.2631
 4274SOL    HW124284   3.574   1.645   6.997  0.0758  0.3564 -0.2059
 4274SOL    HW224285   3.697   1.637   7.082 -0.1925 -1.0049  0.1441
 4275SOL     OW24286   2.839   2.141   9.653 -0.2116  0.5409  0.1252
 4275SOL    HW124287   2.785   2.102   9.584  0.6064  1.0999 -0.8339
 4275SOL    HW224288   2.777   2.196   9.700 -1.8741 -1.3283  0.1276
 4276SOL     OW24289   0.614   1.090   1.618 -0.0225  0.4002  0.0904
 4276SOL    HW124290   0.583   1.131   1.537  1.6095  1.1087 -0.1712
 4276SOL    HW224291   0.661   1.016   1.580  0.9737 -0.2376  2.5813
 4277SOL     OW24292   1.657   3.941  16.412  0.4572 -0.5104 -0.4017
 4277SOL    HW124293   1.702   3.988  16.342  0.2338  1.6884  0.9324
 4277SOL    HW224294   1.704   3.858  16.402 -1.1425 -1.1462 -2.7571
 4278SOL     OW24295   2.359   1.039  10.019 -0.0272  0.1347 -0.1428
 4278SOL    HW124296   2.406   0.977  10.075  0.2858  0.7650  0.2945
 4278SOL    HW224297   2.337   1.107  10.082 -0.4248 -0.1741  0.0594
 4279SOL     OW24298   4.021   3.118   7.644 -0.4546  0.0614  0.4171
 4279SOL    HW124299   3.933   3.154   7.640 -0.1473  0.8597  0.9246
 4279SOL    HW224300   4.001   3.025   7.646  1.2323 -0.2978  0.9485
 4280SOL     OW24301   0.358   1.251   1.578  0.3013  0.4187 -0.0485
 4280SOL    HW124302   0.421   1.300   1.631  0.6400  2.9646 -2.7836
 4280SOL    HW224303   0.387   1.277   1.490 -1.9263  3.1846  0.0377
 4281SOL     OW24304   3.609   3.076   6.387 -0.0254  0.2292  0.3096
 4281SOL    HW124305   3.640   3.070   6.477  0.9018 -2.1519 -0.1659
 4281SOL    HW224306   3.672   3.135   6.347 -2.1511  2.0734 -0.3066
 4282SOL     OW24307   0.386   2.066  11.591  0.8650 -0.1292  0.4209
 4282SOL    HW124308   0.316   2.018  11.547  0.1181  1.6060 -0.2851
 4282SOL    HW224309   0.428   2.097  11.510  0.6420 -0.5667  0.1365
 4283SOL     OW24310   0.635   1.367  14.346  0.3687 -0.3574  0.3695
 4283SOL    HW124311   0.553   1.322  14.364  0.1497  0.0995  0.5387
 4283SOL    HW224312   0.668   1.304  14.283  2.0163  0.9474 -0.1004
 4284SOL     OW24313   3.741   0.238   5.557 -0.5120 -0.2564  0.5730
 4284SOL    HW124314   3.729   0.157   5.507 -0.6465 -0.7495  1.4121
 4284SOL    HW224315   3.662   0.238   5.611 -0.3147 -1.2200  0.8542
 4285SOL     OW24316   0.283   0.698   9.443  0.2690  0.1974  0.3608
 4285SOL    HW124317   0.202   0.648   9.431 -0.1416  0.2793  2.7141
 4285SOL    HW224318   0.294   0.679   9.537  3.4400 -1.2160 -0.2680
 4286SOL     OW24319   1.917   2.139   2.140  0.6001  0.0250  0.5199
 4286SOL    HW124320   1.946   2.050   2.160  0.1412 -0.4622 -0.9777
 4286SOL    HW224321   2.001   2.166   2.102  0.9643  0.1483  1.4071
 4287SOL     OW24322   4.320   0.129   3.098  0.3117  0.1454  0.1800
 4287SOL    HW124323   4.332   0.040   3.130 -1.1551 -0.4727 -1.0015
 4287SOL    HW224324   4.226   0.128   3.080  0.1525  0.0847  0.9947
 4288SOL     OW24325   3.226   4.673   2.141  0.1796 -0.1456 -0.1927
 4288SOL    HW124326   3.274   4.627   2.073 -1.8256 -0.1284 -1.6258
 4288SOL    HW224327   3.188   0.016   2.087  1.0312  1.0333  0.7171
 4289SOL     OW24328   1.455   3.986   8.172  0.3841  0.3331  0.1527
 4289SOL    HW124329   1.458   3.966   8.079  1.6304 -0.3936  0.3532
 4289SOL    HW224330   1.527   3.934   8.208  0.7095  1.3297  0.9612
 4290SOL     OW24331   0.240   3.763   8.791  0.5363  0.0406  0.1508
 4290SOL    HW124332   0.296   3.827   8.747  0.3921  1.1697  1.5740
 4290SOL    HW224333   0.198   3.812   8.862 -1.7863  0.0619 -1.2478
 4291SOL     OW24334   3.289   1.141   3.029 -0.5177  0.4752  0.8441
 4291SOL    HW124335   3.347   1.204   2.985 -1.5086  0.6494 -0.2127
 4291SOL    HW224336   3.205   1.187   3.026  1.2143  3.6215  0.3819
 4292SOL     OW24337   1.104   1.805  15.802 -0.0345  0.0367 -0.2232
 4292SOL    HW124338   1.192   1.830  15.774 -0.2243 -0.8990 -1.6444
 4292SOL    HW224339   1.049   1.862  15.748 -0.1232  2.7311  2.6736
 4293SOL     OW24340   0.685   1.180   9.578 -0.1797  0.4340 -0.0794
 4293SOL    HW124341   0.592   1.161   9.591 -0.7618  2.0685 -1.9097
 4293SOL    HW224342   0.696   1.272   9.601 -1.5183  0.2988  1.1067
 4294SOL     OW24343   2.054   3.974   3.745 -0.6063 -0.6986  0.0727
 4294SOL    HW124344   2.016   3.936   3.666  0.7755 -1.1059 -0.4084
 4294SOL    HW224345   2.145   3.946   3.741  0.2514  2.1321 -0.4509
 4295SOL     OW24346   4.084   2.308   4.981 -0.1387 -0.2000  0.1783
 4295SOL    HW124347   4.151   2.250   4.945 -1.3994 -1.3223 -0.3602
 4295SOL    HW224348   4.099   2.297   5.075 -1.7125 -1.1453  0.3193
 4296SOL     OW24349   0.051   3.790   3.764 -0.0775  0.6773 -0.3522
 4296SOL    HW124350   0.137   3.761   3.733 -0.4783 -0.5714 -0.2998
 4296SOL    HW224351   0.029   3.846   3.690  0.6925  3.0030  1.2134
 4297SOL     OW24352   3.780   4.328   0.937 -0.2137  0.3567  0.3165
 4297SOL    HW124353   3.744   4.396   0.880 -0.5221  0.4618  0.6367
 4297SOL    HW224354   3.854   4.289   0.890 -1.6420 -3.3686  1.1760
 4298SOL     OW24355   0.102   4.167   3.694 -0.8941 -0.0475  0.5094
 4298SOL    HW124356   0.116   4.104   3.624 -1.1745  0.2569  0.1828
 4298SOL    HW224357   0.085   4.110   3.769 -2.0441  0.4745  0.6446
 4299SOL     OW24358   4.721   0.752  13.305  0.4665 -0.4470  0.4082
 4299SOL    HW124359   4.715   0.681  13.240  3.6186 -0.6468  0.3348
 4299SOL    HW224360   0.002   0.827  13.246 -0.7546  0.0183  0.8629
 4300SOL     OW24361   2.326   0.966   6.500 -0.4734 -0.3696  0.0026
 4300SOL    HW124362   2.292   0.906   6.566 -1.8517  0.8021  0.3438
 4300SOL    HW224363   2.406   0.927   6.463 -0.5891 -1.3132  0.7336
 4301SOL     OW24364   1.819   4.229   1.496 -0.1870 -0.4383  0.1793
 4301SOL    HW124365   1.863   4.236   1.411 -1.2138  1.2115 -0.2203
 4301SOL    HW224366   1.726   4.242   1.476  0.0142 -1.2770 -1.2874
 4302SOL     OW24367   0.287   4.106   7.466  0.2758 -0.9471  0.0459
 4302SOL    HW124368   0.270   4.183   7.412 -0.7696 -0.8420  0.5301
 4302SOL    HW224369   0.378   4.121   7.493 -0.4518  0.9815  1.3897
 4303SOL     OW24370   3.539   3.411   9.213 -0.1584  0.2897  0.3337
 4303SOL    HW124371   3.549   3.506   9.226  0.7967  0.2883 -0.3802
 4303SOL    HW224372   3.450   3.403   9.178 -0.0450 -3.1296  0.8820
 4304SOL     OW24373   3.509   2.775   3.630 -1.1912  0.4339 -0.4320
 4304SOL    HW124374   3.559   2.696   3.608 -0.8942  0.3699  0.4415
 4304SOL    HW224375   3.442   2.768   3.561 -3.5717 -0.0596  1.9111
 4305SOL     OW24376   0.611   0.267   8.328  0.0910 -0.1718 -0.3168
 4305SOL    HW124377   0.590   0.302   8.415 -0.9810  0.8835 -1.0120
 4305SOL    HW224378   0.691   0.221   8.354 -0.1240 -0.3005  0.1202
 4306SOL     OW24379   2.247   1.685   6.571  0.1214 -0.0531  0.0396
 4306SOL    HW124380   2.183   1.664   6.504  2.8187 -1.5100 -2.1167
 4306SOL    HW224381   2.319   1.625   6.549  0.0890  0.6015 -1.7913
 4307SOL     OW24382   2.224   0.496   6.990  0.1459 -0.5186 -0.0332
 4307SOL    HW124383   2.249   0.404   6.996  1.5980 -0.0926  0.4894
 4307SOL    HW224384   2.188   0.501   6.901  0.7289  1.0286 -0.1767
 4308SOL     OW24385   1.038   3.320   7.540 -0.6377  0.0028 -0.1112
 4308SOL    HW124386   1.060   3.232   7.508 -0.4216  0.5915 -1.5969
 4308SOL    HW224387   1.109   3.339   7.601  0.0640 -1.4435 -0.4650
 4309SOL     OW24388   4.550   3.766   7.448  0.0683 -0.6722  0.1928
 4309SOL    HW124389   4.477   3.726   7.401 -1.7501  1.0577  1.5455
 4309SOL    HW224390   4.546   3.725   7.535 -1.7941 -0.5657  0.1656
 4310SOL     OW24391   3.999   3.991   8.877  0.3190 -0.2210 -0.1086
 4310SOL    HW124392   3.909   3.969   8.853  0.8871 -2.8518  0.1678
 4310SOL    HW224393   4.057   3.949   8.813  0.1626  0.0206 -0.4113
 4311SOL     OW24394   3.196   2.438   4.275 -0.3797 -0.7293 -0.5014
 4311SOL    HW124395   3.280   2.419   4.234  0.6713  2.7427  0.0654
 4311SOL    HW224396   3.166   2.519   4.233  2.0354 -0.6148 -2.0046
 4312SOL     OW24397   3.262   3.120   6.009 -0.6679  0.1569  0.3598
 4312SOL    HW124398   3.288   3.029   6.023  0.8896  0.6352  0.4757
 4312SOL    HW224399   3.256   3.113   5.914  3.7655 -0.7227  0.1918
 4313SOL     OW24400   4.556   4.066   2.956 -0.2618  0.2328  0.3416
 4313SOL    HW124401   4.489   4.042   3.020 -1.9767  1.1457 -1.1357
 4313SOL    HW224402   4.550   3.993   2.894 -2.1219  0.6775  0.0221
 4314SOL     OW24403   2.683   3.811   2.330 -0.2688  0.2388 -0.1995
 4314SOL    HW124404   2.722   3.885   2.375  2.1037 -0.6869 -0.7484
 4314SOL    HW224405   2.723   3.738   2.377 -1.1522  1.1352  1.9765
 4315SOL     OW24406   0.211   0.187   5.768 -0.4120 -0.0654 -0.4452
 4315SOL    HW124407   0.306   0.177   5.765 -0.3759  0.0340  0.3886
 4315SOL    HW224408   0.185   0.141   5.688  0.2898 -1.9013  0.3851
 4316SOL     OW24409   0.683   3.083   6.388 -0.1378 -0.3786  0.0039
 4316SOL    HW124410   0.708   2.992   6.373  0.5970 -0.5156  2.0670
 4316SOL    HW224411   0.594   3.075   6.422 -0.6284 -1.7838 -1.6509
 4317SOL     OW24412   1.418   2.228  17.605  0.3682 -0.5992 -0.6394
 4317SOL    HW124413   1.441   2.246  17.514 -0.1541  2.2373 -0.2129
 4317SOL    HW224414   1.438   2.135  17.606  3.1195 -0.0373 -2.2087
 4318SOL     OW24415   0.826   3.479   0.345  0.9873 -0.0789 -0.1236
 4318SOL    HW124416   0.773   3.421   0.400  2.6916 -0.4731  1.0970
 4318SOL    HW224417   0.838   3.433   0.261  0.6943 -0.0230 -0.1960
 4319SOL     OW24418   1.670   4.724   8.853 -0.1460  0.0110 -0.7553
 4319SOL    HW124419   1.623   0.081   8.838 -1.7607 -1.2709 -2.7617
 4319SOL    HW224420   1.701   4.703   8.765 -0.0853  2.0076 -1.2182
 4320SOL     OW24421   4.008   2.058   6.416  0.2343 -0.0543 -0.1260
 4320SOL    HW124422   3.957   1.982   6.444  1.9625 -0.0101  3.2210
 4320SOL    HW224423   4.031   2.032   6.327  0.0163 -2.9538  0.6345
 4321SOL     OW24424   3.760   2.016   7.063 -0.3198 -0.5197  0.4849
 4321SOL    HW124425   3.836   2.070   7.083 -0.0302 -0.8057  0.1628
 4321SOL    HW224426   3.729   2.065   6.987  2.1362 -0.9580 -0.8222
 4322SOL     OW24427   2.579   3.177   2.415 -0.3564  0.3478  0.2665
 4322SOL    HW124428   2.557   3.219   2.498 -0.8043  0.7700 -0.0705
 4322SOL    HW224429   2.527   3.097   2.415 -0.5054  0.4340  1.6809
 4323SOL     OW24430   0.568   0.345   5.348 -0.4784 -0.6181 -0.3422
 4323SOL    HW124431   0.493   0.298   5.385  1.5559 -1.2109  2.9907
 4323SOL    HW224432   0.560   0.320   5.256 -0.8795 -2.3728  0.1660
 4324SOL     OW24433   3.833   3.500   5.509 -0.5903  0.3737  0.0862
 4324SOL    HW124434   3.895   3.444   5.555 -0.9126 -0.3141 -0.3212
 4324SOL    HW224435   3.802   3.556   5.580 -0.1088 -2.4720  2.5201
 4325SOL     OW24436   2.105   0.366   7.493 -0.2324  0.1399  0.2449
 4325SOL    HW124437   2.157   0.402   7.565  0.7466 -0.5257 -0.1249
 4325SOL    HW224438   2.161   0.298   7.454 -0.1473  1.9913 -2.8953
 4326SOL     OW24439   1.110   4.603   6.401 -0.1536 -0.0639  0.5849
 4326SOL    HW124440   1.016   4.614   6.392  0.3577  3.9105  0.2880
 4326SOL    HW224441   1.118   4.570   6.490  1.6577 -0.2922  0.3499
 4327SOL     OW24442   1.217   0.420   3.484  0.3470 -0.9386 -0.1312
 4327SOL    HW124443   1.201   0.484   3.415 -3.6398 -0.4384  1.3027
 4327SOL    HW224444   1.153   0.445   3.550  1.8289  1.3111  0.4330
 4328SOL     OW24445   3.560   2.691   4.293  0.2974 -0.1195  0.3560
 4328SOL    HW124446   3.510   2.613   4.271  1.2928 -0.7757  0.4152
 4328SOL    HW224447   3.537   2.756   4.227 -1.7527 -0.6817  0.5281
 4329SOL     OW24448   1.064   0.432   7.129  0.2320  0.2896 -0.5452
 4329SOL    HW124449   1.063   0.376   7.052 -0.4570 -0.7257  0.2033
 4329SOL    HW224450   1.070   0.523   7.099  0.2932  0.3436 -0.3736
 4330SOL     OW24451   4.021   2.896   1.495  0.6197  0.5335  0.2895
 4330SOL    HW124452   4.112   2.924   1.510  0.3393  1.1043  0.8885
 4330SOL    HW224453   4.005   2.832   1.564 -2.9299  0.5159 -0.5884
 4331SOL     OW24454   2.382   1.855  13.761  0.5647  0.2763 -0.3041
 4331SOL    HW124455   2.435   1.921  13.715  1.0270 -0.2966 -0.5962
 4331SOL    HW224456   2.442   1.781  13.748 -0.7166 -1.1890  2.1455
 4332SOL     OW24457   3.900   0.493  15.245 -0.0486  0.0643 -0.1131
 4332SOL    HW124458   3.964   0.557  15.215 -0.5273  0.9091  0.6710
 4332SOL    HW224459   3.931   0.488  15.335  2.0528  1.0114 -0.7958
 4333SOL     OW24460   4.203   0.776   6.386 -0.2915  0.5702 -0.6420
 4333SOL    HW124461   4.167   0.697   6.426 -1.3802  0.5680 -1.6048
 4333SOL    HW224462   4.296   0.754   6.389 -0.3916  0.1988 -0.2975
 4334SOL     OW24463   2.755   4.523  15.711 -0.1749  0.0236 -0.3353
 4334SOL    HW124464   2.830   4.474  15.745 -1.1072  0.1102  1.8547
 4334SOL    HW224465   2.682   4.514  15.772 -1.5395 -0.4571 -2.0209
 4335SOL     OW24466   1.999   3.631   4.269 -0.2919  0.1757 -0.1196
 4335SOL    HW124467   1.969   3.561   4.328  2.6931 -0.9531  0.0341
 4335SOL    HW224468   2.083   3.652   4.309  1.8400 -0.8054 -4.1062
 4336SOL     OW24469   1.794   0.239   7.977  0.1612 -0.3091 -0.1136
 4336SOL    HW124470   1.714   0.202   8.014  0.1261  0.3532  0.4811
 4336SOL    HW224471   1.834   0.282   8.053 -0.8453  1.1342 -0.3983
 4337SOL     OW24472   0.959   0.668   0.896 -0.6115 -0.2869 -0.0168
 4337SOL    HW124473   1.030   0.624   0.848 -0.2304 -1.7971  1.9108
 4337SOL    HW224474   0.885   0.613   0.871  1.0526 -2.8186  0.5272
 4338SOL     OW24475   3.366   1.742  15.342  0.2917  0.2978  0.4663
 4338SOL    HW124476   3.433   1.762  15.276 -0.0862 -0.4921 -0.1582
 4338SOL    HW224477   3.410   1.775  15.420  3.1290 -1.8004 -0.2514
 4339SOL     OW24478   3.168   3.392  12.120 -0.3117 -0.1811 -0.0715
 4339SOL    HW124479   3.250   3.363  12.160  0.5925  2.7181  0.1965
 4339SOL    HW224480   3.171   3.486  12.100 -0.0110 -0.4951 -1.4977
 4340SOL     OW24481   0.391   3.219   5.277 -0.5225  0.6064 -0.3247
 4340SOL    HW124482   0.392   3.135   5.324  2.5971  0.9761  0.2767
 4340SOL    HW224483   0.333   3.264   5.339 -0.7692 -0.2236  0.0452
 4341SOL     OW24484   0.244   1.452   2.831  0.0938  0.9599 -0.1288
 4341SOL    HW124485   0.185   1.435   2.904 -0.8506 -0.9124 -1.3323
 4341SOL    HW224486   0.329   1.478   2.865  0.5504 -0.8064  0.0806
 4342SOL     OW24487   3.418   2.115   4.095  0.0625  0.2382 -0.3297
 4342SOL    HW124488   3.397   2.092   4.004 -1.9976 -0.4902  0.3385
 4342SOL    HW224489   3.486   2.059   4.131  0.8749 -0.8230 -3.4799
 4343SOL     OW24490   2.807   3.162   8.268 -0.1821  0.4849 -0.5142
 4343SOL    HW124491   2.861   3.109   8.326 -0.7020  3.1906  2.3981
 4343SOL    HW224492   2.738   3.096   8.255  0.6458  0.2876 -4.0865
 4344SOL     OW24493   1.178   3.771  16.508 -0.6900  0.5467  0.7183
 4344SOL    HW124494   1.138   3.742  16.590  2.8588  0.0339  2.2736
 4344SOL    HW224495   1.107   3.775  16.444 -0.7532  0.5916  0.7917
 4345SOL     OW24496   3.682   0.132   0.185  0.2354 -0.3766 -0.7730
 4345SOL    HW124497   3.630   0.196   0.136  0.8428  2.4775  2.2735
 4345SOL    HW224498   3.767   0.171   0.166 -0.3538  0.6098 -1.3997
 4346SOL     OW24499   3.747   2.428   3.141 -0.1274  0.0269 -0.1136
 4346SOL    HW124500   3.779   2.482   3.213  0.1692  3.2268 -2.6643
 4346SOL    HW224501   3.812   2.359   3.152  1.2820  1.5143  0.8048
 4347SOL     OW24502   4.032   1.864  13.611  0.0286 -0.2519 -0.3060
 4347SOL    HW124503   3.940   1.838  13.607  0.0896 -0.4288 -0.6165
 4347SOL    HW224504   4.077   1.810  13.546 -3.2577 -1.9771 -1.1345
 4348SOL     OW24505   0.594   1.586   1.832  0.4339  0.0170 -0.0099
 4348SOL    HW124506   0.530   1.575   1.761  0.3528  1.8359 -0.2240
 4348SOL    HW224507   0.533   1.619   1.898  0.2781  0.1264 -0.2048
 4349SOL     OW24508   1.796   0.491   6.476  0.0203  1.1471  0.1478
 4349SOL    HW124509   1.723   0.550   6.459 -0.5506  0.0900 -1.0478
 4349SOL    HW224510   1.871   0.550   6.481  1.0371  0.0781 -2.6893
 4350SOL     OW24511   3.184   0.974   3.914 -0.1245 -0.1106  0.0005
 4350SOL    HW124512   3.120   0.969   3.843 -0.4527 -0.2017  0.3008
 4350SOL    HW224513   3.194   1.069   3.910  0.9384 -0.1400  2.0039
 4351SOL     OW24514   4.188   2.209   3.836  0.2441 -0.0402  0.4556
 4351SOL    HW124515   4.217   2.296   3.809 -0.4485 -0.4132 -1.4941
 4351SOL    HW224516   4.182   2.213   3.931 -1.8556  2.5964  0.2193
 4352SOL     OW24517   1.958   1.174  17.199 -0.9667  0.5155  0.1330
 4352SOL    HW124518   2.004   1.248  17.238 -1.3844  1.5277 -1.2885
 4352SOL    HW224519   2.023   1.156  17.131 -0.5754  2.2868  0.0336
 4353SOL     OW24520   4.531   2.128  14.855  0.2814 -0.6171 -0.4528
 4353SOL    HW124521   4.608   2.132  14.799  0.2064  3.9083 -0.1926
 4353SOL    HW224522   4.543   2.210  14.903 -1.7030 -1.5318  1.6297
 4354SOL     OW24523   0.100   3.205   9.962  0.2329 -0.1557  0.2978
 4354SOL    HW124524   0.010   3.173   9.973 -0.1095  0.1471 -1.5914
 4354SOL    HW224525   0.112   3.237  10.051 -1.2331  0.6616  0.2035
 4355SOL     OW24526   3.831   0.262  16.936  0.3288  0.0783  0.1661
 4355SOL    HW124527   3.799   0.209  16.863  0.4973 -1.2699  1.0763
 4355SOL    HW224528   3.794   0.341  16.896 -0.6116 -0.5085 -0.1306
 4356SOL     OW24529   1.869   4.605   6.367 -0.3273 -0.1708  0.2315
 4356SOL    HW124530   1.917   4.641   6.441 -0.0070  0.2539 -0.1804
 4356SOL    HW224531   1.907   4.660   6.298 -0.3084  0.8869  1.1004
 4357SOL     OW24532   3.164   3.200   2.632  0.5625 -0.2277  0.5211
 4357SOL    HW124533   3.169   3.119   2.682 -2.0258 -0.9392 -0.3675
 4357SOL    HW224534   3.254   3.212   2.601  0.3082 -0.8251 -0.4572
 4358SOL     OW24535   2.233   4.113  13.279 -0.4245 -0.4485  0.1020
 4358SOL    HW124536   2.171   4.084  13.346 -1.5325  1.6254 -0.0268
 4358SOL    HW224537   2.176   4.102  13.203  1.1274  0.6232 -1.2169
 4359SOL     OW24538   0.394   2.833   1.265  0.2214  0.1806  0.0005
 4359SOL    HW124539   0.469   2.891   1.254  0.6200 -0.0913  1.3835
 4359SOL    HW224540   0.446   2.764   1.306  1.0093 -0.5883 -2.2781
 4360SOL     OW24541   4.102   3.887   3.091 -0.1645 -0.3525 -0.0286
 4360SOL    HW124542   4.193   3.919   3.087 -0.6468  0.9826 -0.2503
 4360SOL    HW224543   4.057   3.952   3.144 -0.5174 -1.0264  0.5028
 4361SOL     OW24544   0.807   0.486   1.112  0.4094  0.0596 -0.9393
 4361SOL    HW124545   0.764   0.480   1.198  0.0452 -0.2165 -1.1373
 4361SOL    HW224546   0.870   0.416   1.129 -1.0927 -0.9502  0.6058
 4362SOL     OW24547   2.966   4.013   7.371  0.0132  0.4192  0.1830
 4362SOL    HW124548   2.984   4.062   7.291  0.6559 -0.8758 -0.4716
 4362SOL    HW224549   3.028   3.940   7.367 -0.2876  0.0510  2.0017
 4363SOL     OW24550   2.647   3.124   4.308 -0.2611 -0.1545  0.3843
 4363SOL    HW124551   2.682   3.115   4.219  0.1984 -1.8693  0.7474
 4363SOL    HW224552   2.707   3.191   4.341 -1.7182  1.2634  0.1789
 4364SOL     OW24553   2.605   2.748   6.210  0.0137  0.5320  0.0247
 4364SOL    HW124554   2.642   2.760   6.122 -1.0208  1.0883 -0.3288
 4364SOL    HW224555   2.524   2.706   6.182  0.3494 -0.3362  0.3656
 4365SOL     OW24556   3.549   0.297   4.855  0.0820 -0.2084 -0.1045
 4365SOL    HW124557   3.641   0.275   4.867 -0.4994 -2.0377  0.9681
 4365SOL    HW224558   3.510   0.218   4.817  2.7872 -0.2865 -2.7290
 4366SOL     OW24559   1.860   1.491   4.901 -0.5004 -0.2647 -0.3041
 4366SOL    HW124560   1.947   1.469   4.934 -0.8045  0.1999  0.7958
 4366SOL    HW224561   1.854   1.425   4.831 -2.8914 -2.0109  1.5388
 4367SOL     OW24562   4.026   3.264   5.121 -0.4866  0.3216  0.0929
 4367SOL    HW124563   4.011   3.194   5.186 -1.3217 -0.4803 -0.9563
 4367SOL    HW224564   4.030   3.336   5.184 -2.7879  0.4593  0.0792
 4368SOL     OW24565   2.511   3.761   5.959 -0.0140  0.2627  0.6380
 4368SOL    HW124566   2.590   3.762   5.906 -1.7215 -1.3874 -1.9280
 4368SOL    HW224567   2.457   3.810   5.897  1.1943  0.8652  0.0667
 4369SOL     OW24568   1.598   2.177   7.258 -0.0227 -0.1949 -0.1307
 4369SOL    HW124569   1.555   2.150   7.176 -0.3175 -0.6566  0.1786
 4369SOL    HW224570   1.692   2.172   7.244 -0.0423 -1.8044  0.3894
 4370SOL     OW24571   1.999   0.636  14.453  0.1269  0.1784 -0.4719
 4370SOL    HW124572   1.978   0.709  14.512  2.2644  1.5458 -1.4080
 4370SOL    HW224573   2.078   0.597  14.489  0.0301 -1.0470 -1.5833
 4371SOL     OW24574   1.955   4.076   5.867 -0.1296 -0.6840  0.3267
 4371SOL    HW124575   1.939   4.045   5.778 -1.4792  1.1076 -0.0337
 4371SOL    HW224576   1.958   3.990   5.909  0.5021 -0.1932  1.2941
 4372SOL     OW24577   1.639   2.513   0.715  0.1813  0.1870 -0.3054
 4372SOL    HW124578   1.620   2.454   0.788 -0.2411 -3.0027 -2.9394
 4372SOL    HW224579   1.685   2.583   0.760 -2.4655  1.7821 -0.1040
 4373SOL     OW24580   1.789   4.104   7.456  0.7923 -1.3542  0.1611
 4373SOL    HW124581   1.840   4.124   7.377 -2.0324  0.0483 -1.3451
 4373SOL    HW224582   1.705   4.122   7.412 -0.2111 -1.0176  2.2254
 4374SOL     OW24583   3.633   4.498   0.784 -0.2156 -0.5949  0.0343
 4374SOL    HW124584   3.563   4.489   0.848  0.4357  0.0818  0.8425
 4374SOL    HW224585   3.577   4.498   0.706 -0.2404  0.7614  0.0402
 4375SOL     OW24586   2.755   2.388   3.109  0.0821 -0.1667  0.4255
 4375SOL    HW124587   2.757   2.310   3.053  0.9435 -0.0935  0.3678
 4375SOL    HW224588   2.848   2.407   3.101 -0.3846  2.5136  1.2081
 4376SOL     OW24589   4.598   2.471   3.861  0.0618  0.4005  0.4324
 4376SOL    HW124590   4.557   2.426   3.787 -0.8339  0.6859  0.7567
 4376SOL    HW224591   4.672   2.510   3.813 -2.3382  0.0833 -3.5470
 4377SOL     OW24592   1.731   0.708   6.702  0.1857 -0.0057 -0.1359
 4377SOL    HW124593   1.686   0.721   6.619  0.4894  2.1978  0.0379
 4377SOL    HW224594   1.663   0.748   6.757  1.0603  1.7413 -0.3349
 4378SOL     OW24595   1.026   1.201  10.245 -0.2996 -0.0778  0.1022
 4378SOL    HW124596   1.106   1.149  10.244 -0.8874 -0.9703 -0.7673
 4378SOL    HW224597   1.014   1.213  10.150 -0.1415  0.2915  0.1286
 4379SOL     OW24598   2.468   0.402   7.801  0.1507 -0.2662 -0.1819
 4379SOL    HW124599   2.507   0.486   7.828  2.3710 -0.8848 -1.4910
 4379SOL    HW224600   2.416   0.382   7.879 -0.4851 -2.3535 -1.1409
 4380SOL     OW24601   3.368   0.377   5.677 -0.1785  0.1490 -0.5062
 4380SOL    HW124602   3.406   0.454   5.718  2.0921 -1.2116 -0.0712
 4380SOL    HW224603   3.426   0.308   5.709 -0.4235  0.1603 -0.0378
 4381SOL     OW24604   1.964   3.098   5.086 -0.3037  0.5565  0.7456
 4381SOL    HW124605   1.940   3.187   5.059 -2.1928  0.6591  2.7545
 4381SOL    HW224606   1.890   3.076   5.143  0.2880 -2.9748  0.1420
 4382SOL     OW24607   1.892   4.607   5.238 -0.3457  0.2107  0.1941
 4382SOL    HW124608   1.834   4.678   5.211 -2.1829 -0.5404  2.1607
 4382SOL    HW224609   1.959   4.618   5.171 -0.6620 -0.4999 -0.2443
 4383SOL     OW24610   2.856   4.677   7.117  0.0968  0.2198  0.3891
 4383SOL    HW124611   2.912   4.601   7.101  1.0907  0.7590  1.2775
 4383SOL    HW224612   2.770   4.639   7.100 -1.0208  2.5671  0.8869
 4384SOL     OW24613   1.351   0.595   0.548  0.1715  0.0812  0.4752
 4384SOL    HW124614   1.320   0.534   0.481 -0.1969  1.6181 -0.7466
 4384SOL    HW224615   1.440   0.560   0.558  0.5368  1.0865  0.7574
 4385SOL     OW24616   0.460   2.211   1.252 -0.2626 -0.0181 -0.4576
 4385SOL    HW124617   0.390   2.246   1.197 -0.5995 -0.4094 -0.2757
 4385SOL    HW224618   0.533   2.204   1.190  2.4898 -1.3620  2.9631
 4386SOL     OW24619   4.292   2.932   4.126  0.0835 -0.1855  0.6169
 4386SOL    HW124620   4.333   2.862   4.177 -0.0080  0.4434  1.5476
 4386SOL    HW224621   4.345   2.921   4.047  0.2630  1.1713  0.5578
 4387SOL     OW24622   3.754   3.219  12.161  0.1755  0.1025 -0.2566
 4387SOL    HW124623   3.698   3.160  12.112 -1.5681  0.2150  1.5902
 4387SOL    HW224624   3.768   3.169  12.241  2.6044 -1.4826 -1.6766
 4388SOL     OW24625   4.234   0.446  12.619  0.2888 -0.3928 -0.1844
 4388SOL    HW124626   4.218   0.365  12.668  0.5306 -1.1713 -1.3733
 4388SOL    HW224627   4.160   0.502  12.642  0.8213 -0.9451  2.8178
 4389SOL     OW24628   1.730   2.271   6.772 -0.0603 -0.1801  0.5791
 4389SOL    HW124629   1.820   2.246   6.753 -0.0020 -0.7709  1.6638
 4389SOL    HW224630   1.745   2.364   6.788 -0.0892 -0.2861  1.2259
 4390SOL     OW24631   4.080   2.982  11.988  0.1761 -0.0938  0.7650
 4390SOL    HW124632   4.168   2.991  12.025  1.2212  0.1877 -1.7977
 4390SOL    HW224633   4.050   3.073  11.987  3.0478  0.8323 -0.2623
 4391SOL     OW24634   0.370   2.359   3.414 -0.2660  0.2909 -0.0476
 4391SOL    HW124635   0.333   2.325   3.332 -1.8371  0.0418  0.7729
 4391SOL    HW224636   0.448   2.306   3.426  0.1064  0.0982 -3.2805
 4392SOL     OW24637   0.312   4.534   8.026  0.2321 -0.0446 -0.0714
 4392SOL    HW124638   0.263   4.507   7.948  0.6499  2.0800 -1.0706
 4392SOL    HW224639   0.290   4.627   8.032 -1.3335 -0.4615  0.6660
 4393SOL     OW24640   0.133   4.109   2.077  0.4148  0.4469 -0.1237
 4393SOL    HW124641   0.223   4.090   2.105  1.4396  1.3451 -2.8319
 4393SOL    HW224642   0.087   4.131   2.158  0.1936 -0.4011 -0.0190
 4394SOL     OW24643   3.006   2.401   3.032  0.0917 -0.0975 -0.5519
 4394SOL    HW124644   3.078   2.457   3.063 -0.5980  0.1338  0.6576
 4394SOL    HW224645   3.066   2.332   3.004  1.0121  0.8740 -0.9703
 4395SOL     OW24646   1.045   3.267   9.879 -0.1974  0.0477  0.3724
 4395SOL    HW124647   0.977   3.212   9.839  0.6848 -1.2654  0.6852
 4395SOL    HW224648   1.123   3.212   9.882 -0.0963  0.1228 -1.0023
 4396SOL     OW24649   3.890   1.739   8.729 -0.0057  0.0490 -0.2984
 4396SOL    HW124650   3.824   1.797   8.765  1.2194 -0.3716  2.5984
 4396SOL    HW224651   3.936   1.728   8.812  0.2597 -1.7471 -0.6659
 4397SOL     OW24652   0.135   3.279  10.299 -0.2682  0.3777  0.7801
 4397SOL    HW124653   0.160   3.295  10.390  2.4140 -2.1065  0.4996
 4397SOL    HW224654   0.075   3.349  10.274 -0.4590 -0.7992 -2.0067
 4398SOL     OW24655   0.340   2.020   2.563 -0.3073 -0.2366  0.7291
 4398SOL    HW124656   0.346   2.022   2.467 -0.4613  2.8324  0.7696
 4398SOL    HW224657   0.367   2.112   2.570  2.2164 -0.8618 -0.5346
 4399SOL     OW24658   0.213   0.740   0.375 -0.1508 -0.0410 -0.2521
 4399SOL    HW124659   0.222   0.792   0.295  1.1402 -0.6744 -0.5166
 4399SOL    HW224660   0.214   0.809   0.442  1.6511 -0.2510 -0.0515
 4400SOL     OW24661   2.363   3.550  10.279  0.7386  0.0324  0.0568
 4400SOL    HW124662   2.405   3.502  10.208 -2.8808  1.4835 -3.0969
 4400SOL    HW224663   2.299   3.601  10.229  0.9000 -0.1122 -0.2915
 4401SOL     OW24664   0.522   2.112   8.555 -0.5117 -0.2128 -0.4250
 4401SOL    HW124665   0.551   2.049   8.621 -1.3156  0.4004  0.5119
 4401SOL    HW224666   0.535   2.198   8.594  0.6369 -1.6653  2.4051
 4402SOL     OW24667   2.358   0.686  15.516  0.3745  0.1050 -0.1360
 4402SOL    HW124668   2.332   0.762  15.568  0.0823  0.9641 -1.5293
 4402SOL    HW224669   2.454   0.689  15.510  0.3866 -1.0239 -0.4848
 4403SOL     OW24670   2.687   3.454   5.076 -0.4416  0.2645  0.0744
 4403SOL    HW124671   2.737   3.493   5.147 -1.2861 -1.3117  1.5497
 4403SOL    HW224672   2.679   3.528   5.016  3.3016  0.2795 -0.4097
 4404SOL     OW24673   3.446   3.951   7.577  0.0563  0.0996  0.1537
 4404SOL    HW124674   3.424   3.948   7.670  0.2223 -0.2899  0.1809
 4404SOL    HW224675   3.497   3.870   7.576  2.2770  1.4925 -0.9438
 4405SOL     OW24676   1.995   4.292   9.563  0.1901  0.9231 -0.2495
 4405SOL    HW124677   1.902   4.316   9.557 -0.1991 -0.6938 -0.6573
 4405SOL    HW224678   1.993   4.197   9.575  2.0302  1.0739  1.3092
 4406SOL     OW24679   2.545   4.218   3.854 -0.6764  0.7537  0.0975
 4406SOL    HW124680   2.549   4.216   3.949 -0.2465 -1.1919  0.0335
 4406SOL    HW224681   2.627   4.172   3.833 -1.0259  0.4312 -0.5692
 4407SOL     OW24682   4.698   0.954  17.429  0.2309  0.1025  0.0267
 4407SOL    HW124683   4.686   0.939  17.335  0.0943  1.4343 -0.1796
 4407SOL    HW224684   4.673   0.870  17.468  1.9321  0.5095  1.9974
 4408SOL     OW24685   0.578   4.638   1.121 -1.2159  0.3580 -0.2078
 4408SOL    HW124686   0.496   4.669   1.082 -0.8394  0.5855 -0.8081
 4408SOL    HW224687   0.573   4.659   1.214 -0.2568  0.9024 -0.2796
 4409SOL     OW24688   2.318   2.891   6.313  0.3400  0.5470  0.2657
 4409SOL    HW124689   2.303   2.913   6.405  2.1019 -3.7852  1.6029
 4409SOL    HW224690   2.326   2.796   6.323  0.3337  0.3823 -1.2967
 4410SOL     OW24691   0.307   1.594   9.064  0.5053  0.3919 -1.0466
 4410SOL    HW124692   0.396   1.564   9.046  0.5301 -0.9506  1.3403
 4410SOL    HW224693   0.283   1.537   9.136  2.9583  0.4911 -0.1404
 4411SOL     OW24694   3.651   1.241   2.027 -0.2247 -0.7119  0.2471
 4411SOL    HW124695   3.609   1.301   1.965 -0.4367 -1.4885 -0.3636
 4411SOL    HW224696   3.598   1.162   2.012 -3.4134  1.3034  0.9481
 4412SOL     OW24697   1.139   3.111   3.420 -0.0252  0.0001  0.2867
 4412SOL    HW124698   1.062   3.096   3.475  0.3926 -0.0684  0.8586
 4412SOL    HW224699   1.194   3.140   3.493  1.8319 -0.1621 -1.0494
 4413SOL     OW24700   3.246   3.679   0.792 -0.3023  0.1942  0.3856
 4413SOL    HW124701   3.339   3.687   0.774 -0.1655 -2.9805 -0.3746
 4413SOL    HW224702   3.205   3.715   0.714 -0.1073 -0.9661 -0.2488
 4414SOL     OW24703   0.698   1.355   2.395  0.8215  0.5775 -0.2189
 4414SOL    HW124704   0.615   1.387   2.360 -0.0756 -2.7130 -1.0455
 4414SOL    HW224705   0.666   1.308   2.472  0.5848  0.7554 -0.2058
 4415SOL     OW24706   4.060   0.014   0.085 -0.2680 -0.0819  0.5843
 4415SOL    HW124707   4.079   0.085   0.146 -1.3741  1.2954 -0.6753
 4415SOL    HW224708   4.090   4.660   0.129  2.2873  0.2716 -0.4705
 4416SOL     OW24709   0.312   3.260   3.133 -0.0806  0.2508 -0.6573
 4416SOL    HW124710   0.345   3.239   3.045  0.1261  1.0143 -0.7576
 4416SOL    HW224711   0.284   3.351   3.125 -1.1422  0.1729  2.2992
 4417SOL     OW24712   0.201   0.452   9.038  0.6496 -0.3763  0.3474
 4417SOL    HW124713   0.133   0.432   8.974  0.6109 -1.9372  0.8855
 4417SOL    HW224714   0.179   0.396   9.112 -1.1943  1.0176  0.8590
 4418SOL     OW24715   4.418   1.379  16.383 -0.1784 -0.2947  0.2908
 4418SOL    HW124716   4.367   1.361  16.461 -1.5410 -1.7005 -0.9235
 4418SOL    HW224717   4.350   1.426  16.334  0.5495 -0.5154 -0.9363
 4419SOL     OW24718   3.958   0.440   0.602  0.1585  0.6296  0.1176
 4419SOL    HW124719   3.880   0.386   0.593 -0.9293  2.4045 -1.0844
 4419SOL    HW224720   3.949   0.467   0.693  2.5796  1.5452  0.0757
 4420SOL     OW24721   3.933   4.374   6.917 -0.0836 -0.1042 -0.9133
 4420SOL    HW124722   3.991   4.349   6.989 -1.1682  0.2507  0.0880
 4420SOL    HW224723   3.858   4.405   6.967  0.0037 -1.2998 -0.0422
 4421SOL     OW24724   0.293   2.242   6.549 -0.3510 -0.0139  0.8719
 4421SOL    HW124725   0.304   2.293   6.630 -1.3655  0.8519  0.4529
 4421SOL    HW224726   0.201   2.255   6.530 -0.1319 -1.5601 -1.2347
 4422SOL     OW24727   1.316   4.280  10.535 -0.6090  0.1898 -0.1374
 4422SOL    HW124728   1.293   4.216  10.468 -0.7134  0.7540 -0.6411
 4422SOL    HW224729   1.262   4.356  10.514 -0.8095  0.0306 -0.1916
 4423SOL     OW24730   3.988   0.365   8.646 -0.3027 -0.3029  0.5914
 4423SOL    HW124731   3.947   0.297   8.592  2.6476  0.1994 -2.3206
 4423SOL    HW224732   4.024   0.414   8.572 -1.8570 -1.1357 -0.7245
 4424SOL     OW24733   4.087   3.070  10.553  0.1669 -1.0776  0.4978
 4424SOL    HW124734   4.083   3.161  10.524 -0.2252 -0.5662  2.1930
 4424SOL    HW224735   4.177   3.043  10.536 -0.4378 -3.7051  1.4623
 4425SOL     OW24736   3.015   0.608   7.683 -0.2988 -0.3769  0.0561
 4425SOL    HW124737   3.056   0.637   7.764  1.0045 -1.7038 -0.1200
 4425SOL    HW224738   3.075   0.635   7.614 -2.1937  0.0764 -1.4360
 4426SOL     OW24739   2.182   1.816  15.514 -0.3403 -0.0317 -0.3506
 4426SOL    HW124740   2.187   1.770  15.430 -1.1651  0.4236 -0.6434
 4426SOL    HW224741   2.240   1.764  15.570 -1.6931  0.1576  1.2458
 4427SOL     OW24742   1.599   2.146   8.073  0.4621  0.1471 -0.2944
 4427SOL    HW124743   1.577   2.199   7.997 -1.7217  0.0256  0.2639
 4427SOL    HW224744   1.686   2.183   8.089  1.0592 -1.4817  0.2572
 4428SOL     OW24745   3.487   4.434   1.858  0.3432  0.4846  0.6256
 4428SOL    HW124746   3.404   4.388   1.871  0.1456  0.8467  0.6288
 4428SOL    HW224747   3.509   4.396   1.773 -1.8140  0.5115  0.0564
 4429SOL     OW24748   4.692   2.985   4.548 -0.9407  0.3064 -0.1423
 4429SOL    HW124749   4.723   2.932   4.620  0.0918 -0.3037 -1.0406
 4429SOL    HW224750   4.682   2.924   4.475 -1.9659  0.1834  0.1036
 4430SOL     OW24751   4.396   3.320   6.804 -0.0728  0.1216  0.4130
 4430SOL    HW124752   4.439   3.239   6.775 -1.5308 -1.2028  2.0102
 4430SOL    HW224753   4.338   3.282   6.870  1.4336 -2.5218  0.2072
 4431SOL     OW24754   3.018   0.031  10.533  0.0958  0.1891  0.4657
 4431SOL    HW124755   2.971   0.110  10.507 -3.3866 -1.9790  0.1844
 4431SOL    HW224756   3.053   0.057  10.619  0.7953  2.3993 -0.4759
 4432SOL     OW24757   2.067   0.065   9.025 -0.4201 -0.0765 -0.1655
 4432SOL    HW124758   2.028   0.119   8.957 -1.3624  0.0375  0.4613
 4432SOL    HW224759   2.065   0.117   9.106 -0.7257  2.0522 -1.5625
 4433SOL     OW24760   0.971   1.004   7.336 -0.0287  0.6314  0.4657
 4433SOL    HW124761   0.967   1.049   7.420  0.4086 -1.1074  1.4283
 4433SOL    HW224762   1.044   0.944   7.352  1.2235  2.4323  1.4745
 4434SOL     OW24763   0.179   1.760   4.760  0.2641  0.2915  0.3057
 4434SOL    HW124764   0.091   1.789   4.785 -0.1650 -2.4422  2.0356
 4434SOL    HW224765   0.231   1.829   4.802  2.4059 -1.6897  0.9548
 4435SOL     OW24766   3.345   4.526   3.315  0.7268  0.4015  0.2746
 4435SOL    HW124767   3.299   4.542   3.397  1.7147 -0.5955  1.0334
 4435SOL    HW224768   3.320   4.610   3.277 -0.7477 -1.2029 -2.3373
 4436SOL     OW24769   3.008   4.595   3.379  0.2215  0.5772  0.1966
 4436SOL    HW124770   2.980   4.680   3.345 -1.5082 -0.0175  0.1507
 4436SOL    HW224771   3.074   4.606   3.447  0.1338  0.3339  0.3204
 4437SOL     OW24772   3.305   0.628   2.684 -0.6532  0.5537  0.0946
 4437SOL    HW124773   3.348   0.703   2.643 -0.9509 -0.9782 -3.0208
 4437SOL    HW224774   3.228   0.629   2.627 -0.4496  2.3651 -0.1508
 4438SOL     OW24775   0.631   3.035   3.915  0.3374 -0.0858 -0.7562
 4438SOL    HW124776   0.659   2.982   3.840  0.1430 -0.4027 -0.6025
 4438SOL    HW224777   0.666   2.995   3.995  1.9516  2.5590 -0.1490
 4439SOL     OW24778   1.194   3.563   7.382 -0.3609 -0.2125  0.3210
 4439SOL    HW124779   1.216   3.620   7.309 -0.1805  0.9054  1.2587
 4439SOL    HW224780   1.166   3.632   7.441 -1.3365  1.5459 -2.1780
 4440SOL     OW24781   0.407   3.895   6.019 -0.2432 -0.3954 -0.3557
 4440SOL    HW124782   0.382   3.848   5.940 -1.4717 -0.9931  0.3844
 4440SOL    HW224783   0.413   3.823   6.081  1.4984 -2.0515 -2.4743
 4441SOL     OW24784   4.660   0.825   0.490 -0.0251 -0.4815  0.7339
 4441SOL    HW124785   0.007   0.875   0.527  0.5516 -0.0761 -0.9460
 4441SOL    HW224786   4.661   0.849   0.397 -1.6182 -0.0812  0.8205
 4442SOL     OW24787   2.815   3.865   3.082  0.0255 -0.3226  0.2204
 4442SOL    HW124788   2.842   3.863   3.173  0.7869  0.4338  0.0117
 4442SOL    HW224789   2.886   3.816   3.040  1.2546  0.3969  1.4929
 4443SOL     OW24790   4.704   3.683   7.192 -0.7028 -0.4066  0.5664
 4443SOL    HW124791   0.069   3.661   7.212 -0.3483 -0.5398 -1.2572
 4443SOL    HW224792   4.673   3.733   7.268 -1.3720 -0.7284  0.5032
 4444SOL     OW24793   3.112   1.132   0.059 -0.3166 -0.0626 -0.1082
 4444SOL    HW124794   3.169   1.056   0.066 -1.0379 -0.7954 -2.2478
 4444SOL    HW224795   3.110   1.162   0.150  1.1298  0.7285 -0.3338
 4445SOL     OW24796   4.588   0.020  11.098 -0.1058  0.1480 -0.2118
 4445SOL    HW124797   4.613   4.669  11.150  1.0600 -0.1645 -1.2439
 4445SOL    HW224798   4.516   0.054  11.151 -0.1092  0.4840 -0.4292
 4446SOL     OW24799   4.685   0.352   2.099 -0.0616  0.0783  0.7411
 4446SOL    HW124800   4.683   0.437   2.142  0.7281  1.7534 -2.5602
 4446SOL    HW224801   0.051   0.334   2.078 -0.4613 -1.1421 -0.0027
 4447SOL     OW24802   2.567   0.824   6.378 -0.0677 -0.0487 -0.1689
 4447SOL    HW124803   2.513   0.746   6.391  1.0131 -0.5099  1.6627
 4447SOL    HW224804   2.626   0.799   6.307 -0.7954 -1.2492 -0.3541
 4448SOL     OW24805   0.275   2.559  16.812  0.1247 -0.0044 -0.0922
 4448SOL    HW124806   0.334   2.629  16.785  0.0300  0.2061  0.2563
 4448SOL    HW224807   0.252   2.590  16.899  0.9459  0.9980 -0.2387
 4449SOL     OW24808   4.538   3.567   3.011 -0.1944 -0.1785  0.4298
 4449SOL    HW124809   4.484   3.488   3.017 -0.3026 -0.0234  1.5721
 4449SOL    HW224810   4.621   3.528   2.984  0.2379  1.1496 -0.1392
 4450SOL     OW24811   0.825   2.358   4.948 -0.4057  0.0250  0.3877
 4450SOL    HW124812   0.908   2.399   4.972  0.9535 -3.6010  1.9802
 4450SOL    HW224813   0.854   2.268   4.933 -2.0029 -0.4533  0.1293
 4451SOL     OW24814   3.626   1.061   3.009 -0.1362 -0.5427  0.2105
 4451SOL    HW124815   3.619   1.077   3.103  1.8574  0.9511  0.1266
 4451SOL    HW224816   3.722   1.059   3.002 -0.2618 -1.3069 -1.2678
 4452SOL     OW24817   4.148   4.280   8.065  0.0210  0.0048  0.1840
 4452SOL    HW124818   4.089   4.287   7.990  2.1123 -0.8707 -1.5198
 4452SOL    HW224819   4.120   4.341   8.134  1.4911  1.3904 -0.4635
 4453SOL     OW24820   2.901   1.159  11.486 -0.1385  0.1712 -0.0248
 4453SOL    HW124821   2.836   1.213  11.441  0.9845  0.7337 -0.9962
 4453SOL    HW224822   2.932   1.231  11.541 -0.3932  0.5623 -0.3875
 4454SOL     OW24823   2.354   1.331   3.774 -0.5772 -0.0462  0.6964
 4454SOL    HW124824   2.369   1.243   3.809 -1.8657 -0.1159  1.0676
 4454SOL    HW224825   2.280   1.374   3.816 -3.2292 -3.3433 -0.5753
 4455SOL     OW24826   2.354   1.692  12.749  0.0069 -0.3111  0.3856
 4455SOL    HW124827   2.300   1.691  12.828 -0.6092  1.8672 -0.0172
 4455SOL    HW224828   2.410   1.615  12.757 -0.5931 -0.7704  0.0789
 4456SOL     OW24829   0.280   2.292   3.159  0.2876 -0.2423  0.3123
 4456SOL    HW124830   0.288   2.386   3.142 -0.9269 -0.0243  0.9485
 4456SOL    HW224831   0.193   2.266   3.129  0.7438 -2.0597  0.5538
 4457SOL     OW24832   0.368   2.425   0.098 -0.2791 -0.5851  0.0651
 4457SOL    HW124833   0.284   2.379   0.089 -1.2551  1.3624 -0.8467
 4457SOL    HW224834   0.342   2.508   0.140 -1.9672 -2.0305  1.8590
 4458SOL     OW24835   4.169   4.137  16.246  0.1333  0.4007 -0.7949
 4458SOL    HW124836   4.165   4.041  16.244 -0.3813  0.3890  0.8012
 4458SOL    HW224837   4.083   4.171  16.272 -0.2334 -0.5876 -0.7002
 4459SOL     OW24838   1.824   4.187   7.795 -0.7823  0.6298 -0.5007
 4459SOL    HW124839   1.876   4.192   7.875 -0.6801  2.9097 -0.7129
 4459SOL    HW224840   1.752   4.244   7.820 -0.5109  1.8171 -2.3779
 4460SOL     OW24841   1.230   1.806   7.885 -0.6221 -0.2241 -0.2956
 4460SOL    HW124842   1.319   1.834   7.864  0.5819 -2.5223  1.7293
 4460SOL    HW224843   1.242   1.799   7.980  1.4108  1.4438 -0.4297
 4461SOL     OW24844   0.524   4.704   4.074 -0.7424 -0.0841  0.2682
 4461SOL    HW124845   0.569   0.011   3.997  0.3368 -1.0813  0.4606
 4461SOL    HW224846   0.596   4.709   4.137  0.4885  0.7488 -1.2071
 4462SOL     OW24847   0.492   3.149  13.287 -0.3442  0.4393 -0.3413
 4462SOL    HW124848   0.405   3.165  13.249 -1.0112 -0.4006  0.8466
 4462SOL    HW224849   0.493   3.220  13.351  0.9981 -2.4013  2.7878
 4463SOL     OW24850   4.550   1.788   7.488 -0.3236 -0.5597 -0.3273
 4463SOL    HW124851   4.579   1.697   7.484  0.3559 -0.2421 -2.5212
 4463SOL    HW224852   4.529   1.792   7.581 -0.8914 -0.7216 -0.4523
 4464SOL     OW24853   1.934   3.787  16.599 -0.0313  0.6099 -0.0390
 4464SOL    HW124854   1.895   3.769  16.513  1.5583 -0.1074 -0.6054
 4464SOL    HW224855   1.870   3.753  16.662 -0.4190  1.7691  0.1941
 4465SOL     OW24856   0.941   2.868   9.036 -0.2403 -0.1942  0.2782
 4465SOL    HW124857   0.865   2.925   9.024 -0.0778 -0.0931 -0.2808
 4465SOL    HW224858   1.008   2.929   9.005  2.1308 -1.5255  2.6603
 4466SOL     OW24859   2.027   4.158  13.097  0.4037  0.4223  0.4476
 4466SOL    HW124860   2.115   4.194  13.085  1.6411 -2.6535  0.2087
 4466SOL    HW224861   1.976   4.202  13.028 -1.0391  0.0518  1.2833
 4467SOL     OW24862   2.349   0.623   5.433 -0.0101 -0.3496 -0.5450
 4467SOL    HW124863   2.391   0.627   5.519  0.0481  0.4716 -0.6096
 4467SOL    HW224864   2.420   0.660   5.380  1.2018 -2.2894 -0.2425
 4468SOL     OW24865   2.895   0.920   5.625 -0.5810 -0.6715 -0.3284
 4468SOL    HW124866   2.921   0.991   5.685 -1.3606 -0.3343 -0.3926
 4468SOL    HW224867   2.899   0.959   5.538 -1.3356  1.3845  0.5619
 4469SOL     OW24868   4.398   3.787  16.143  0.0838 -0.4060 -0.2379
 4469SOL    HW124869   4.433   3.715  16.195 -0.5908 -0.6834 -0.1681
 4469SOL    HW224870   4.458   3.859  16.164  0.6171 -1.3722  1.5551
 4470SOL     OW24871   4.576   1.470   1.291 -0.1894 -0.0702  0.1394
 4470SOL    HW124872   4.622   1.485   1.209 -1.3435 -1.0199 -0.6962
 4470SOL    HW224873   4.635   1.398   1.314 -0.9682 -0.4262  1.0740
 4471SOL     OW24874   0.222   2.636   7.503  0.0604  0.5683  0.0884
 4471SOL    HW124875   0.212   2.665   7.594  0.7908  0.5237  0.1831
 4471SOL    HW224876   0.187   2.547   7.507  0.3174  0.5740  2.3156
 4472SOL     OW24877   1.470   3.250   9.116  0.2469 -0.1855 -0.2640
 4472SOL    HW124878   1.492   3.245   9.210 -0.3994  0.9842 -0.0555
 4472SOL    HW224879   1.507   3.329   9.075 -1.2520  0.0468 -1.1387
 4473SOL     OW24880   0.089   1.096   3.944  0.2916  0.3287  0.9271
 4473SOL    HW124881   0.044   1.176   3.970  1.1891  0.6151  1.6281
 4473SOL    HW224882   0.178   1.130   3.931 -0.0458  0.1874 -1.5708
 4474SOL     OW24883   3.938   1.081   1.254 -0.2125  0.2447 -0.0617
 4474SOL    HW124884   3.923   1.161   1.304 -0.1896  0.8269 -0.9827
 4474SOL    HW224885   4.033   1.080   1.240 -0.0564 -0.7234  1.1522
 4475SOL     OW24886   3.168   1.371   2.347 -0.2365  0.8487 -0.1162
 4475SOL    HW124887   3.119   1.446   2.314 -0.0013  0.8108 -0.5520
 4475SOL    HW224888   3.256   1.407   2.354  0.0655 -0.1451  1.1429
 4476SOL     OW24889   0.246   2.814   5.050 -1.1663 -0.4708  0.0865
 4476SOL    HW124890   0.164   2.765   5.046 -0.3627 -1.9968  2.2412
 4476SOL    HW224891   0.265   2.808   5.143  4.5959  1.0949 -0.9831
 4477SOL     OW24892   0.197   0.256   2.582  0.3124 -0.0798 -0.1891
 4477SOL    HW124893   0.128   0.323   2.585 -1.0763 -1.5935  1.3601
 4477SOL    HW224894   0.203   0.230   2.674  0.0935 -0.7795 -0.3716
 4478SOL     OW24895   4.688   1.398   7.981 -0.8103 -0.2246 -0.0701
 4478SOL    HW124896   4.609   1.423   8.028 -0.4053  0.3943  0.2921
 4478SOL    HW224897   4.704   1.469   7.918  2.3318 -0.5636  0.3106
 4479SOL     OW24898   3.567   0.146   6.488  0.0616  0.1593 -0.3894
 4479SOL    HW124899   3.646   0.100   6.461  0.2420 -0.3121  0.9406
 4479SOL    HW224900   3.565   0.109   6.576 -4.1444 -3.4727 -2.0130
 4480SOL     OW24901   0.597   3.183  10.087 -0.2219  0.2469  0.8301
 4480SOL    HW124902   0.658   3.127  10.135  0.4523  0.9901  0.8361
 4480SOL    HW224903   0.517   3.163  10.136 -0.7436  0.7210  0.1803
 4481SOL     OW24904   4.311   4.518   1.647 -0.6184 -0.3020  0.8813
 4481SOL    HW124905   4.263   4.462   1.586 -0.8686  0.3725  0.4588
 4481SOL    HW224906   4.284   4.498   1.737 -2.2424  0.6480  0.6061
 4482SOL     OW24907   3.729   1.631   4.263 -0.2293 -0.2790 -0.2597
 4482SOL    HW124908   3.654   1.641   4.320  0.2382 -2.0173  0.6615
 4482SOL    HW224909   3.703   1.688   4.191 -1.6424 -1.0183 -0.3207
 4483SOL     OW24910   4.721   1.442  16.080  0.2239  0.1856  0.1020
 4483SOL    HW124911   4.706   1.510  16.146 -0.9436 -0.6538  0.6868
 4483SOL    HW224912   0.040   1.491  16.011 -0.6183  0.3465 -0.3365
 4484SOL     OW24913   4.490   3.582   8.056 -0.3973 -0.2327 -0.5233
 4484SOL    HW124914   4.395   3.587   8.067 -0.1155  0.4961  1.4794
 4484SOL    HW224915   4.504   3.674   8.036 -2.3634  0.0315 -0.6563
 4485SOL     OW24916   2.638   1.085   2.956  0.4118  0.2319 -0.0780
 4485SOL    HW124917   2.722   1.087   3.003 -0.1911  0.7927  0.9729
 4485SOL    HW224918   2.659   1.149   2.888 -3.1549 -0.2206 -1.6088
 4486SOL     OW24919   1.452   1.402  17.153 -0.0689  0.3343 -0.2469
 4486SOL    HW124920   1.511   1.453  17.096 -0.7155  1.0230 -0.2971
 4486SOL    HW224921   1.511   1.349  17.207 -0.8784 -0.4396 -0.1293
 4487SOL     OW24922   1.817   1.609  16.568 -0.2296 -0.1080  0.0446
 4487SOL    HW124923   1.875   1.683  16.588  0.4465 -0.1948 -1.6234
 4487SOL    HW224924   1.775   1.643  16.488 -0.7769 -0.1755  0.3022
 4488SOL     OW24925   2.163   4.414   7.813  0.0323  0.1248  0.4073
 4488SOL    HW124926   2.069   4.414   7.831 -0.0572 -0.8758 -0.0187
 4488SOL    HW224927   2.202   4.444   7.895 -0.5999  2.0275  0.0126
 4489SOL     OW24928   1.496   3.345   5.846  0.0496  0.3074  0.5256
 4489SOL    HW124929   1.498   3.255   5.816  1.0549  0.9057 -1.1981
 4489SOL    HW224930   1.577   3.357   5.895  0.5219  1.6201 -0.5615
 4490SOL     OW24931   1.686   0.144  13.432 -0.1358 -0.1470 -0.5947
 4490SOL    HW124932   1.673   0.075  13.497  0.8266 -1.3616 -1.7057
 4490SOL    HW224933   1.740   0.204  13.483 -0.1425  0.3261 -1.1368
 4491SOL     OW24934   4.078   0.132   7.584 -0.7167  0.8913 -0.2397
 4491SOL    HW124935   4.095   0.091   7.669  1.5975 -1.3632 -1.8140
 4491SOL    HW224936   3.982   0.124   7.582 -0.5716 -0.7504 -0.4033
 4492SOL     OW24937   2.258   1.541   4.274  0.6052  0.2331 -0.5164
 4492SOL    HW124938   2.235   1.619   4.223 -0.6002 -0.3079 -0.7792
 4492SOL    HW224939   2.319   1.496   4.215  3.2455  1.8386  0.9535
 4493SOL     OW24940   1.171   2.651   9.259 -0.0153  0.1500  0.1489
 4493SOL    HW124941   1.179   2.739   9.222 -1.4151  1.3853  2.7703
 4493SOL    HW224942   1.257   2.610   9.251  0.0492  0.8886 -2.8925
 4494SOL     OW24943   3.640   3.929   8.120 -0.3676  0.5460  0.4803
 4494SOL    HW124944   3.547   3.952   8.123 -0.4632  0.3266 -0.7069
 4494SOL    HW224945   3.641   3.876   8.200 -3.2169 -0.1550  0.0563
 4495SOL     OW24946   2.953   2.662   1.795  0.0541  0.2940 -0.0533
 4495SOL    HW124947   2.903   2.729   1.843  0.2794 -0.2855  0.9816
 4495SOL    HW224948   2.885   2.595   1.792 -0.7840  1.2705 -2.8194
 4496SOL     OW24949   0.144   1.189   5.082 -0.3995 -0.5063  0.3586
 4496SOL    HW124950   0.080   1.181   5.011  0.5163  1.1146 -0.6548
 4496SOL    HW224951   0.201   1.117   5.055 -0.1228 -0.3657  0.5765
 4497SOL     OW24952   0.354   4.646   7.285 -0.3121  0.8247  0.5865
 4497SOL    HW124953   0.422   4.677   7.225 -1.4374  2.1483 -0.0130
 4497SOL    HW224954   0.358   4.720   7.346  1.6204 -0.2252  1.6957
 4498SOL     OW24955   4.554   0.087   3.741  0.0148  0.2370  0.3828
 4498SOL    HW124956   4.610   0.160   3.715  0.3277 -0.1635 -0.0506
 4498SOL    HW224957   4.475   0.136   3.766 -1.1509 -0.3911 -2.0789
 4499SOL     OW24958   3.892   0.868  17.649 -0.3217  0.6547  0.0127
 4499SOL    HW124959   3.852   0.924   0.011  0.4083  1.1841  0.0114
 4499SOL    HW224960   3.816   0.831  17.603 -1.6065  2.4183  0.7022
 4500SOL     OW24961   1.510   1.989  17.515 -0.1268 -0.3469  0.6092
 4500SOL    HW124962   1.597   1.993  17.555 -0.6259  0.8284  1.5637
 4500SOL    HW224963   1.518   1.929  17.441 -1.9135 -0.4368  0.4773
 4501SOL     OW24964   1.669   3.597   3.951 -0.2638 -0.6881  0.0257
 4501SOL    HW124965   1.634   3.515   3.916  0.1642 -0.8037 -0.1214
 4501SOL    HW224966   1.760   3.574   3.967  0.0927  1.4136  1.1268
 4502SOL     OW24967   0.140   2.249  12.708 -0.1655  0.3562 -0.2945
 4502SOL    HW124968   0.044   2.242  12.708 -0.2060  0.8788  2.2390
 4502SOL    HW224969   0.172   2.190  12.640  0.9511 -1.3766  1.7172
 4503SOL     OW24970   3.408   2.610   0.531 -0.1091  0.4904  0.7946
 4503SOL    HW124971   3.479   2.556   0.494 -1.8625 -1.8580  0.8307
 4503SOL    HW224972   3.440   2.695   0.501 -1.3352  0.6557 -0.0665
 4504SOL     OW24973   2.396   0.782  12.725  0.0467  0.7255  0.2556
 4504SOL    HW124974   2.459   0.805  12.657 -0.3960  0.8166 -0.1185
 4504SOL    HW224975   2.319   0.838  12.719  0.9178  1.8574 -0.4181
 4505SOL     OW24976   4.634   2.009   8.676  0.4812 -0.4729 -0.0357
 4505SOL    HW124977   4.568   2.002   8.607  1.6840  1.4050 -1.4022
 4505SOL    HW224978   4.671   2.096   8.655 -0.2123 -0.1895 -0.0725
 4506SOL     OW24979   3.341   2.386   2.787 -0.1411 -0.3790  0.2752
 4506SOL    HW124980   3.300   2.316   2.838 -1.7604 -0.2472 -0.8105
 4506SOL    HW224981   3.355   2.343   2.702 -2.6313  1.6249 -1.1572
 4507SOL     OW24982   0.999   1.499   3.382  0.6453  0.1266  0.9681
 4507SOL    HW124983   0.962   1.411   3.389  1.1988 -0.0497  1.6329
 4507SOL    HW224984   1.039   1.501   3.295 -1.8440  1.3428 -0.1605
 4508SOL     OW24985   4.371   3.617   3.414 -0.6683 -0.7614 -0.2568
 4508SOL    HW124986   4.366   3.554   3.485 -0.4113  0.0165  0.4566
 4508SOL    HW224987   4.350   3.699   3.460 -0.6933  0.5662 -2.6303
 4509SOL     OW24988   3.379   0.221   6.961  0.0946 -0.3656 -0.6854
 4509SOL    HW124989   3.319   0.285   6.999 -0.2758 -1.2785  0.2510
 4509SOL    HW224990   3.306   0.166   6.931  0.4112 -1.4268  0.4946
 4510SOL     OW24991   1.057   2.832   8.671  0.5581  0.4221  0.3548
 4510SOL    HW124992   1.085   2.923   8.674 -0.1412  0.6642 -0.3325
 4510SOL    HW224993   1.135   2.778   8.663  0.4030  0.1272  0.8258
 4511SOL     OW24994   2.952   0.581   9.924 -0.2158 -0.3989  0.1369
 4511SOL    HW124995   2.912   0.580  10.011  0.3695  1.1542  0.4200
 4511SOL    HW224996   3.029   0.635   9.942 -1.7566  1.3276  1.6316
 4512SOL     OW24997   0.077   3.091  13.291 -0.0044 -0.2471  0.0482
 4512SOL    HW124998   0.093   3.004  13.254  2.3644 -0.5827  1.8618
 4512SOL    HW224999   0.153   3.144  13.268 -0.6501  1.0190  0.8264
 4513SOL     OW25000   3.768   0.289   0.966 -0.5231 -0.5367 -0.1962
 4513SOL    HW125001   3.726   0.285   1.052  0.4145 -0.1228  0.2859
 4513SOL    HW225002   3.859   0.265   0.985 -0.3243  0.5469  0.2104
 4514SOL     OW25003   0.111   4.532   3.180  0.2083 -0.2628  0.0711
 4514SOL    HW125004   0.131   4.441   3.163  0.4331  0.5829 -4.1667
 4514SOL    HW225005   0.114   4.546   3.275  0.6909 -4.1684  0.5967
 4515SOL     OW25006   1.093   3.838   3.368  0.5236 -0.0085 -0.3964
 4515SOL    HW125007   1.183   3.845   3.337  0.8288 -0.2381  0.4367
 4515SOL    HW225008   1.084   3.766   3.431  1.7637 -2.4459 -3.0367
 4516SOL     OW25009   3.537   4.290  16.187 -0.0486  0.1608 -0.2719
 4516SOL    HW125010   3.478   4.344  16.134 -1.5511  1.3748  2.6161
 4516SOL    HW225011   3.622   4.293  16.143 -0.1562 -0.2318 -0.5005
 4517SOL     OW25012   0.536   1.706  17.290  0.0439 -0.3689  0.6707
 4517SOL    HW125013   0.605   1.772  17.288  0.5018 -0.8317  1.4998
 4517SOL    HW225014   0.510   1.714  17.198  0.0807 -1.9948  0.5195
 4518SOL     OW25015   1.584   0.373   1.967  0.0969 -0.3403 -0.0391
 4518SOL    HW125016   1.661   0.419   1.932 -0.3989  0.1678 -0.4640
 4518SOL    HW225017   1.513   0.411   1.915  0.0257 -1.1785 -0.5459
 4519SOL     OW25018   3.880   0.297   3.727  0.4243 -0.7527  0.0867
 4519SOL    HW125019   3.943   0.319   3.658  0.8643 -1.1276  0.3698
 4519SOL    HW225020   3.807   0.356   3.710  0.9901  0.4342  1.7396
 4520SOL     OW25021   3.811   2.393   2.452  0.1847  0.0547  0.2051
 4520SOL    HW125022   3.865   2.350   2.385  2.2746  1.7593  0.8221
 4520SOL    HW225023   3.777   2.467   2.400  0.8162 -0.7942 -1.4205
 4521SOL     OW25024   1.996   1.253   3.732  0.5993  0.1731 -0.2208
 4521SOL    HW125025   2.045   1.253   3.650  0.4813  0.5525 -0.2913
 4521SOL    HW225026   2.038   1.326   3.778 -0.5391  1.6212 -1.4905
 4522SOL     OW25027   3.692   1.147  10.264  0.3108 -0.4906 -1.0318
 4522SOL    HW125028   3.638   1.114  10.336 -2.0902 -0.2438 -2.7234
 4522SOL    HW225029   3.757   1.078  10.249  1.5581  0.9916 -2.3281
 4523SOL     OW25030   2.178   3.492  10.774 -0.0509  0.4640  0.1704
 4523SOL    HW125031   2.269   3.522  10.778  0.5830 -1.4030 -0.3994
 4523SOL    HW225032   2.169   3.502  10.868 -0.5059  1.1400  0.0487
 4524SOL     OW25033   3.833   4.493  11.298 -0.5789  0.7924  0.3599
 4524SOL    HW125034   3.891   4.431  11.343  2.1204  1.2438 -2.5714
 4524SOL    HW225035   3.901   4.547  11.259  0.0844  0.7743  1.4731
 4525SOL     OW25036   0.624   0.503   8.512  0.7010  0.4159  0.1361
 4525SOL    HW125037   0.572   0.462   8.581  0.0838  0.7153 -0.1494
 4525SOL    HW225038   0.677   0.563   8.563 -0.2145  2.0157 -0.8024
 4526SOL     OW25039   0.874   2.543   7.044 -0.1269 -0.3654  0.2370
 4526SOL    HW125040   0.866   2.610   7.111  2.7214  0.0887  0.1163
 4526SOL    HW225041   0.967   2.523   7.055  0.4592  1.8030 -0.8084
 4527SOL     OW25042   1.634   2.303   2.643 -0.3649 -0.5290 -0.0987
 4527SOL    HW125043   1.670   2.249   2.573 -2.0322  0.9590 -2.1116
 4527SOL    HW225044   1.704   2.365   2.662 -0.8073  0.0002 -0.1773
 4528SOL     OW25045   3.035   2.332   5.666 -0.1812  0.4356 -0.2506
 4528SOL    HW125046   2.939   2.322   5.667 -0.3101  1.5539 -1.4672
 4528SOL    HW225047   3.062   2.261   5.723 -0.2570  2.2443  2.0447
 4529SOL     OW25048   2.298   2.845  14.833  0.2091 -0.8065 -0.2046
 4529SOL    HW125049   2.345   2.767  14.804 -1.9878 -1.8320 -0.9948
 4529SOL    HW225050   2.277   2.822  14.924 -1.9315  1.8514 -0.0001
 4530SOL     OW25051   1.532   4.087   5.713  0.4567 -0.4755  0.2085
 4530SOL    HW125052   1.449   4.040   5.702  0.8088 -1.3574  1.2959
 4530SOL    HW225053   1.592   4.021   5.679  1.1261 -0.6709  1.7750
 4531SOL     OW25054   0.682   3.994   1.102 -0.4881  0.4511  0.0709
 4531SOL    HW125055   0.759   4.016   1.049 -0.3943  0.0782  0.0504
 4531SOL    HW225056   0.668   3.900   1.087  0.0684  0.3230  0.3498
 4532SOL     OW25057   3.387   0.854   3.429 -0.5573  0.1610 -0.1901
 4532SOL    HW125058   3.296   0.825   3.443 -0.0185 -1.7290 -0.5817
 4532SOL    HW225059   3.376   0.854   3.334 -0.7918 -1.5711 -0.1572
 4533SOL     OW25060   2.928   0.845  14.520 -0.4611 -0.2930 -0.1746
 4533SOL    HW125061   2.926   0.940  14.537  0.0987 -0.0737 -1.3489
 4533SOL    HW225062   3.016   0.830  14.555 -0.5496  1.4774  0.8599
 4534SOL     OW25063   1.059   3.740   6.078  0.0179  0.2818 -0.6400
 4534SOL    HW125064   1.012   3.660   6.054  3.0841 -1.7055  0.0749
 4534SOL    HW225065   0.987   3.785   6.122 -0.3497 -1.1471  0.2266
 4535SOL     OW25066   2.959   1.676   7.597 -0.2679 -0.3686  0.5550
 4535SOL    HW125067   2.927   1.722   7.674 -0.2327 -1.2203  1.0817
 4535SOL    HW225068   2.880   1.657   7.547  0.4857  1.9224 -1.4871
 4536SOL     OW25069   0.142   1.625   2.263 -0.4634  0.3017  0.0073
 4536SOL    HW125070   0.172   1.567   2.193  1.6356  0.5234  0.7284
 4536SOL    HW225071   0.220   1.678   2.278 -1.0629  1.6932 -1.7710
 4537SOL     OW25072   0.904   3.012   3.095  0.3314 -0.1257 -0.3494
 4537SOL    HW125073   0.978   2.963   3.130 -0.5469 -2.1241 -1.2554
 4537SOL    HW225074   0.934   3.096   3.061  1.5054  0.2378  1.5730
 4538SOL     OW25075   2.141   4.049   7.425  0.0832  1.1931 -0.2728
 4538SOL    HW125076   2.226   4.040   7.468 -0.8858 -1.9664  0.9888
 4538SOL    HW225077   2.100   4.120   7.475 -0.3603  0.4194  0.4555
 4539SOL     OW25078   4.033   1.503  10.833 -0.4427  0.0696 -0.1508
 4539SOL    HW125079   4.096   1.434  10.850 -0.9710 -0.7212 -1.3739
 4539SOL    HW225080   4.045   1.504  10.738  0.3735  2.7982 -0.0284
 4540SOL     OW25081   1.364   4.289   3.198  0.1225 -0.7852 -0.5595
 4540SOL    HW125082   1.383   4.357   3.133  2.1458 -1.1284 -0.3135
 4540SOL    HW225083   1.376   4.207   3.149  1.4973 -0.6828 -0.3729
 4541SOL     OW25084   1.246   3.592   9.135  0.6991  0.6443 -0.5296
 4541SOL    HW125085   1.187   3.592   9.059  0.0423  1.3073 -0.0164
 4541SOL    HW225086   1.331   3.622   9.103  1.1162  1.3786  1.2723
 4542SOL     OW25087   1.809   4.239   2.832 -0.1851  0.1311 -0.1665
 4542SOL    HW125088   1.862   4.318   2.845  0.4423 -0.4578  0.8250
 4542SOL    HW225089   1.755   4.272   2.761 -0.5553  1.2109  0.6080
 4543SOL     OW25090   4.691   0.153   2.742  0.1032 -0.4456 -0.4189
 4543SOL    HW125091   4.692   0.232   2.796  0.7518 -0.3141 -0.6193
 4543SOL    HW225092   4.656   0.080   2.793  0.8555  0.2936  1.1560
 4544SOL     OW25093   2.662   3.234   4.743  0.0759  0.5223 -0.3905
 4544SOL    HW125094   2.681   3.154   4.695 -1.5833  0.6743 -1.3014
 4544SOL    HW225095   2.750   3.267   4.763  0.0761  1.2762 -1.5916
 4545SOL     OW25096   0.734   1.661   8.971 -0.7632 -0.2033 -0.0964
 4545SOL    HW125097   0.807   1.611   9.008  0.6559  1.1540 -1.0824
 4545SOL    HW225098   0.766   1.662   8.881 -1.0164 -1.9844 -0.2122
 4546SOL     OW25099   2.728   1.577  12.697  0.1463  0.1866  0.1700
 4546SOL    HW125100   2.766   1.616  12.776 -0.1974 -0.2440  0.5462
 4546SOL    HW225101   2.654   1.534  12.739  0.5190 -0.5527  0.0577
 4547SOL     OW25102   3.014   1.457  13.167  0.6911 -0.1371 -0.4687
 4547SOL    HW125103   3.091   1.399  13.171  0.1146 -0.7918  1.2650
 4547SOL    HW225104   2.996   1.482  13.258 -0.2160  0.6944 -0.8843
 4548SOL     OW25105   0.618   4.611   5.124  0.1178 -0.1093 -0.3140
 4548SOL    HW125106   0.580   4.600   5.211  0.0572 -2.6781 -0.6862
 4548SOL    HW225107   0.540   4.617   5.068  0.4666 -2.6081 -1.0609
 4549SOL     OW25108   2.911   2.974   4.839 -0.2384  0.1883 -0.7484
 4549SOL    HW125109   2.851   3.016   4.901 -1.5675  0.3573 -2.1395
 4549SOL    HW225110   2.987   2.956   4.894 -0.0413  2.0350 -0.4318
 4550SOL     OW25111   2.311   1.332   2.061  0.3569 -0.9036  0.4345
 4550SOL    HW125112   2.303   1.422   2.030  0.0168 -1.3854 -0.8866
 4550SOL    HW225113   2.280   1.281   1.986  2.1443 -1.4633  0.0928
 4551SOL     OW25114   2.433   2.170   5.864  0.2910  0.4461  0.1586
 4551SOL    HW125115   2.517   2.154   5.821  1.3024  1.4894  1.7198
 4551SOL    HW225116   2.393   2.084   5.852 -0.6336  0.9837 -0.6253
 4552SOL     OW25117   2.612   1.188   2.367 -0.4225  0.2098  0.3535
 4552SOL    HW125118   2.674   1.222   2.302 -0.2917  0.0649  0.4003
 4552SOL    HW225119   2.551   1.261   2.376 -0.2559  0.4430 -0.3808
 4553SOL     OW25120   0.142   2.110   0.722  0.1841  0.2772 -0.2523
 4553SOL    HW125121   0.097   2.141   0.801 -0.3620  3.3988 -1.7833
 4553SOL    HW225122   0.138   2.192   0.673 -0.0482  0.3293 -0.1464
 4554SOL     OW25123   0.880   0.753  13.143 -0.5038  0.1824 -0.5486
 4554SOL    HW125124   0.927   0.715  13.217  1.2252 -1.6554 -2.6175
 4554SOL    HW225125   0.860   0.842  13.173 -0.7373 -0.0861  0.0971
 4555SOL     OW25126   3.482   0.349   9.317 -0.3736  0.0306  0.9791
 4555SOL    HW125127   3.553   0.305   9.270 -1.1564  0.5110 -0.6412
 4555SOL    HW225128   3.490   0.300   9.399  2.6726 -1.6749 -0.3244
 4556SOL     OW25129   2.079   4.530   9.638  0.5084 -0.1663  0.5696
 4556SOL    HW125130   2.122   4.514   9.722  0.9542 -0.8614  0.2055
 4556SOL    HW225131   2.039   4.444   9.630 -0.9737  0.5128  0.7120
 4557SOL     OW25132   0.808   2.157  16.486  0.0516 -0.2356 -0.0434
 4557SOL    HW125133   0.895   2.177  16.522 -0.5003 -0.9005  1.6398
 4557SOL    HW225134   0.811   2.061  16.484 -1.3126 -0.2537 -1.3543
 4558SOL     OW25135   3.738   4.455   5.943  0.1591 -0.3995 -0.1066
 4558SOL    HW125136   3.815   4.493   5.902 -0.0284 -1.0412 -1.0457
 4558SOL    HW225137   3.768   4.433   6.031 -1.8172 -3.0742 -0.1169
 4559SOL     OW25138   0.820   4.362   7.766 -0.1793  0.2510 -0.4965
 4559SOL    HW125139   0.740   4.360   7.819 -0.4791  1.6412 -0.8855
 4559SOL    HW225140   0.833   4.454   7.744 -1.1414  0.2622 -1.0115
 4560SOL     OW25141   0.444   2.778   9.612  0.1422  0.1846  0.1473
 4560SOL    HW125142   0.461   2.696   9.658 -0.7472  0.2349  0.5675
 4560SOL    HW225143   0.427   2.839   9.684 -2.3386 -1.6238  1.0885
 4561SOL     OW25144   4.495   1.280   5.450 -0.6137  0.2641  0.3375
 4561SOL    HW125145   4.513   1.365   5.490  0.3717 -0.4117  1.3496
 4561SOL    HW225146   4.564   1.267   5.385  1.3090 -1.3505  2.6597
 4562SOL     OW25147   3.155   2.000   4.208 -0.1503  0.3670  0.1706
 4562SOL    HW125148   3.227   2.061   4.223 -0.8925  1.3819 -0.4026
 4562SOL    HW225149   3.083   2.057   4.181  1.4748  2.0488 -0.6097
 4563SOL     OW25150   4.709   2.864   5.570 -0.1391 -0.3192  0.0219
 4563SOL    HW125151   0.040   2.841   5.497 -2.7397 -1.2105 -1.7274
 4563SOL    HW225152   4.637   2.802   5.555  2.5193 -3.4695  0.5390
 4564SOL     OW25153   2.259   4.705   3.042 -1.1303  0.1300 -0.0968
 4564SOL    HW125154   2.290   0.017   3.124 -0.7378 -2.5630  0.9827
 4564SOL    HW225155   2.164   4.712   3.049 -1.1148 -1.2682  1.5313
 4565SOL     OW25156   0.904   2.336  17.172  0.5078 -0.2674  0.2178
 4565SOL    HW125157   0.882   2.367  17.260  0.8904  2.0100 -0.4863
 4565SOL    HW225158   0.872   2.246  17.167 -1.7909  0.5247  0.3601
 4566SOL     OW25159   0.175   1.965  11.465 -0.3355  0.6529  0.0088
 4566SOL    HW125160   0.126   2.040  11.432 -0.2155  1.0095  0.6403
 4566SOL    HW225161   0.166   1.906  11.391 -0.1740  2.6321 -1.5752
 4567SOL     OW25162   1.793   3.548   1.669 -0.4033 -0.0260  0.1911
 4567SOL    HW125163   1.756   3.634   1.688  0.9033  0.7263 -0.6484
 4567SOL    HW225164   1.819   3.551   1.576  1.7280  1.1538  0.8327
 4568SOL     OW25165   0.023   1.151   2.508 -0.0823  0.6222  0.2211
 4568SOL    HW125166   4.713   1.121   2.425  0.2362 -0.1515  0.3595
 4568SOL    HW225167   0.051   1.239   2.484 -0.5466  0.6772 -0.1096
 4569SOL     OW25168   4.205   3.580   8.056  0.6213  0.1189 -0.6064
 4569SOL    HW125169   4.137   3.590   8.122  0.5486 -0.8628 -0.5314
 4569SOL    HW225170   4.243   3.667   8.045  1.0025 -0.2706 -2.4269
 4570SOL     OW25171   2.697   0.129   2.943  0.2483  0.3893  0.8779
 4570SOL    HW125172   2.625   0.090   2.892  2.2917 -1.5047 -0.5527
 4570SOL    HW225173   2.768   0.065   2.938  1.2434  1.4281  1.7285
 4571SOL     OW25174   1.037   3.064   6.388  0.6049 -0.4953  0.7379
 4571SOL    HW125175   1.124   3.100   6.407  0.6380 -0.6344  0.8471
 4571SOL    HW225176   1.011   3.126   6.319  0.9498 -2.5651 -1.2737
 4572SOL     OW25177   2.315   4.522   6.299 -0.2988  0.0457  0.3262
 4572SOL    HW125178   2.365   4.573   6.363 -0.4873 -0.1705  0.6430
 4572SOL    HW225179   2.315   4.588   6.229  0.9356  0.5275  0.7751
 4573SOL     OW25180   3.301   2.336  15.066  0.0934 -1.0584 -0.5471
 4573SOL    HW125181   3.344   2.258  15.102  0.9957 -0.5471 -0.5142
 4573SOL    HW225182   3.364   2.360  14.998 -1.3173  2.2424 -0.6764
 4574SOL     OW25183   4.357   4.598   2.513  0.2145 -0.4862 -0.0391
 4574SOL    HW125184   4.332   4.538   2.584 -1.0185 -1.2225 -1.1051
 4574SOL    HW225185   4.433   4.643   2.551 -1.2119  1.9323 -0.0567
 4575SOL     OW25186   3.534   1.782   4.048 -0.6928 -0.1147 -0.2158
 4575SOL    HW125187   3.536   1.774   3.953  1.4680  0.9731 -0.2797
 4575SOL    HW225188   3.590   1.857   4.069 -0.0305 -0.6697 -0.0185
 4576SOL     OW25189   0.655   2.836   9.385  0.0070 -0.2481  0.3883
 4576SOL    HW125190   0.598   2.793   9.449 -1.0029  1.8720  0.9108
 4576SOL    HW225191   0.716   2.766   9.364 -1.1485 -0.7383 -1.3148
 4577SOL     OW25192   1.157   2.982   5.653  0.0044  0.1148  0.2524
 4577SOL    HW125193   1.145   3.076   5.653  0.5691  0.1906  0.8841
 4577SOL    HW225194   1.087   2.965   5.590  0.2273 -2.6906  0.7452
 4578SOL     OW25195   1.921   3.239   8.086 -0.1531 -0.0448 -0.0435
 4578SOL    HW125196   1.849   3.302   8.083 -1.1868 -1.2566 -0.6273
 4578SOL    HW225197   1.995   3.300   8.088  0.6131 -1.0845  3.0165
 4579SOL     OW25198   1.560   2.161  12.693 -0.1807 -0.1600  0.2847
 4579SOL    HW125199   1.476   2.118  12.672 -0.3709 -1.3109  3.4221
 4579SOL    HW225200   1.587   2.205  12.612  0.2255  0.4479  0.7587
 4580SOL     OW25201   4.227   0.442   4.893  0.2660 -0.0221  0.3965
 4580SOL    HW125202   4.322   0.455   4.897  0.2358 -0.2214  1.8653
 4580SOL    HW225203   4.221   0.463   4.800  1.6830  1.8645  0.7329
 4581SOL     OW25204   3.262   0.010   9.062  0.9389  0.5183 -1.0300
 4581SOL    HW125205   3.197   4.697   9.121  1.0080 -0.8296 -1.8463
 4581SOL    HW225206   3.326   0.030   9.131  0.4028 -1.0140 -0.0923
 4582SOL     OW25207   4.514   3.383   7.365  0.8028  0.5268 -0.1273
 4582SOL    HW125208   4.518   3.292   7.335  0.0220  0.4108  0.1155
 4582SOL    HW225209   4.602   3.393   7.402  0.3326  1.5129  0.7285
 4583SOL     OW25210   2.335   4.618  11.940  0.0082  0.1849 -0.0109
 4583SOL    HW125211   2.389   4.606  12.019 -0.3835 -0.6803  0.1327
 4583SOL    HW225212   2.398   4.652  11.877 -0.7420  0.8579 -0.3861
 4584SOL     OW25213   2.311   1.591   6.166  0.2435 -0.4262 -0.1360
 4584SOL    HW125214   2.221   1.572   6.191  0.3773  2.5896  2.6104
 4584SOL    HW225215   2.312   1.657   6.097 -1.9177 -0.5266 -0.2458
 4585SOL     OW25216   2.889   3.832   8.496 -0.3500  0.2159  0.6038
 4585SOL    HW125217   2.861   3.741   8.500  0.0249  0.0893  0.3255
 4585SOL    HW225218   2.935   3.831   8.412 -1.2885  1.2328  0.0768
 4586SOL     OW25219   1.065   2.347   2.439  0.1155  0.5898 -0.4375
 4586SOL    HW125220   1.108   2.298   2.369 -3.7290  1.4448 -3.3601
 4586SOL    HW225221   1.131   2.409   2.470  0.6284  0.7309 -1.8281
 4587SOL     OW25222   0.797   1.828  10.070  0.8132  0.3271  0.2069
 4587SOL    HW125223   0.837   1.772  10.003 -0.7326  0.6506 -1.0005
 4587SOL    HW225224   0.838   1.788  10.147  0.2274  0.5835  0.6514
 4588SOL     OW25225   2.120   1.383  17.285  0.0730  0.1111  0.1816
 4588SOL    HW125226   2.206   1.404  17.248  0.0776  0.8571  0.6095
 4588SOL    HW225227   2.144   1.401  17.376  1.0789 -1.7015  0.2584
 4589SOL     OW25228   4.465   2.431   4.727 -0.0150 -0.2344 -0.1983
 4589SOL    HW125229   4.468   2.438   4.822 -1.1978  2.4634 -0.3879
 4589SOL    HW225230   4.516   2.504   4.692 -1.2239  0.1968 -1.0170
 4590SOL     OW25231   0.842   1.633   8.405  0.7215 -0.5108 -0.2501
 4590SOL    HW125232   0.773   1.648   8.471  0.2410 -0.1407 -0.8383
 4590SOL    HW225233   0.916   1.693   8.412  1.6130 -1.6011 -0.3172
 4591SOL     OW25234   2.047   0.343   5.129  0.1534 -0.2454  0.0297
 4591SOL    HW125235   2.042   0.275   5.197  0.9003 -0.0211  0.3124
 4591SOL    HW225236   2.121   0.399   5.153  0.9650 -0.4077 -2.0582
 4592SOL     OW25237   3.453   2.631   8.476  0.6259 -0.5277 -0.3393
 4592SOL    HW125238   3.490   2.566   8.535  2.4399  2.6493  2.0338
 4592SOL    HW225239   3.383   2.592   8.425 -0.8398 -0.1265  1.3451
 4593SOL     OW25240   1.502   1.821   1.773 -0.1699 -0.3550  0.1534
 4593SOL    HW125241   1.416   1.816   1.815 -0.8809  1.9568 -1.0264
 4593SOL    HW225242   1.520   1.730   1.749 -1.4481 -0.7499  0.6740
 4594SOL     OW25243   2.811   3.327  10.556  0.6380 -0.4734  0.2210
 4594SOL    HW125244   2.800   3.251  10.499 -0.1682 -0.0728 -0.1549
 4594SOL    HW225245   2.858   3.279  10.624  0.1390 -0.7061  0.4005
 4595SOL     OW25246   4.426   1.065   0.039 -0.2114  0.2896  0.4887
 4595SOL    HW125247   4.385   0.981   0.018 -1.2164  0.9805 -0.3224
 4595SOL    HW225248   4.403   1.063   0.131 -0.0157  0.0747  0.5318
 4596SOL     OW25249   3.429   3.984   7.295  0.7732 -0.7001 -0.0553
 4596SOL    HW125250   3.420   3.998   7.389  0.0951  0.0364 -0.2349
 4596SOL    HW225251   3.524   3.994   7.289  0.3682  2.5179 -1.2059
 4597SOL     OW25252   3.031   4.560   0.816 -0.1046 -0.0414  0.2835
 4597SOL    HW125253   3.025   4.487   0.754  0.3525  0.2315 -0.0848
 4597SOL    HW225254   3.104   4.617   0.793 -1.9798  1.4751 -1.9505
 4598SOL     OW25255   1.389   0.130   2.823 -0.0147  0.2860 -0.1722
 4598SOL    HW125256   1.313   0.084   2.857  2.0964 -2.2933  1.0856
 4598SOL    HW225257   1.346   0.215   2.812 -0.0074  0.2689 -0.3314
 4599SOL     OW25258   3.809   1.379   8.062  0.4329 -0.2942 -0.9089
 4599SOL    HW125259   3.759   1.298   8.053 -2.8276  1.2050  4.0271
 4599SOL    HW225260   3.821   1.402   7.970 -0.0081  0.1033 -0.8661
 4600SOL     OW25261   2.809   3.727  17.071  0.2783 -0.0861  0.0495
 4600SOL    HW125262   2.790   3.820  17.063 -2.1411 -0.5187  0.6622
 4600SOL    HW225263   2.726   3.684  17.050 -0.1971  0.8520  0.0352
 4601SOL     OW25264   0.142   2.881   6.192 -0.0781 -0.2567  0.4277
 4601SOL    HW125265   0.057   2.838   6.200  0.5676 -2.2076 -3.1705
 4601SOL    HW225266   0.195   2.821   6.244 -1.2038 -1.0062  0.7278
 4602SOL     OW25267   2.880   3.177   2.709  0.2847  0.6970  0.3562
 4602SOL    HW125268   2.958   3.174   2.653 -0.7961 -2.0101 -0.9960
 4602SOL    HW225269   2.863   3.270   2.693 -0.4338 -0.0712 -3.2583
 4603SOL     OW25270   2.904   2.542   4.704 -0.2148  0.3295  0.5149
 4603SOL    HW125271   2.987   2.531   4.750  0.9702  0.1298 -1.6706
 4603SOL    HW225272   2.882   2.634   4.719  0.9448  1.1950 -3.0445
 4604SOL     OW25273   3.286   2.508   9.247  0.3833 -0.4115  0.0916
 4604SOL    HW125274   3.252   2.443   9.308  3.1606 -0.6187  1.4284
 4604SOL    HW225275   3.315   2.445   9.181 -0.2511  0.1257 -0.7057
 4605SOL     OW25276   2.743   3.660   1.815  0.3905 -0.0815  0.1636
 4605SOL    HW125277   2.801   3.656   1.891 -1.2354 -0.0909  1.3936
 4605SOL    HW225278   2.668   3.618   1.856  0.2253  0.8231  0.7695
 4606SOL     OW25279   0.651   2.640   6.560  0.1787  0.4299 -0.1061
 4606SOL    HW125280   0.699   2.607   6.636 -0.1544  0.1564 -0.0132
 4606SOL    HW225281   0.599   2.711   6.598 -2.0100 -0.0874 -2.1666
 4607SOL     OW25282   4.121   4.175   2.513  0.1758 -0.4060 -0.2243
 4607SOL    HW125283   4.209   4.154   2.484 -0.5036 -1.4301 -1.5549
 4607SOL    HW225284   4.077   4.167   2.428 -1.0977 -2.2610  0.5984
 4608SOL     OW25285   3.326   0.657  17.573  0.3961  0.1731  0.5495
 4608SOL    HW125286   3.305   0.571  17.539  0.3510  0.9846 -1.4754
 4608SOL    HW225287   3.319   0.625  17.663  2.7192 -1.2765  0.2229
 4609SOL     OW25288   2.728   3.704   7.827  0.0415 -0.4756  0.1543
 4609SOL    HW125289   2.695   3.652   7.900  2.0800  0.4133  1.6857
 4609SOL    HW225290   2.706   3.644   7.756  0.5926 -0.2695 -0.1931
 4610SOL     OW25291   0.366   0.869   5.428 -0.2249  0.9904 -0.0488
 4610SOL    HW125292   0.458   0.871   5.402 -0.1327  3.1213  0.4454
 4610SOL    HW225293   0.359   0.964   5.429  0.7291  1.0659 -0.4975
 4611SOL     OW25294   3.156   3.052  12.220 -0.4906 -0.0490 -0.0655
 4611SOL    HW125295   3.104   3.019  12.293  0.4065  1.6965  1.3509
 4611SOL    HW225296   3.167   2.962  12.187 -0.1755 -0.8323  2.1412
 4612SOL     OW25297   1.987   2.576  12.023 -0.1093  0.1892 -0.2448
 4612SOL    HW125298   2.042   2.650  12.049  0.4899 -0.6721  1.0118
 4612SOL    HW225299   2.047   2.531  11.963 -0.7230 -1.0175  0.0386
 4613SOL     OW25300   3.733   1.168  17.148  0.3706  0.0769 -0.1382
 4613SOL    HW125301   3.643   1.139  17.127  0.4315 -1.4162  1.6443
 4613SOL    HW225302   3.784   1.144  17.071  0.9266 -1.1980  0.6260
 4614SOL     OW25303   1.444   2.602   8.487 -0.1586  0.5315  0.4425
 4614SOL    HW125304   1.476   2.655   8.414 -3.9387  2.0710 -0.0738
 4614SOL    HW225305   1.422   2.670   8.551 -2.6433  0.9382 -0.8427
 4615SOL     OW25306   3.922   0.545   7.977  0.2601 -0.0534 -0.4425
 4615SOL    HW125307   3.854   0.580   7.919 -1.5432  0.2063  1.8469
 4615SOL    HW225308   3.870   0.520   8.053  1.2161  0.1844  0.2880
 4616SOL     OW25309   0.752   4.674   0.814  0.4359  0.0944 -0.6881
 4616SOL    HW125310   0.846   4.688   0.802  0.8388  0.0752  2.4557
 4616SOL    HW225311   0.733   0.025   0.869  0.3392  0.6157 -1.4609
 4617SOL     OW25312   0.826   1.156   4.611  0.1648  0.5607 -0.3734
 4617SOL    HW125313   0.756   1.143   4.548 -0.6626  0.9076  0.4765
 4617SOL    HW225314   0.787   1.165   4.698  0.2394 -2.2130 -0.0647
 4618SOL     OW25315   1.166   3.801   0.195  0.5131  0.4411 -0.1520
 4618SOL    HW125316   1.128   3.715   0.212  0.4667 -0.2335 -3.6658
 4618SOL    HW225317   1.145   3.824   0.105  1.8585  1.8215 -0.1282
 4619SOL     OW25318   4.206   2.478   3.779 -0.5953  0.2986  0.2138
 4619SOL    HW125319   4.267   2.533   3.829 -0.8809 -0.0660  0.9651
 4619SOL    HW225320   4.208   2.510   3.689  1.7770  0.3734  0.2819
 4620SOL     OW25321   3.420   2.974  17.321 -0.0661  0.2684 -0.3222
 4620SOL    HW125322   3.422   3.004  17.412 -1.4835  1.0265 -0.5392
 4620SOL    HW225323   3.327   2.954  17.316  0.0852 -0.0286 -1.7672
 4621SOL     OW25324   2.942   4.181   4.568 -0.4975  0.3415  0.5406
 4621SOL    HW125325   2.947   4.252   4.504  3.2729 -1.7122 -1.4309
 4621SOL    HW225326   2.876   4.126   4.527 -0.4106  1.8624 -1.6468
 4622SOL     OW25327   4.542   3.169   5.144  0.5442 -0.7300  0.4709
 4622SOL    HW125328   4.454   3.168   5.106  0.4763 -1.5945  0.6514
 4622SOL    HW225329   4.550   3.083   5.186 -1.2977 -1.7234 -1.1746
 4623SOL     OW25330   0.213   3.878   7.746 -0.5787  0.3333 -0.3330
 4623SOL    HW125331   0.152   3.942   7.782 -3.2521 -1.5306 -1.4745
 4623SOL    HW225332   0.163   3.801   7.774 -1.0683  0.5589 -0.5845
 4624SOL     OW25333   3.950   0.958   4.056 -0.5989  0.5423  0.1065
 4624SOL    HW125334   3.977   0.891   3.994 -2.1576 -1.1049  1.2027
 4624SOL    HW225335   3.999   1.037   4.035  2.7849 -1.3714  0.8007
 4625SOL     OW25336   0.130   3.372   3.855 -0.4905  0.6848 -0.1251
 4625SOL    HW125337   0.184   3.372   3.776  0.1412 -0.6538  0.3060
 4625SOL    HW225338   0.205   3.374   3.913 -1.4404  1.4928  1.0624
 4626SOL     OW25339   4.702   2.843   4.272 -0.4589  0.1376 -0.0270
 4626SOL    HW125340   4.613   2.813   4.290 -0.0493 -0.7062  0.5604
 4626SOL    HW225341   0.017   2.757   4.269 -0.2207  0.2204  0.8142
 4627SOL     OW25342   2.054   2.133  13.425  0.1513 -0.6859 -0.5280
 4627SOL    HW125343   2.082   2.043  13.406 -0.9565 -1.0594 -0.4035
 4627SOL    HW225344   2.013   2.158  13.342 -1.5193 -1.5659  0.0417
 4628SOL     OW25345   0.887   3.243   8.985 -0.1338  0.4352  0.2677
 4628SOL    HW125346   0.792   3.241   8.973  0.1187 -0.1603 -1.6299
 4628SOL    HW225347   0.902   3.223   9.077 -3.3126  1.2948  0.9800
 4629SOL     OW25348   2.608   2.820  11.839 -0.3867  1.0831 -0.3268
 4629SOL    HW125349   2.681   2.808  11.779 -0.2103 -0.6277  0.2413
 4629SOL    HW225350   2.538   2.850  11.781  1.0400  0.0833 -2.5699
 4630SOL     OW25351   3.689   3.115   5.391 -0.2462  0.0055  0.9741
 4630SOL    HW125352   3.623   3.054   5.357 -0.8661  0.3103  1.6259
 4630SOL    HW225353   3.674   3.181   5.323  0.2486  0.1130  0.9757
 4631SOL     OW25354   1.578   2.922   7.369 -0.7014 -0.7005  0.1955
 4631SOL    HW125355   1.631   2.846   7.392 -1.8182 -0.9888  1.8338
 4631SOL    HW225356   1.509   2.874   7.323 -1.1422  0.0678  0.0525
 4632SOL     OW25357   3.490   4.010   6.188 -0.1115 -0.9363 -0.9105
 4632SOL    HW125358   3.510   3.922   6.155  1.2455 -1.3035  0.8939
 4632SOL    HW225359   3.575   4.019   6.230 -0.4470 -2.4899  0.1094
 4633SOL     OW25360   1.309   3.647   5.180  0.0350  0.7692  0.4624
 4633SOL    HW125361   1.239   3.671   5.240 -1.4147  1.4326 -1.4962
 4633SOL    HW225362   1.390   3.633   5.229  0.2009  0.3109  0.0598
 4634SOL     OW25363   1.394   3.125   3.575  0.2332  0.4619  0.5727
 4634SOL    HW125364   1.453   3.057   3.544 -1.2899 -1.1282  1.2056
 4634SOL    HW225365   1.361   3.091   3.659  0.1718 -0.2124  0.2737
 4635SOL     OW25366   2.823   3.061   2.355 -0.1003  0.9509 -0.1786
 4635SOL    HW125367   2.745   3.111   2.376 -0.9514 -0.4915  0.0596
 4635SOL    HW225368   2.787   2.975   2.378  1.2823  0.5400  0.4786
 4636SOL     OW25369   2.725   1.121   8.852 -0.2142  0.2903  0.4673
 4636SOL    HW125370   2.669   1.044   8.840  0.1474  0.0748  0.1684
 4636SOL    HW225371   2.759   1.096   8.938 -1.4735 -1.5658  0.4319
 4637SOL     OW25372   1.638   0.640   8.352 -0.3549 -0.1016  0.2450
 4637SOL    HW125373   1.695   0.716   8.363  1.7312 -1.8075  1.0617
 4637SOL    HW225374   1.556   0.685   8.330  0.9423  1.6804 -0.9218
 4638SOL     OW25375   1.997   0.953   4.891  0.3473 -0.4746 -0.6089
 4638SOL    HW125376   1.977   0.937   4.983 -0.3253 -0.0787 -0.6860
 4638SOL    HW225377   2.077   1.005   4.896  0.5120 -0.7549 -0.3494
 4639SOL     OW25378   1.679   3.069   4.893 -0.0992  0.7832 -0.4247
 4639SOL    HW125379   1.717   3.156   4.892 -1.1975  1.2441 -1.5329
 4639SOL    HW225380   1.757   3.043   4.943 -0.1164 -0.1731 -0.8925
 4640SOL     OW25381   3.245   0.084   1.317 -0.0707 -0.3352  0.4036
 4640SOL    HW125382   3.190   0.140   1.263  1.7250  0.7118 -0.3357
 4640SOL    HW225383   3.296   0.038   1.251 -0.5066 -1.4437  0.8314
 4641SOL     OW25384   0.301   4.351   3.813  0.4925 -0.1321  0.0967
 4641SOL    HW125385   0.341   4.283   3.866  0.3939 -1.5646 -1.6377
 4641SOL    HW225386   0.245   4.297   3.756 -1.2278  1.6235  0.1260
 4642SOL     OW25387   4.319   4.412  12.576  0.4643 -0.1302 -0.4766
 4642SOL    HW125388   4.300   4.426  12.668  0.0351  0.1586 -0.6074
 4642SOL    HW225389   4.398   4.464  12.562  1.8372 -1.7942  1.1745
 4643SOL     OW25390   3.522   4.429   7.754  0.4726  0.1161 -0.0700
 4643SOL    HW125391   3.434   4.465   7.764  0.7471  1.2348 -1.6500
 4643SOL    HW225392   3.532   4.384   7.838  0.8427 -0.8390 -0.6151
 4644SOL     OW25393   1.010   1.840   7.036 -0.3562  0.5493 -0.0585
 4644SOL    HW125394   0.917   1.854   7.052 -0.8736 -1.8228 -1.0370
 4644SOL    HW225395   1.022   1.899   6.962 -2.7349  0.7618 -0.2568
 4645SOL     OW25396   3.200   3.013   8.551  0.5695 -0.1139  0.1796
 4645SOL    HW125397   3.213   3.030   8.458 -1.8874  3.2815  0.4572
 4645SOL    HW225398   3.278   2.958   8.550  1.0675  0.6084 -0.7654
 4646SOL     OW25399   2.430   2.807   1.910 -0.2372 -0.3459 -0.1704
 4646SOL    HW125400   2.490   2.881   1.901  0.7949 -0.7937  3.0465
 4646SOL    HW225401   2.366   2.804   1.839 -0.7929  0.4059  0.2934
 4647SOL     OW25402   0.468   3.376  13.944 -0.3016 -0.0542  0.4902
 4647SOL    HW125403   0.513   3.438  13.886 -0.8656 -0.7244 -0.6389
 4647SOL    HW225404   0.534   3.376  14.014 -0.8738 -0.3197  1.0209
 4648SOL     OW25405   0.705   0.260   2.147  0.4897 -0.0800  0.3474
 4648SOL    HW125406   0.635   0.249   2.212 -2.2493  0.0532 -2.5600
 4648SOL    HW225407   0.745   0.173   2.156 -1.7323 -1.2458 -0.8606
 4649SOL     OW25408   4.571   2.267   0.265  0.5359  0.5623 -0.0112
 4649SOL    HW125409   4.602   2.176   0.262 -0.3333  0.3195 -1.9160
 4649SOL    HW225410   4.653   2.310   0.287 -0.2935  1.8863  0.4667
 4650SOL     OW25411   4.314   4.630   8.707 -0.5015 -0.3415 -0.3835
 4650SOL    HW125412   4.341   4.701   8.766 -0.3995 -1.0589  0.4236
 4650SOL    HW225413   4.268   4.577   8.772  1.5803  1.1140  2.2766
 4651SOL     OW25414   1.778   3.194  14.106 -0.4053  0.4463  0.5857
 4651SOL    HW125415   1.801   3.136  14.179  0.9705 -0.6077 -0.7000
 4651SOL    HW225416   1.801   3.281  14.140  0.8507  0.1926  0.3708
 4652SOL     OW25417   0.104   4.369   8.678  0.7840 -0.7972  1.0120
 4652SOL    HW125418   0.053   4.447   8.655  0.1015 -1.0903  1.5306
 4652SOL    HW225419   0.027   4.315   8.697 -0.7090  0.6579 -0.8677
 4653SOL     OW25420   3.450   2.640   3.220 -0.7898 -0.1914 -0.3443
 4653SOL    HW125421   3.472   2.562   3.169  1.6912  1.8100 -2.3218
 4653SOL    HW225422   3.531   2.691   3.220  0.3722 -2.0068  2.9007
 4654SOL     OW25423   2.605   2.509   5.207  0.0989  0.4965 -0.2895
 4654SOL    HW125424   2.560   2.469   5.281  0.2826  0.3137 -0.2776
 4654SOL    HW225425   2.585   2.441   5.143 -1.9545 -1.7714  2.8048
 4655SOL     OW25426   1.343   0.330   8.471 -0.5152 -0.8804  0.1180
 4655SOL    HW125427   1.254   0.307   8.497 -1.0943  1.9701  0.6531
 4655SOL    HW225428   1.341   0.426   8.467 -2.5944 -0.9655 -0.9652
 4656SOL     OW25429   1.803   1.972   2.929 -0.0396 -0.5590  0.0554
 4656SOL    HW125430   1.810   2.067   2.916 -1.2913 -0.5693 -0.6751
 4656SOL    HW225431   1.898   1.958   2.925 -0.0907 -0.8475 -0.1052
 4657SOL     OW25432   0.772   3.192   7.556  0.5320 -0.2912  0.1265
 4657SOL    HW125433   0.716   3.258   7.514 -1.4188 -1.0005  1.6200
 4657SOL    HW225434   0.853   3.242   7.566 -0.8124  1.8314  0.5172
 4658SOL     OW25435   4.403   0.838  16.955 -0.3320  0.8192  0.5474
 4658SOL    HW125436   4.387   0.833  16.861  1.9448  2.8863  0.0376
 4658SOL    HW225437   4.481   0.782  16.955  0.0799  1.3843 -0.4049
 4659SOL     OW25438   1.523   1.310  12.659 -0.0524 -0.0251  0.2961
 4659SOL    HW125439   1.545   1.333  12.750 -0.7825  0.2971  0.3946
 4659SOL    HW225440   1.427   1.309  12.667 -0.2368 -0.4309 -2.0891
 4660SOL     OW25441   1.044   3.812   0.502 -0.1407 -0.0005  0.3276
 4660SOL    HW125442   1.054   3.742   0.438 -2.1013 -0.3814  0.4275
 4660SOL    HW225443   0.948   3.808   0.505 -0.0829 -0.7862  1.2751
 4661SOL     OW25444   3.979   3.138   3.528  0.1846 -1.0417 -0.0117
 4661SOL    HW125445   3.992   3.216   3.473  1.0133 -2.3319 -1.6444
 4661SOL    HW225446   4.060   3.143   3.579  0.9606 -2.1424 -1.1385
 4662SOL     OW25447   1.038   2.332  11.208  0.1913  0.2993 -0.1172
 4662SOL    HW125448   0.943   2.323  11.215  0.3576 -0.0213  1.5543
 4662SOL    HW225449   1.050   2.285  11.125 -1.4362 -2.6538  1.3157
 4663SOL     OW25450   1.498   2.501   9.924 -0.0521 -0.1362  0.7261
 4663SOL    HW125451   1.554   2.578   9.937 -0.8614  0.4074  0.9825
 4663SOL    HW225452   1.480   2.496  10.018 -0.0018 -0.7697  0.7023
 4664SOL     OW25453   0.592   0.425   0.941 -0.0437 -0.7569  0.0062
 4664SOL    HW125454   0.676   0.434   0.985  0.2226 -3.3498  0.0508
 4664SOL    HW225455   0.579   0.331   0.930  1.4343 -1.0773  1.1217
 4665SOL     OW25456   4.197   2.634   5.754  0.0327 -0.1154 -0.2539
 4665SOL    HW125457   4.110   2.598   5.773  0.4716 -1.1043 -0.1552
 4665SOL    HW225458   4.238   2.625   5.840 -2.3569  0.7612  0.9891
 4666SOL     OW25459   0.338   2.807   5.307 -0.6199  0.1428 -0.0333
 4666SOL    HW125460   0.357   2.876   5.371  1.1876  0.8542 -1.3103
 4666SOL    HW225461   0.306   2.742   5.369 -0.0428 -1.0513 -0.9728
 4667SOL     OW25462   1.537   3.863   5.328 -0.3167 -0.1554  0.5759
 4667SOL    HW125463   1.543   3.958   5.314  1.1951 -0.2721  0.3599
 4667SOL    HW225464   1.565   3.867   5.420 -1.7833 -0.2454  1.0189
 4668SOL     OW25465   1.926   0.844   5.121 -0.1326 -0.7886 -0.2691
 4668SOL    HW125466   1.980   0.882   5.190 -0.9863  0.7240 -0.4459
 4668SOL    HW225467   1.894   0.763   5.162  1.3902  0.0030  2.5246
 4669SOL     OW25468   4.255   3.900   5.644 -0.0410  0.5148 -0.2763
 4669SOL    HW125469   4.316   3.902   5.570 -0.4491 -0.6701 -0.6500
 4669SOL    HW225470   4.236   3.994   5.648 -1.6603  0.2922 -2.6478
 4670SOL     OW25471   4.243   0.586   3.955  0.6519 -0.0059 -0.4638
 4670SOL    HW125472   4.167   0.571   3.899 -0.5433  0.6413  0.9868
 4670SOL    HW225473   4.316   0.555   3.901  1.5367  0.7608  0.2974
 4671SOL     OW25474   2.283   0.893  15.681 -0.2885  0.7723  0.0334
 4671SOL    HW125475   2.289   0.977  15.726 -1.5949  1.8176 -1.7471
 4671SOL    HW225476   2.198   0.867  15.716 -0.6223  2.5490  0.5646
 4672SOL     OW25477   3.807   3.687   2.693 -0.3279 -0.7177  0.0801
 4672SOL    HW125478   3.869   3.760   2.696 -2.8683  1.2609  5.0331
 4672SOL    HW225479   3.729   3.737   2.670  0.6088  1.0923  0.8369
 4673SOL     OW25480   4.200   2.431   7.832 -0.3421 -0.3480 -0.1228
 4673SOL    HW125481   4.223   2.343   7.804  2.9783  0.6120 -0.5224
 4673SOL    HW225482   4.213   2.487   7.755 -0.5242  0.0409  0.1279
 4674SOL     OW25483   0.967   0.156   4.905 -0.2401  0.5191  0.1502
 4674SOL    HW125484   0.979   0.215   4.979  2.9515 -1.6395  1.3301
 4674SOL    HW225485   1.006   0.074   4.934 -0.0633  0.7845  0.6533
 4675SOL     OW25486   2.543   2.294   4.994 -0.3923 -0.2173 -0.5559
 4675SOL    HW125487   2.602   2.312   4.921  0.6675  1.7391  0.7790
 4675SOL    HW225488   2.456   2.298   4.955 -0.2305 -1.3725 -1.0307
 4676SOL     OW25489   1.554   3.893  14.026  0.0328  0.0453  0.1163
 4676SOL    HW125490   1.501   3.820  14.059  2.0205 -1.1849  0.5796
 4676SOL    HW225491   1.488   3.954  13.991  1.1857  1.3110  0.1557
 4677SOL     OW25492   3.395   0.463   7.459  0.0256  1.1145  0.2363
 4677SOL    HW125493   3.381   0.513   7.540  1.6787  1.7576  0.1221
 4677SOL    HW225494   3.343   0.521   7.404 -2.3504  0.3470  1.6951
 4678SOL     OW25495   3.574   2.293   6.200 -0.4338  0.3845 -0.5553
 4678SOL    HW125496   3.609   2.305   6.111  0.1471  1.6247 -0.1641
 4678SOL    HW225497   3.547   2.201   6.193  0.3716 -0.0237  1.7738
 4679SOL     OW25498   4.503   4.002   4.912 -0.2310  0.5576  0.1189
 4679SOL    HW125499   4.528   3.974   5.000  2.2911 -0.8145 -1.0228
 4679SOL    HW225500   4.410   3.980   4.911 -0.4878  1.6593 -1.4066
 4680SOL     OW25501   0.378   2.148  14.152  0.0156  0.1548  0.4825
 4680SOL    HW125502   0.342   2.236  14.158  1.1821  0.6763 -0.2212
 4680SOL    HW225503   0.426   2.144  14.235  0.2207  1.9976  0.4450
 4681SOL     OW25504   2.387   1.411   5.370  0.6510  0.0615 -0.4671
 4681SOL    HW125505   2.476   1.433   5.342  0.1426  0.3374 -1.8674
 4681SOL    HW225506   2.344   1.488   5.334  0.5167  0.4521  0.5213
 4682SOL     OW25507   2.955   0.187   3.368  0.2223 -0.3913 -0.3543
 4682SOL    HW125508   2.962   0.180   3.272  2.2778 -0.4337 -0.2058
 4682SOL    HW225509   2.865   0.220   3.375  0.2578 -0.1715 -0.8791
 4683SOL     OW25510   2.724   1.721  15.227  0.3327  0.0043  0.2553
 4683SOL    HW125511   2.632   1.748  15.228 -0.0788 -1.3818 -0.2450
 4683SOL    HW225512   2.752   1.743  15.138  0.1952  2.3514  0.8009
 4684SOL     OW25513   3.657   1.029  17.473  0.2742  0.4494 -0.1085
 4684SOL    HW125514   3.742   1.056  17.438  1.2376 -0.7078  1.3682
 4684SOL    HW225515   3.603   1.058  17.399 -1.8499 -2.1469  0.4198
 4685SOL     OW25516   1.679   3.506   9.747  0.3527 -0.5894 -0.5789
 4685SOL    HW125517   1.601   3.560   9.752 -0.1812 -1.3197 -1.0813
 4685SOL    HW225518   1.645   3.416   9.750 -1.0018 -0.0537  0.0707
 4686SOL     OW25519   4.191   0.955   1.084  0.4361  0.4665  0.2709
 4686SOL    HW125520   4.226   1.032   1.128 -0.9171  0.5791  1.1565
 4686SOL    HW225521   4.225   0.963   0.995  1.6350 -2.4959  0.4575
 4687SOL     OW25522   1.122   0.649   6.940 -0.0846  0.0434 -0.0428
 4687SOL    HW125523   1.068   0.725   6.917  1.3448  0.6514 -1.4406
 4687SOL    HW225524   1.073   0.583   6.891 -0.4388  1.1559 -1.2138
 4688SOL     OW25525   2.691   0.197  11.990 -0.0523 -0.4569 -0.2013
 4688SOL    HW125526   2.628   0.176  11.922  1.1002 -1.4328 -0.9632
 4688SOL    HW225527   2.650   0.247  12.061  1.0475 -0.6952  0.6022
 4689SOL     OW25528   4.509   3.815   5.417 -0.2484  0.1253 -0.4818
 4689SOL    HW125529   4.538   3.874   5.486 -2.0925  2.2601 -1.5426
 4689SOL    HW225530   4.540   3.735   5.460  0.0673  0.8260  0.5702
 4690SOL     OW25531   2.435   1.606  12.094  0.1355 -0.0155 -0.2290
 4690SOL    HW125532   2.473   1.691  12.116  0.1275  0.2225 -1.1442
 4690SOL    HW225533   2.446   1.566  12.180  2.4921  1.4875  0.1696
 4691SOL     OW25534   0.496   1.298   0.084  1.0704 -0.1058  0.6652
 4691SOL    HW125535   0.440   1.322   0.010  0.9366 -0.7191  0.5691
 4691SOL    HW225536   0.439   1.245   0.140  2.1943 -2.0529 -0.0586
 4692SOL     OW25537   1.175   2.391   4.925 -0.2827  0.0487 -0.1059
 4692SOL    HW125538   1.124   2.466   4.956 -1.5824 -0.9406  0.1019
 4692SOL    HW225539   1.258   2.438   4.937 -0.8579  0.8604  0.6501
 4693SOL     OW25540   4.320   0.003   7.468 -0.3836  0.7319  0.6050
 4693SOL    HW125541   4.343   4.667   7.537 -0.9231  1.5167  1.4741
 4693SOL    HW225542   4.241   0.047   7.500 -0.5933  0.9772 -0.2473
 4694SOL     OW25543   3.893   1.453   4.138 -0.4202 -0.4958 -0.1701
 4694SOL    HW125544   3.857   1.533   4.177 -2.0368 -2.5192  2.5303
 4694SOL    HW225545   3.987   1.463   4.149 -0.6679  1.4705  0.2220
 4695SOL     OW25546   0.662   0.353   4.267 -0.4607 -0.2396  0.3491
 4695SOL    HW125547   0.732   0.407   4.232 -0.0610 -1.4195 -0.6541
 4695SOL    HW225548   0.619   0.317   4.189 -0.4535 -0.1877  0.3212
 4696SOL     OW25549   1.060   1.555  10.884  0.5354 -0.0417  0.3208
 4696SOL    HW125550   1.068   1.534  10.791 -0.1329  1.7933 -0.1496
 4696SOL    HW225551   1.057   1.470  10.927  1.1810 -0.3067 -0.1530
 4697SOL     OW25552   2.608   2.847   9.587  0.0419 -0.0803  0.0201
 4697SOL    HW125553   2.606   2.796   9.668  1.2921  1.0893  0.8046
 4697SOL    HW225554   2.686   2.804   9.553  0.1693  0.4546 -0.3671
 4698SOL     OW25555   2.565   2.412   5.968 -0.1107  0.4715 -0.2319
 4698SOL    HW125556   2.561   2.420   5.873  1.0230  0.4601 -0.2775
 4698SOL    HW225557   2.658   2.391   5.971  0.1077  1.7019  1.5955
 4699SOL     OW25558   4.152   3.729   7.462 -0.1419 -0.5068  0.1725
 4699SOL    HW125559   4.076   3.714   7.404 -0.4508  3.5171 -0.5076
 4699SOL    HW225560   4.230   3.683   7.430 -0.0304  0.5482 -1.0956
 4700SOL     OW25561   3.764   3.966  11.740  0.3513  0.4545 -0.0671
 4700SOL    HW125562   3.814   3.884  11.742  0.1345  0.3491  1.4656
 4700SOL    HW225563   3.810   4.019  11.675 -0.1599  0.6190 -0.2964
 4701SOL     OW25564   3.951   1.175  15.552  0.8069  0.0284 -0.1600
 4701SOL    HW125565   3.950   1.266  15.581 -0.9111  0.3376 -1.2087
 4701SOL    HW225566   3.964   1.125  15.632  0.9134  0.6296  0.1980
 4702SOL     OW25567   3.462   4.576   5.653 -0.2347  0.0246 -0.4781
 4702SOL    HW125568   3.443   4.652   5.597  0.9751  0.9703  0.4045
 4702SOL    HW225569   3.375   4.535   5.658 -0.6543  1.1887  1.7932
 4703SOL     OW25570   1.528   1.869   0.911 -0.4643 -0.7277 -0.0640
 4703SOL    HW125571   1.560   1.922   0.983 -0.8857 -1.9540  1.0370
 4703SOL    HW225572   1.544   1.923   0.834 -0.1620 -0.1729  0.3944
 4704SOL     OW25573   3.573   2.958   8.145 -0.4951 -0.4808 -0.2929
 4704SOL    HW125574   3.628   3.036   8.148 -0.0138 -0.7677 -1.6152
 4704SOL    HW225575   3.533   2.961   8.058 -0.9870 -0.7917 -0.0794
 4705SOL     OW25576   4.281   4.426  12.855 -0.3787 -0.0151 -1.1654
 4705SOL    HW125577   4.199   4.428  12.905  0.1472  4.1579 -0.4379
 4705SOL    HW225578   4.346   4.375  12.904  1.3983  1.1008 -2.3472
 4706SOL     OW25579   2.611   0.402   6.421  0.0055  0.1521  0.5888
 4706SOL    HW125580   2.683   0.422   6.360  1.2042  1.3330  2.3695
 4706SOL    HW225581   2.620   0.464   6.493  0.2004 -0.2069  0.8719
 4707SOL     OW25582   0.448   3.893  15.121  0.0818 -0.7158 -0.0308
 4707SOL    HW125583   0.462   3.803  15.091  1.3782  0.2742 -2.4187
 4707SOL    HW225584   0.537   3.928  15.125 -0.7020  1.2996  0.0898
 4708SOL     OW25585   1.870   1.751   4.601  1.3641  0.1363  0.3457
 4708SOL    HW125586   1.927   1.674   4.605 -0.3237 -1.1618 -0.7427
 4708SOL    HW225587   1.931   1.817   4.633  0.5012 -0.0059  2.3283
 4709SOL     OW25588   2.411   1.176   8.876  0.1156  0.2826  0.6369
 4709SOL    HW125589   2.460   1.144   8.952 -2.7747 -0.9905  1.9696
 4709SOL    HW225590   2.323   1.153   8.907  0.1274 -0.9899 -0.2603
 4710SOL     OW25591   3.678   2.136   3.423 -0.3492 -0.0509  0.2535
 4710SOL    HW125592   3.755   2.130   3.368  0.0351 -0.4089  0.8308
 4710SOL    HW225593   3.611   2.091   3.372  0.9933  1.2424 -2.6162
 4711SOL     OW25594   2.171   3.389   9.147  0.3016 -0.5354 -0.1559
 4711SOL    HW125595   2.208   3.454   9.207  2.1001 -3.0946  1.5311
 4711SOL    HW225596   2.159   3.434   9.064 -2.0464  0.6254  0.8202
 4712SOL     OW25597   0.041   4.277  12.378  0.3965  0.0900  0.1014
 4712SOL    HW125598   4.718   4.275  12.295 -0.3651 -0.6976  0.5734
 4712SOL    HW225599   0.042   4.185  12.406 -0.4556  0.5500  1.6173
 4713SOL     OW25600   2.991   2.971  11.863  0.0720 -0.2282 -0.8662
 4713SOL    HW125601   3.077   2.984  11.904 -0.2690  0.5171 -0.3883
 4713SOL    HW225602   2.999   2.902  11.797 -3.0604 -0.2317 -1.2517
 4714SOL     OW25603   0.306   1.875  12.827 -0.3768 -0.3691  0.1231
 4714SOL    HW125604   0.241   1.841  12.766  0.1885  0.4011 -0.8986
 4714SOL    HW225605   0.260   1.937  12.884 -0.3915 -0.2260 -0.0448
 4715SOL     OW25606   3.964   2.972   2.685 -0.0129 -0.5413  0.1687
 4715SOL    HW125607   4.040   2.926   2.720  0.5319  0.9342  0.9188
 4715SOL    HW225608   3.940   3.021   2.763  0.0529 -1.6391  0.8833
 4716SOL     OW25609   0.069   3.235   9.337  0.1988  0.4988 -0.5801
 4716SOL    HW125610   0.034   3.170   9.398 -1.4168  1.0879 -0.8835
 4716SOL    HW225611   0.126   3.279   9.400 -0.2849 -0.3475  0.4462
 4717SOL     OW25612   3.325   2.449   3.941  0.1276 -0.2122 -0.3330
 4717SOL    HW125613   3.249   2.397   3.917 -0.9798  1.1044  0.3891
 4717SOL    HW225614   3.307   2.529   3.891  2.4219  0.8443  0.5125
 4718SOL     OW25615   0.952   2.302   5.468 -0.5073 -0.6032 -0.8274
 4718SOL    HW125616   0.895   2.375   5.493  2.6500  1.1956  1.0896
 4718SOL    HW225617   1.034   2.337   5.502 -1.5631 -0.8193  1.9591
 4719SOL     OW25618   3.407   3.445   5.226  0.1049 -0.2119  0.2656
 4719SOL    HW125619   3.405   3.349   5.223  0.9194 -0.1716 -1.3450
 4719SOL    HW225620   3.318   3.462   5.258  0.8738  0.4966  2.0359
 4720SOL     OW25621   1.482   1.751   4.981 -0.3618  0.0047 -0.5627
 4720SOL    HW125622   1.426   1.673   4.985  0.0762 -0.3579 -1.5711
 4720SOL    HW225623   1.559   1.716   4.937 -0.6120 -0.7457 -0.4096
 4721SOL     OW25624   1.343   2.562   7.631 -0.6953  0.1104  0.0795
 4721SOL    HW125625   1.381   2.542   7.546 -0.7788 -1.3167  0.3772
 4721SOL    HW225626   1.255   2.524   7.624 -1.2147  1.0787  1.2425
 4722SOL     OW25627   4.014   3.802   9.184  0.0406 -0.2483  0.7510
 4722SOL    HW125628   3.974   3.726   9.227  1.6918 -1.4110  0.2226
 4722SOL    HW225629   3.952   3.874   9.182  0.4228  0.0118 -1.6743
 4723SOL     OW25630   1.724   1.811   4.358  0.4743 -0.1901 -0.4902
 4723SOL    HW125631   1.817   1.831   4.358  0.6417 -0.9801 -0.2688
 4723SOL    HW225632   1.715   1.815   4.453  1.0077 -1.3164 -0.4029
 4724SOL     OW25633   3.794   0.730   6.946  0.7997 -0.1755  0.3733
 4724SOL    HW125634   3.873   0.701   6.900  0.5719 -0.3397  0.0918
 4724SOL    HW225635   3.786   0.657   7.007 -1.3863 -0.5308 -0.3442
 4725SOL     OW25636   2.659   0.563   2.706 -0.4345  0.0913 -0.7528
 4725SOL    HW125637   2.648   0.496   2.773 -0.1591  0.5200 -0.2825
 4725SOL    HW225638   2.755   0.567   2.704 -0.3909 -0.8183 -0.2093
 4726SOL     OW25639   2.964   2.111   3.544 -0.0082 -0.3521  0.4391
 4726SOL    HW125640   2.945   2.058   3.467  1.3056 -0.3664  0.1367
 4726SOL    HW225641   2.939   2.196   3.507  0.0466 -1.3687 -1.9102
 4727SOL     OW25642   3.921   4.515   3.495  0.0477 -0.4996  0.2735
 4727SOL    HW125643   3.940   4.601   3.460 -0.7268 -0.0103  1.0486
 4727SOL    HW225644   3.944   4.468   3.415 -0.3522  0.4047 -0.3605
 4728SOL     OW25645   2.525   1.196   4.957  0.0391  0.3695  0.1028
 4728SOL    HW125646   2.561   1.143   4.886 -0.3244  1.2901 -0.7653
 4728SOL    HW225647   2.577   1.173   5.034 -2.3756  0.0072  1.6242
 4729SOL     OW25648   4.267   3.831   6.073  0.2617 -0.2917  0.0024
 4729SOL    HW125649   4.333   3.839   6.004 -0.4764 -0.9252 -0.7779
 4729SOL    HW225650   4.310   3.772   6.135  1.4745  1.3362  0.7223
 4730SOL     OW25651   4.209   2.859   2.845 -0.6612  0.2952 -0.1853
 4730SOL    HW125652   4.269   2.931   2.824  1.0402 -0.9522  0.3607
 4730SOL    HW225653   4.278   2.798   2.817  0.0044  0.1853  1.6872
 4731SOL     OW25654   4.396   4.004  15.666  0.3608 -0.1771  0.3682
 4731SOL    HW125655   4.431   4.019  15.754  0.0282  2.4536  0.0572
 4731SOL    HW225656   4.431   3.916  15.650 -0.2878 -0.7766  2.2717
 4732SOL     OW25657   2.022   3.889   6.071  0.3428 -0.0851 -0.4485
 4732SOL    HW125658   2.088   3.866   6.137 -0.8270  0.1419  0.8098
 4732SOL    HW225659   1.962   3.946   6.120  1.3670  0.9534 -0.4224
 4733SOL     OW25660   0.328   1.689   6.338  0.4053  0.0528 -0.2498
 4733SOL    HW125661   0.272   1.699   6.261 -1.3390 -2.7640  0.6453
 4733SOL    HW225662   0.252   1.699   6.395 -0.4841 -0.3523 -1.3557
 4734SOL     OW25663   1.355   4.501   0.852 -0.0757  0.6787  0.1578
 4734SOL    HW125664   1.417   4.445   0.803 -0.3699  0.4976 -0.0076
 4734SOL    HW225665   1.331   4.449   0.929 -0.1365  1.6340  0.7821
 4735SOL     OW25666   3.410   3.181   4.491 -0.2346 -0.2032  0.1634
 4735SOL    HW125667   3.353   3.255   4.469 -1.3449 -1.9398 -2.9228
 4735SOL    HW225668   3.469   3.172   4.416 -0.2933  0.9790 -0.0146
 4736SOL     OW25669   1.293   1.286  11.006  0.1634  0.1638  0.4998
 4736SOL    HW125670   1.198   1.297  10.999  0.2834 -0.4806 -1.9678
 4736SOL    HW225671   1.315   1.329  11.089  1.8375 -1.0116  0.6653
 4737SOL     OW25672   1.794   1.203   1.233 -0.8013 -0.5227  0.7371
 4737SOL    HW125673   1.880   1.172   1.260 -0.5357 -2.4940 -2.3953
 4737SOL    HW225674   1.790   1.298   1.244  1.5958 -0.3320 -0.0084
 4738SOL     OW25675   3.033   4.397   8.214  0.2725  0.5124  0.4246
 4738SOL    HW125676   3.043   4.325   8.276  1.0681  0.4069  0.1708
 4738SOL    HW225677   2.991   4.466   8.265 -1.2287 -1.6347  2.0592
 4739SOL     OW25678   0.962   2.796   2.797 -0.2113 -0.1789 -0.3205
 4739SOL    HW125679   0.968   2.740   2.720  1.1705  0.0641 -0.3891
 4739SOL    HW225680   1.051   2.810   2.830 -0.0100  1.5027 -1.6144
 4740SOL     OW25681   3.518   4.317   1.626 -0.5993 -0.0781 -0.5411
 4740SOL    HW125682   3.581   4.326   1.554 -0.6852 -0.0755 -0.6161
 4740SOL    HW225683   3.441   4.345   1.576 -1.4311 -0.8006  0.3394
 4741SOL     OW25684   0.310   1.966   4.913  0.1947 -0.5400  0.0697
 4741SOL    HW125685   0.341   2.027   4.845  1.8578 -2.6446 -1.0616
 4741SOL    HW225686   0.226   2.005   4.935  0.9704  1.6646 -0.8484
 4742SOL     OW25687   1.182   0.875   2.787  0.5799 -0.6631  0.2544
 4742SOL    HW125688   1.200   0.951   2.731 -0.3861  0.3578  1.3228
 4742SOL    HW225689   1.134   0.823   2.723 -1.1235  0.2677  0.7668
 4743SOL     OW25690   3.754   1.034   7.724  0.4182  0.5762 -0.0638
 4743SOL    HW125691   3.756   0.971   7.796 -4.1012  0.5678  0.0681
 4743SOL    HW225692   3.827   1.093   7.743  0.4830  0.0121  1.3635
 4744SOL     OW25693   0.543   2.657  14.581  0.1266  0.4756  0.9219
 4744SOL    HW125694   0.570   2.738  14.539 -0.9777  1.0476  1.3131
 4744SOL    HW225695   0.622   2.607  14.560  0.1074  1.0641 -0.4914
 4745SOL     OW25696   1.487   2.781   5.347 -0.5542  0.4334 -0.7536
 4745SOL    HW125697   1.574   2.750   5.320 -1.2654 -0.7527 -1.7146
 4745SOL    HW225698   1.428   2.719   5.303  0.1978 -0.7634 -0.0395
 4746SOL     OW25699   2.403   2.317   6.208  0.0313 -0.0515  0.3480
 4746SOL    HW125700   2.473   2.279   6.261  1.1615  0.3855 -0.8420
 4746SOL    HW225701   2.449   2.335   6.127 -2.9049  1.4747 -0.9671
 4747SOL     OW25702   1.841   3.857   7.619  0.2145 -0.3744 -0.1253
 4747SOL    HW125703   1.889   3.844   7.537 -0.1604  2.5320 -0.7920
 4747SOL    HW225704   1.805   3.945   7.610  1.4228  0.0023 -1.2018
 4748SOL     OW25705   2.266   1.127  14.037  0.1208 -0.1474  0.2542
 4748SOL    HW125706   2.182   1.167  14.017  1.0986  0.6505 -2.3005
 4748SOL    HW225707   2.262   1.044  13.988  1.4725 -0.1232  0.1130
 4749SOL     OW25708   0.937   1.469   7.462  1.0167  0.0687 -0.3641
 4749SOL    HW125709   0.955   1.410   7.389 -0.9995 -2.2219  0.9618
 4749SOL    HW225710   0.927   1.554   7.419 -2.1066  0.2511  0.6809
 4750SOL     OW25711   2.710   3.043   5.033 -0.0862 -0.0794  0.6562
 4750SOL    HW125712   2.654   3.032   4.957 -1.0116 -0.6326  1.4149
 4750SOL    HW225713   2.671   2.978   5.092  1.0645 -1.5844 -0.2608
 4751SOL     OW25714   3.676   1.686  17.149 -0.2642  0.0028  0.3295
 4751SOL    HW125715   3.687   1.735  17.230 -0.8223 -1.6969  1.4231
 4751SOL    HW225716   3.660   1.756  17.085  0.6174 -0.7497 -0.7025
 4752SOL     OW25717   3.017   0.440   9.106 -0.0792  0.1014 -0.1873
 4752SOL    HW125718   3.112   0.452   9.104  0.0656 -0.9306  0.3115
 4752SOL    HW225719   3.018   0.379   9.180  0.4072  0.8780  0.4310
 4753SOL     OW25720   1.675   2.734   9.098  0.0968 -0.3526 -0.3368
 4753SOL    HW125721   1.619   2.778   9.034 -0.5108 -0.9959 -0.2433
 4753SOL    HW225722   1.714   2.675   9.034 -0.0651 -1.5979  0.7040
 4754SOL     OW25723   2.484   1.398   2.601  0.1694  0.2726  0.4539
 4754SOL    HW125724   2.455   1.426   2.688  1.6212  2.6915  0.1560
 4754SOL    HW225725   2.414   1.344   2.565  0.9606  0.0379 -0.7382
 4755SOL     OW25726   2.265   3.796   2.084  0.2048  0.0834 -0.2260
 4755SOL    HW125727   2.269   3.707   2.119  0.1771 -0.4603 -1.5763
 4755SOL    HW225728   2.359   3.815   2.073  0.0797  0.2317 -1.0627
 4756SOL     OW25729   3.799   4.327   4.527  0.3111 -0.0255 -0.2221
 4756SOL    HW125730   3.734   4.389   4.560 -0.6894 -1.9165  1.3156
 4756SOL    HW225731   3.780   4.261   4.593  0.5529  0.2590  0.1331
 4757SOL     OW25732   3.043   4.648  11.330  0.0692  0.3458  0.0905
 4757SOL    HW125733   3.085   4.665  11.415 -1.2627  2.6868  0.2815
 4757SOL    HW225734   3.071   4.726  11.281  0.6502  1.4390  2.1612
 4758SOL     OW25735   1.489   2.629   2.534 -0.6666  0.4464 -0.0100
 4758SOL    HW125736   1.574   2.591   2.514 -0.6621  0.2687  0.3394
 4758SOL    HW225737   1.502   2.703   2.475 -0.4193  1.2677  1.0968
 4759SOL     OW25738   3.271   2.309   0.333 -0.3341 -0.3170  0.1688
 4759SOL    HW125739   3.296   2.217   0.332 -0.3740 -0.2864 -2.5082
 4759SOL    HW225740   3.354   2.357   0.336 -0.2900 -0.5097  1.8364
 4760SOL     OW25741   3.327   4.340  12.184  0.0474 -0.9422 -0.1398
 4760SOL    HW125742   3.336   4.421  12.234 -1.2746 -0.5965 -0.4741
 4760SOL    HW225743   3.233   4.325  12.173 -0.5494  0.6017  2.9717
 4761SOL     OW25744   3.725   1.446   5.869 -0.1005  0.5950 -0.8435
 4761SOL    HW125745   3.704   1.535   5.897 -0.0097 -0.9856  4.1747
 4761SOL    HW225746   3.651   1.430   5.810  0.6655 -1.2292 -1.3309
 4762SOL     OW25747   2.653   4.707   2.264  0.4279  0.2660 -0.2178
 4762SOL    HW125748   2.740   4.667   2.266 -0.3476 -1.4400 -0.6578
 4762SOL    HW225749   2.674   0.073   2.244 -1.1092  0.9635  1.3495
 4763SOL     OW25750   0.560   1.269   6.117  0.6095  0.4024  0.6608
 4763SOL    HW125751   0.558   1.359   6.149 -1.2910  0.3644  0.6353
 4763SOL    HW225752   0.471   1.250   6.087  0.6960  1.3991 -0.2036
 4764SOL     OW25753   0.820   2.230   9.819 -0.3182 -0.3667 -0.2519
 4764SOL    HW125754   0.838   2.269   9.734  2.0959 -1.3915 -0.2127
 4764SOL    HW225755   0.772   2.150   9.795  1.6215 -0.8744 -2.4644
 4765SOL     OW25756   4.551   4.403   6.420  0.5436 -0.0054 -0.4295
 4765SOL    HW125757   4.531   4.490   6.388 -2.0994 -0.6076 -0.4410
 4765SOL    HW225758   4.607   4.371   6.349  0.2855  1.7524 -1.4000
 4766SOL     OW25759   3.884   2.067   2.203 -0.0695 -0.1042 -0.1889
 4766SOL    HW125760   3.810   2.087   2.147  0.4503 -1.1562 -1.2627
 4766SOL    HW225761   3.946   2.140   2.197 -3.1015  2.3584 -0.8569
 4767SOL     OW25762   4.446   0.272   8.472 -0.0789  0.2069  0.2352
 4767SOL    HW125763   4.512   0.205   8.487  1.9088  2.0810 -0.1824
 4767SOL    HW225764   4.369   0.221   8.446  1.8965 -2.7083  0.2302
 4768SOL     OW25765   1.187   2.172   7.572  0.2162 -0.3924 -0.5234
 4768SOL    HW125766   1.237   2.189   7.492 -0.4057 -2.1879 -1.3084
 4768SOL    HW225767   1.250   2.110   7.610 -1.4649 -0.7570  1.6489
 4769SOL     OW25768   4.176   3.066   8.985 -0.1080 -0.9766  0.9462
 4769SOL    HW125769   4.254   3.122   8.983 -0.7360 -0.0011  2.9993
 4769SOL    HW225770   4.176   3.021   8.901  1.4446  1.8079 -0.5501
 4770SOL     OW25771   2.752   1.466  15.812  0.4046  0.2331  0.1835
 4770SOL    HW125772   2.668   1.473  15.767  0.1151 -1.3374  0.4572
 4770SOL    HW225773   2.756   1.370  15.815 -3.7010  0.0142 -0.2998
 4771SOL     OW25774   0.081   2.063   8.364  0.1595 -0.0907 -0.6762
 4771SOL    HW125775   0.129   1.986   8.395 -1.2108 -1.0933 -1.0440
 4771SOL    HW225776   0.061   2.049   8.272  1.0445 -0.0976 -0.8650
 4772SOL     OW25777   2.898   4.443   2.899 -0.4072 -0.1365 -0.3935
 4772SOL    HW125778   2.924   4.385   2.828  1.9654  1.9923 -1.2537
 4772SOL    HW225779   2.805   4.455   2.880 -0.7344 -0.6660  0.8420
 4773SOL     OW25780   4.556   0.990   7.058  0.3236 -0.0916 -0.7555
 4773SOL    HW125781   4.593   0.944   7.134  0.7104  0.5486 -0.5565
 4773SOL    HW225782   4.472   1.020   7.093  0.5802  1.5875 -1.5832
 4774SOL     OW25783   3.861   0.386  14.539 -0.0080  1.1175  0.1493
 4774SOL    HW125784   3.784   0.423  14.582  0.1127  1.3155  0.1932
 4774SOL    HW225785   3.924   0.457  14.552  0.1870  0.8637  0.6126
 4775SOL     OW25786   0.438   0.838   7.887 -0.1486  0.0579  0.1093
 4775SOL    HW125787   0.468   0.842   7.978 -0.6511  0.0641  0.2721
 4775SOL    HW225788   0.523   0.815   7.849 -0.0588  2.2449 -1.0055
 4776SOL     OW25789   2.216   1.021   3.862 -0.4273 -0.0366  0.3001
 4776SOL    HW125790   2.123   1.002   3.845 -0.7910  1.2734  0.7682
 4776SOL    HW225791   2.202   1.100   3.915  0.7352 -0.9005  1.8822
 4777SOL     OW25792   1.548   1.107   6.345  0.0449  0.3994 -0.2121
 4777SOL    HW125793   1.565   1.014   6.331  0.7888  0.2773  1.3732
 4777SOL    HW225794   1.565   1.141   6.258 -0.1467 -0.0231 -0.4115
 4778SOL     OW25795   2.578   2.191  12.167  0.0052 -0.3305  0.1311
 4778SOL    HW125796   2.538   2.202  12.253 -0.4512  2.3722 -0.4381
 4778SOL    HW225797   2.535   2.256  12.112 -1.3190 -0.6917  0.7411
 4779SOL     OW25798   3.836   2.402   5.561 -0.3390 -0.0448 -0.4992
 4779SOL    HW125799   3.761   2.457   5.582  1.0417  2.0930 -1.1510
 4779SOL    HW225800   3.830   2.411   5.466 -0.5617  1.2072 -0.3657
 4780SOL     OW25801   0.528   0.040   3.060 -0.4916 -0.2904 -0.4633
 4780SOL    HW125802   0.561   4.699   3.120  0.9754  1.4999  0.7261
 4780SOL    HW225803   0.478   0.093   3.122 -0.0215 -0.4777  0.0739
 4781SOL     OW25804   0.516   1.852  15.741 -0.0260 -0.2251  0.4304
 4781SOL    HW125805   0.609   1.854  15.717 -0.4606  0.4809 -1.2212
 4781SOL    HW225806   0.481   1.781  15.689  0.4564  0.4661 -0.8499
 4782SOL     OW25807   2.386   2.330   7.054  0.0244  0.3673  0.0398
 4782SOL    HW125808   2.314   2.293   7.106  0.9081  2.0136  2.4674
 4782SOL    HW225809   2.383   2.420   7.087 -1.1980  0.0436  0.8375
 4783SOL     OW25810   4.608   1.370  12.142 -0.1132 -0.7022 -0.6622
 4783SOL    HW125811   4.698   1.399  12.128  0.1182 -0.9490  0.2566
 4783SOL    HW225812   4.614   1.318  12.223  0.6375 -0.2081 -0.3985
 4784SOL     OW25813   4.693   2.037   4.634  0.0576 -0.4796  0.5785
 4784SOL    HW125814   0.056   2.004   4.621  0.2853 -0.2443  1.5618
 4784SOL    HW225815   4.710   2.131   4.633  0.3214 -0.5438 -0.4547
 4785SOL     OW25816   1.537   2.696   3.594 -0.0138  0.0020 -0.0544
 4785SOL    HW125817   1.527   2.758   3.523 -3.0011  0.4955  0.8149
 4785SOL    HW225818   1.491   2.742   3.665  0.1422 -0.9309  0.6578
 4786SOL     OW25819   0.300   2.965   2.165 -0.1550 -0.4647  0.1408
 4786SOL    HW125820   0.251   2.937   2.242  0.5723  0.6390  1.0188
 4786SOL    HW225821   0.385   2.924   2.180  0.1012  0.0891  0.2356
 4787SOL     OW25822   4.025   3.994  10.580  0.2860  0.0527 -0.0265
 4787SOL    HW125823   3.944   3.947  10.600 -0.6054  1.8897  0.6330
 4787SOL    HW225824   3.997   4.053  10.510 -0.7223  2.4615  2.4022
 4788SOL     OW25825   1.832   3.460   0.705 -0.2307  0.7622 -0.3602
 4788SOL    HW125826   1.799   3.548   0.723  1.3001  1.3570 -0.5042
 4788SOL    HW225827   1.790   3.414   0.778  0.2020 -0.1450 -0.6814
 4789SOL     OW25828   1.768   3.730   3.301 -0.3099 -0.0159 -0.2016
 4789SOL    HW125829   1.800   3.648   3.264 -1.2755  0.3082 -1.7883
 4789SOL    HW225830   1.707   3.701   3.369 -1.5606  0.7113 -1.0004
 4790SOL     OW25831   2.929   0.639  17.243 -0.0174 -0.2903 -0.2304
 4790SOL    HW125832   2.836   0.621  17.226 -0.2537  0.2524  0.4748
 4790SOL    HW225833   2.931   0.723  17.289 -0.2651 -0.2705 -0.2536
 4791SOL     OW25834   1.677   3.634   4.891  0.0412 -0.9325 -0.5753
 4791SOL    HW125835   1.650   3.544   4.908 -0.0016 -0.5628  1.3196
 4791SOL    HW225836   1.634   3.690   4.956  0.9485 -2.9440  1.7250
 4792SOL     OW25837   1.748   1.338   6.823 -0.0608  0.2826  0.4355
 4792SOL    HW125838   1.688   1.373   6.757  0.9606  1.3552  0.0817
 4792SOL    HW225839   1.683   1.281   6.865 -0.6512 -0.5800 -1.6771
 4793SOL     OW25840   1.886   1.392   2.877 -0.2345  0.3303 -0.7026
 4793SOL    HW125841   1.816   1.377   2.813  1.2064 -1.4935 -1.8233
 4793SOL    HW225842   1.945   1.446   2.823  2.1733 -1.3770  0.2352
 4794SOL     OW25843   3.590   4.223  15.381  0.0024 -0.5667  0.5078
 4794SOL    HW125844   3.545   4.138  15.384 -1.4445  0.1738 -0.4006
 4794SOL    HW225845   3.675   4.188  15.354  0.3407  2.3049 -2.1064
 4795SOL     OW25846   1.256   0.905   7.028 -0.2417 -0.6752  0.5127
 4795SOL    HW125847   1.215   0.889   6.943  2.2286  1.0407 -1.0258
 4795SOL    HW225848   1.220   0.838   7.086  0.0018 -0.1474  1.2777
 4796SOL     OW25849   1.474   0.926   8.501 -0.0617 -0.3779  0.0584
 4796SOL    HW125850   1.503   1.000   8.448 -0.9458  0.7893  1.2229
 4796SOL    HW225851   1.379   0.934   8.497 -0.0482  0.3032  1.1581
 4797SOL     OW25852   2.199   0.907  14.318  0.6498 -0.6765 -0.0650
 4797SOL    HW125853   2.241   0.993  14.323  1.7609 -1.1397 -1.2167
 4797SOL    HW225854   2.268   0.847  14.345 -0.0234 -0.3583  2.3342
 4798SOL     OW25855   4.226   1.637   4.176  0.2518  0.8266  0.5545
 4798SOL    HW125856   4.191   1.661   4.262  3.5051  0.6265  1.9386
 4798SOL    HW225857   4.201   1.546   4.161 -2.7194  1.5739  0.9089
 4799SOL     OW25858   0.505   2.654   5.153  0.2327  0.1164  0.0552
 4799SOL    HW125859   0.576   2.696   5.202  1.2509 -1.6539  0.1009
 4799SOL    HW225860   0.439   2.723   5.163 -0.6987 -0.8327  0.4751
 4800SOL     OW25861   4.678   0.189   9.970 -0.6414 -0.3416  0.3934
 4800SOL    HW125862   4.622   0.134   9.916  1.1996 -0.0288 -1.8202
 4800SOL    HW225863   4.631   0.272   9.970  1.3918  0.7860  0.3161
 4801SOL     OW25864   0.238   2.113   9.335  0.4671  0.0701 -0.3032
 4801SOL    HW125865   0.316   2.069   9.371  0.4962  1.2849  1.1474
 4801SOL    HW225866   0.194   2.037   9.299  1.9035 -1.2553  0.7129
 4802SOL     OW25867   2.628   3.126   9.723 -0.1588 -0.0766 -0.3457
 4802SOL    HW125868   2.578   3.097   9.647 -1.0556  1.2191 -0.2404
 4802SOL    HW225869   2.661   3.209   9.690  0.2257  0.7350  2.0543
 4803SOL     OW25870   2.657   0.145   0.470 -0.1191 -0.3662  0.1346
 4803SOL    HW125871   2.668   0.099   0.554 -0.0955  0.3050  0.4959
 4803SOL    HW225872   2.577   0.191   0.494 -1.2080 -1.7758 -0.7504
 4804SOL     OW25873   3.485   4.133  11.712  0.6597 -0.1477 -0.2911
 4804SOL    HW125874   3.504   4.096  11.626  0.5066 -1.5539  0.2762
 4804SOL    HW225875   3.507   4.225  11.695  1.8245  0.0635  2.3863
 4805SOL     OW25876   0.654   3.312  10.688 -0.0706 -0.1166  0.2686
 4805SOL    HW125877   0.732   3.257  10.697 -0.3561 -0.5741 -0.0705
 4805SOL    HW225878   0.624   3.288  10.601  1.0717  0.1747 -0.2100
 4806SOL     OW25879   2.597   4.213   5.865  0.1313 -0.4700  0.1748
 4806SOL    HW125880   2.528   4.220   5.800 -0.7260 -1.2621  1.0067
 4806SOL    HW225881   2.655   4.288   5.852  1.1732 -1.5237 -1.3662
 4807SOL     OW25882   2.387   0.517   6.098  0.3742  0.3411  0.4139
 4807SOL    HW125883   2.422   0.477   6.019  1.9002 -1.1615  1.8559
 4807SOL    HW225884   2.294   0.515   6.074  0.9530  0.1627 -1.7967
 4808SOL     OW25885   1.687   3.313   4.322 -0.3974 -0.2283  0.0114
 4808SOL    HW125886   1.757   3.366   4.359  0.7494 -0.7054 -1.4780
 4808SOL    HW225887   1.727   3.310   4.235  1.8668  0.6312  1.0130
 4809SOL     OW25888   0.417   3.550   8.210 -0.1216  0.3919  0.5353
 4809SOL    HW125889   0.442   3.585   8.124  0.2227 -0.7793  0.1540
 4809SOL    HW225890   0.348   3.486   8.193 -0.4558  1.0628 -0.6829
 4810SOL     OW25891   4.554   4.249   8.659  0.1850  0.3759  0.9847
 4810SOL    HW125892   4.496   4.187   8.702  0.2984 -0.6635 -0.3374
 4810SOL    HW225893   4.525   4.226   8.570  2.0578  2.5698 -0.2046
 4811SOL     OW25894   2.881   2.703   6.814  0.0252  0.4603 -0.1075
 4811SOL    HW125895   2.856   2.636   6.877 -0.5738  1.6966  0.9788
 4811SOL    HW225896   2.889   2.786   6.862  0.6276 -0.0801  0.7228
 4812SOL     OW25897   1.808   1.315  12.568  0.3257  0.3699  0.3592
 4812SOL    HW125898   1.718   1.318  12.601 -0.5437 -1.7596 -1.7807
 4812SOL    HW225899   1.793   1.315  12.473  1.4270 -0.5114  0.1744
 4813SOL     OW25900   1.790   1.885  10.017  0.4325  0.2157 -0.5276
 4813SOL    HW125901   1.835   1.946   9.960 -0.0341 -0.3420 -1.4874
 4813SOL    HW225902   1.841   1.912  10.094  0.1727  1.0796 -0.6636
 4814SOL     OW25903   2.761   3.802  10.231 -0.3194 -0.2632 -0.1895
 4814SOL    HW125904   2.751   3.893  10.201 -1.7536  0.3504  2.1815
 4814SOL    HW225905   2.766   3.751  10.150  0.2505  1.2707 -1.1382
 4815SOL     OW25906   4.063   1.050   5.020 -0.1415 -0.0776  0.0119
 4815SOL    HW125907   4.156   1.070   5.029 -0.0943 -2.3438  4.7300
 4815SOL    HW225908   4.020   1.094   5.094 -1.2718 -1.2318  0.0503
 4816SOL     OW25909   1.904   1.255  14.192  0.2816 -0.0193 -0.2490
 4816SOL    HW125910   1.859   1.324  14.144  1.0377  0.4652 -0.2636
 4816SOL    HW225911   1.901   1.187  14.124 -1.2063 -0.5324  0.3345
 4817SOL     OW25912   1.891   3.391   2.241  0.2902  0.3846 -0.4319
 4817SOL    HW125913   1.907   3.437   2.159  0.5931  1.0569  0.0050
 4817SOL    HW225914   1.921   3.302   2.222 -0.6850  0.1085 -0.6673
 4818SOL     OW25915   1.260   3.096   9.858  0.1578  0.0966  0.1894
 4818SOL    HW125916   1.264   3.053   9.943  0.9530  1.2439  0.7325
 4818SOL    HW225917   1.304   3.032   9.803 -0.2178 -1.1264  1.3046
 4819SOL     OW25918   2.480   2.825   8.331 -0.4346  0.4976 -0.7974
 4819SOL    HW125919   2.413   2.851   8.394  1.8235  0.6978  1.4993
 4819SOL    HW225920   2.522   2.906   8.304 -0.3960  0.1661 -1.7592
 4820SOL     OW25921   2.992   1.001   8.637  0.0449 -0.3492 -0.5045
 4820SOL    HW125922   3.062   0.945   8.605  1.1318  0.4095  0.5263
 4820SOL    HW225923   2.948   0.942   8.697  0.8172  0.2256  0.6249
 4821SOL     OW25924   4.561   3.026   8.447 -0.2939  0.0657  0.2067
 4821SOL    HW125925   4.518   3.045   8.530 -2.3646 -1.1631 -0.5831
 4821SOL    HW225926   4.499   3.070   8.389 -2.3099 -1.9889  0.7871
 4822SOL     OW25927   4.511   1.491   0.508  0.2735 -0.0530  0.4899
 4822SOL    HW125928   4.531   1.560   0.571 -0.9454  0.7262  0.0216
 4822SOL    HW225929   4.487   1.533   0.426  0.1906 -0.2792  0.3969
 4823SOL     OW25930   1.882   2.717  15.975  0.0574 -0.0510 -0.0101
 4823SOL    HW125931   1.810   2.775  15.948 -0.3256  0.5688  2.3918
 4823SOL    HW225932   1.919   2.753  16.055  1.0234  0.9358 -0.8951
 4824SOL     OW25933   2.256   2.292   4.291  0.5444 -0.5049  0.0054
 4824SOL    HW125934   2.307   2.360   4.334 -2.5859  1.7297  0.2227
 4824SOL    HW225935   2.165   2.314   4.312  0.2767 -0.7524 -0.8719
 4825SOL     OW25936   0.172   0.443   5.929 -0.2932  0.0049  0.4605
 4825SOL    HW125937   0.188   0.532   5.898 -0.7229 -0.9732 -2.5807
 4825SOL    HW225938   0.254   0.403   5.957  0.6725  2.2145  0.7717
 4826SOL     OW25939   2.683   0.082  15.569 -0.1218  0.0181 -0.0105
 4826SOL    HW125940   2.727   0.163  15.541  0.7856 -0.2637  0.5791
 4826SOL    HW225941   2.684   0.106  15.662 -0.2071  2.0189 -0.5133
 4827SOL     OW25942   1.677   2.150   4.884 -0.5658  0.3821 -0.2040
 4827SOL    HW125943   1.686   2.143   4.979  1.2027 -1.6382 -0.5266
 4827SOL    HW225944   1.682   2.059   4.856  1.1499  0.2607  0.4686
 4828SOL     OW25945   1.462   0.284  17.103  0.1506 -0.7437  0.4030
 4828SOL    HW125946   1.425   0.225  17.037 -0.4420 -0.6394  0.6372
 4828SOL    HW225947   1.415   0.253  17.180  0.1839 -2.1786 -0.1545
 4829SOL     OW25948   4.572   4.362  14.170  0.1316 -0.0059  0.3933
 4829SOL    HW125949   4.554   4.382  14.262  0.4977  2.3622 -0.0720
 4829SOL    HW225950   4.664   4.387  14.157  0.8594 -3.5088 -1.3153
 4830SOL     OW25951   1.657   3.639  16.588  0.5318 -0.1866 -0.0043
 4830SOL    HW125952   1.619   3.718  16.551  1.1458 -0.4636 -1.2143
 4830SOL    HW225953   1.643   3.646  16.683 -2.3275  0.9810 -0.5327
 4831SOL     OW25954   4.109   2.373   5.567 -0.0188  0.0503  0.2821
 4831SOL    HW125955   4.017   2.399   5.567  0.2878  1.1530 -0.2495
 4831SOL    HW225956   4.136   2.412   5.651  1.4827  1.1709 -0.7216
 4832SOL     OW25957   1.246   1.079  16.903  0.0883  0.6290  0.4831
 4832SOL    HW125958   1.201   1.090  16.819  2.7598 -0.9425 -1.1443
 4832SOL    HW225959   1.244   1.167  16.940 -2.6692  1.0125 -0.5993
 4833SOL     OW25960   1.198   2.262   2.183  0.2563 -0.2529 -0.6918
 4833SOL    HW125961   1.279   2.232   2.224  1.0572 -1.1802 -2.9705
 4833SOL    HW225962   1.166   2.176   2.154 -0.1663  0.1193 -1.3258
 4834SOL     OW25963   2.005   3.172   2.151 -0.3045  0.0726 -0.2028
 4834SOL    HW125964   1.980   3.080   2.144 -2.1288  0.5243  0.1544
 4834SOL    HW225965   2.052   3.186   2.069  1.2425 -1.6261  0.4102
 4835SOL     OW25966   4.333   4.102   8.738 -0.4399  0.5345  0.3672
 4835SOL    HW125967   4.322   4.095   8.833  0.9881 -1.8347  0.3477
 4835SOL    HW225968   4.248   4.128   8.704  0.8391  2.7057 -1.1261
 4836SOL     OW25969   0.215   3.327   7.245  0.3551  0.1874  0.4730
 4836SOL    HW125970   0.207   3.413   7.205 -0.6749  0.5996  1.5828
 4836SOL    HW225971   0.268   3.280   7.180 -1.1327  1.2674 -1.4907
 4837SOL     OW25972   1.360   0.853   0.613 -0.5785 -0.1016  0.3194
 4837SOL    HW125973   1.353   0.758   0.604  0.0119 -0.1992  0.8977
 4837SOL    HW225974   1.444   0.870   0.571 -0.1704 -1.3269  0.6440
 4838SOL     OW25975   2.963   0.503   2.404 -0.4335 -0.3384  0.1883
 4838SOL    HW125976   2.972   0.413   2.372 -0.0513 -0.5396  0.8787
 4838SOL    HW225977   2.872   0.499   2.433 -0.5397 -0.3966 -0.1474
 4839SOL     OW25978   3.910   1.114   7.158 -0.1752 -0.2441  0.5046
 4839SOL    HW125979   3.865   1.180   7.210 -1.5269 -0.3782 -0.4718
 4839SOL    HW225980   3.892   1.028   7.196 -1.4907 -0.2939 -0.2298
 4840SOL     OW25981   4.126   3.399   7.558  0.1997  0.1596  0.0048
 4840SOL    HW125982   4.184   3.416   7.632  0.4660 -2.3934  0.3834
 4840SOL    HW225983   4.066   3.473   7.566  0.8931  0.8422 -1.1376
 4841SOL     OW25984   1.994   4.570   5.926  0.4487 -0.0307  0.5448
 4841SOL    HW125985   1.988   4.578   5.831 -0.0986  2.7501  0.8316
 4841SOL    HW225986   1.960   4.481   5.939  1.3311 -0.1989  1.7430
 4842SOL     OW25987   4.689   3.542  13.416 -0.2920 -0.0036 -0.2331
 4842SOL    HW125988   4.637   3.491  13.355  1.0157 -0.3632 -1.0632
 4842SOL    HW225989   0.050   3.505  13.400  0.1324  0.6812  0.4278
 4843SOL     OW25990   4.673   0.551   0.253 -0.5733 -0.5478  0.7946
 4843SOL    HW125991   4.588   0.510   0.235 -0.4842  0.2790 -1.5984
 4843SOL    HW225992   4.653   0.644   0.240 -0.3060 -0.3819  1.5534
 4844SOL     OW25993   4.651   0.643   2.039  0.5061 -0.5013 -0.8714
 4844SOL    HW125994   4.636   0.703   1.965 -0.5550 -3.2697 -2.9018
 4844SOL    HW225995   0.020   0.646   2.051  0.6454 -1.1865 -1.7727
 4845SOL     OW25996   0.923   3.513   6.007 -0.0426 -0.2401 -0.0449
 4845SOL    HW125997   0.846   3.505   5.950 -0.0490 -1.0386  0.0752
 4845SOL    HW225998   0.970   3.434   5.982 -0.1411 -0.2369 -0.2379
 4846SOL     OW25999   2.413   1.897   0.731 -0.0904 -0.2204  0.0947
 4846SOL    HW126000   2.368   1.816   0.709  0.1236 -0.4722  0.5625
 4846SOL    HW226001   2.469   1.902   0.654 -0.6348 -1.0068 -0.3522
 4847SOL     OW26002   3.494   2.359   4.893  0.4532 -0.5641  0.6840
 4847SOL    HW126003   3.444   2.439   4.875  0.1010 -0.7215  0.9646
 4847SOL    HW226004   3.487   2.307   4.813 -1.8789 -0.6972  0.9925
 4848SOL     OW26005   0.079   3.552  11.830 -0.3131 -0.0216  0.2339
 4848SOL    HW126006   0.144   3.520  11.766 -2.1636 -1.3007 -1.0086
 4848SOL    HW226007   4.726   3.506  11.802  1.5019 -2.2963 -1.1823
 4849SOL     OW26008   0.326   2.996  12.790  0.3448  0.1336  0.1861
 4849SOL    HW126009   0.400   3.039  12.748  0.5929  0.9692  1.4687
 4849SOL    HW226010   0.302   3.061  12.855 -0.7695  1.0839 -1.1930
 4850SOL     OW26011   3.682   2.607   1.766  0.0176 -0.3423 -0.2166
 4850SOL    HW126012   3.648   2.533   1.715 -0.1999 -0.1997 -0.2762
 4850SOL    HW226013   3.756   2.637   1.713 -0.7039  0.2843 -0.8612
 4851SOL     OW26014   0.279   1.656  11.858  0.3209  0.0137  0.0100
 4851SOL    HW126015   0.342   1.724  11.835  2.2086 -2.9926 -3.8137
 4851SOL    HW226016   0.296   1.642  11.951 -1.3102  1.8001  0.5692
 4852SOL     OW26017   2.813   3.840  13.772 -0.1557 -0.1215  0.4823
 4852SOL    HW126018   2.859   3.840  13.856 -1.3219  2.5027  1.1141
 4852SOL    HW226019   2.850   3.756  13.746  1.5556  0.6092  0.5652
 4853SOL     OW26020   4.403   0.330   3.745  0.7012 -0.3356  0.2411
 4853SOL    HW126021   4.411   0.350   3.652  0.6744  0.0405  0.3184
 4853SOL    HW226022   4.445   0.404   3.790 -0.6251  0.0082  0.9224
 4854SOL     OW26023   2.400   1.375   1.438 -0.3867 -0.2329  0.2739
 4854SOL    HW126024   2.332   1.329   1.488  0.1575 -0.2070  1.0279
 4854SOL    HW226025   2.357   1.387   1.353 -1.6739 -1.1270  0.7962
 4855SOL     OW26026   3.669   0.469   3.777  0.1513 -0.3863  0.0928
 4855SOL    HW126027   3.659   0.548   3.724 -1.1689 -1.9417 -1.9321
 4855SOL    HW226028   3.664   0.517   3.860 -0.3338  0.4298 -0.4059
 4856SOL     OW26029   0.512   4.343   8.570  0.3240 -0.3099 -0.1700
 4856SOL    HW126030   0.447   4.284   8.531 -0.8575  1.7554 -1.3028
 4856SOL    HW226031   0.587   4.283   8.571 -0.3781 -1.1812 -0.0480
 4857SOL     OW26032   3.591   1.074   8.920  0.5858 -0.1261  0.4415
 4857SOL    HW126033   3.547   1.118   8.847  0.4182 -3.3683 -1.4226
 4857SOL    HW226034   3.539   0.993   8.917 -0.9631  0.9817 -2.6914
 4858SOL     OW26035   1.562   0.907  11.119 -0.3498  0.0654  0.2338
 4858SOL    HW126036   1.658   0.915  11.119 -0.2283 -1.5400 -1.1116
 4858SOL    HW226037   1.540   0.999  11.101  2.0252  0.1079 -2.5031
 4859SOL     OW26038   3.677   1.403   5.039  0.2273 -0.1138 -0.1649
 4859SOL    HW126039   3.732   1.329   5.011  0.2768  0.4573 -1.5889
 4859SOL    HW226040   3.604   1.407   4.977  1.1396 -0.8447 -1.2964
 4860SOL     OW26041   2.841   2.154  15.952  0.4314  0.5134  0.3052
 4860SOL    HW126042   2.764   2.196  15.991 -1.2454 -1.0540 -1.2679
 4860SOL    HW226043   2.793   2.083  15.908  0.1427 -0.0645  1.5561
 4861SOL     OW26044   3.569   3.316   2.248 -0.4253 -0.0768 -0.2580
 4861SOL    HW126045   3.569   3.270   2.164 -0.4053  1.1714 -0.9490
 4861SOL    HW226046   3.616   3.247   2.294  1.2469 -1.3297 -3.8215
 4862SOL     OW26047   4.624   4.127   7.623  0.2014 -0.2162 -0.1531
 4862SOL    HW126048   4.529   4.126   7.613  0.1360 -0.5809  0.4618
 4862SOL    HW226049   4.639   4.125   7.529  3.5527 -0.1740  0.3852
 4863SOL     OW26050   1.956   3.714   5.426 -0.1645  0.1711 -0.3809
 4863SOL    HW126051   1.906   3.678   5.500  2.3770 -1.4487  0.5281
 4863SOL    HW226052   2.018   3.770   5.473  1.2533 -2.7339  1.2137
 4864SOL     OW26053   1.289   2.085  12.572  0.1847  0.5082  0.3342
 4864SOL    HW126054   1.227   2.109  12.503 -0.2798  0.4519  0.7387
 4864SOL    HW226055   1.308   1.998  12.535 -0.8237  1.2569 -1.9428
 4865SOL     OW26056   1.073   2.298   6.410  0.0694  0.1702 -0.5239
 4865SOL    HW126057   1.072   2.382   6.365 -1.6140  1.1926  1.4018
 4865SOL    HW226058   0.988   2.290   6.454  0.3403  1.9730  0.3143
 4866SOL     OW26059   0.890   3.270  14.564  0.1379  0.1711  0.5348
 4866SOL    HW126060   0.925   3.346  14.517  0.1696  0.4084  0.9464
 4866SOL    HW226061   0.974   3.228  14.580 -1.9876 -3.0870  3.0148
 4867SOL     OW26062   3.225   1.541   4.857 -0.2357  0.3424 -0.2066
 4867SOL    HW126063   3.181   1.603   4.915 -0.1256 -1.1547  1.4829
 4867SOL    HW226064   3.191   1.557   4.769 -0.5170  1.1367  0.0531
 4868SOL     OW26065   0.071   3.337   6.414  0.7127  0.5393 -0.5960
 4868SOL    HW126066   0.138   3.399   6.443 -0.9549  0.4500  3.4378
 4868SOL    HW226067   0.109   3.261   6.457  2.7888  2.3877  0.8789
 4869SOL     OW26068   2.529   1.494  14.591 -0.1494 -0.1714  0.3658
 4869SOL    HW126069   2.573   1.549  14.526 -0.5110  1.3191  1.3913
 4869SOL    HW226070   2.537   1.547  14.670 -0.3515  0.4068 -0.0063
 4870SOL     OW26071   1.078   4.617   3.125 -0.7097 -0.1086  0.7316
 4870SOL    HW126072   1.023   4.539   3.122 -0.9815  0.1404 -0.9012
 4870SOL    HW226073   1.157   4.583   3.081 -1.7287 -0.9485 -0.4623
 4871SOL     OW26074   0.145   1.156   6.526 -0.4559 -0.2747 -0.0700
 4871SOL    HW126075   0.240   1.150   6.534 -0.7573 -0.4056  3.0931
 4871SOL    HW226076   0.122   1.072   6.488  0.7558 -0.7595  0.2566
 4872SOL     OW26077   2.535   2.272   0.616 -0.7548 -0.0225 -0.6406
 4872SOL    HW126078   2.532   2.209   0.544  0.8543  0.6138 -1.2672
 4872SOL    HW226079   2.445   2.271   0.648 -0.4695  0.6496  0.1903
 4873SOL     OW26080   4.324   3.520   2.741 -0.2604 -0.5694 -0.1604
 4873SOL    HW126081   4.312   3.426   2.729  1.4585 -0.5346 -1.9949
 4873SOL    HW226082   4.297   3.562   2.660 -1.3682  0.6250  0.8201
 4874SOL     OW26083   3.701   1.004   6.005  0.0595  0.5070 -0.9035
 4874SOL    HW126084   3.758   0.935   6.039 -0.6871 -0.2425 -1.1663
 4874SOL    HW226085   3.744   1.085   6.032 -0.6429  0.3170  0.7983
 4875SOL     OW26086   4.438   1.868  14.858 -0.0799  0.1968  0.7217
 4875SOL    HW126087   4.479   1.954  14.846 -0.4829  0.3841  0.6822
 4875SOL    HW226088   4.467   1.835  14.943 -0.5017  0.1856  0.8623
 4876SOL     OW26089   4.070   3.319   4.311 -0.1730  0.2333 -0.2421
 4876SOL    HW126090   4.055   3.230   4.342 -1.3822  0.6794  0.4652
 4876SOL    HW226091   4.129   3.299   4.238  0.0038  2.7366 -0.7738
 4877SOL     OW26092   1.949   1.623   8.770 -0.5837  0.3474  0.5219
 4877SOL    HW126093   2.021   1.560   8.774 -0.5837  0.2326 -1.2925
 4877SOL    HW226094   1.884   1.564   8.734 -0.6220  1.0245 -0.5355
 4878SOL     OW26095   1.018   0.511   3.654 -0.0172  0.3001 -0.2516
 4878SOL    HW126096   1.057   0.566   3.721 -1.2573 -0.0633  0.7767
 4878SOL    HW226097   0.969   0.579   3.609  2.0128  0.2744 -2.4901
 4879SOL     OW26098   3.852   0.811  14.335  0.3393 -0.1713 -0.1469
 4879SOL    HW126099   3.786   0.804  14.266 -0.0172 -0.3500  0.2122
 4879SOL    HW226100   3.917   0.754  14.294 -1.3056 -2.4072  0.3833
 4880SOL     OW26101   4.006   2.975   4.960  0.4048 -0.4469 -0.2788
 4880SOL    HW126102   4.016   3.035   5.034 -0.3117  0.3512 -0.8305
 4880SOL    HW226103   3.976   3.035   4.892 -1.2873  0.0970  0.9551
 4881SOL     OW26104   3.358   2.989   9.510 -0.0293  0.1716  0.2811
 4881SOL    HW126105   3.445   2.981   9.472  0.8312 -1.4604  2.5954
 4881SOL    HW226106   3.389   2.961   9.596 -1.6227  0.1563  0.8587
 4882SOL     OW26107   4.725   0.930   8.224 -0.2980 -0.3658 -0.4391
 4882SOL    HW126108   4.649   0.872   8.235 -1.8109  1.0742 -3.1666
 4882SOL    HW226109   0.060   0.867   8.185  0.5629 -0.0093  0.3590
 4883SOL     OW26110   4.623   0.688  14.106 -0.2538 -0.0928 -0.2790
 4883SOL    HW126111   4.588   0.774  14.083  0.1698  0.4636  1.1621
 4883SOL    HW226112   4.548   0.638  14.072  0.3279 -0.9077 -0.3639
 4884SOL     OW26113   3.012   0.548   3.737  0.2169 -0.6374 -0.0983
 4884SOL    HW126114   3.086   0.504   3.695 -0.4901 -0.3011 -1.6660
 4884SOL    HW226115   3.025   0.642   3.726 -2.0110 -0.1269  1.6576
 4885SOL     OW26116   3.637   1.350   6.664 -0.2943  0.1112  0.9337
 4885SOL    HW126117   3.550   1.384   6.645  0.2616  0.1634 -1.4665
 4885SOL    HW226118   3.701   1.419   6.644 -0.9850  0.3470 -0.4446
 4886SOL     OW26119   1.197   4.714  16.276  0.1562  0.0134  0.0139
 4886SOL    HW126120   1.208   0.016  16.367 -0.0808 -0.9673  0.3504
 4886SOL    HW226121   1.119   0.039  16.254 -0.1030  0.1485  1.2462
 4887SOL     OW26122   3.045   2.706   6.251 -0.1614 -0.3520 -1.2476
 4887SOL    HW126123   3.046   2.801   6.255  2.3416 -0.4464  0.0879
 4887SOL    HW226124   3.093   2.676   6.328  1.4735  0.7824 -1.8342
 4888SOL     OW26125   2.023   4.341   1.752  0.2734 -0.4329  0.2957
 4888SOL    HW126126   2.036   4.396   1.676 -1.7140 -1.1895 -0.5863
 4888SOL    HW226127   2.110   4.304   1.763 -0.2944 -1.2211  2.2759
 4889SOL     OW26128   3.790   3.360   3.833  0.0887 -0.9360 -0.0634
 4889SOL    HW126129   3.829   3.296   3.893 -1.2060  0.1127  1.9276
 4889SOL    HW226130   3.813   3.442   3.877  0.6318  0.7584 -3.5147
 4890SOL     OW26131   3.929   4.031   5.480  0.1669 -0.4243  0.4082
 4890SOL    HW126132   3.972   4.028   5.394  2.2235  1.5336  1.3816
 4890SOL    HW226133   3.895   4.121   5.475  0.5358 -0.4684 -2.9203
 4891SOL     OW26134   4.387   0.360   7.286  0.2676 -0.2308  0.3500
 4891SOL    HW126135   4.369   0.284   7.231 -0.4013 -1.0862  1.7500
 4891SOL    HW226136   4.300   0.389   7.313  0.5924  1.1894 -0.1063
 4892SOL     OW26137   2.375   3.850   3.614  0.1474  0.3710 -0.2208
 4892SOL    HW126138   2.318   3.886   3.546 -0.6155  0.8379  0.6660
 4892SOL    HW226139   2.465   3.868   3.588  0.1113 -0.7914 -1.1537
 4893SOL     OW26140   3.460   4.606  15.143 -0.2854 -0.2088  0.4297
 4893SOL    HW126141   3.375   4.599  15.099 -0.4117  1.5080  0.4190
 4893SOL    HW226142   3.460   4.700  15.158  0.4235 -0.0616 -0.4702
 4894SOL     OW26143   2.857   2.566   3.663 -0.3987  0.5527 -0.0484
 4894SOL    HW126144   2.799   2.548   3.589  1.3920 -1.8895 -0.8450
 4894SOL    HW226145   2.787   2.556   3.728  1.0866 -2.8612  1.0485
 4895SOL     OW26146   4.123   4.034   4.278  0.2722  0.3332  0.0346
 4895SOL    HW126147   4.164   4.100   4.333 -0.0159  0.1362  0.4842
 4895SOL    HW226148   4.201   3.979   4.271 -0.9518 -1.4168  0.0894
 4896SOL     OW26149   4.437   4.560   7.647  0.3926  0.1008 -0.2272
 4896SOL    HW126150   4.517   4.523   7.608 -0.2740 -0.2391 -1.2789
 4896SOL    HW226151   4.472   4.586   7.733 -0.5117 -1.4704  0.6120
 4897SOL     OW26152   2.684   3.541   9.348 -0.4326  0.2619 -0.7112
 4897SOL    HW126153   2.720   3.611   9.293  1.0136 -0.0912 -0.1987
 4897SOL    HW226154   2.645   3.479   9.286  4.6134 -2.7483 -0.9173
 4898SOL     OW26155   4.325   1.156   5.223  0.0623  0.1062 -0.0006
 4898SOL    HW126156   4.236   1.156   5.261  0.0246 -1.3421 -0.0954
 4898SOL    HW226157   4.381   1.165   5.300 -0.5396  1.5931  0.2785
 4899SOL     OW26158   2.605   4.019   3.541 -0.5402  0.0285 -0.1409
 4899SOL    HW126159   2.574   4.035   3.452  1.9811 -1.1323 -1.2226
 4899SOL    HW226160   2.666   4.093   3.543 -2.1177  1.2943  0.8899
 4900SOL     OW26161   3.592   4.092   7.017  0.4318 -0.2781 -0.0230
 4900SOL    HW126162   3.630   4.076   7.104  0.1586 -0.0830  0.1336
 4900SOL    HW226163   3.672   4.124   6.975  0.4017  0.9993  0.8830
 4901SOL     OW26164   2.463   0.500   8.902 -0.8329  0.1656  0.0599
 4901SOL    HW126165   2.371   0.520   8.886 -0.2847  3.0379  0.4924
 4901SOL    HW226166   2.468   0.486   8.997  0.2416 -0.2608 -0.0495
 4902SOL     OW26167   0.134   2.905   8.639 -0.4600 -0.0584  0.0332
 4902SOL    HW126168   0.197   2.976   8.648 -1.9261  1.5117 -2.0901
 4902SOL    HW226169   0.178   2.822   8.660  2.7072  1.3521 -1.0783
 4903SOL     OW26170   4.158   0.446   0.091  0.5702  0.1427  0.0978
 4903SOL    HW126171   4.163   0.540   0.074  0.3986 -0.2785 -2.2866
 4903SOL    HW226172   4.156   0.445   0.187  0.2064  1.3001  0.1019
 4904SOL     OW26173   0.473   2.416  16.288  0.3309  0.0703 -0.2260
 4904SOL    HW126174   0.564   2.395  16.308 -0.1262 -0.8885  0.8249
 4904SOL    HW226175   0.475   2.430  16.193  0.8161 -1.4378 -0.4463
 4905SOL     OW26176   3.055   2.837   8.676  0.3300  0.3077 -0.4095
 4905SOL    HW126177   3.110   2.897   8.625  0.9896 -1.9357 -2.3367
 4905SOL    HW226178   3.078   2.759   8.626 -2.0208 -1.7184  1.6839
 4906SOL     OW26179   0.593   2.055  11.108 -0.2351  0.1088  0.2629
 4906SOL    HW126180   0.553   1.983  11.061 -0.0270 -0.5250  1.0514
 4906SOL    HW226181   0.523   2.077  11.170 -1.9215 -3.1713 -0.4614
 4907SOL     OW26182   1.314   0.660   1.894 -0.6001  0.1506  0.2055
 4907SOL    HW126183   1.302   0.712   1.974 -1.1229  0.9213 -0.3739
 4907SOL    HW226184   1.292   0.575   1.933  2.7051 -1.3377 -1.1800
 4908SOL     OW26185   1.314   1.228   9.008 -0.6784  0.2726  0.0722
 4908SOL    HW126186   1.339   1.142   8.972  0.0990  0.3202  0.5008
 4908SOL    HW226187   1.264   1.199   9.085  0.5694 -1.8678  0.0918
 4909SOL     OW26188   1.995   3.088   3.898  0.2001  0.0360 -0.9379
 4909SOL    HW126189   2.024   3.009   3.852  0.7253 -0.4749  0.2759
 4909SOL    HW226190   2.059   3.150   3.862  1.8444 -1.8417 -1.2616
 4910SOL     OW26191   2.398   0.370   4.058 -0.0912 -0.3146  0.2070
 4910SOL    HW126192   2.319   0.368   4.111  1.2095 -0.4723  2.1336
 4910SOL    HW226193   2.393   0.450   4.007  0.8500  0.8962  2.0284
 4911SOL     OW26194   0.663   0.093   8.032 -0.0207  0.1403 -0.5242
 4911SOL    HW126195   0.597   0.162   8.024 -0.0498 -0.1958 -2.9656
 4911SOL    HW226196   0.690   0.102   8.124 -0.5341  2.5805 -0.6063
 4912SOL     OW26197   1.796   0.627   4.927 -0.4656 -0.2343  0.5861
 4912SOL    HW126198   1.778   0.669   5.011 -0.3499  0.9661  0.0234
 4912SOL    HW226199   1.858   0.692   4.892 -0.2066 -1.6011 -1.5370
 4913SOL     OW26200   3.417   1.745  16.472  0.0410 -0.0785  0.3566
 4913SOL    HW126201   3.456   1.754  16.385 -0.0091 -2.0473  0.1277
 4913SOL    HW226202   3.502   1.721  16.508  0.6691  1.5147 -0.0656
 4914SOL     OW26203   1.497   1.845   7.791  0.2100 -0.3644  0.0341
 4914SOL    HW126204   1.553   1.785   7.742  0.3792  0.3111 -0.6121
 4914SOL    HW226205   1.537   1.825   7.875  1.4309  0.2253 -0.4147
 4915SOL     OW26206   0.093   0.556   3.672  0.2772 -1.2397  0.0205
 4915SOL    HW126207   0.006   0.581   3.640  1.0041 -0.3033 -1.2344
 4915SOL    HW226208   0.140   0.565   3.589  0.2660 -0.1749  0.1307
 4916SOL     OW26209   1.503   1.182  13.377  0.2579 -0.3098 -0.4388
 4916SOL    HW126210   1.557   1.129  13.435  0.7557  1.1274  0.4124
 4916SOL    HW226211   1.427   1.199  13.434  0.2747  1.4505 -0.9389
 4917SOL     OW26212   2.423   1.761   8.545 -0.3160 -0.7135 -0.0271
 4917SOL    HW126213   2.499   1.752   8.487 -0.0648 -1.0359  0.3491
 4917SOL    HW226214   2.461   1.823   8.607  3.7070  0.3323 -3.5173
 4918SOL     OW26215   0.274   0.655   2.533  0.0527 -0.4019 -0.1648
 4918SOL    HW126216   0.219   0.592   2.580  0.0880 -0.3301 -0.0277
 4918SOL    HW226217   0.212   0.714   2.491  1.6817  1.1796 -0.3245
 4919SOL     OW26218   3.515   3.944   6.527  0.3336 -0.6174  0.3774
 4919SOL    HW126219   3.525   4.028   6.573 -0.4522 -0.4764  0.2793
 4919SOL    HW226220   3.592   3.937   6.470 -1.0508  1.6927 -1.7708
 4920SOL     OW26221   0.355   4.077   3.423 -0.1277 -1.0250 -0.0884
 4920SOL    HW126222   0.378   4.032   3.504 -0.1758 -3.0942 -1.2059
 4920SOL    HW226223   0.406   4.028   3.358 -0.8751 -0.5965 -1.0072
 4921SOL     OW26224   2.011   0.551   0.263  0.1476 -0.3666  0.2264
 4921SOL    HW126225   1.948   0.479   0.273  0.4091 -0.6741 -0.2925
 4921SOL    HW226226   2.096   0.516   0.291  1.3645  2.0431 -0.4912
 4922SOL     OW26227   4.312   1.522  10.024  0.3885 -0.3292 -0.0127
 4922SOL    HW126228   4.258   1.510  10.102 -1.5840  2.0873 -0.9932
 4922SOL    HW226229   4.258   1.472   9.963  3.0830 -0.0094 -2.6473
 4923SOL     OW26230   3.192   2.937   4.537 -0.6195  0.6421  0.1153
 4923SOL    HW126231   3.226   2.857   4.576  1.0923  1.3020 -0.0053
 4923SOL    HW226232   3.250   2.937   4.460 -0.7660  1.8797 -0.0093
 4924SOL     OW26233   3.672   1.716   9.644  0.5946 -0.5048  0.4618
 4924SOL    HW126234   3.747   1.684   9.696  0.8146 -0.6796  0.0384
 4924SOL    HW226235   3.644   1.629   9.614  0.1591 -0.2215  0.0680
 4925SOL     OW26236   0.849   0.153   5.672 -0.1266 -0.0070  0.3366
 4925SOL    HW126237   0.784   0.220   5.655 -2.3656 -1.6967  2.2833
 4925SOL    HW226238   0.931   0.193   5.642 -0.3923  0.0972 -0.2408
 4926SOL     OW26239   1.228   0.665   5.308 -0.3365 -0.2494 -0.4693
 4926SOL    HW126240   1.226   0.607   5.232 -0.9683 -0.5489 -0.2319
 4926SOL    HW226241   1.322   0.680   5.318 -0.4299 -0.4033  0.6705
 4927SOL     OW26242   3.902   0.968  15.248  0.0462 -0.2369 -0.4673
 4927SOL    HW126243   3.895   0.970  15.153  0.0332  0.7115 -0.4494
 4927SOL    HW226244   3.936   0.879  15.260 -0.3781 -0.3249  0.0853
 4928SOL     OW26245   4.520   2.648   2.513  0.3263  0.2584  0.2302
 4928SOL    HW126246   4.495   2.635   2.421  2.3945  3.2826 -0.7779
 4928SOL    HW226247   4.614   2.635   2.504  0.5075  1.3025  0.5550
 4929SOL     OW26248   0.945   3.692   1.998  0.0508 -0.5850  0.1503
 4929SOL    HW126249   0.916   3.643   1.921 -0.4420  1.0848 -0.7438
 4929SOL    HW226250   0.937   3.634   2.073  1.1052  3.4604  3.4248
 4930SOL     OW26251   0.594   4.322   1.390 -0.0665  0.6820  0.3933
 4930SOL    HW126252   0.595   4.418   1.379 -1.9552  0.9442  2.5433
 4930SOL    HW226253   0.507   4.309   1.428 -0.0425 -1.0433 -0.1937
 4931SOL     OW26254   2.100   0.922   6.988  0.3697 -0.2054  0.5136
 4931SOL    HW126255   2.024   0.865   6.998 -0.6271  1.0168 -0.1069
 4931SOL    HW226256   2.140   0.893   6.906  0.6196  0.4878  0.3905
 4932SOL     OW26257   0.200   2.621   2.824  0.4707 -0.0659  0.2675
 4932SOL    HW126258   0.132   2.592   2.884 -1.2996  2.7024 -0.3998
 4932SOL    HW226259   0.261   2.548   2.834  0.9128  0.2464 -0.1483
 4933SOL     OW26260   1.386   4.147   2.441  0.5866 -0.1712 -0.3326
 4933SOL    HW126261   1.399   4.231   2.397 -1.6090 -0.4653 -1.5420
 4933SOL    HW226262   1.319   4.100   2.391 -1.1563  2.3904 -0.4578
 4934SOL     OW26263   3.143   3.704   1.222 -0.4361  0.0421 -0.2381
 4934SOL    HW126264   3.152   3.623   1.271  0.8493  0.0895 -0.3864
 4934SOL    HW226265   3.227   3.743   1.250 -0.4496  0.5327 -0.8797
 4935SOL     OW26266   0.207   4.083  15.770 -0.3667 -0.7588  0.5328
 4935SOL    HW126267   0.300   4.066  15.756 -0.4694 -1.1664  0.3336
 4935SOL    HW226268   0.188   4.133  15.691 -0.9083 -1.6214  0.1129
 4936SOL     OW26269   1.718   3.458   8.302 -0.1309 -0.1052 -0.2722
 4936SOL    HW126270   1.692   3.434   8.213  0.1435 -1.8451  0.1028
 4936SOL    HW226271   1.795   3.512   8.288 -0.0261 -0.3468 -0.6254
 4937SOL     OW26272   3.273   1.694  16.065 -0.0380 -0.7673 -0.2842
 4937SOL    HW126273   3.218   1.753  16.116 -0.4469  0.5697 -2.2528
 4937SOL    HW226274   3.219   1.615  16.070  1.0964 -1.5529 -0.3624
 4938SOL     OW26275   0.890   1.830  12.042  0.7137  0.6017  0.0276
 4938SOL    HW126276   0.943   1.859  12.116  0.5379  1.3014 -0.1180
 4938SOL    HW226277   0.908   1.895  11.975  1.1694  2.6726  2.1693
 4939SOL     OW26278   0.923   3.198   8.196  0.1430  0.9294  0.7444
 4939SOL    HW126279   0.953   3.185   8.106 -0.9659  0.2577  0.4671
 4939SOL    HW226280   0.831   3.215   8.177 -0.4843 -1.2470  1.8184
 4940SOL     OW26281   2.294   0.019   8.852 -0.5908  0.2589 -0.0978
 4940SOL    HW126282   2.362   4.723   8.916  0.7609 -1.1156 -1.9926
 4940SOL    HW226283   2.214   0.034   8.903  0.3078  1.1721  1.0392
 4941SOL     OW26284   3.396   1.024   4.447  0.0780 -0.3771 -0.4855
 4941SOL    HW126285   3.351   1.009   4.530  2.0486 -2.9142  0.1117
 4941SOL    HW226286   3.323   1.010   4.387 -0.9550 -1.1007  0.9239
 4942SOL     OW26287   2.847   1.299  14.822  0.3303  0.1333 -0.1774
 4942SOL    HW126288   2.875   1.377  14.774 -1.5628  1.0913  0.3036
 4942SOL    HW226289   2.831   1.340  14.907  3.4011 -1.0917  0.9996
 4943SOL     OW26290   4.519   2.777  12.660 -0.4568  0.2481  0.0394
 4943SOL    HW126291   4.531   2.687  12.631  0.6221 -0.0844  1.5586
 4943SOL    HW226292   4.518   2.764  12.755  2.9613  0.5068  0.0932
 4944SOL     OW26293   3.417   1.180  12.638 -0.2902 -0.4101  0.3632
 4944SOL    HW126294   3.510   1.191  12.658 -0.5079  0.3514  1.0050
 4944SOL    HW226295   3.410   1.085  12.642  1.6526 -0.5751 -0.1415
 4945SOL     OW26296   2.878   0.477   3.990  0.0020  0.3151 -0.1079
 4945SOL    HW126297   2.914   0.555   3.948 -1.0509 -0.1101 -1.8162
 4945SOL    HW226298   2.785   0.474   3.966 -0.0891 -0.6890  0.3737
 4946SOL     OW26299   3.065   3.731   7.219  0.2305 -0.0743 -0.3848
 4946SOL    HW126300   3.055   3.719   7.124  3.4406  0.7465 -0.8034
 4946SOL    HW226301   3.036   3.644   7.245  0.8724 -0.6979 -1.7590
 4947SOL     OW26302   3.887   3.889  16.172 -0.3433 -0.3652 -0.5926
 4947SOL    HW126303   3.977   3.857  16.174 -0.4302 -0.6618 -1.5513
 4947SOL    HW226304   3.844   3.829  16.111  1.3490 -2.6813  0.4786
 4948SOL     OW26305   1.909   4.308  14.855  0.0413 -0.5021  0.0523
 4948SOL    HW126306   1.862   4.261  14.924  1.0573  1.4807  2.1234
 4948SOL    HW226307   1.883   4.261  14.776  0.3061  0.2103 -0.4712
 4949SOL     OW26308   3.524   3.939   1.265  0.2223 -0.2059  0.1660
 4949SOL    HW126309   3.444   3.931   1.212 -0.4912  1.8607  0.9165
 4949SOL    HW226310   3.503   3.872   1.331 -0.1002 -2.4120 -2.1701
 4950SOL     OW26311   3.208   1.504  15.343 -0.2323  0.0942 -0.0287
 4950SOL    HW126312   3.249   1.590  15.356  1.7196 -0.6071 -1.5666
 4950SOL    HW226313   3.285   1.448  15.354  0.6715  1.4623  0.6323
 4951SOL     OW26314   0.489   4.085   6.993 -0.4341  0.3455 -0.3669
 4951SOL    HW126315   0.429   4.118   7.060 -1.4681  1.4596 -1.8298
 4951SOL    HW226316   0.571   4.078   7.042 -1.3134  1.0295  1.2211
 4952SOL     OW26317   2.781   4.096   2.927 -0.6743  0.0062  0.6374
 4952SOL    HW126318   2.833   4.093   2.846  0.0871  0.6170  1.1051
 4952SOL    HW226319   2.782   4.007   2.960  0.9459  0.4491  1.7958
 4953SOL     OW26320   1.819   2.410   8.390 -0.5518  0.1138  0.2061
 4953SOL    HW126321   1.766   2.438   8.315  1.6969  2.4649 -0.4901
 4953SOL    HW226322   1.851   2.495   8.421  0.3407 -0.2285  0.2028
 4954SOL     OW26323   4.254   1.985  12.315 -0.0477  0.0398 -0.1937
 4954SOL    HW126324   4.274   1.907  12.263 -1.0465 -0.4401  0.1516
 4954SOL    HW226325   4.169   1.967  12.355 -1.5667 -0.9431 -3.9478
 4955SOL     OW26326   0.667   3.537   5.912 -0.1090  0.7465  0.6226
 4955SOL    HW126327   0.613   3.507   5.986  1.3373  1.6881  2.0669
 4955SOL    HW226328   0.611   3.510   5.840  2.1897 -0.8988 -0.5300
 4956SOL     OW26329   2.909   1.188   4.604 -0.2964 -0.2131 -0.1503
 4956SOL    HW126330   2.970   1.219   4.537 -1.3289 -1.4367 -1.6374
 4956SOL    HW226331   2.860   1.267   4.624  0.1883 -0.7506  3.1675
 4957SOL     OW26332   0.802   3.755   7.301  0.0883 -0.1091 -0.2495
 4957SOL    HW126333   0.827   3.767   7.210 -1.8015  1.1352 -0.6175
 4957SOL    HW226334   0.714   3.793   7.310  0.9111  1.4397  1.4339
 4958SOL     OW26335   1.164   2.640   6.552  0.4877  0.3242 -0.3545
 4958SOL    HW126336   1.155   2.734   6.570 -1.2179  0.1415 -0.2986
 4958SOL    HW226337   1.203   2.641   6.465  1.7771  2.4458  0.2387
 4959SOL     OW26338   3.301   0.259   5.071 -0.6372 -0.5211 -0.0955
 4959SOL    HW126339   3.280   0.352   5.066  0.7332 -0.1801  0.5436
 4959SOL    HW226340   3.385   0.270   5.115 -1.2413 -0.6611  1.0876
 4960SOL     OW26341   1.197   4.338   6.951 -0.4659  0.1821  0.0088
 4960SOL    HW126342   1.133   4.392   6.998 -1.0794  0.4951 -1.1944
 4960SOL    HW226343   1.146   4.325   6.871 -1.7614  0.6372  0.7561
 4961SOL     OW26344   4.676   1.400   6.094 -0.4250  0.7836 -0.9822
 4961SOL    HW126345   4.614   1.333   6.125  1.0820 -0.6234 -1.0439
 4961SOL    HW226346   0.029   1.373   6.141 -0.1809 -0.3011 -2.0217
 4962SOL     OW26347   2.139   1.479   2.956 -0.5404 -0.4076 -0.1190
 4962SOL    HW126348   2.083   1.545   2.997 -1.9004 -1.3372 -0.4832
 4962SOL    HW226349   2.074   1.409   2.958  0.4762 -1.3264  1.4728
 4963SOL     OW26350   2.493   4.219   4.134 -0.2605 -0.6943 -0.1648
 4963SOL    HW126351   2.479   4.125   4.143 -0.6625 -0.6252 -0.0943
 4963SOL    HW226352   2.404   4.239   4.163 -0.7555 -0.1716 -2.1007
 4964SOL     OW26353   2.146   2.750  15.567  0.4663 -0.0965 -0.3892
 4964SOL    HW126354   2.170   2.788  15.651  1.1281  0.1757 -0.7029
 4964SOL    HW226355   2.151   2.656  15.586  2.4073 -0.2662 -1.7684
 4965SOL     OW26356   4.535   1.867   7.109 -0.1639 -0.7528  0.1918
 4965SOL    HW126357   4.468   1.932   7.087  0.8843  0.0700 -0.5788
 4965SOL    HW226358   4.591   1.914   7.172 -3.6186 -0.8314  3.3424
 4966SOL     OW26359   3.824   2.096   8.328  0.3135 -0.1989 -0.1146
 4966SOL    HW126360   3.902   2.062   8.371  0.6332  1.1711  0.3789
 4966SOL    HW226361   3.760   2.036   8.366 -0.8624  1.6231  0.7553
 4967SOL     OW26362   2.658   4.116   1.758 -0.0849 -0.1151  0.1700
 4967SOL    HW126363   2.593   4.064   1.805 -1.5326  3.2391  1.9287
 4967SOL    HW226364   2.650   4.197   1.810  4.0618  0.5121 -0.1733
 4968SOL     OW26365   0.018   0.467   6.229  0.0430 -0.2647 -0.1738
 4968SOL    HW126366   0.098   0.443   6.183 -1.5518 -1.8406 -2.0664
 4968SOL    HW226367   4.722   0.548   6.183  1.9775  1.3521  1.7294
 4969SOL     OW26368   1.579   0.155  15.429  0.3033 -0.3792  0.0764
 4969SOL    HW126369   1.502   0.167  15.484  0.2926 -0.9574  0.1916
 4969SOL    HW226370   1.547   0.080  15.380 -1.6413 -0.5545  1.6102
 4970SOL     OW26371   3.108   4.526   2.734 -0.0859 -0.1131 -0.1109
 4970SOL    HW126372   3.165   4.597   2.765 -1.0693  0.8612 -0.5733
 4970SOL    HW226373   3.037   4.580   2.701 -0.7757  0.0747  1.6652
 4971SOL     OW26374   1.857   3.311   5.365  0.6569  0.6251  0.1962
 4971SOL    HW126375   1.952   3.316   5.368  0.7234  0.2373 -1.1185
 4971SOL    HW226376   1.843   3.226   5.407  1.5148  0.9309  1.0979
 4972SOL     OW26377   0.360   0.539  11.654 -0.5189  0.3374 -0.3274
 4972SOL    HW126378   0.272   0.503  11.661  0.4726 -2.0795 -0.1499
 4972SOL    HW226379   0.421   0.468  11.633 -1.6150 -1.0107  1.0486
 4973SOL     OW26380   2.307   1.808   8.295  0.0798 -0.4690  0.2689
 4973SOL    HW126381   2.328   1.802   8.388  0.6610  0.3128  0.1877
 4973SOL    HW226382   2.222   1.851   8.288  0.3415  0.0337  0.1457
 4974SOL     OW26383   4.275   3.367   4.546 -0.2579  0.8292  0.3458
 4974SOL    HW126384   4.305   3.424   4.475  1.2976  2.0586  1.9911
 4974SOL    HW226385   4.207   3.317   4.501  1.5904 -1.0866 -0.3492
 4975SOL     OW26386   1.160   2.995   4.063  0.4147 -0.2591 -0.0233
 4975SOL    HW126387   1.172   3.001   4.158  0.1862 -1.8206  0.1009
 4975SOL    HW226388   1.118   2.909   4.067 -2.1579  0.9551 -0.6747
 4976SOL     OW26389   1.592   0.058   3.189  0.4692 -0.4415  0.0816
 4976SOL    HW126390   1.612   0.082   3.279 -0.1497  1.8511 -0.4030
 4976SOL    HW226391   1.600   0.146   3.152 -1.7350 -0.7957 -1.2180
 4977SOL     OW26392   1.411   4.469   8.980 -0.3344 -0.1439 -0.9409
 4977SOL    HW126393   1.334   4.415   8.964  0.7808 -1.9996 -0.0800
 4977SOL    HW226394   1.466   4.437   8.909 -0.0219  0.2477 -0.8746
 4978SOL     OW26395   3.372   0.923  13.480  0.1395  0.2458 -0.1248
 4978SOL    HW126396   3.394   0.884  13.565 -0.0352 -3.8413 -1.9811
 4978SOL    HW226397   3.298   0.980  13.500  0.2001 -0.3052  1.6381
 4979SOL     OW26398   3.873   4.187   3.199 -0.1327  0.0095  0.1384
 4979SOL    HW126399   3.802   4.185   3.136  0.7815 -1.9309 -0.8435
 4979SOL    HW226400   3.813   4.186   3.273  0.7652 -0.3379  0.8626
 4980SOL     OW26401   3.325   4.618  11.437 -0.0182 -0.1298  0.3067
 4980SOL    HW126402   3.360   4.541  11.481  0.8768 -0.8065 -1.6064
 4980SOL    HW226403   3.297   4.586  11.351 -0.7280 -1.8208  1.1735
 4981SOL     OW26404   3.332   3.939  16.981 -0.5293  0.0365 -0.1259
 4981SOL    HW126405   3.365   4.029  16.974  0.0744 -0.0535  1.6093
 4981SOL    HW226406   3.279   3.934  16.901  0.0377  0.6742 -0.5400
 4982SOL     OW26407   1.306   2.603   0.371 -0.9479  0.5013 -0.4483
 4982SOL    HW126408   1.211   2.598   0.380 -0.6967  0.2002  2.2409
 4982SOL    HW226409   1.316   2.507   0.370 -1.5880  0.4291 -0.2803
 4983SOL     OW26410   2.738   2.699   6.449 -0.4841  0.7383  0.3566
 4983SOL    HW126411   2.704   2.715   6.361  0.9859  2.2121  0.0592
 4983SOL    HW226412   2.805   2.632   6.433 -0.5469  1.3175 -2.3086
 4984SOL     OW26413   1.369   2.083  14.158 -0.4295  0.1592 -0.7327
 4984SOL    HW126414   1.457   2.093  14.195  0.5978 -0.3818 -3.0716
 4984SOL    HW226415   1.349   2.174  14.136 -0.9063  0.1550 -0.3148
 4985SOL     OW26416   2.315   0.594   7.361  0.4756 -0.2339  0.0106
 4985SOL    HW126417   2.300   0.579   7.454 -2.8561  0.6442 -0.4216
 4985SOL    HW226418   2.245   0.545   7.318  0.8996  1.6193 -2.8211
 4986SOL     OW26419   1.340   2.798  10.946 -0.4021 -0.3731 -0.1754
 4986SOL    HW126420   1.341   2.730  11.013  2.1710 -0.8157 -0.6751
 4986SOL    HW226421   1.248   2.826  10.938 -0.4138  0.2304  2.1470
 4987SOL     OW26422   0.624   1.798   1.403  0.5481 -0.4946 -0.3505
 4987SOL    HW126423   0.705   1.773   1.359 -0.8098 -2.1781 -1.8797
 4987SOL    HW226424   0.566   1.729   1.372 -2.3346  1.4091  0.7398
 4988SOL     OW26425   0.181   0.766   8.090 -0.0001  0.2985  0.4073
 4988SOL    HW126426   0.114   0.703   8.114 -0.7277  0.6650 -0.6905
 4988SOL    HW226427   0.236   0.707   8.038 -0.9584 -1.1799  1.0872
 4989SOL     OW26428   1.426   0.429  14.983  0.2176 -0.3077  0.2287
 4989SOL    HW126429   1.481   0.387  15.048  2.8342 -0.0460 -1.8350
 4989SOL    HW226430   1.434   0.364  14.913  3.2125 -0.0893  0.3694
 4990SOL     OW26431   2.225   2.347   3.463 -0.4567 -0.2517 -0.1236
 4990SOL    HW126432   2.279   2.326   3.387  1.1238  0.7668  0.7171
 4990SOL    HW226433   2.173   2.419   3.428 -0.8101 -0.1439  0.6137
 4991SOL     OW26434   2.348   1.737   1.489  0.3491  0.0202  0.6709
 4991SOL    HW126435   2.319   1.726   1.399  0.4783  0.4064  0.5826
 4991SOL    HW226436   2.272   1.769   1.539 -0.7788  1.9807 -2.3204
 4992SOL     OW26437   2.481   0.239   0.130  0.0119  0.4755  0.4956
 4992SOL    HW126438   2.474   0.315   0.187 -2.1961  0.7025 -0.0773
 4992SOL    HW226439   2.470   0.276   0.043  1.3485 -2.2659 -0.8403
 4993SOL     OW26440   1.880   3.563   3.119 -0.5386 -0.4994  0.2796
 4993SOL    HW126441   1.957   3.542   3.066 -0.0426  1.7180  0.1440
 4993SOL    HW226442   1.843   3.631   3.063 -0.6730 -0.2551  0.6722
 4994SOL     OW26443   4.443   4.570   3.782 -0.2438 -0.3229 -0.8030
 4994SOL    HW126444   4.438   4.565   3.878  1.1914 -2.5847 -0.8572
 4994SOL    HW226445   4.459   4.664   3.779 -1.5552 -0.0735 -0.4260
 4995SOL     OW26446   4.585   3.577   3.619  0.2973  0.2183  0.4593
 4995SOL    HW126447   4.561   3.667   3.598  0.9973  0.3810  0.3659
 4995SOL    HW226448   4.607   3.558   3.528 -0.4028  3.2821 -0.3465
 4996SOL     OW26449   0.418   2.711   0.994 -0.1269 -0.1987  0.3051
 4996SOL    HW126450   0.374   2.744   1.072  1.1776  1.6381  0.2784
 4996SOL    HW226451   0.493   2.668   1.037  0.9345 -0.8310 -2.1798
 4997SOL     OW26452   2.190   2.053   9.773  0.6778  0.5515  0.3708
 4997SOL    HW126453   2.207   2.082   9.683  1.6656  1.6392  0.9000
 4997SOL    HW226454   2.235   1.968   9.771 -1.4994 -0.6269  2.0722
 4998SOL     OW26455   3.921   3.139   8.672 -0.0124 -0.2845 -0.0645
 4998SOL    HW126456   3.900   3.117   8.762  2.1897 -0.2738  0.4514
 4998SOL    HW226457   3.888   3.060   8.629 -0.1299  0.3318 -1.1192
 4999SOL     OW26458   1.987   1.545   6.197  0.0590  0.0857  0.0347
 4999SOL    HW126459   1.948   1.506   6.119 -0.8286  1.2602 -0.0930
 4999SOL    HW226460   1.975   1.474   6.260  1.9205  0.6861  1.0665
 5000SOL     OW26461   2.912   3.859   6.547  0.4694 -0.3315  0.1432
 5000SOL    HW126462   2.877   3.829   6.463 -0.5629 -0.6732  0.6851
 5000SOL    HW226463   2.968   3.783   6.566 -0.4971  0.0096  4.4325
 5001SOL     OW26464   3.460   4.194  15.645  0.2454  0.3994  0.0424
 5001SOL    HW126465   3.539   4.142  15.658 -0.1107 -1.0355 -3.5147
 5001SOL    HW226466   3.498   4.275  15.611 -1.8225  1.9658  1.5220
 5002SOL     OW26467   3.124   1.261   5.968  0.8773 -0.7086  0.1464
 5002SOL    HW126468   3.208   1.240   5.926  1.0875 -0.1977  0.3161
 5002SOL    HW226469   3.149   1.267   6.060 -0.1279 -1.1611  0.4426
 5003SOL     OW26470   0.694   1.752   7.373  0.4367 -0.1813  0.5977
 5003SOL    HW126471   0.713   1.838   7.410 -0.4600  0.7620 -1.1043
 5003SOL    HW226472   0.781   1.730   7.339 -0.1674  0.6879 -1.5118
 5004SOL     OW26473   2.187   4.476   7.052 -0.5943 -0.4073 -0.4144
 5004SOL    HW126474   2.130   4.442   7.121 -2.5382 -0.2090 -1.9375
 5004SOL    HW226475   2.206   4.401   6.997  2.5876  0.6280 -0.7260
 5005SOL     OW26476   4.713   0.193   6.809 -0.3956 -0.2564  0.0357
 5005SOL    HW126477   0.029   0.173   6.725  1.1471 -0.6840  0.9061
 5005SOL    HW226478   0.058   0.234   6.860 -0.3327 -0.5839  0.2123
 5006SOL     OW26479   3.282   3.240  17.139  0.3406  0.5859 -0.1547
 5006SOL    HW126480   3.339   3.260  17.065 -1.9462 -1.0794 -2.3591
 5006SOL    HW226481   3.196   3.253  17.100  0.6724 -0.1437 -1.1413
 5007SOL     OW26482   0.122   4.259   3.368  0.3799 -0.1394 -0.7591
 5007SOL    HW126483   0.180   4.184   3.380 -0.0251  0.1442  2.9425
 5007SOL    HW226484   0.137   4.324   3.436  1.3024 -0.3309 -0.7793
 5008SOL     OW26485   2.027   2.832   8.583  0.3402 -0.2420 -0.2047
 5008SOL    HW126486   1.980   2.862   8.660  2.8757  0.9741  0.8535
 5008SOL    HW226487   1.999   2.893   8.515 -0.7086 -0.3792  0.0937
 5009SOL     OW26488   3.851   3.736  12.865 -0.3761  0.1003  0.0667
 5009SOL    HW126489   3.828   3.717  12.774 -0.2367 -0.5159  0.1601
 5009SOL    HW226490   3.924   3.795  12.845  0.2922 -1.0756 -0.9784
 5010SOL     OW26491   1.185   2.918   2.605 -0.6982 -0.3185 -0.1975
 5010SOL    HW126492   1.235   2.916   2.524 -1.4944  2.2585 -0.7511
 5010SOL    HW226493   1.122   2.847   2.595 -0.6848 -0.6655  2.1792
 5011SOL     OW26494   0.218   3.564  14.880 -0.5714 -0.2367 -0.0238
 5011SOL    HW126495   0.245   3.503  14.811 -3.2565 -0.9009 -0.4855
 5011SOL    HW226496   0.123   3.551  14.881 -0.9528  2.3738 -0.3837
 5012SOL     OW26497   3.320   1.514   0.970  0.4415  0.2094 -0.3006
 5012SOL    HW126498   3.238   1.468   0.958 -0.4822  1.3278  1.6963
 5012SOL    HW226499   3.370   1.447   1.018  0.9027 -0.3286 -1.5513
 5013SOL     OW26500   0.769   1.560   8.150  0.2536  0.3619 -0.0524
 5013SOL    HW126501   0.744   1.552   8.243  1.2080 -4.1339 -0.1680
 5013SOL    HW226502   0.858   1.594   8.143 -1.0439  3.5944 -1.0050
 5014SOL     OW26503   4.112   1.451   4.568 -0.2958 -0.6232 -0.1035
 5014SOL    HW126504   4.113   1.372   4.513  2.4857 -0.6833  0.0067
 5014SOL    HW226505   4.199   1.491   4.562 -1.5685  2.2847  1.2187
 5015SOL     OW26506   2.212   2.485   5.278 -0.1530  0.6235 -0.1597
 5015SOL    HW126507   2.255   2.570   5.283  0.4439  0.3692 -1.0373
 5015SOL    HW226508   2.205   2.462   5.185 -1.9485 -0.1918  0.1687
 5016SOL     OW26509   2.981   4.363   5.040 -0.2935 -0.0654  0.3237
 5016SOL    HW126510   2.953   4.327   4.956  0.3459 -0.7603  0.4053
 5016SOL    HW226511   2.964   4.457   5.039 -2.2297 -0.4347 -0.8502
 5017SOL     OW26512   3.793   2.829   8.194  0.3750 -0.0291 -0.0322
 5017SOL    HW126513   3.840   2.844   8.112  1.2381  0.1696  0.4972
 5017SOL    HW226514   3.706   2.859   8.170  1.5509  3.8613  0.5524
 5018SOL     OW26515   0.618   2.963   6.964  0.0068  0.3966  0.3528
 5018SOL    HW126516   0.619   2.906   7.041 -0.5317  1.1230  0.9004
 5018SOL    HW226517   0.577   3.041   7.001 -2.0594 -0.4421 -0.1495
 5019SOL     OW26518   0.219   1.859   0.814 -0.4181 -0.0937  0.1957
 5019SOL    HW126519   0.270   1.915   0.873  1.9902 -1.5221 -0.5359
 5019SOL    HW226520   0.210   1.914   0.736 -0.7861  0.7620  0.8418
 5020SOL     OW26521   3.229   1.654   3.725 -0.8296  0.1229 -0.1771
 5020SOL    HW126522   3.181   1.617   3.799  1.5157 -2.6362 -0.0522
 5020SOL    HW226523   3.176   1.731   3.705 -1.6195 -1.2861 -3.6296
 5021SOL     OW26524   1.888   1.541   2.390  0.5422  0.1998 -0.3561
 5021SOL    HW126525   1.951   1.475   2.417  0.4929  0.3882  0.2179
 5021SOL    HW226526   1.814   1.482   2.409  0.2656  0.9387  0.8320
 5022SOL     OW26527   0.239   4.196   4.474 -0.4827 -0.6398  0.2146
 5022SOL    HW126528   0.333   4.214   4.474 -0.7918  1.0639 -1.3832
 5022SOL    HW226529   0.201   4.256   4.538  1.4340  1.6564 -0.7926
 5023SOL     OW26530   1.926   3.638  14.706  0.0392 -0.3065  0.1368
 5023SOL    HW126531   2.000   3.648  14.647  0.2525  0.2639  0.4914
 5023SOL    HW226532   1.853   3.683  14.663  0.8727 -0.3773 -1.3232
 5024SOL     OW26533   3.458   1.549   5.897  0.4452  0.0981 -0.4997
 5024SOL    HW126534   3.445   1.478   5.834 -0.2759  0.1077 -0.3643
 5024SOL    HW226535   3.470   1.509   5.983 -2.3621  2.3692  0.9610
 5025SOL     OW26536   3.023   0.354  12.659  0.4521 -0.3530 -0.0099
 5025SOL    HW126537   3.028   0.302  12.740  1.2306 -1.3168 -0.6920
 5025SOL    HW226538   3.044   0.445  12.679  1.6348 -0.2732 -1.6810
 5026SOL     OW26539   3.365   2.955   6.842 -0.3652  0.4119  0.0607
 5026SOL    HW126540   3.456   2.978   6.859 -1.1012  1.1688  2.9976
 5026SOL    HW226541   3.352   2.924   6.932 -0.5448 -4.0402 -1.4976
 5027SOL     OW26542   3.190   3.004  13.069  0.2602  0.0361  0.0751
 5027SOL    HW126543   3.236   3.046  12.996  0.1835  1.2368  0.7176
 5027SOL    HW226544   3.135   3.076  13.101 -0.5336 -0.7119  0.3990
 5028SOL     OW26545   2.366   1.991   6.281  0.5441  0.0063  0.2730
 5028SOL    HW126546   2.297   2.043   6.241  2.5030  0.7324 -2.1128
 5028SOL    HW226547   2.334   1.987   6.372 -2.4909  0.6251 -0.7768
 5029SOL     OW26548   1.640   0.414   5.660  0.6433 -0.3013  0.0891
 5029SOL    HW126549   1.658   0.436   5.569 -0.6606 -2.1718 -0.6144
 5029SOL    HW226550   1.577   0.343   5.653  1.2728 -0.8342 -0.1083
 5030SOL     OW26551   1.267   0.246   1.419 -0.0367  0.0956  0.3082
 5030SOL    HW126552   1.258   0.303   1.342 -1.0276 -0.1803  0.2152
 5030SOL    HW226553   1.177   0.217   1.434  0.8945 -2.3956  1.0200
 5031SOL     OW26554   0.210   2.625   3.978  0.2411  0.0125 -0.1043
 5031SOL    HW126555   0.241   2.714   3.966  0.8261 -0.3483 -1.3235
 5031SOL    HW226556   0.215   2.619   4.073  0.3499  1.7608 -0.0065
 5032SOL     OW26557   2.372   3.920  12.677 -0.5694 -0.1404 -0.0055
 5032SOL    HW126558   2.327   4.004  12.685  0.0676  0.1772  0.3199
 5032SOL    HW226559   2.382   3.910  12.582 -1.0233 -0.3481 -0.0307
 5033SOL     OW26560   4.686   0.942  17.142 -0.1037  0.1779  0.7486
 5033SOL    HW126561   4.660   0.883  17.071  0.0735 -1.0399  1.6831
 5033SOL    HW226562   4.690   1.022  17.091  0.9421  1.2561  2.5431
 5034SOL     OW26563   2.602   4.245   7.557  0.3112 -0.0126  0.7085
 5034SOL    HW126564   2.665   4.209   7.495  0.2774  1.3042 -0.0873
 5034SOL    HW226565   2.602   4.340   7.546 -0.1566 -0.1078 -0.1329
 5035SOL     OW26566   3.854   1.682   3.113  0.4108  0.2022 -0.3204
 5035SOL    HW126567   3.917   1.623   3.153  1.5982  1.8372  0.2351
 5035SOL    HW226568   3.901   1.719   3.038  0.2954  1.8698  0.4211
 5036SOL     OW26569   3.027   2.019  12.155  0.4052 -0.2770  0.4377
 5036SOL    HW126570   2.972   2.086  12.196  0.5073  0.1210 -0.0748
 5036SOL    HW226571   3.112   2.019  12.199  1.2821 -1.4025 -1.2713
 5037SOL     OW26572   4.166   1.105   5.767  0.0473 -0.2146 -0.0703
 5037SOL    HW126573   4.247   1.100   5.717  0.8246  2.4601  0.9149
 5037SOL    HW226574   4.120   1.031   5.728 -0.5680  0.3712 -0.4636
 5038SOL     OW26575   1.669   3.935   7.842  0.3092  0.4857  0.1554
 5038SOL    HW126576   1.734   4.004   7.857 -2.2029  2.8544  0.0449
 5038SOL    HW226577   1.622   3.978   7.771  0.6071  1.5711  0.6291
 5039SOL     OW26578   1.046   1.463   3.118 -0.3519  0.1491  0.5420
 5039SOL    HW126579   1.101   1.517   3.061  0.4809 -0.6803  0.5603
 5039SOL    HW226580   1.055   1.376   3.079  0.4723  1.9983 -3.3348
 5040SOL     OW26581   2.889   0.510  14.914  0.1419 -0.9020  0.3206
 5040SOL    HW126582   2.927   0.590  14.880 -0.7063 -0.7663 -0.3121
 5040SOL    HW226583   2.818   0.540  14.971 -2.6804 -0.2371 -3.5760
 5041SOL     OW26584   3.923   2.233   7.137  0.0759  0.7734 -0.0375
 5041SOL    HW126585   3.869   2.297   7.183 -1.3612 -0.5818  0.1566
 5041SOL    HW226586   3.986   2.210   7.206  0.6230  1.2798 -0.3753
 5042SOL     OW26587   2.093   2.263   1.247  0.1815 -0.2302  0.9609
 5042SOL    HW126588   2.053   2.202   1.186 -0.2223 -1.1645  2.1640
 5042SOL    HW226589   2.157   2.308   1.191  0.9819 -3.0122 -0.3589
 5043SOL     OW26590   2.070   0.022  14.181 -0.7397 -0.4957 -0.0212
 5043SOL    HW126591   2.033   0.081  14.115 -1.0332 -1.0096 -0.3181
 5043SOL    HW226592   2.005   0.038  14.249  0.1120  0.9080  0.4630
 5044SOL     OW26593   2.937   2.901   6.517 -0.2206  0.1665 -0.0840
 5044SOL    HW126594   2.987   2.899   6.435 -0.2961  1.2577 -0.1581
 5044SOL    HW226595   2.869   2.838   6.493  0.3084  0.0970 -1.4346
 5045SOL     OW26596   3.234   2.893   7.800  0.0033  0.3134  0.5622
 5045SOL    HW126597   3.184   2.943   7.735  1.0094  1.7641  0.9155
 5045SOL    HW226598   3.183   2.817   7.826  0.8918 -0.4119  0.1735
 5046SOL     OW26599   2.468   4.123   2.839  0.0903  0.1867 -0.1388
 5046SOL    HW126600   2.564   4.127   2.837  0.1819 -1.4821  0.6772
 5046SOL    HW226601   2.452   4.125   2.933  1.2721 -1.3935  0.1033
 5047SOL     OW26602   0.058   2.966  11.598 -0.0692 -0.1120 -0.3476
 5047SOL    HW126603   0.078   2.896  11.660  0.1283  0.9837  0.8168
 5047SOL    HW226604   0.110   3.039  11.631 -2.0232  1.6102 -1.0921
 5048SOL     OW26605   0.630   1.817   2.561 -0.5264 -0.1520 -0.1598
 5048SOL    HW126606   0.658   1.818   2.470  2.0058  1.1838  0.6248
 5048SOL    HW226607   0.641   1.909   2.584 -2.4949  0.7241 -2.7537
 5049SOL     OW26608   3.847   4.050   6.026  0.3074 -0.3028 -0.0375
 5049SOL    HW126609   3.902   4.002   6.088  0.4534  1.3615  1.1378
 5049SOL    HW226610   3.890   4.029   5.943 -1.1228  2.1266 -1.3955
 5050SOL     OW26611   1.452   0.882  10.068  0.3355  0.5795  0.2484
 5050SOL    HW126612   1.481   0.791  10.070 -0.9800  0.0228 -3.7696
 5050SOL    HW226613   1.532   0.921  10.103 -0.4738 -1.1270  3.9190
 5051SOL     OW26614   3.241   4.131   4.280  0.2359 -0.4078 -0.0196
 5051SOL    HW126615   3.311   4.138   4.345  1.2820  0.0288 -1.1968
 5051SOL    HW226616   3.268   4.206   4.227  0.4682 -1.3822 -1.2662
 5052SOL     OW26617   3.419   3.932   5.790  0.3992 -0.2450  0.0939
 5052SOL    HW126618   3.449   3.936   5.700 -2.5911 -0.3040 -0.8995
 5052SOL    HW226619   3.482   3.991   5.830  1.7252 -0.7996 -1.2059
 5053SOL     OW26620   3.315   1.639   8.253 -0.1699  0.0021 -0.1421
 5053SOL    HW126621   3.332   1.545   8.265  0.7819  0.1590 -0.2711
 5053SOL    HW226622   3.220   1.646   8.257 -0.3172 -0.0271 -3.2559
 5054SOL     OW26623   0.094   2.314  14.404 -0.0863  0.1502 -0.5512
 5054SOL    HW126624   0.186   2.337  14.415 -0.0134 -0.6240  0.4694
 5054SOL    HW226625   0.062   2.404  14.406 -0.7825 -0.1179  0.2945
 5055SOL     OW26626   0.738   3.691   4.191  0.1860 -0.0616 -0.0740
 5055SOL    HW126627   0.751   3.623   4.125 -1.2743 -0.7389  0.3421
 5055SOL    HW226628   0.825   3.733   4.192  0.8817 -1.5680  1.4439
 5056SOL     OW26629   2.238   2.944  15.761  0.1367 -0.3562  0.5326
 5056SOL    HW126630   2.293   2.964  15.837  1.7241  0.0773 -0.7231
 5056SOL    HW226631   2.279   3.003  15.698  0.1511  0.6414  1.4698
 5057SOL     OW26632   2.291   3.652   4.878  0.0400  0.2950  0.4657
 5057SOL    HW126633   2.314   3.582   4.940  0.9755  0.4595  0.2962
 5057SOL    HW226634   2.323   3.725   4.930  0.5376 -0.9856  1.9522
 5058SOL     OW26635   2.762   3.634   3.310  0.0688  0.0606 -0.5351
 5058SOL    HW126636   2.827   3.694   3.347  2.9429 -2.2081 -1.8609
 5058SOL    HW226637   2.806   3.586   3.239  0.2639  0.1509 -0.4760
 5059SOL     OW26638   3.570   1.685   8.403  0.3923 -0.3399  0.2393
 5059SOL    HW126639   3.489   1.735   8.396  0.3187 -0.3042  1.2904
 5059SOL    HW226640   3.562   1.612   8.341 -0.0241 -0.2054  0.1381
 5060SOL     OW26641   4.553   2.800  11.428  0.8575  0.0794 -0.2432
 5060SOL    HW126642   4.502   2.857  11.372  0.5301 -2.1067 -2.1853
 5060SOL    HW226643   4.613   2.864  11.467  0.3225 -1.6224  3.3840
 5061SOL     OW26644   1.123   0.608  14.595 -0.3366  0.4742 -0.2379
 5061SOL    HW126645   1.075   0.561  14.526  0.1186 -1.0598  0.4985
 5061SOL    HW226646   1.152   0.685  14.546  2.6476  0.1917  1.1000
 5062SOL     OW26647   3.938   4.484  16.070 -0.2447  0.1927 -0.1589
 5062SOL    HW126648   4.030   4.464  16.055 -0.7351 -2.2552  0.1927
 5062SOL    HW226649   3.929   4.470  16.165  0.8918  1.7987  0.1928
 5063SOL     OW26650   3.002   3.236   6.044 -0.2339 -0.4165 -0.0387
 5063SOL    HW126651   2.944   3.186   5.986 -0.1983  0.9239 -1.2263
 5063SOL    HW226652   3.085   3.195   6.018  0.1537  0.2064  0.2370
 5064SOL     OW26653   4.339   2.045   6.979  0.0240 -0.5428 -0.4135
 5064SOL    HW126654   4.345   2.139   6.963 -1.5290 -0.8189 -2.7802
 5064SOL    HW226655   4.285   2.040   6.900 -1.5076 -1.3908  0.6842
 5065SOL     OW26656   0.970   0.602   3.278 -0.1354  0.1898 -0.1304
 5065SOL    HW126657   0.906   0.532   3.279 -0.6995  0.7429  1.7199
 5065SOL    HW226658   1.049   0.562   3.242 -0.2003 -0.0403 -0.0178
 5066SOL     OW26659   3.934   4.419  16.634 -0.2459 -0.3738 -0.4768
 5066SOL    HW126660   4.003   4.440  16.572  0.0507  0.8400  0.2671
 5066SOL    HW226661   3.869   4.481  16.602 -0.5013 -0.9236 -1.0183
 5067SOL     OW26662   4.017   0.304   4.994  0.2290 -0.5583  0.0025
 5067SOL    HW126663   4.073   0.267   5.062 -0.5169 -0.6965  0.5428
 5067SOL    HW226664   4.073   0.362   4.943 -0.6639 -1.0765 -1.5645
 5068SOL     OW26665   3.200   2.755   9.433 -0.2116  0.2283 -0.7967
 5068SOL    HW126666   3.130   2.796   9.483 -0.5144 -2.0561  0.6432
 5068SOL    HW226667   3.276   2.807   9.457  0.2575 -1.3307  1.0326
 5069SOL     OW26668   3.068   2.046   0.360  0.5984 -0.1715 -0.8153
 5069SOL    HW126669   3.073   2.037   0.265 -2.7267  1.3731 -1.1512
 5069SOL    HW226670   3.161   2.037   0.382  0.5727  0.6990 -0.3709
 5070SOL     OW26671   1.605   3.593   9.337  0.2179 -0.0169 -0.1833
 5070SOL    HW126672   1.665   3.557   9.402 -0.5424  1.0662  1.1084
 5070SOL    HW226673   1.517   3.571   9.366 -0.1205  0.9984 -0.4621
 5071SOL     OW26674   0.126   2.932   7.123 -0.6050  0.4174  0.2652
 5071SOL    HW126675   0.104   2.874   7.196 -0.2521 -0.1906 -0.1108
 5071SOL    HW226676   0.046   2.947   7.072 -0.4343  3.0409  0.7612
 5072SOL     OW26677   4.233   0.723   4.178 -0.8751  0.7073  0.5926
 5072SOL    HW126678   4.149   0.685   4.204 -0.3907 -2.4153 -2.4679
 5072SOL    HW226679   4.233   0.695   4.087  1.1202 -3.4030  1.8698
 5073SOL     OW26680   4.620   4.256   5.376 -0.2227 -0.5350 -0.2885
 5073SOL    HW126681   4.712   4.242   5.357  0.4107  1.0302  1.7457
 5073SOL    HW226682   4.611   4.239   5.470 -1.0307  1.2013 -0.0616
 5074SOL     OW26683   2.622   2.788   5.120 -0.2275  0.4952  0.0300
 5074SOL    HW126684   2.534   2.809   5.090 -0.3202  0.6354  0.4001
 5074SOL    HW226685   2.622   2.693   5.113 -0.5636  0.4811  0.2258
 5075SOL     OW26686   4.013   4.097   6.379 -0.0666  0.0780 -0.2610
 5075SOL    HW126687   4.048   4.173   6.425 -0.9944  0.2713  0.1192
 5075SOL    HW226688   4.074   4.029   6.408  2.0472  0.5776 -3.4333
 5076SOL     OW26689   3.930   4.036   7.561  0.1664  0.1332 -0.4018
 5076SOL    HW126690   3.841   4.062   7.583 -0.3375 -1.1834 -0.9064
 5076SOL    HW226691   3.978   4.060   7.640  0.0107  4.2663 -1.5214
 5077SOL     OW26692   2.524   1.480  16.580  0.1631  0.1872  0.2452
 5077SOL    HW126693   2.585   1.406  16.586 -2.0257 -1.6606  0.1159
 5077SOL    HW226694   2.535   1.516  16.493 -1.4583  0.2307  0.0640
 5078SOL     OW26695   2.566   0.360   1.543  0.1936  0.1687 -0.0831
 5078SOL    HW126696   2.595   0.447   1.514 -2.6484  0.1962 -2.8366
 5078SOL    HW226697   2.519   0.381   1.624 -0.5000  1.2391 -0.7611
 5079SOL     OW26698   1.111   1.500  16.035  0.3950 -0.7193  0.3867
 5079SOL    HW126699   1.196   1.495  16.078  0.0639  0.3686  1.1617
 5079SOL    HW226700   1.117   1.438  15.963 -0.6536 -1.0885  0.6095
 5080SOL     OW26701   4.039   4.404   3.698 -0.5456  0.4216 -0.1886
 5080SOL    HW126702   3.975   4.436   3.635 -0.1602 -0.9040 -1.2405
 5080SOL    HW226703   4.014   4.446   3.780 -0.6254 -1.5791  0.8287
 5081SOL     OW26704   1.543   1.589   4.464  0.1303  0.2346  0.1513
 5081SOL    HW126705   1.536   1.631   4.378  2.5048  0.3093 -0.0248
 5081SOL    HW226706   1.457   1.549   4.472 -0.5478  2.1429  2.4527
 5082SOL     OW26707   4.434   0.780   0.650  0.1537 -0.3292  0.4941
 5082SOL    HW126708   4.513   0.795   0.598 -1.1167  2.1927 -0.7352
 5082SOL    HW226709   4.467   0.788   0.739  0.7703  0.2555  0.2196
 5083SOL     OW26710   4.619   0.067   5.245  0.0246 -0.5482  0.5461
 5083SOL    HW126711   4.697   0.040   5.197 -0.4927 -1.9085  0.4591
 5083SOL    HW226712   4.578   4.707   5.261 -0.2710 -0.9746 -2.3710
 5084SOL     OW26713   1.008   2.511  16.997  0.4765  0.5982 -0.4464
 5084SOL    HW126714   1.001   2.430  16.947 -1.3936  0.8857 -0.6524
 5084SOL    HW226715   0.976   2.483  17.082  1.1392  2.7555  0.5275
 5085SOL     OW26716   2.258   4.518   8.685 -0.1304  0.1638  0.0029
 5085SOL    HW126717   2.256   4.590   8.748 -0.4637 -0.1952  0.4012
 5085SOL    HW226718   2.323   4.537   8.618  0.0937  0.0399  0.1847
 5086SOL     OW26719   0.431   4.084   3.888 -0.4110  0.5825  0.4002
 5086SOL    HW126720   0.429   4.019   3.958  4.3810 -0.5202 -0.4616
 5086SOL    HW226721   0.521   4.117   3.888 -0.0377 -0.4411  0.4334
 5087SOL     OW26722   0.351   4.319   6.732  0.3487 -0.0589  0.2997
 5087SOL    HW126723   0.324   4.314   6.824  2.0492 -0.5503  0.7705
 5087SOL    HW226724   0.397   4.237   6.714 -1.7473 -1.5839  1.8891
 5088SOL     OW26725   1.978   3.572   3.617  0.5790  0.0394 -0.0134
 5088SOL    HW126726   2.013   3.617   3.694  0.4319 -0.9046  0.6039
 5088SOL    HW226727   1.940   3.647   3.572  2.2635 -1.8077 -4.5160
 5089SOL     OW26728   2.833   3.792   6.273  0.2984 -0.3089  0.5680
 5089SOL    HW126729   2.889   3.756   6.204  0.6948  1.4307 -0.0188
 5089SOL    HW226730   2.834   3.884   6.248 -1.5082 -0.5879 -0.5412
 5090SOL     OW26731   1.062   0.933   3.040  0.4778 -0.5118  0.6127
 5090SOL    HW126732   1.049   0.854   3.092 -0.8554 -0.5125  0.2689
 5090SOL    HW226733   1.104   0.894   2.964 -2.9245  0.0126 -1.5088
 5091SOL     OW26734   0.706   4.524  12.627  0.3147 -0.3369  0.3303
 5091SOL    HW126735   0.708   4.442  12.677 -0.2720 -0.8237 -0.4379
 5091SOL    HW226736   0.791   4.562  12.652 -0.3366  2.6670 -2.0162
 5092SOL     OW26737   2.069   2.918   2.049 -0.2294 -0.0270  0.3354
 5092SOL    HW126738   2.118   2.938   1.969 -1.7025 -0.9928 -0.7957
 5092SOL    HW226739   2.132   2.864   2.098 -0.1625 -0.1633  0.0953
 5093SOL     OW26740   3.730   3.853   7.790  0.3121  0.1864  0.2923
 5093SOL    HW126741   3.743   3.834   7.697  0.3248  0.0749  0.3166
 5093SOL    HW226742   3.802   3.798   7.821  0.5205  0.1079 -0.3313
 5094SOL     OW26743   1.830   2.867   3.393 -0.4241 -0.1655  0.0526
 5094SOL    HW126744   1.809   2.863   3.300 -0.0791 -2.2765  0.0713
 5094SOL    HW226745   1.885   2.789   3.404  0.1771  0.0190 -1.7818
 5095SOL     OW26746   2.739   0.629   4.935 -0.2122 -0.3031 -0.1279
 5095SOL    HW126747   2.792   0.647   4.857  1.1920 -1.4126  0.5749
 5095SOL    HW226748   2.658   0.610   4.887  1.1281 -1.1408 -2.0980
 5096SOL     OW26749   0.734   3.740  15.589 -0.5976  0.2792  0.4403
 5096SOL    HW126750   0.667   3.687  15.545 -0.5127  1.3534 -0.9612
 5096SOL    HW226751   0.716   3.828  15.557 -0.3433 -0.0420 -0.5841
 5097SOL     OW26752   4.154   0.542  16.943 -0.5965  0.0974  0.0127
 5097SOL    HW126753   4.094   0.538  16.869  0.1704 -0.0084 -0.5911
 5097SOL    HW226754   4.233   0.525  16.893 -1.3659 -1.3807 -0.6907
 5098SOL     OW26755   3.243   0.755   2.282 -0.6405 -0.0147 -0.3172
 5098SOL    HW126756   3.215   0.761   2.373  1.3273 -2.7210  0.4602
 5098SOL    HW226757   3.330   0.721   2.299  0.5463  2.8461 -0.6076
 5099SOL     OW26758   2.818   1.536   5.493 -0.3865  0.0645  0.5890
 5099SOL    HW126759   2.878   1.473   5.454 -0.5419  0.8873 -0.9901
 5099SOL    HW226760   2.789   1.578   5.412  0.4210 -0.2934  0.1247
 5100SOL     OW26761   4.148   0.347   7.438 -0.2296  0.4920  0.3228
 5100SOL    HW126762   4.157   0.267   7.490  0.8173  0.0151 -0.5908
 5100SOL    HW226763   4.141   0.419   7.501  0.2710  1.0819 -0.2973
 5101SOL     OW26764   1.226   4.717  11.619  0.0601 -0.8213  0.3810
 5101SOL    HW126765   1.242   4.696  11.527  0.4721 -1.2622  0.5540
 5101SOL    HW226766   1.173   4.638  11.635 -1.0276  0.1339  1.5865
 5102SOL     OW26767   0.458   1.683  12.949 -0.6317  0.2622  0.3027
 5102SOL    HW126768   0.394   1.629  12.995 -2.2519  3.8851  2.3133
 5102SOL    HW226769   0.397   1.744  12.908 -0.3388  1.3476  1.4795
 5103SOL     OW26770   2.681   0.451   8.090  0.7632  0.2484 -0.0737
 5103SOL    HW126771   2.670   0.513   8.162  0.8615 -0.8392  0.8761
 5103SOL    HW226772   2.636   0.506   8.026 -1.2140  0.9045  1.8593
 5104SOL     OW26773   3.313   2.297   6.950 -0.2908  0.0428 -0.5888
 5104SOL    HW126774   3.233   2.288   6.899 -0.4717  0.6438 -0.4060
 5104SOL    HW226775   3.295   2.240   7.025  0.0064  1.8556  0.8629
 5105SOL     OW26776   3.868   3.436  12.822  0.1842  0.2085 -0.6186
 5105SOL    HW126777   3.889   3.347  12.794 -2.9189 -0.4157 -1.0134
 5105SOL    HW226778   3.778   3.437  12.854  0.5034 -1.0680  0.3100
 5106SOL     OW26779   1.685   0.925  14.412 -0.4809  0.0593 -0.2965
 5106SOL    HW126780   1.667   0.870  14.489 -0.9003 -1.0391 -1.1877
 5106SOL    HW226781   1.597   0.957  14.392 -1.4895 -2.0434  0.7840
 5107SOL     OW26782   0.356   1.322   3.496  0.3418 -0.3951  0.5561
 5107SOL    HW126783   0.313   1.394   3.541  2.7081  0.8450  0.7823
 5107SOL    HW226784   0.442   1.364   3.503  0.0480  0.2224  0.4555
 5108SOL     OW26785   2.323   1.333  10.501 -0.5331 -0.1467  0.4846
 5108SOL    HW126786   2.329   1.262  10.565  0.6186  0.2963  0.8695
 5108SOL    HW226787   2.411   1.362  10.524 -0.3543  0.2409 -0.6953
 5109SOL     OW26788   3.716   2.195   4.716  0.4047 -0.6862 -0.0419
 5109SOL    HW126789   3.739   2.197   4.809  1.2060 -0.1016 -0.2504
 5109SOL    HW226790   3.778   2.132   4.679  0.2492 -0.0722 -1.3311
 5110SOL     OW26791   0.133   4.558   4.174 -0.4123  0.2967  0.7431
 5110SOL    HW126792   0.225   4.584   4.165 -0.3438 -0.8346 -1.6157
 5110SOL    HW226793   0.149   4.507   4.253 -1.0763  0.4684  0.9851
 5111SOL     OW26794   2.308   3.268   4.806 -0.3211  0.9344  0.0968
 5111SOL    HW126795   2.333   3.260   4.898 -2.8706  1.1337  0.8216
 5111SOL    HW226796   2.370   3.209   4.764 -1.7172  0.4187 -1.2575
 5112SOL     OW26797   2.102   2.045   5.294  0.3019 -0.1790  0.2532
 5112SOL    HW126798   2.013   2.036   5.258  1.5875 -3.9516 -1.9694
 5112SOL    HW226799   2.151   2.063   5.214 -0.0169 -0.7861 -0.0809
 5113SOL     OW26800   1.741   0.835   8.578  0.8557 -0.6205  0.3320
 5113SOL    HW126801   1.742   0.900   8.648  2.2038  1.0746 -1.2579
 5113SOL    HW226802   1.660   0.862   8.534  1.7208  0.9605 -0.2778
 5114SOL     OW26803   0.285   3.485   2.025  0.1150  0.5064  0.1434
 5114SOL    HW126804   0.295   3.402   1.978 -1.7211 -0.4619  1.4849
 5114SOL    HW226805   0.269   3.550   1.956 -1.3519 -0.3062 -0.2786
 5115SOL     OW26806   4.709   1.058  17.701 -0.0335 -0.8143 -0.2191
 5115SOL    HW126807   4.695   1.034  17.610  1.3424  0.3211 -0.7340
 5115SOL    HW226808   4.625   1.096   0.023 -0.0264 -2.0078  1.5432
 5116SOL     OW26809   4.458   4.060  10.660 -0.4840  0.5269  0.3564
 5116SOL    HW126810   4.469   4.083  10.752 -2.9334 -0.9504  1.0147
 5116SOL    HW226811   4.489   4.140  10.618 -2.4100  1.8990  1.5638
 5117SOL     OW26812   2.327   0.272   2.317  0.3672 -0.0393 -0.1658
 5117SOL    HW126813   2.243   0.251   2.357 -0.1313 -1.6634 -2.0654
 5117SOL    HW226814   2.337   0.181   2.290  1.0483  0.1440 -0.5486
 5118SOL     OW26815   1.601   2.600   1.680  0.3506 -0.4434  0.4419
 5118SOL    HW126816   1.585   2.632   1.769  0.2787  2.0739 -0.4847
 5118SOL    HW226817   1.693   2.574   1.679 -0.0241 -1.7249 -1.3497
 5119SOL     OW26818   4.652   3.311   0.072 -0.1439 -0.0125  0.0971
 5119SOL    HW126819   4.642   3.260   0.153 -3.1081 -0.3006 -0.4797
 5119SOL    HW226820   0.009   3.277   0.037  0.5276  0.9199  0.7901
 5120SOL     OW26821   0.229   1.674  16.281 -0.2788 -0.5978 -0.7192
 5120SOL    HW126822   0.255   1.760  16.250 -3.1466  0.3975 -0.3334
 5120SOL    HW226823   0.133   1.671  16.281 -0.3157  0.4503  0.2790
 5121SOL     OW26824   0.290   1.492   4.016 -0.3327  0.2981 -0.0066
 5121SOL    HW126825   0.285   1.496   4.112  1.0471  1.2894  0.0262
 5121SOL    HW226826   0.375   1.528   3.993 -0.4783  1.7819  1.7643
 5122SOL     OW26827   4.050   3.473  15.485 -0.5963  0.8499 -0.2176
 5122SOL    HW126828   4.104   3.535  15.533  0.6022 -0.8461  0.6326
 5122SOL    HW226829   4.078   3.477  15.394 -2.2576 -1.4570 -0.8087
 5123SOL     OW26830   0.606   4.252   2.882  0.3341 -0.2143 -0.2242
 5123SOL    HW126831   0.587   4.332   2.833  2.3437 -0.4322 -1.3611
 5123SOL    HW226832   0.570   4.177   2.836 -0.5163 -0.0348  0.1357
 5124SOL     OW26833   2.830   2.762   9.302  0.0231 -0.0914  0.3133
 5124SOL    HW126834   2.744   2.723   9.292  1.1217 -2.1977 -0.8302
 5124SOL    HW226835   2.846   2.728   9.390 -1.2640  0.2439  0.6850
 5125SOL     OW26836   0.690   0.266  13.238  0.3853 -0.0223 -0.3664
 5125SOL    HW126837   0.696   0.322  13.160 -0.7392  0.0871 -0.3742
 5125SOL    HW226838   0.759   0.304  13.292  0.9525  1.1129 -1.8819
 5126SOL     OW26839   0.011   2.984   3.991 -0.0633 -0.4534  0.2429
 5126SOL    HW126840   4.725   2.930   4.069  0.8205 -0.6849  0.2164
 5126SOL    HW226841   0.103   2.968   3.971  0.0601  0.7845 -0.1877
 5127SOL     OW26842   2.650   4.479   0.553  0.0197 -0.5941  0.2419
 5127SOL    HW126843   2.632   4.536   0.629  1.7692  1.8343 -1.1716
 5127SOL    HW226844   2.557   4.460   0.537 -0.2921  1.0272  0.0748
 5128SOL     OW26845   4.199   4.416   9.418 -0.4631 -0.1989 -0.4068
 5128SOL    HW126846   4.152   4.446   9.340 -0.8429  0.2686  0.0055
 5128SOL    HW226847   4.229   4.334   9.378  1.7803  0.2522  0.3771
 5129SOL     OW26848   1.485   4.646   3.597 -0.3752  0.2118 -0.4193
 5129SOL    HW126849   1.530   4.695   3.528 -3.2514  1.1977 -1.5970
 5129SOL    HW226850   1.484   4.556   3.566  0.4548 -0.5414  1.7784
 5130SOL     OW26851   1.012   0.420   7.688 -0.2053 -0.0454  0.0530
 5130SOL    HW126852   1.065   0.500   7.696  1.0979 -0.8477 -0.5746
 5130SOL    HW226853   1.035   0.381   7.772 -2.0311 -1.5107 -0.1284
 5131SOL     OW26854   4.438   3.099   9.481  0.4386  0.4174 -0.0598
 5131SOL    HW126855   4.393   3.076   9.562 -0.7636  1.4411 -0.4500
 5131SOL    HW226856   4.518   3.047   9.479  1.9477  2.7335  0.2355
 5132SOL     OW26857   2.243   1.862   2.297 -0.1243 -0.5152 -0.3451
 5132SOL    HW126858   2.225   1.928   2.364  1.1563 -1.6146  1.0569
 5132SOL    HW226859   2.165   1.811   2.316 -0.1048  0.6975  2.8975
 5133SOL     OW26860   2.515   0.810   4.021  0.1365  0.2684  0.0043
 5133SOL    HW126861   2.497   0.797   3.928  1.5941  2.3152 -0.5581
 5133SOL    HW226862   2.602   0.771   4.030 -0.6162 -1.2286  0.8427
 5134SOL     OW26863   1.644   0.672   8.851  0.0079 -0.1215 -0.0695
 5134SOL    HW126864   1.581   0.730   8.893  0.8730  1.4850 -0.9632
 5134SOL    HW226865   1.659   0.709   8.763 -0.5015 -1.6172 -0.7850
 5135SOL     OW26866   0.226   1.778  13.420  0.1829 -0.4350 -0.7047
 5135SOL    HW126867   0.214   1.824  13.502  0.0528  0.0246 -0.9816
 5135SOL    HW226868   0.237   1.687  13.447  2.2406 -0.0906 -0.3895
 5136SOL     OW26869   0.469   3.825   9.941  0.1536 -1.1175  0.3346
 5136SOL    HW126870   0.484   3.731   9.932 -1.7714 -1.3412 -0.6539
 5136SOL    HW226871   0.446   3.822  10.034  1.2273 -0.0309  0.6344
 5137SOL     OW26872   0.380   3.857  10.208  0.1858  0.5059  0.1953
 5137SOL    HW126873   0.340   3.780  10.248  0.9635 -0.3432 -0.6696
 5137SOL    HW226874   0.427   3.879  10.289 -0.9059  1.2585  0.6265
 5138SOL     OW26875   4.029   2.646  16.597  0.3998 -0.3203  0.2069
 5138SOL    HW126876   4.125   2.644  16.603  0.3404  0.7282  1.5512
 5138SOL    HW226877   4.015   2.599  16.679  1.5382 -0.1784  0.4801
 5139SOL     OW26878   1.097   0.149  10.820 -0.3234  0.3691 -0.5354
 5139SOL    HW126879   1.092   0.230  10.770  0.7178 -0.6954 -2.3748
 5139SOL    HW226880   1.191   0.140  10.835 -0.5611 -1.3765 -0.0874
 5140SOL     OW26881   4.323   3.843   3.567  0.6352  0.3681  0.1525
 5140SOL    HW126882   4.381   3.883   3.631 -1.4585  0.7345  1.8034
 5140SOL    HW226883   4.313   3.912   3.501  1.1317 -0.8862 -1.2381
 5141SOL     OW26884   0.091   3.789  15.730 -0.2169 -0.4121 -0.6808
 5141SOL    HW126885   0.094   3.882  15.708  0.8301 -0.0487  0.9719
 5141SOL    HW226886   0.078   3.798  15.824  1.3121  1.7860 -0.6926
 5142SOL     OW26887   4.595   0.507   8.424  0.1917  0.1084  0.5502
 5142SOL    HW126888   4.507   0.534   8.398  0.2417  1.5399  1.8400
 5142SOL    HW226889   4.568   0.429   8.473 -0.9440 -0.4101 -0.9286
 5143SOL     OW26890   4.623   0.199  17.683 -0.6296  0.0404 -0.5946
 5143SOL    HW126891   4.679   0.182  17.607  0.5278 -0.5310  0.4041
 5143SOL    HW226892   4.539   0.156  17.662  0.7071 -2.7540 -0.1906
 5144SOL     OW26893   0.407   1.701   4.969  0.1263 -0.2513 -0.4273
 5144SOL    HW126894   0.388   1.793   4.951  0.2006 -0.5545 -2.1086
 5144SOL    HW226895   0.357   1.684   5.048  2.3178 -0.4714  0.9199
 5145SOL     OW26896   1.727   3.072   6.352 -0.4919 -0.3987 -0.1369
 5145SOL    HW126897   1.695   2.999   6.405 -2.1344  1.0404  0.8388
 5145SOL    HW226898   1.753   3.135   6.419  2.7757  0.6712 -2.3507
 5146SOL     OW26899   1.873   0.506   6.814 -0.0240  0.2438  0.2040
 5146SOL    HW126900   1.828   0.574   6.763 -1.9266 -2.3425 -1.5703
 5146SOL    HW226901   1.792   0.458   6.829 -0.2911  1.0397  1.2990
 5147SOL     OW26902   4.613   4.688  11.992  0.2824 -0.3244 -0.2170
 5147SOL    HW126903   4.656   4.603  11.997  2.2418  0.5725 -2.1646
 5147SOL    HW226904   4.578   4.692  12.081 -0.4628  0.2539 -0.5258
 5148SOL     OW26905   0.930   4.538   2.732 -0.4080 -0.0232 -0.1874
 5148SOL    HW126906   0.889   4.452   2.734 -0.1610 -0.1189  0.5665
 5148SOL    HW226907   0.869   4.592   2.783 -1.2379 -2.7419  1.6597
 5149SOL     OW26908   3.803   4.259   7.334 -0.7533  0.3158  0.1094
 5149SOL    HW126909   3.736   4.313   7.376 -0.8353 -0.5049  1.0454
 5149SOL    HW226910   3.870   4.322   7.308  0.3449 -0.4716  0.9832
 5150SOL     OW26911   2.850   2.162  13.965 -0.5090  0.2389 -0.2219
 5150SOL    HW126912   2.868   2.073  13.996 -0.6782  0.5498  0.7799
 5150SOL    HW226913   2.890   2.204  14.041  1.6230 -3.1485  0.5615
 5151SOL     OW26914   3.740   3.479  11.125 -0.5968 -0.5533  0.1913
 5151SOL    HW126915   3.658   3.472  11.076 -2.4243  1.8291  2.9375
 5151SOL    HW226916   3.723   3.543  11.193  0.8578  0.0517 -0.0257
 5152SOL     OW26917   1.385   0.115  10.810 -0.7842  0.4003 -0.1903
 5152SOL    HW126918   1.463   0.071  10.776  1.4792  3.7045  0.6789
 5152SOL    HW226919   1.404   0.115  10.903 -0.6515  0.6073 -0.2158
 5153SOL     OW26920   3.520   2.308  13.002 -0.4114  0.6333 -0.1908
 5153SOL    HW126921   3.578   2.236  12.978 -0.1202  0.6527  0.4762
 5153SOL    HW226922   3.461   2.305  12.926 -1.5054  2.9497  0.5765
 5154SOL     OW26923   3.783   0.243   0.694  0.1179  0.3567 -0.3616
 5154SOL    HW126924   3.790   0.150   0.717 -0.2979 -0.2658 -2.7690
 5154SOL    HW226925   3.767   0.283   0.779  0.0828 -0.6518  0.1072
 5155SOL     OW26926   0.282   1.624   5.607 -0.3565 -0.0037 -0.2296
 5155SOL    HW126927   0.332   1.684   5.552 -0.5489 -0.4672 -0.8998
 5155SOL    HW226928   0.314   1.646   5.695 -1.0872 -2.2524  0.6051
 5156SOL     OW26929   2.637   0.528  10.115 -0.0880  0.0638 -0.3648
 5156SOL    HW126930   2.621   0.618  10.087 -1.9516 -0.4733 -0.9948
 5156SOL    HW226931   2.617   0.526  10.208  1.2274 -0.6267 -0.0947
 5157SOL     OW26932   3.889   1.017   2.944  0.3016  0.2358  0.2757
 5157SOL    HW126933   3.975   1.022   2.904  0.1739  0.5057  0.0383
 5157SOL    HW226934   3.847   0.957   2.883  3.4915 -3.3856  1.6953
 5158SOL     OW26935   0.312   1.062   6.932 -0.0786  0.6850  0.1147
 5158SOL    HW126936   0.263   1.143   6.923 -0.6640 -0.0414 -3.1588
 5158SOL    HW226937   0.278   1.025   7.013  2.2146 -1.0357  0.3126
 5159SOL     OW26938   1.840   2.475  15.838  0.3011 -0.0768 -0.0420
 5159SOL    HW126939   1.804   2.531  15.769  0.0912 -1.1709 -0.8093
 5159SOL    HW226940   1.865   2.540  15.904 -0.3839 -0.1535  0.2913
 5160SOL     OW26941   0.181   2.265  11.379 -0.2015  0.1694  0.2325
 5160SOL    HW126942   0.109   2.254  11.317 -1.7075  0.3160  1.9708
 5160SOL    HW226943   0.165   2.352  11.414 -1.4269 -0.0699  0.2620
 5161SOL     OW26944   3.121   3.932   0.916 -0.3825 -0.4753  0.1738
 5161SOL    HW126945   3.038   3.887   0.933 -0.9277  0.2785 -0.5112
 5161SOL    HW226946   3.115   3.919   0.822  0.7229 -2.0862  0.3326
 5162SOL     OW26947   0.188   0.122   6.015 -0.3961 -0.2403  0.3305
 5162SOL    HW126948   0.234   0.038   6.008  0.2311  0.0542  0.8780
 5162SOL    HW226949   0.198   0.153   5.925 -0.4768 -0.7646  0.1414
 5163SOL     OW26950   4.268   4.299   2.918 -0.6510 -0.4704  0.2896
 5163SOL    HW126951   4.327   4.319   2.990  0.7573  0.1113 -1.0189
 5163SOL    HW226952   4.324   4.257   2.853 -0.7834 -0.2947  0.0638
 5164SOL     OW26953   1.596   1.897   6.262 -0.4091  0.4946 -0.2378
 5164SOL    HW126954   1.554   1.886   6.176 -0.8570  0.9989 -0.0850
 5164SOL    HW226955   1.652   1.820   6.260 -0.2080  0.6274  0.5132
 5165SOL     OW26956   0.578   1.939   0.587  0.4992 -0.1246  0.1249
 5165SOL    HW126957   0.649   1.894   0.541  0.6822 -1.1237  1.4150
 5165SOL    HW226958   0.574   1.877   0.659  0.0427  1.8028  1.7514
 5166SOL     OW26959   0.576   2.916   4.580  0.6327 -0.0384 -0.2251
 5166SOL    HW126960   0.668   2.936   4.559  0.5607 -0.1967 -0.6908
 5166SOL    HW226961   0.573   2.912   4.676  1.6280 -1.8417 -0.2776
 5167SOL     OW26962   2.767   1.507   3.141  0.4392  0.5109 -0.4296
 5167SOL    HW126963   2.761   1.518   3.236  1.9853  0.9397 -0.3869
 5167SOL    HW226964   2.675   1.504   3.115 -0.4281 -0.1070  2.6589
 5168SOL     OW26965   3.994   3.722  13.126 -0.2214  0.5102  0.3205
 5168SOL    HW126966   4.070   3.706  13.182 -0.4097 -3.0691 -0.4308
 5168SOL    HW226967   3.974   3.815  13.136 -0.9173  0.4083 -0.0923
 5169SOL     OW26968   4.517   3.537   9.571 -0.2301  0.1225 -0.0971
 5169SOL    HW126969   4.532   3.443   9.579 -0.1973  0.3820  3.1629
 5169SOL    HW226970   4.588   3.571   9.626 -0.1583  0.5003 -0.4210
 5170SOL     OW26971   1.228   4.524   8.269  0.2481  0.4314 -0.2349
 5170SOL    HW126972   1.265   4.449   8.317 -1.2667 -2.2511 -3.2506
 5170SOL    HW226973   1.178   4.475   8.204  1.9236 -0.7466 -0.6647
 5171SOL     OW26974   0.438   2.107  13.040  0.2433 -0.4934 -0.0382
 5171SOL    HW126975   0.347   2.131  13.026 -0.2078 -0.5121  2.8382
 5171SOL    HW226976   0.424   2.047  13.114 -2.0016  0.1885  0.0824
 5172SOL     OW26977   4.682   0.769  16.921  0.4304 -0.6237 -0.3527
 5172SOL    HW126978   0.042   0.727  16.925  0.6335 -0.1563  0.2644
 5172SOL    HW226979   4.699   0.810  16.836  3.3772  0.0358  0.5496
 5173SOL     OW26980   4.198   0.085   5.185 -0.4707  0.5765 -0.3860
 5173SOL    HW126981   4.257   0.131   5.245 -1.1699  1.1365 -0.1221
 5173SOL    HW226982   4.205   4.720   5.213  1.0806  0.6740 -0.4386
 5174SOL     OW26983   1.790   0.542  17.094  0.0074  0.4807  0.0705
 5174SOL    HW126984   1.772   0.589  17.013 -0.8013 -0.8964 -0.5473
 5174SOL    HW226985   1.700   0.521  17.120  0.2784 -1.5065 -0.5395
 5175SOL     OW26986   3.190   3.781   5.309 -0.4241  0.1819  0.1135
 5175SOL    HW126987   3.200   3.857   5.367  2.2640  0.6821 -1.0243
 5175SOL    HW226988   3.284   3.762   5.304 -0.7209 -1.0384 -0.8534
 5176SOL     OW26989   2.681   2.373   8.549  0.1641  0.9313  0.1697
 5176SOL    HW126990   2.641   2.438   8.608  0.7163  1.8923 -0.5207
 5176SOL    HW226991   2.633   2.392   8.469 -0.6893 -1.3540  0.1622
 5177SOL     OW26992   2.633   2.488   4.553 -0.0549 -0.1616 -0.0375
 5177SOL    HW126993   2.654   2.581   4.558 -1.2944 -0.0414  2.7018
 5177SOL    HW226994   2.722   2.466   4.526 -0.8392 -0.5474 -2.3614
 5178SOL     OW26995   0.228   1.829   8.373 -0.2457 -0.7045 -0.5339
 5178SOL    HW126996   0.316   1.827   8.335 -0.2631  0.3281 -0.6265
 5178SOL    HW226997   0.243   1.814   8.466  2.1072  0.0935 -0.7819
 5179SOL     OW26998   1.812   4.363  11.986 -0.5060 -0.8217 -0.5815
 5179SOL    HW126999   1.852   4.286  12.026 -1.0303 -0.7142  0.1473
 5179SOL    HW227000   1.768   4.331  11.907 -0.3132  0.3388 -1.1667
 5180SOL     OW27001   2.876   0.525   4.277 -0.0224  0.4504  0.1411
 5180SOL    HW127002   2.785   0.499   4.265 -0.3426  1.6248  0.0169
 5180SOL    HW227003   2.920   0.495   4.198  3.9997  1.4330  1.9856
 5181SOL     OW27004   0.081   3.957   4.192  0.2767 -0.2893 -0.4954
 5181SOL    HW127005   0.136   4.033   4.209  1.1568 -0.7728 -1.2299
 5181SOL    HW227006   0.140   3.884   4.212  0.1056 -0.1240  0.6365
 5182SOL     OW27007   3.197   0.023   6.957 -0.6129 -0.1826  0.0605
 5182SOL    HW127008   3.209   4.666   7.004 -1.8237  0.0773  0.8299
 5182SOL    HW227009   3.127   0.000   6.896 -0.2315 -1.2737  0.0325
 5183SOL     OW27010   3.675   0.915   0.857 -0.3503 -0.2795  0.3214
 5183SOL    HW127011   3.597   0.923   0.912  0.2080 -0.0321  1.0814
 5183SOL    HW227012   3.747   0.911   0.920  0.1175 -1.1930 -0.2687
 5184SOL     OW27013   2.655   1.261   3.352 -0.0149  0.2121 -0.1295
 5184SOL    HW127014   2.609   1.279   3.433 -1.3627  1.7255 -1.2281
 5184SOL    HW227015   2.689   1.347   3.328 -0.2464  0.2823 -0.2052
 5185SOL     OW27016   3.232   2.449  16.353  0.7478  0.6715 -0.1408
 5185SOL    HW127017   3.209   2.421  16.442  0.3115 -0.3107 -0.5691
 5185SOL    HW227018   3.188   2.389  16.293 -0.7653 -0.4648  2.1137
 5186SOL     OW27019   3.808   0.474   8.206 -0.2843 -0.3709 -0.3184
 5186SOL    HW127020   3.718   0.478   8.239  0.0949 -0.7507  0.7514
 5186SOL    HW227021   3.853   0.539   8.260 -3.0054  0.6216  0.7494
 5187SOL     OW27022   2.938   0.355   1.657 -0.3022 -0.1363  0.1937
 5187SOL    HW127023   2.901   0.409   1.588 -1.1678 -0.5173  0.3633
 5187SOL    HW227024   3.010   0.307   1.615  1.2684  2.6655 -0.3521
 5188SOL     OW27025   1.572   4.291  13.062  0.0970 -0.4111 -0.1353
 5188SOL    HW127026   1.642   4.226  13.055  0.3793 -0.3251  2.0313
 5188SOL    HW227027   1.505   4.247  13.115 -0.9433 -0.7158 -1.6830
 5189SOL     OW27028   0.764   1.991   8.763  0.2687 -0.1259 -0.3971
 5189SOL    HW127029   0.802   1.981   8.676  0.0096  1.4634 -0.7029
 5189SOL    HW227030   0.841   1.962   8.811  0.7503  0.4614 -0.8103
 5190SOL     OW27031   0.243   1.386   9.253  0.2203 -0.2052 -0.0648
 5190SOL    HW127032   0.200   1.330   9.188  0.6807  0.2133 -0.7251
 5190SOL    HW227033   0.320   1.335   9.275  0.2699  0.8970  2.3177
 5191SOL     OW27034   3.190   0.307   1.529 -0.1335  0.1936  0.3335
 5191SOL    HW127035   3.140   0.324   1.449 -0.6626 -0.4471  0.5206
 5191SOL    HW227036   3.264   0.260   1.490 -1.5169  0.9132 -3.1771
 5192SOL     OW27037   4.427   0.052  10.604  0.1717 -0.0012 -0.2445
 5192SOL    HW127038   4.478   0.058  10.523  0.2034 -0.1257 -0.2345
 5192SOL    HW227039   4.496   0.038  10.669  1.2371 -2.3781 -1.8784
 5193SOL     OW27040   2.669   1.615   3.379  0.6282  0.8515  0.2535
 5193SOL    HW127041   2.679   1.704   3.414 -0.1857  0.7866  0.6403
 5193SOL    HW227042   2.576   1.609   3.358  0.6582  0.2929  0.2761
 5194SOL     OW27043   3.836   1.716   7.540  0.1003  0.3511  0.2160
 5194SOL    HW127044   3.747   1.684   7.550  0.3360 -0.0730  0.9344
 5194SOL    HW227045   3.886   1.635   7.529 -0.2715  0.2273 -0.5221
 5195SOL     OW27046   0.762   2.785   6.343 -0.5842 -0.7204  0.2991
 5195SOL    HW127047   0.695   2.776   6.275 -0.3186 -2.0163  0.2159
 5195SOL    HW227048   0.739   2.739   6.423 -1.1639 -0.0591  0.5089
 5196SOL     OW27049   1.911   3.666   9.296  0.2098  0.5888 -0.1120
 5196SOL    HW127050   1.884   3.613   9.371 -1.6063  1.2127 -0.3380
 5196SOL    HW227051   1.924   3.755   9.330  0.6150 -0.0207  1.3590
 5197SOL     OW27052   1.414   0.896   2.952 -0.1361 -0.1281  0.2200
 5197SOL    HW127053   1.341   0.852   2.907  0.7508 -0.0489 -1.3024
 5197SOL    HW227054   1.433   0.955   2.878 -5.0203  0.1564 -0.8017
 5198SOL     OW27055   2.230   1.737   3.773  0.1659 -0.0138  0.2801
 5198SOL    HW127056   2.303   1.796   3.754 -1.6015  1.9528 -0.3112
 5198SOL    HW227057   2.160   1.800   3.786 -0.2827 -0.3336 -0.5821
 5199SOL     OW27058   3.686   2.771  13.375  0.1479  0.1102 -0.1559
 5199SOL    HW127059   3.717   2.837  13.313 -1.7033  0.8849 -0.2515
 5199SOL    HW227060   3.611   2.807  13.422  0.1573  0.5530 -0.4819
 5200SOL     OW27061   4.132   3.054   0.161 -0.1559  0.1631 -0.4361
 5200SOL    HW127062   4.126   2.997   0.085  2.1497  0.8422 -1.1286
 5200SOL    HW227063   4.130   2.995   0.237 -1.5206  1.2217  0.3505
 5201SOL     OW27064   4.022   2.863  15.334 -0.5266  0.2517  0.0675
 5201SOL    HW127065   4.042   2.950  15.371  0.7852 -0.5015  1.1394
 5201SOL    HW227066   4.107   2.825  15.359 -0.0081  1.0249 -0.5007
 5202SOL     OW27067   2.226   2.712  15.093 -0.4835 -0.6869 -0.1909
 5202SOL    HW127068   2.288   2.669  15.153  1.3914  0.3255 -1.4065
 5202SOL    HW227069   2.188   2.780  15.149  0.1649 -0.4001 -0.0939
 5203SOL     OW27070   0.400   1.133  15.286  0.1014 -0.1289 -0.9346
 5203SOL    HW127071   0.434   1.100  15.203 -0.1328  1.5213 -1.6758
 5203SOL    HW227072   0.324   1.076  15.295 -0.1474  0.2850 -0.3462
 5204SOL     OW27073   0.025   1.454  16.941  0.0327  0.2490 -0.8662
 5204SOL    HW127074   0.085   1.528  16.941  1.2783 -0.7631  0.3587
 5204SOL    HW227075   0.026   1.425  17.032  2.0392 -1.0973 -1.3073
 5205SOL     OW27076   0.240   1.663   7.427  0.2873  0.1691 -0.2557
 5205SOL    HW127077   0.210   1.726   7.363 -0.1551 -0.8857 -1.0871
 5205SOL    HW227078   0.327   1.700   7.443 -0.0188  0.8328 -0.1114
 5206SOL     OW27079   4.631   1.144  12.896 -0.4198  0.5319 -0.1224
 5206SOL    HW127080   4.703   1.206  12.907  0.3535 -0.4012  0.0903
 5206SOL    HW227081   4.675   1.059  12.890 -3.4211 -0.9688 -1.1421
 5207SOL     OW27082   2.705   0.097   0.996  0.2526  0.2045 -0.0465
 5207SOL    HW127083   2.736   0.179   1.033 -1.3663  0.9441 -0.3247
 5207SOL    HW227084   2.753   0.027   1.040  1.3138  1.3364  0.5905
 5208SOL     OW27085   2.906   0.892   7.177 -0.2110 -0.2146 -0.1339
 5208SOL    HW127086   3.002   0.895   7.171 -0.2177 -1.6456 -0.8921
 5208SOL    HW227087   2.910   0.849   7.263 -2.1417  1.7800  0.9489
 5209SOL     OW27088   2.573   3.495   8.199 -0.1974 -0.1341 -0.1004
 5209SOL    HW127089   2.641   3.547   8.156 -0.5036  1.4366  1.2921
 5209SOL    HW227090   2.528   3.566   8.245  1.7659  0.4616  0.8946
 5210SOL     OW27091   2.880   4.093   8.294  0.1183  0.1500  0.1921
 5210SOL    HW127092   2.827   4.130   8.224 -2.1996  0.1978  1.9628
 5210SOL    HW227093   2.837   4.139   8.366  1.8124  2.1280 -0.0574
 5211SOL     OW27094   4.507   0.495   2.638  0.6274 -0.1905 -0.6205
 5211SOL    HW127095   4.450   0.492   2.562 -0.6744 -1.5279  0.4129
 5211SOL    HW227096   4.497   0.583   2.675 -1.6992 -1.0933  0.9411
 5212SOL     OW27097   0.938   1.142   9.459 -0.2617  0.1130  0.9235
 5212SOL    HW127098   0.844   1.144   9.475 -0.5622 -1.6976 -0.5378
 5212SOL    HW227099   0.938   1.134   9.363  0.5950  1.5258  0.8157
 5213SOL     OW27100   0.628   1.832   0.266 -0.1975 -0.4258 -0.0346
 5213SOL    HW127101   0.620   1.927   0.277  1.2786 -0.5239  1.9540
 5213SOL    HW227102   0.690   1.822   0.194  0.2931  1.2355  0.1505
 5214SOL     OW27103   3.327   1.516   6.148 -0.0538 -0.0236 -0.1293
 5214SOL    HW127104   3.243   1.475   6.169  0.8883 -0.9186  1.8536
 5214SOL    HW227105   3.302   1.593   6.097 -1.1968  1.0888  2.0741
 5215SOL     OW27106   3.826   2.313   4.961  0.2664  0.8074 -0.5060
 5215SOL    HW127107   3.920   2.298   4.954  0.4112  0.6802  1.7099
 5215SOL    HW227108   3.827   2.394   5.013  0.3420  0.7916 -0.4830
 5216SOL     OW27109   2.272   2.541   2.539 -0.3023  0.1423 -0.3052
 5216SOL    HW127110   2.317   2.479   2.481 -2.0396 -1.6254  0.2362
 5216SOL    HW227111   2.314   2.627   2.539  0.6160 -0.2635  3.7027
 5217SOL     OW27112   4.585   4.718   7.834  0.2806  0.3054 -0.5048
 5217SOL    HW127113   4.629   4.716   7.919 -1.2634  0.1265  0.3011
 5217SOL    HW227114   4.598   0.078   7.794  0.3412  0.1533 -0.8106
 5218SOL     OW27115   3.109   3.812   2.107  0.2196 -0.0377 -0.1532
 5218SOL    HW127116   3.156   3.730   2.095 -2.7976 -1.7873  0.0831
 5218SOL    HW227117   3.088   3.808   2.200 -1.9259 -1.0644 -0.6982
 5219SOL     OW27118   0.301   0.928   1.651 -0.1504 -0.4539  1.3135
 5219SOL    HW127119   0.218   0.904   1.610  0.1242  1.8077 -0.5545
 5219SOL    HW227120   0.330   1.012   1.615 -0.1315 -1.8278 -1.7946
 5220SOL     OW27121   1.732   3.939   4.448 -0.0528  0.2350 -0.1324
 5220SOL    HW127122   1.680   3.980   4.517  1.1571 -2.2161  2.2438
 5220SOL    HW227123   1.815   3.932   4.496  0.1528 -0.4176 -0.5836
 5221SOL     OW27124   3.944   3.646   7.312 -0.7188  0.1704  0.1851
 5221SOL    HW127125   3.947   3.664   7.218 -0.5873 -0.4914  0.0655
 5221SOL    HW227126   3.953   3.551   7.316 -0.5502  0.0750 -2.4992
 5222SOL     OW27127   3.337   2.577   8.068  0.2297 -0.2472  0.4070
 5222SOL    HW127128   3.289   2.581   7.986 -0.6782 -1.9509  0.8529
 5222SOL    HW227129   3.398   2.512   8.032 -0.8871 -1.3599  0.5431
 5223SOL     OW27130   3.464   1.370  13.947 -0.4489 -0.3822 -0.1638
 5223SOL    HW127131   3.516   1.432  13.999  0.7454 -0.6789 -1.0004
 5223SOL    HW227132   3.377   1.395  13.977 -0.0755  0.5651  0.1426
 5224SOL     OW27133   1.987   1.120   7.966 -0.6642  0.2499 -0.5721
 5224SOL    HW127134   1.995   1.202   7.918  0.5256 -0.5791 -1.8001
 5224SOL    HW227135   1.969   1.052   7.900  2.0784 -0.7564 -0.2706
 5225SOL     OW27136   1.761   3.077   7.275  0.3074  0.4804 -0.3083
 5225SOL    HW127137   1.675   3.037   7.289 -0.7893  2.9115  0.0461
 5225SOL    HW227138   1.815   3.059   7.352  0.4280  2.0050 -0.0287
 5226SOL     OW27139   2.135   3.314   3.834  0.3358  0.3564 -0.4517
 5226SOL    HW127140   2.220   3.321   3.791 -0.0107 -0.8931 -1.3362
 5226SOL    HW227141   2.135   3.394   3.888 -0.1148  1.4486 -2.0692
 5227SOL     OW27142   3.892   2.707   9.690 -0.0676  0.6252 -0.3315
 5227SOL    HW127143   3.870   2.797   9.666 -0.8368  0.8436  1.2172
 5227SOL    HW227144   3.844   2.661   9.621 -3.2156  1.3917  1.3597
 5228SOL     OW27145   1.275   2.975   5.918  0.4782 -0.1037 -0.1989
 5228SOL    HW127146   1.311   3.039   5.980  0.7621 -1.5841  1.1805
 5228SOL    HW227147   1.220   3.015   5.851  0.5049 -0.1655 -0.2580
 5229SOL     OW27148   3.341   4.349   4.120 -0.4126 -0.6562  0.3156
 5229SOL    HW127149   3.413   4.350   4.183 -0.9940  1.9440  0.9127
 5229SOL    HW227150   3.313   4.440   4.112 -1.1746 -0.8242  1.0264
 5230SOL     OW27151   1.434   4.712  14.137  0.1402  0.2484 -0.1314
 5230SOL    HW127152   1.381   0.066  14.132  1.4831  1.2143  0.9332
 5230SOL    HW227153   1.517   0.014  14.175  0.5600  0.4695 -1.2101
 5231SOL     OW27154   0.695   1.636  14.384 -0.2838  0.2969 -0.5538
 5231SOL    HW127155   0.693   1.541  14.388 -0.4853  0.3314  0.3117
 5231SOL    HW227156   0.684   1.657  14.292  1.3824 -1.0625 -1.0445
 5232SOL     OW27157   2.190   1.319  12.953  0.3939  0.0421 -0.2394
 5232SOL    HW127158   2.189   1.229  12.923 -2.1584  0.0295 -0.1339
 5232SOL    HW227159   2.217   1.292  13.041 -0.6808  0.3007  0.1666
 5233SOL     OW27160   1.584   2.741   2.784  0.3197 -0.0703 -0.0140
 5233SOL    HW127161   1.618   2.691   2.858  0.9462 -1.7351 -1.4120
 5233SOL    HW227162   1.531   2.672   2.744  0.1926  0.8784 -1.4743
 5234SOL     OW27163   3.690   0.162   3.105  0.5082  0.1313 -0.0484
 5234SOL    HW127164   3.720   0.123   3.024 -0.5773 -0.3871 -0.1995
 5234SOL    HW227165   3.613   0.206   3.068  1.0592  0.0315 -1.3033
 5235SOL     OW27166   3.573   4.138   2.232 -0.1176 -0.5309  0.0224
 5235SOL    HW127167   3.499   4.187   2.196 -0.8162 -1.7280 -0.1625
 5235SOL    HW227168   3.630   4.124   2.156  0.6757  0.2703  0.4770
 5236SOL     OW27169   0.423   0.340   2.861 -0.7384  0.0040 -0.4734
 5236SOL    HW127170   0.402   0.348   2.954 -0.6205 -2.3928 -0.2224
 5236SOL    HW227171   0.420   0.430   2.830  0.1033  0.3767  0.5302
 5237SOL     OW27172   1.613   4.470   7.416 -0.1607 -0.5456 -0.5330
 5237SOL    HW127173   1.651   4.554   7.390  0.1813 -0.4133  0.4148
 5237SOL    HW227174   1.548   4.490   7.483  2.6840 -0.5538  2.2265
 5238SOL     OW27175   4.621   3.102   0.860 -0.2082  0.2573  0.0767
 5238SOL    HW127176   4.556   3.156   0.816  0.6879 -0.1529 -1.7208
 5238SOL    HW227177   4.585   3.016   0.836  0.8581  0.1132 -0.9990
 5239SOL     OW27178   1.790   2.567   7.221 -0.4506 -0.4741  0.6205
 5239SOL    HW127179   1.819   2.493   7.168  1.1677 -1.4302  2.8477
 5239SOL    HW227180   1.728   2.601   7.157 -2.1463 -1.1780  1.8878
 5240SOL     OW27181   3.707   2.369  14.098  0.4575  0.4890  0.1683
 5240SOL    HW127182   3.710   2.421  14.018 -2.5634 -1.6171 -1.2996
 5240SOL    HW227183   3.677   2.438  14.158  0.4620 -0.7315  1.5670
 5241SOL     OW27184   4.518   1.443  10.454  0.4517 -0.0716  0.1161
 5241SOL    HW127185   4.506   1.515  10.392 -0.6272 -0.7484 -0.4688
 5241SOL    HW227186   4.577   1.386  10.405  0.2314  1.1761 -1.5989
 5242SOL     OW27187   3.729   1.722  16.070  0.6276 -0.0744  0.1411
 5242SOL    HW127188   3.801   1.669  16.106  1.1070  0.4789  0.0021
 5242SOL    HW227189   3.674   1.725  16.148 -0.9195  0.4916 -0.9892
 5243SOL     OW27190   3.867   0.331  15.607  0.1050  0.3212 -0.5009
 5243SOL    HW127191   3.789   0.384  15.626  0.6959  1.8783 -2.4128
 5243SOL    HW227192   3.861   0.256  15.667  3.0053  0.1182 -0.4637
 5244SOL     OW27193   1.519   4.576  10.150 -0.2421 -0.2878  0.0172
 5244SOL    HW127194   1.430   4.607  10.130  0.7271 -0.0992 -4.0321
 5244SOL    HW227195   1.551   4.590  10.061 -2.2028  0.1540 -0.6175
 5245SOL     OW27196   0.780   3.552   8.893 -0.0721 -0.6675  0.4253
 5245SOL    HW127197   0.727   3.582   8.967 -1.9772 -0.9058 -0.8449
 5245SOL    HW227198   0.712   3.553   8.825 -0.0928 -0.3444  0.4501
 5246SOL     OW27199   0.142   2.998   0.736 -0.2160  0.1278 -0.5492
 5246SOL    HW127200   0.158   3.058   0.663 -0.8713  0.6655 -0.2431
 5246SOL    HW227201   0.049   3.009   0.755 -0.3093  0.0002 -0.9296
 5247SOL     OW27202   1.440   3.294   7.689  0.1988  0.4506 -0.4464
 5247SOL    HW127203   1.506   3.314   7.623  1.3901  0.9251  0.8696
 5247SOL    HW227204   1.434   3.201   7.669  2.7363 -0.1857  1.5664
 5248SOL     OW27205   0.459   1.445   8.576 -0.2058  0.4487 -0.0856
 5248SOL    HW127206   0.421   1.393   8.505  1.2526 -0.0479 -0.4940
 5248SOL    HW227207   0.383   1.481   8.622  1.0861 -0.0960  2.4931
 5249SOL     OW27208   0.438   3.947   8.595  0.3591 -0.4371  0.1588
 5249SOL    HW127209   0.386   3.879   8.552 -1.0148  1.2085 -0.7908
 5249SOL    HW227210   0.511   3.952   8.533 -1.1723 -3.4862 -1.8872
 5250SOL     OW27211   0.952   0.254   4.014  0.1534 -0.4267 -0.2474
 5250SOL    HW127212   0.939   0.249   4.108 -1.1672  0.2101 -0.4021
 5250SOL    HW227213   1.045   0.275   4.015 -0.3088  1.5761 -0.5766
 5251SOL     OW27214   2.975   4.215  10.080  0.0793 -0.2786  0.1037
 5251SOL    HW127215   2.910   4.148  10.103  0.5934 -0.5963  0.6192
 5251SOL    HW227216   2.922   4.294  10.069  1.8984  0.6375 -2.1039
 5252SOL     OW27217   3.386   4.654   1.136  0.1892 -0.5574  0.5433
 5252SOL    HW127218   3.382   4.619   1.047 -0.3650 -0.7826  0.6560
 5252SOL    HW227219   3.480   4.663   1.147  0.2134 -1.0600  0.7685
 5253SOL     OW27220   2.229   3.856   6.746  0.5533 -0.0224  0.1640
 5253SOL    HW127221   2.316   3.856   6.707  0.4378  0.3586 -0.0933
 5253SOL    HW227222   2.204   3.946   6.728 -0.2578 -0.3533 -0.4226
 5254SOL     OW27223   1.883   1.415   8.599  0.3772 -0.6871  0.0377
 5254SOL    HW127224   1.916   1.326   8.592 -1.1481 -1.2328 -0.1041
 5254SOL    HW227225   1.917   1.441   8.513  0.9533 -0.2262  0.3985
 5255SOL     OW27226   3.150   0.342  10.588 -0.3995  0.2787  0.3080
 5255SOL    HW127227   3.230   0.289  10.583 -0.1744  0.5054  1.5402
 5255SOL    HW227228   3.187   0.430  10.586 -2.3054  1.0572  0.1200
 5256SOL     OW27229   4.338   4.069  15.937  0.5542 -0.3966  0.0585
 5256SOL    HW127230   4.402   4.123  15.984  0.6109  1.3108 -1.9907
 5256SOL    HW227231   4.287   4.044  16.014 -1.9967 -0.5738 -1.7226
 5257SOL     OW27232   3.533   4.469   9.064  0.0574  0.2543 -0.8032
 5257SOL    HW127233   3.452   4.422   9.085  0.5178 -0.3627 -0.4235
 5257SOL    HW227234   3.561   4.489   9.153 -1.0826  0.2460 -0.4420
 5258SOL     OW27235   3.957   1.645  11.876 -0.0376  0.1117 -0.2845
 5258SOL    HW127236   3.943   1.615  11.966  0.2309  1.0641  0.0813
 5258SOL    HW227237   3.875   1.693  11.860  2.0322  2.7007 -3.0439
 5259SOL     OW27238   3.981   4.023  13.438 -0.4107  0.5133  0.1711
 5259SOL    HW127239   4.030   3.946  13.465 -1.7416 -0.4583 -0.1893
 5259SOL    HW227240   3.994   4.077  13.516  1.0282 -0.2259  0.4491
 5260SOL     OW27241   3.680   4.296  11.448 -0.1482 -0.1015  0.0549
 5260SOL    HW127242   3.638   4.341  11.521  0.9041  1.0454 -0.0477
 5260SOL    HW227243   3.718   4.375  11.410 -1.4769  1.2912  1.6405
 5261SOL     OW27244   3.556   0.486  13.264 -0.0680 -0.2305  0.0185
 5261SOL    HW127245   3.539   0.579  13.252 -2.8289 -0.6931  0.3740
 5261SOL    HW227246   3.474   0.452  13.228 -0.3047  0.6946 -0.3070
 5262SOL     OW27247   2.243   2.805  10.726  0.3404  0.4479 -0.7627
 5262SOL    HW127248   2.234   2.870  10.656  1.0708  2.2891  0.8481
 5262SOL    HW227249   2.150   2.789  10.742 -0.1857  3.8966 -0.2772
 5263SOL     OW27250   1.164   2.992   7.256  0.3770 -0.1370 -0.3763
 5263SOL    HW127251   1.120   2.920   7.300 -1.0599  2.0480  1.7503
 5263SOL    HW227252   1.086   3.043   7.231  0.1552 -0.1984  0.2084
 5264SOL     OW27253   3.884   4.342   8.248  0.4096 -0.5698  0.3569
 5264SOL    HW127254   3.795   4.325   8.276  0.5231  0.6086  1.4554
 5264SOL    HW227255   3.897   4.261   8.198 -1.2369 -0.0729 -0.8408
 5265SOL     OW27256   1.064   4.293   3.732 -0.1587  0.0767 -0.4388
 5265SOL    HW127257   1.038   4.201   3.729 -2.2441  0.6880 -1.4605
 5265SOL    HW227258   1.154   4.278   3.703 -1.4692 -1.5003 -3.7395
 5266SOL     OW27259   3.453   1.807   0.496  0.1811 -0.3421  0.1519
 5266SOL    HW127260   3.528   1.784   0.551 -0.5131  0.3749  1.3906
 5266SOL    HW227261   3.379   1.801   0.556  1.5973  1.4322  2.0643
 5267SOL     OW27262   0.550   4.213   4.476 -0.6140 -0.3689 -0.0741
 5267SOL    HW127263   0.626   4.246   4.427  0.6194  0.1376  2.2225
 5267SOL    HW227264   0.547   4.124   4.441 -2.2521 -0.6274  0.7395
 5268SOL     OW27265   3.826   0.973   6.323 -0.3853  0.7645 -1.0243
 5268SOL    HW127266   3.767   1.023   6.380 -0.0226  0.2645 -0.1992
 5268SOL    HW227267   3.908   0.980   6.371  0.7135 -0.6067 -2.7280
 5269SOL     OW27268   0.689   0.524   3.065 -0.5154  0.1721 -0.0432
 5269SOL    HW127269   0.706   0.431   3.047 -0.5122 -0.0728  1.2498
 5269SOL    HW227270   0.594   0.528   3.078 -0.6695 -1.5983 -0.5742
 5270SOL     OW27271   1.037   1.845   8.412 -0.7165  0.8985  0.1561
 5270SOL    HW127272   0.982   1.903   8.464  1.4135  1.8735  1.3037
 5270SOL    HW227273   1.075   1.906   8.349  1.0855 -2.2716 -1.8559
 5271SOL     OW27274   1.687   1.195   7.399  0.7778 -0.4367 -0.1731
 5271SOL    HW127275   1.710   1.185   7.492  1.2076  1.0123 -0.1236
 5271SOL    HW227276   1.617   1.261   7.397  1.2441  0.0838  0.6712
 5272SOL     OW27277   1.355   1.689   5.620  0.0125  0.0159 -0.0398
 5272SOL    HW127278   1.353   1.671   5.526  1.5050  1.0369 -0.2525
 5272SOL    HW227279   1.309   1.772   5.629  0.0340 -0.0190  0.4260
 5273SOL     OW27280   3.446   4.446   8.411 -0.3408  0.4401 -0.3808
 5273SOL    HW127281   3.463   4.505   8.485 -1.9354 -0.3341  0.6152
 5273SOL    HW227282   3.373   4.390   8.437 -1.3531  1.9581  0.0360
 5274SOL     OW27283   4.486   3.209   4.590  0.8071 -0.8365 -0.2979
 5274SOL    HW127284   4.403   3.256   4.587  1.2140 -0.0344  1.2101
 5274SOL    HW227285   4.465   3.115   4.588  2.0798 -1.1348 -0.0104
 5275SOL     OW27286   0.341   4.145  12.114 -0.1367 -0.2351  0.1161
 5275SOL    HW127287   0.418   4.191  12.147  1.6896 -1.7862 -1.9985
 5275SOL    HW227288   0.379   4.104  12.036 -1.3891  1.4240 -1.3761
 5276SOL     OW27289   3.039   0.592  16.535 -0.0279  0.0511  0.3978
 5276SOL    HW127290   2.990   0.543  16.601  1.3203 -0.3113  1.1162
 5276SOL    HW227291   3.040   0.536  16.457  1.1700  2.5215 -1.3560
 5277SOL     OW27292   1.005   1.678   9.329  0.0181  0.1147 -0.5572
 5277SOL    HW127293   1.039   1.591   9.309  1.5597  0.6092 -0.0611
 5277SOL    HW227294   1.029   1.695   9.420 -0.9155 -3.2680  0.3231
 5278SOL     OW27295   0.333   1.120   3.314 -0.1412 -0.1703 -0.3936
 5278SOL    HW127296   0.356   1.151   3.402  1.3818 -1.5003 -0.3315
 5278SOL    HW227297   0.390   1.043   3.313  1.9063  1.3504 -0.8288
 5279SOL     OW27298   4.193   3.935   6.720 -0.1593 -0.0343  0.3344
 5279SOL    HW127299   4.098   3.948   6.725 -0.1534  0.8485 -1.7648
 5279SOL    HW227300   4.192   3.843   6.745 -1.4802 -0.5145 -1.4982
 5280SOL     OW27301   3.353   2.351   7.331 -0.0767 -0.0244  0.7059
 5280SOL    HW127302   3.300   2.276   7.305 -0.9334  0.0291  2.2885
 5280SOL    HW227303   3.333   2.352   7.424 -1.0452 -1.8883  0.5190
 5281SOL     OW27304   1.166   3.171   4.895  0.0153 -0.0389 -0.4477
 5281SOL    HW127305   1.188   3.239   4.959  2.6288 -0.7068 -0.6541
 5281SOL    HW227306   1.250   3.126   4.890 -0.4241 -1.1978  2.4492
 5282SOL     OW27307   3.616   0.096  14.304  0.5314 -0.6716 -0.1410
 5282SOL    HW127308   3.593   0.157  14.234 -0.2583 -1.1147 -0.2689
 5282SOL    HW227309   3.710   0.113  14.306  0.2891  0.2631  3.2757
 5283SOL     OW27310   0.454   1.785   5.445 -0.0473  0.2514  0.6721
 5283SOL    HW127311   0.414   1.824   5.367  1.8429  1.5086  0.3474
 5283SOL    HW227312   0.527   1.737   5.405  0.1480  0.8434  0.3209
 5284SOL     OW27313   2.075   3.996   2.033 -0.5039 -0.0244 -0.3035
 5284SOL    HW127314   2.109   4.079   2.069 -3.2288  0.8326  0.2388
 5284SOL    HW227315   2.147   3.934   2.045 -0.3528  0.2000 -0.0435
 5285SOL     OW27316   3.456   4.303  11.251 -0.3844  0.0840  0.4681
 5285SOL    HW127317   3.507   4.382  11.269  1.6781 -1.7399  2.7852
 5285SOL    HW227318   3.461   4.252  11.332 -1.1483 -1.2032 -0.2979
 5286SOL     OW27319   1.064   1.143   0.937  0.3712 -0.3058 -0.2032
 5286SOL    HW127320   1.065   1.189   0.852 -0.2463  0.9442  0.4667
 5286SOL    HW227321   1.074   1.055   0.902  1.8351  0.3792 -1.5469
 5287SOL     OW27322   1.109   3.902   5.080  0.1796 -0.1987 -0.6056
 5287SOL    HW127323   1.197   3.935   5.102  0.4290 -1.0350 -0.3604
 5287SOL    HW227324   1.091   3.953   5.001  0.9311 -2.4295 -2.2095
 5288SOL     OW27325   1.464   3.513  13.441 -0.0042 -0.3078 -0.1569
 5288SOL    HW127326   1.559   3.520  13.426  0.0255 -0.4941 -0.0555
 5288SOL    HW227327   1.438   3.602  13.416  0.4742 -0.4136 -1.0413
 5289SOL     OW27328   1.903   2.313   4.965 -0.1289  0.2484  0.3264
 5289SOL    HW127329   1.855   2.316   5.048  0.8771  3.5953  0.8126
 5289SOL    HW227330   1.849   2.254   4.913 -0.2581  1.3799 -0.8262
 5290SOL     OW27331   3.284   2.921   0.758  0.7625 -0.0753  0.1575
 5290SOL    HW127332   3.241   2.850   0.709 -0.5301  0.6497  0.2553
 5290SOL    HW227333   3.316   2.976   0.686  0.2863 -0.2569 -0.1926
 5291SOL     OW27334   2.931   2.176   9.217 -0.2182  0.9100  0.3426
 5291SOL    HW127335   2.922   2.172   9.312  1.0748  2.1416  0.5158
 5291SOL    HW227336   2.880   2.104   9.180  0.7570  0.3693  0.0566
 5292SOL     OW27337   2.269   2.340   1.796  0.0953  0.5237 -0.1181
 5292SOL    HW127338   2.355   2.308   1.823  0.0819  2.3162  1.9930
 5292SOL    HW227339   2.299   2.424   1.762  1.3133  1.4744  3.3705
 5293SOL     OW27340   2.072   0.836   0.416 -0.1702 -0.1736 -0.0262
 5293SOL    HW127341   2.003   0.785   0.373 -1.8851  1.3381  0.9454
 5293SOL    HW227342   2.144   0.777   0.396 -0.4077 -1.1166  1.9565
 5294SOL     OW27343   0.394   2.913   8.917 -0.8031  0.5274  0.2737
 5294SOL    HW127344   0.347   2.978   8.865 -2.9156 -1.3602 -0.1834
 5294SOL    HW227345   0.341   2.886   8.992 -1.4257 -1.5387 -0.8954
 5295SOL     OW27346   3.276   3.937   6.634 -0.0593 -0.2962  0.0447
 5295SOL    HW127347   3.231   3.993   6.572 -1.1316 -0.3073  0.8195
 5295SOL    HW227348   3.360   3.926   6.588  0.5775 -1.4662  1.4494
 5296SOL     OW27349   3.262   1.936   9.896  0.4704  0.2423  0.0910
 5296SOL    HW127350   3.278   1.848   9.863  1.2098  0.4145 -0.0114
 5296SOL    HW227351   3.288   1.935   9.988 -0.9480 -0.9297  0.4726
 5297SOL     OW27352   1.689   2.622   6.038  0.2137  0.2918 -1.0325
 5297SOL    HW127353   1.774   2.638   6.079 -0.4271  1.3399 -0.1253
 5297SOL    HW227354   1.681   2.530   6.062  2.4001  0.2773 -0.3722
 5298SOL     OW27355   3.954   2.641   3.266 -0.1856 -0.2831  0.1072
 5298SOL    HW127356   3.991   2.669   3.182  0.2314 -0.2084  0.3185
 5298SOL    HW227357   3.977   2.717   3.319 -1.0106  0.9974 -1.3584
 5299SOL     OW27358   0.879   4.643   8.572 -0.4730 -0.4041  0.2741
 5299SOL    HW127359   0.945   4.600   8.625  0.1270 -1.6074 -1.4599
 5299SOL    HW227360   0.906   4.639   8.481  1.2662  2.4528  0.6512
 5300SOL     OW27361   1.175   2.574   8.688 -0.0711  0.8529  0.4187
 5300SOL    HW127362   1.200   2.489   8.724 -2.8416  0.2656  0.9701
 5300SOL    HW227363   1.100   2.551   8.634  0.1609 -1.6044  1.1147
 5301SOL     OW27364   2.317   0.906  15.119  0.2849  0.6196  0.0328
 5301SOL    HW127365   2.239   0.852  15.104 -0.8476  2.0262  0.8218
 5301SOL    HW227366   2.361   0.837  15.168 -0.5439  0.7281  0.9441
 5302SOL     OW27367   4.364   3.540  15.949 -0.0351  0.2599  0.4462
 5302SOL    HW127368   4.440   3.549  16.007  1.0118 -3.0610 -0.4161
 5302SOL    HW227369   4.347   3.634  15.945  0.0115  0.1586 -2.0344
 5303SOL     OW27370   2.831   3.262   8.625  0.5150 -0.0402  0.1932
 5303SOL    HW127371   2.813   3.264   8.531  3.4498  0.7518 -0.3441
 5303SOL    HW227372   2.858   3.170   8.634 -1.8687 -1.0945 -3.5112
 5304SOL     OW27373   2.676   3.658  12.556  0.0566 -0.2609  0.0079
 5304SOL    HW127374   2.762   3.700  12.554 -0.0759 -0.0426 -1.8003
 5304SOL    HW227375   2.651   3.661  12.463 -1.8996  2.0257  0.6148
 5305SOL     OW27376   1.313   2.859   9.438 -0.1639  0.1650 -0.5187
 5305SOL    HW127377   1.274   2.854   9.351 -0.6628 -1.0781 -0.2284
 5305SOL    HW227378   1.400   2.830   9.411  0.7426  2.1896  0.2415
 5306SOL     OW27379   0.368   1.230  12.759  0.3018 -0.0832  0.2164
 5306SOL    HW127380   0.374   1.140  12.725 -0.2162 -1.1522  2.9465
 5306SOL    HW227381   0.401   1.274  12.681 -0.4800 -1.1360 -0.7015
 5307SOL     OW27382   4.538   3.399   6.121 -0.3270 -0.4432 -0.0995
 5307SOL    HW127383   4.630   3.420   6.108  0.1997 -1.4449  1.9755
 5307SOL    HW227384   4.511   3.483   6.160  1.9018  0.2645 -0.0990
 5308SOL     OW27385   3.567   0.099   7.865 -0.6253 -0.1762 -0.1529
 5308SOL    HW127386   3.645   0.048   7.840 -0.2971  0.0214  0.4661
 5308SOL    HW227387   3.606   0.165   7.922  0.1243 -1.4056  0.7444
 5309SOL     OW27388   3.697   1.432   8.823 -0.2011  0.0750 -0.1013
 5309SOL    HW127389   3.789   1.420   8.847 -0.1023  1.2080  0.0601
 5309SOL    HW227390   3.691   1.350   8.774 -0.6566  0.9410 -1.4840
 5310SOL     OW27391   3.794   4.574   1.499 -0.1936  0.1248  0.2917
 5310SOL    HW127392   3.752   4.490   1.478 -1.7508  0.3058  2.6609
 5310SOL    HW227393   3.875   4.545   1.539  0.3996 -1.4597 -2.0252
 5311SOL     OW27394   0.665   2.885   7.498 -0.6682 -0.4225 -0.3135
 5311SOL    HW127395   0.573   2.912   7.495 -1.6614 -3.5311  2.6960
 5311SOL    HW227396   0.706   2.943   7.433 -0.2524 -0.1199  0.2237
 5312SOL     OW27397   4.267   3.026   3.462  0.1598 -0.0813  0.2385
 5312SOL    HW127398   4.335   3.094   3.458 -0.0566  0.0599 -0.8613
 5312SOL    HW227399   4.209   3.063   3.396 -0.4046 -0.3387  0.5938
 5313SOL     OW27400   2.814   4.377   5.616 -0.3925  0.2771  0.0945
 5313SOL    HW127401   2.892   4.408   5.570 -0.1291 -1.8975 -0.9622
 5313SOL    HW227402   2.776   4.460   5.643 -0.2634  0.6679 -0.9342
 5314SOL     OW27403   2.648   3.086  10.601  0.0342 -0.0874 -0.6755
 5314SOL    HW127404   2.691   3.044  10.526  0.2367 -1.0301 -0.0208
 5314SOL    HW227405   2.582   3.134  10.550 -1.0566 -0.8161  0.0455
 5315SOL     OW27406   1.878   2.159   4.535 -0.0694  0.2950 -0.0707
 5315SOL    HW127407   1.890   2.167   4.440  0.3386  5.0234  0.3842
 5315SOL    HW227408   1.879   2.245   4.575 -3.4686  1.5192 -2.6550
 5316SOL     OW27409   3.867   1.767   4.499 -0.2869  0.0153 -0.1083
 5316SOL    HW127410   3.940   1.807   4.451 -0.7704  0.2175 -0.6797
 5316SOL    HW227411   3.874   1.678   4.464 -0.4328  0.0208 -0.1509
 5317SOL     OW27412   0.143   2.997   4.889  0.2908  0.2537 -0.0132
 5317SOL    HW127413   0.210   2.939   4.926 -0.4620 -0.4741  0.2181
 5317SOL    HW227414   0.086   2.929   4.852 -0.4780  0.3942  0.9028
 5318SOL     OW27415   1.366   1.884   6.884 -0.5553  0.4188  0.2277
 5318SOL    HW127416   1.409   1.809   6.843 -1.4746  0.7781 -1.3739
 5318SOL    HW227417   1.332   1.835   6.959  0.4799 -0.2967  0.2389
 5319SOL     OW27418   0.774   0.841   6.226 -0.0544  0.3482  0.2827
 5319SOL    HW127419   0.752   0.900   6.154 -0.7254  1.2487  1.2185
 5319SOL    HW227420   0.727   0.892   6.292  2.4763  0.1041  2.2942
 5320SOL     OW27421   3.060   3.138   8.137 -0.0539 -0.7017 -0.0783
 5320SOL    HW127422   3.092   3.070   8.077 -1.1899 -2.4102  1.2665
 5320SOL    HW227423   2.985   3.092   8.173  0.1215  0.5863  1.9408
 5321SOL     OW27424   4.589   3.883  11.690  0.4888  0.5174  0.4776
 5321SOL    HW127425   4.592   3.879  11.594  0.9316  0.1663  0.5034
 5321SOL    HW227426   4.600   3.978  11.693  1.2118  0.3600  2.9182
 5322SOL     OW27427   3.230   3.420   9.587  0.0603 -0.0582 -0.4601
 5322SOL    HW127428   3.218   3.455   9.499 -4.2152 -0.8960 -0.1744
 5322SOL    HW227429   3.205   3.329   9.573  1.8110 -0.4529 -1.0805
 5323SOL     OW27430   3.689   3.567   6.357  0.0012 -0.4242 -0.0078
 5323SOL    HW127431   3.723   3.655   6.371  0.7730 -0.9331  1.3902
 5323SOL    HW227432   3.733   3.513   6.423  0.5818  3.6931  2.9298
 5324SOL     OW27433   0.169   1.593  12.426  0.0048  0.3337  0.5970
 5324SOL    HW127434   0.149   1.654  12.355  0.3380  1.7139  1.6620
 5324SOL    HW227435   0.257   1.618  12.455  0.7152 -1.7971  0.2633
 5325SOL     OW27436   2.563   2.641   9.296 -0.4571  0.3268 -0.1938
 5325SOL    HW127437   2.523   2.573   9.351 -1.0797 -0.1645 -1.2592
 5325SOL    HW227438   2.490   2.689   9.258  0.9330  0.7945 -2.2628
 5326SOL     OW27439   2.307   0.815   9.278  0.1334 -0.0887 -0.2716
 5326SOL    HW127440   2.348   0.849   9.358  0.3742  1.9085 -1.2271
 5326SOL    HW227441   2.385   0.798   9.225 -0.0954 -1.0127 -0.3074
 5327SOL     OW27442   1.886   0.824   3.030 -0.2484 -0.0061 -0.3773
 5327SOL    HW127443   1.886   0.762   2.957  1.2614 -2.8676  2.0552
 5327SOL    HW227444   1.886   0.763   3.104  2.2273  1.3480  0.7322
 5328SOL     OW27445   3.510   4.268   2.841  0.9870 -0.1191 -0.2531
 5328SOL    HW127446   3.443   4.278   2.774  0.8310 -0.5031 -0.1554
 5328SOL    HW227447   3.582   4.236   2.786  0.9334  0.7685 -0.8470
 5329SOL     OW27448   3.393   3.307   5.799  0.0415  0.0359  0.0096
 5329SOL    HW127449   3.371   3.330   5.889 -0.7058  1.0192 -0.4232
 5329SOL    HW227450   3.454   3.236   5.819 -0.5587 -0.0317  1.5920
 5330SOL     OW27451   3.481   3.826  11.775  0.3198  0.2526 -0.5666
 5330SOL    HW127452   3.541   3.817  11.849  1.3542  0.2982 -1.3922
 5330SOL    HW227453   3.542   3.814  11.702 -0.1719 -3.2343 -0.3982
 5331SOL     OW27454   4.634   1.494   4.495 -0.3778 -0.0864  0.1795
 5331SOL    HW127455   4.718   1.450   4.511 -1.2363 -1.3979  1.0941
 5331SOL    HW227456   4.572   1.421   4.500 -0.2931 -0.2597 -1.5625
 5332SOL     OW27457   2.451   4.450   4.438 -0.5183  0.0692  0.5505
 5332SOL    HW127458   2.409   4.371   4.405 -0.6051  0.1461  0.4761
 5332SOL    HW227459   2.377   4.483   4.488 -0.7628  1.6089 -0.8513
 5333SOL     OW27460   2.655   0.396   2.938 -0.1970 -0.6255 -0.7900
 5333SOL    HW127461   2.672   0.314   2.986 -1.1042 -0.7281 -0.6354
 5333SOL    HW227462   2.602   0.446   3.000 -0.3158  1.1860 -2.3772
 5334SOL     OW27463   2.073   1.667   9.182  0.0217  0.2462  0.1592
 5334SOL    HW127464   2.137   1.598   9.166 -1.7524 -1.6942  1.5353
 5334SOL    HW227465   2.007   1.613   9.225  2.0183 -0.4887  2.3081
 5335SOL     OW27466   1.033   4.238  16.199  0.9155  0.6912 -0.5025
 5335SOL    HW127467   1.069   4.149  16.192  2.6655  1.1538  2.8621
 5335SOL    HW227468   1.006   4.251  16.108  2.2271 -0.8398 -1.0993
 5336SOL     OW27469   1.981   1.890   6.209 -0.2623 -0.1487  0.5343
 5336SOL    HW127470   2.054   1.898   6.147  0.6902 -0.4776  1.6215
 5336SOL    HW227471   1.913   1.875   6.143  0.9290  0.4232 -0.8233
 5337SOL     OW27472   3.358   0.617   7.693 -0.6587  0.3406  0.0708
 5337SOL    HW127473   3.363   0.548   7.760 -3.1092 -0.2530 -0.3639
 5337SOL    HW227474   3.330   0.695   7.741  0.2516 -0.1144  1.3514
 5338SOL     OW27475   0.522   3.677   4.375 -0.5503 -0.1213  0.0715
 5338SOL    HW127476   0.596   3.695   4.317 -1.6294  1.0100 -0.9195
 5338SOL    HW227477   0.536   3.582   4.370  0.2267  0.1906 -3.3120
 5339SOL     OW27478   1.689   1.341   2.325 -0.0973  0.1547  0.3896
 5339SOL    HW127479   1.712   1.291   2.246 -1.0787 -0.4596  0.4920
 5339SOL    HW227480   1.726   1.285   2.393  1.2652  0.4204 -0.1410
 5340SOL     OW27481   3.371   1.311  15.448  0.3783  0.3057  0.1859
 5340SOL    HW127482   3.414   1.257  15.514  0.5103 -1.8199 -1.6248
 5340SOL    HW227483   3.285   1.267  15.447 -0.5233  2.0718  0.3336
 5341SOL     OW27484   0.214   0.736   8.443  0.1929 -0.5022  0.2233
 5341SOL    HW127485   0.154   0.808   8.425  0.1371 -0.8969 -1.1837
 5341SOL    HW227486   0.215   0.735   8.539 -0.5293 -0.5145  0.2245
 5342SOL     OW27487   2.055   1.047  11.104  0.4535 -0.0654 -0.0421
 5342SOL    HW127488   2.094   1.056  11.190  0.4350 -2.3280  0.1947
 5342SOL    HW227489   2.001   0.970  11.122  0.8943  0.1202  2.0585
 5343SOL     OW27490   1.453   4.000   8.486 -0.3775  0.7107  0.1900
 5343SOL    HW127491   1.495   3.938   8.427 -1.2210  1.8407 -1.6223
 5343SOL    HW227492   1.386   3.942   8.521 -0.3820 -0.5764 -1.9401
 5344SOL     OW27493   2.944   4.106   6.650  0.2495  0.4746 -0.3838
 5344SOL    HW127494   2.915   4.021   6.619 -0.3162  0.9215 -1.0856
 5344SOL    HW227495   2.963   4.147   6.565 -0.4760 -3.0228 -2.2108
 5345SOL     OW27496   4.281   2.026  15.505 -0.3415 -0.5666 -0.7675
 5345SOL    HW127497   4.280   2.033  15.409  0.7754 -0.0469 -0.7409
 5345SOL    HW227498   4.342   1.954  15.519 -0.9615 -0.5090  2.1686
 5346SOL     OW27499   4.563   4.519   0.259 -0.1458 -0.0871 -0.0970
 5346SOL    HW127500   4.622   4.454   0.298  1.1001  0.3731 -1.2009
 5346SOL    HW227501   4.487   4.471   0.227  1.1750 -0.7363 -2.3082
 5347SOL     OW27502   2.443   3.217  10.452 -0.0243  0.5968 -0.4225
 5347SOL    HW127503   2.380   3.269  10.502 -0.3231 -1.2407  1.0932
 5347SOL    HW227504   2.402   3.213  10.365 -3.2747  0.3491  1.1320
 5348SOL     OW27505   1.371   0.124   9.506  0.1129 -0.6008  0.7675
 5348SOL    HW127506   1.361   0.160   9.417  1.5258  0.4265  1.0313
 5348SOL    HW227507   1.415   0.195   9.551  0.4135  1.3455 -2.5503
 5349SOL     OW27508   0.609   1.016   8.482 -0.1606 -0.6042  0.0365
 5349SOL    HW127509   0.578   1.055   8.563 -1.0610  1.1500 -1.1642
 5349SOL    HW227510   0.578   0.926   8.483  1.0882 -1.0037  1.8481
 5350SOL     OW27511   1.173   2.056  17.548 -0.3996  0.2105  0.0260
 5350SOL    HW127512   1.226   2.086  17.622 -0.4216  1.3845 -0.4248
 5350SOL    HW227513   1.155   1.969  17.585  0.1019  0.0093 -0.2121
 5351SOL     OW27514   1.421   3.042   5.159 -0.6449  0.2898  0.4565
 5351SOL    HW127515   1.482   2.981   5.200  0.6301  0.6588 -0.9192
 5351SOL    HW227516   1.455   3.130   5.177 -0.5900  0.4826 -0.5777
 5352SOL     OW27517   0.575   1.680   4.719  0.4041  0.3601  0.1433
 5352SOL    HW127518   0.487   1.661   4.753  0.3158 -0.7646 -0.7107
 5352SOL    HW227519   0.561   1.696   4.626  4.0681 -0.4817 -0.5527
 5353SOL     OW27520   1.350   3.935   7.013 -0.3600 -0.2700  0.2009
 5353SOL    HW127521   1.369   3.989   6.937  0.2451 -0.6387  0.0988
 5353SOL    HW227522   1.330   3.852   6.971  1.5803 -0.7302  0.1963
 5354SOL     OW27523   0.102   0.273   7.469  0.2677  0.8872 -0.3136
 5354SOL    HW127524   0.138   0.243   7.386  1.5925 -0.1052  0.5990
 5354SOL    HW227525   0.015   0.238   7.453  0.0575  0.7522  1.1121
 5355SOL     OW27526   3.077   4.165   5.818  0.1018  0.0821  0.0558
 5355SOL    HW127527   3.135   4.201   5.751  1.9414 -2.2740  0.3851
 5355SOL    HW227528   3.104   4.215   5.895  2.1434 -1.7350  0.5388
 5356SOL     OW27529   1.671   4.142   2.512  0.2027 -0.2312 -0.0225
 5356SOL    HW127530   1.599   4.178   2.459  1.5275 -0.7561 -2.1967
 5356SOL    HW227531   1.706   4.223   2.550 -1.5780  0.3218  0.4459
 5357SOL     OW27532   0.309   4.424  11.964  0.1675 -0.4397 -0.0302
 5357SOL    HW127533   0.277   4.497  12.017 -0.2365 -1.1674  0.7311
 5357SOL    HW227534   0.290   4.350  12.022  1.7422 -0.4785  0.4350
 5358SOL     OW27535   2.167   1.275   6.787 -0.1374  0.4377  0.8473
 5358SOL    HW127536   2.224   1.257   6.862  2.2193  0.4936 -0.9406
 5358SOL    HW227537   2.240   1.298   6.729  1.0436  1.5413  2.7948
 5359SOL     OW27538   0.754   0.623  12.244  0.3333  0.2421 -0.7625
 5359SOL    HW127539   0.726   0.714  12.252 -1.7818 -0.2724 -2.2955
 5359SOL    HW227540   0.703   0.586  12.317  1.1727 -1.4139 -1.0077
 5360SOL     OW27541   0.078   2.593  12.799 -0.0566 -0.5278 -0.1688
 5360SOL    HW127542   4.714   2.563  12.813  1.0262 -3.5994  0.4214
 5360SOL    HW227543   0.087   2.684  12.825  0.2751 -0.7346  0.4473
 5361SOL     OW27544   0.526   1.852   3.054  0.3580 -0.1454 -0.1267
 5361SOL    HW127545   0.606   1.902   3.037  0.8006 -0.8454 -0.0901
 5361SOL    HW227546   0.464   1.921   3.031 -1.2917 -2.1146 -1.6361
 5362SOL     OW27547   3.570   2.273   9.682 -0.0840  0.0882 -0.1297
 5362SOL    HW127548   3.513   2.224   9.742 -0.1169 -0.9249 -0.9817
 5362SOL    HW227549   3.532   2.360   9.682 -1.2587 -0.4259  2.6988
 5363SOL     OW27550   2.885   0.776   8.760 -0.3212 -0.2034  0.2064
 5363SOL    HW127551   2.817   0.838   8.786 -0.3505 -0.9091  1.8266
 5363SOL    HW227552   2.835   0.695   8.770  1.5785 -1.2183  1.5378
 5364SOL     OW27553   4.040   4.388   1.581 -0.3848 -0.0660 -0.2017
 5364SOL    HW127554   4.111   4.327   1.598 -0.4713 -0.1659 -0.1973
 5364SOL    HW227555   4.049   4.383   1.485 -0.7683 -0.7348 -0.2067
 5365SOL     OW27556   2.831   0.183   6.716 -0.2826 -0.3437 -0.1304
 5365SOL    HW127557   2.843   0.097   6.758  0.4549 -0.0444  0.2752
 5365SOL    HW227558   2.876   0.163   6.634  1.4525  2.2943  0.1713
 5366SOL     OW27559   3.339   3.984   6.969  0.3185  0.9134 -0.0956
 5366SOL    HW127560   3.408   4.033   7.014  0.1993  0.4516  0.5771
 5366SOL    HW227561   3.378   3.953   6.887 -0.8154 -1.9172  0.4626
 5367SOL     OW27562   0.961   3.151   3.625 -0.3153  0.1789  0.0534
 5367SOL    HW127563   0.934   3.121   3.712 -0.0424 -0.2850 -0.0284
 5367SOL    HW227564   0.880   3.187   3.588 -0.8978 -2.3058 -1.0500
 5368SOL     OW27565   1.861   3.127   6.031 -0.2085 -0.6865 -0.3267
 5368SOL    HW127566   1.941   3.164   6.068  0.0898 -0.2244 -1.4417
 5368SOL    HW227567   1.850   3.056   6.095 -2.3657  0.6712  0.8173
 5369SOL     OW27568   2.252   3.108  14.439 -0.2306 -0.0111  0.4009
 5369SOL    HW127569   2.335   3.155  14.430 -0.6015  0.7183  0.8070
 5369SOL    HW227570   2.266   3.080  14.530  1.2495 -1.9518 -0.4346
 5370SOL     OW27571   0.468   3.584   4.114  1.1401  0.0611  0.3550
 5370SOL    HW127572   0.525   3.658   4.094  2.6057 -0.5063  2.4917
 5370SOL    HW227573   0.407   3.620   4.177 -1.5318  2.8791 -3.8462
 5371SOL     OW27574   3.937   0.419   1.429 -0.3835  0.2711 -0.1828
 5371SOL    HW127575   3.989   0.381   1.500  0.4491  0.8873 -0.4600
 5371SOL    HW227576   4.011   0.440   1.373 -0.9105  0.8017 -0.6788
 5372SOL     OW27577   3.426   0.937  12.728  0.6019  0.1961  0.3639
 5372SOL    HW127578   3.358   0.927  12.794  1.2356  1.9847  1.2648
 5372SOL    HW227579   3.401   0.865  12.670 -1.7318  0.2937  1.2453
 5373SOL     OW27580   3.616   1.042   1.638  0.0948  0.5919  0.6621
 5373SOL    HW127581   3.692   0.988   1.617 -0.0466  1.1919 -1.4270
 5373SOL    HW227582   3.552   0.982   1.677 -0.7042 -0.0249 -1.5415
 5374SOL     OW27583   0.534   4.388  15.087  0.4729 -0.2961 -0.7548
 5374SOL    HW127584   0.596   4.458  15.071  0.5371 -0.1316  0.2412
 5374SOL    HW227585   0.576   4.311  15.047 -0.8790 -1.5457  0.2097
 5375SOL     OW27586   3.017   0.204  12.909 -0.9979 -0.2019  0.2547
 5375SOL    HW127587   3.069   0.124  12.918 -1.1799 -0.6182 -2.3467
 5375SOL    HW227588   2.981   0.220  12.996  0.4929 -0.2057  0.8855
 5376SOL     OW27589   2.148   3.484   0.043  0.3151  0.3928  0.1012
 5376SOL    HW127590   2.222   3.475   0.103  0.8556 -0.5754 -0.7081
 5376SOL    HW227591   2.082   3.444   0.101 -1.5712  0.0667 -2.2657
 5377SOL     OW27592   2.832   3.275   0.038  0.4239 -0.1542 -0.2928
 5377SOL    HW127593   2.912   3.249  17.698  0.4077 -0.2782 -0.2482
 5377SOL    HW227594   2.807   3.355  17.695  1.5227 -0.1820 -0.9189
 5378SOL     OW27595   2.072   0.733   2.689 -0.4055  1.1093  0.2614
 5378SOL    HW127596   1.994   0.708   2.738  0.0647 -0.3720  0.2445
 5378SOL    HW227597   2.146   0.702   2.740  0.3342 -0.7672 -1.9413
 5379SOL     OW27598   0.844   0.256   7.169  0.7175  0.2370 -0.3766
 5379SOL    HW127599   0.927   0.245   7.122 -0.1053  1.1367 -2.0031
 5379SOL    HW227600   0.810   0.167   7.165  0.2578  0.4445 -1.0171
 5380SOL     OW27601   1.157   4.592   7.982  0.3387 -0.1711  0.1591
 5380SOL    HW127602   1.129   4.683   7.984  2.0601  0.4041 -1.8405
 5380SOL    HW227603   1.079   4.537   7.986 -0.6997  1.3622  0.7510
 5381SOL     OW27604   3.711   0.217   3.968  0.2530  0.2765  1.3299
 5381SOL    HW127605   3.623   0.188   3.942  0.4224  1.4018 -0.4571
 5381SOL    HW227606   3.749   0.223   3.880 -0.8633  0.0403  0.8341
 5382SOL     OW27607   0.245   1.435   5.377 -0.0981 -0.1194  0.2698
 5382SOL    HW127608   0.256   1.474   5.464 -0.1938 -1.0238  0.6823
 5382SOL    HW227609   0.249   1.515   5.324 -0.7010 -0.9456 -1.0406
 5383SOL     OW27610   1.363   2.335   7.171 -0.3438  0.1845 -0.8570
 5383SOL    HW127611   1.291   2.282   7.206  0.2673  1.5548  2.4277
 5383SOL    HW227612   1.411   2.271   7.118 -1.2781 -0.6341 -0.7301
 5384SOL     OW27613   4.210   0.159   0.713  0.1193  0.0388  0.2569
 5384SOL    HW127614   4.280   0.225   0.706  0.0865  0.1977  1.3326
 5384SOL    HW227615   4.195   0.133   0.622 -1.9935  1.4064  0.2088
 5385SOL     OW27616   4.413   3.199   8.951 -0.5863  0.4200  0.5069
 5385SOL    HW127617   4.452   3.199   9.039  0.0114  1.3367  0.2397
 5385SOL    HW227618   4.479   3.219   8.886 -1.6933  0.5645 -0.5698
 5386SOL     OW27619   2.620   3.364  13.001 -0.7205 -0.3354  0.2778
 5386SOL    HW127620   2.554   3.382  12.934 -1.4082  0.7661  1.2522
 5386SOL    HW227621   2.671   3.297  12.955 -0.8008  0.9956 -1.7959
 5387SOL     OW27622   4.440   0.460   5.654  0.5605 -0.6677  0.1697
 5387SOL    HW127623   4.509   0.463   5.721  0.3965  0.1061  0.3035
 5387SOL    HW227624   4.494   0.492   5.582 -1.6191  0.3115 -1.0156
 5388SOL     OW27625   1.623   3.426  11.587 -0.9023 -0.2236 -0.4300
 5388SOL    HW127626   1.612   3.520  11.603  1.8109 -0.1342  0.9157
 5388SOL    HW227627   1.711   3.410  11.622 -0.8028  0.9354 -0.1632
 5389SOL     OW27628   1.461   0.178   8.799 -0.3638  0.1365 -0.6548
 5389SOL    HW127629   1.459   0.265   8.837 -1.6820 -0.2830  0.2615
 5389SOL    HW227630   1.492   0.202   8.711 -1.1609 -0.4332 -1.0970
 5390SOL     OW27631   3.521   3.222   4.746 -0.8901  0.4585  0.0285
 5390SOL    HW127632   3.516   3.318   4.753 -0.4371  0.3563  1.7661
 5390SOL    HW227633   3.483   3.204   4.660 -1.1545 -1.6427  0.5816
 5391SOL     OW27634   1.555   3.078  11.780 -0.2685  0.4735  0.2130
 5391SOL    HW127635   1.542   3.120  11.695  0.1849  0.0851 -0.0456
 5391SOL    HW227636   1.642   3.039  11.771 -1.4460 -1.9407 -0.6535
 5392SOL     OW27637   2.852   2.664   9.596 -0.0786 -0.4981  0.3794
 5392SOL    HW127638   2.815   2.648   9.683  0.3192  1.2314  0.8630
 5392SOL    HW227639   2.908   2.587   9.590  0.4131 -0.1210  0.1376
 5393SOL     OW27640   2.749   3.124  10.147 -0.2889 -0.8035  0.1627
 5393SOL    HW127641   2.681   3.083  10.093  1.0891 -0.8736 -1.5101
 5393SOL    HW227642   2.759   3.209  10.105  0.9415  0.2162  2.4949
 5394SOL     OW27643   2.262   2.402   2.946  0.5401  0.0899  0.4151
 5394SOL    HW127644   2.350   2.407   2.909  0.6075 -2.1367  0.2739
 5394SOL    HW227645   2.229   2.343   2.878  0.8661 -1.2909  1.4388
 5395SOL     OW27646   4.232   1.077   8.458 -0.2493 -0.1143  0.6262
 5395SOL    HW127647   4.285   1.095   8.380  0.2442 -3.2477  0.2171
 5395SOL    HW227648   4.265   1.151   8.508 -1.7742  0.9659  0.0277
 5396SOL     OW27649   1.688   1.371   5.062 -0.2850 -0.2128  0.3259
 5396SOL    HW127650   1.731   1.441   5.012 -2.4709  0.0815 -1.1553
 5396SOL    HW227651   1.726   1.377   5.149  0.4317 -2.0138  0.1183
 5397SOL     OW27652   3.064   3.712  16.939  0.6455 -0.0500  0.2555
 5397SOL    HW127653   2.980   3.680  16.972  0.7704  0.0637  0.6800
 5397SOL    HW227654   3.043   3.729  16.847  3.0364  2.3795  0.1426
 5398SOL     OW27655   2.657   2.743   4.058  0.0271 -0.0566  0.0635
 5398SOL    HW127656   2.695   2.816   4.106  0.8897 -0.4434 -0.0131
 5398SOL    HW227657   2.694   2.673   4.111 -1.3180 -2.1586 -1.7376
 5399SOL     OW27658   0.080   3.239   5.008 -0.2019  0.4217 -0.0450
 5399SOL    HW127659   0.094   3.157   4.960  1.7189 -0.1533  1.4671
 5399SOL    HW227660   0.015   3.211   5.071  2.5610 -2.7675  1.3828
 5400SOL     OW27661   0.081   2.076  13.233  0.5100 -0.4692 -0.1024
 5400SOL    HW127662   0.039   1.993  13.210 -1.6006  0.6416 -0.1937
 5400SOL    HW227663   0.172   2.047  13.245  1.0075  0.5510 -1.4017
 5401SOL     OW27664   0.430   0.580  12.384  0.3360 -0.3131  0.0679
 5401SOL    HW127665   0.338   0.552  12.389  0.5662 -0.9827  0.4535
 5401SOL    HW227666   0.429   0.594  12.289  0.5316 -1.7189 -0.1373
 5402SOL     OW27667   4.420   2.447   1.065 -0.2962 -0.2667 -0.7705
 5402SOL    HW127668   4.440   2.500   0.988 -3.0977  1.0961 -0.5879
 5402SOL    HW227669   4.470   2.369   1.040  1.1317  0.2346  0.5257
 5403SOL     OW27670   2.995   2.133   6.682  0.6678 -0.0150 -0.1273
 5403SOL    HW127671   2.915   2.095   6.645  0.3851  0.7053 -0.2645
 5403SOL    HW227672   3.048   2.137   6.602 -0.7445 -1.0543 -1.1244
 5404SOL     OW27673   3.982   0.731   3.164  0.1744 -0.0998  0.6868
 5404SOL    HW127674   4.034   0.714   3.085  0.1458 -1.6229  0.9876
 5404SOL    HW227675   3.896   0.699   3.138 -0.8113  1.6209  1.9030
 5405SOL     OW27676   4.276   3.690   9.656 -0.1020 -0.1191 -0.4934
 5405SOL    HW127677   4.350   3.634   9.636 -2.2016 -2.9941 -0.2527
 5405SOL    HW227678   4.205   3.644   9.611 -2.7116  1.9129  1.4763
 5406SOL     OW27679   4.452   1.142   6.416  0.5902  0.2358 -0.4724
 5406SOL    HW127680   4.404   1.203   6.472  0.3125  0.2394 -0.7192
 5406SOL    HW227681   4.466   1.073   6.481  1.5724  0.6186 -0.2786
 5407SOL     OW27682   0.869   3.072   6.928  0.3363 -0.7279  0.2744
 5407SOL    HW127683   0.779   3.048   6.906  0.8931 -0.1828 -2.6102
 5407SOL    HW227684   0.865   3.160   6.893  1.6339 -1.3960 -1.5565
 5408SOL     OW27685   1.998   1.993   1.419  0.6273 -0.2449  0.7418
 5408SOL    HW127686   2.015   2.023   1.508  0.3677 -0.1226  0.7483
 5408SOL    HW227687   1.937   2.057   1.384  0.7756 -1.1236 -1.1663
 5409SOL     OW27688   0.238   1.416   8.784 -0.0965  0.4781 -0.1743
 5409SOL    HW127689   0.313   1.412   8.844  0.0375  1.2143 -0.3016
 5409SOL    HW227690   0.173   1.392   8.850  0.7568  1.2765  0.9712
 5410SOL     OW27691   1.718   2.648   4.970 -0.1975  0.1957  0.1172
 5410SOL    HW127692   1.780   2.693   4.913  1.2699 -1.2093  0.6184
 5410SOL    HW227693   1.699   2.566   4.926 -2.1005  0.9032 -0.3655
 5411SOL     OW27694   1.574   3.365  11.090  0.4334 -0.2976  0.3371
 5411SOL    HW127695   1.624   3.380  11.010 -0.6602 -2.6154 -0.7920
 5411SOL    HW227696   1.610   3.421  11.159  1.6559  1.1209 -1.4356
 5412SOL     OW27697   0.770   1.485   6.250 -0.1119 -0.1578 -0.0442
 5412SOL    HW127698   0.759   1.508   6.157  1.2135  2.3558  0.4368
 5412SOL    HW227699   0.860   1.517   6.261 -0.1527 -0.5958  1.4527
 5413SOL     OW27700   4.687   0.601   2.336 -0.3815  0.3975 -0.2406
 5413SOL    HW127701   4.725   0.687   2.356 -0.2339  0.2204  0.2440
 5413SOL    HW227702   4.696   0.617   2.242 -0.4810  2.2038  0.0555
 5414SOL     OW27703   4.011   0.029   4.777 -0.5655 -0.4934  0.1487
 5414SOL    HW127704   4.095   0.044   4.820 -1.0012  1.7688  0.2047
 5414SOL    HW227705   3.992   4.672   4.820  1.1091 -1.2754 -0.5951
 5415SOL     OW27706   4.108   3.498  14.829 -0.1317  0.4760  0.1053
 5415SOL    HW127707   4.047   3.529  14.762 -1.0992 -0.1743  0.6796
 5415SOL    HW227708   4.102   3.403  14.817  2.8576  0.3897 -0.6751
 5416SOL     OW27709   1.268   3.562   3.165 -0.3526 -0.1558 -0.3651
 5416SOL    HW127710   1.294   3.557   3.073 -3.7703 -1.3000 -1.2885
 5416SOL    HW227711   1.245   3.470   3.178 -1.3750  0.0222 -0.8652
 5417SOL     OW27712   0.462   2.543   0.785 -0.1291  0.2369  0.1379
 5417SOL    HW127713   0.460   2.463   0.837 -1.0833 -0.8925 -1.6154
 5417SOL    HW227714   0.460   2.613   0.850 -1.3566  1.2031 -0.9329
 5418SOL     OW27715   0.060   1.795  12.218 -0.5319  0.8939 -0.6803
 5418SOL    HW127716   0.023   1.879  12.245 -0.3418  0.8135 -0.1705
 5418SOL    HW227717   0.153   1.816  12.221 -0.9439  2.6586 -0.6827
 5419SOL     OW27718   1.144   0.384   7.940 -0.1718 -0.0171  0.4871
 5419SOL    HW127719   1.162   0.342   8.024 -0.2433 -1.5329 -0.2568
 5419SOL    HW227720   1.085   0.453   7.970 -0.2633 -0.9985  2.5592
 5420SOL     OW27721   2.575   0.278   6.785  0.2784 -0.0514  0.4201
 5420SOL    HW127722   2.564   0.348   6.849  1.7855 -0.3705  1.0173
 5420SOL    HW227723   2.669   0.276   6.769  0.3174 -3.5532  0.9690
 5421SOL     OW27724   0.257   1.210  14.691 -0.3601  0.1322  0.3023
 5421SOL    HW127725   0.337   1.219  14.742 -0.3189 -0.6827  0.3847
 5421SOL    HW227726   0.285   1.134  14.639 -0.2419 -0.4176  1.1623
 5422SOL     OW27727   1.198   2.211   9.910  0.1547 -0.0131 -0.1691
 5422SOL    HW127728   1.108   2.182   9.898 -0.3724  1.1975  0.8247
 5422SOL    HW227729   1.206   2.233   9.818  1.0926 -0.7252 -0.2574
 5423SOL     OW27730   3.918   2.931   6.962 -0.3092  0.4570 -0.0611
 5423SOL    HW127731   4.003   2.955   6.925  0.6038  0.3653  1.9768
 5423SOL    HW227732   3.933   2.838   6.979 -0.5402  0.2144 -1.1543
 5424SOL     OW27733   4.002   0.696  10.267  0.8179  0.3377  0.0377
 5424SOL    HW127734   4.090   0.691  10.304  0.2864 -0.0940  1.2242
 5424SOL    HW227735   4.029   0.701  10.175 -0.9767 -0.3072 -0.5422
 5425SOL     OW27736   1.629   3.257   6.093  1.1175  0.3476 -0.4957
 5425SOL    HW127737   1.714   3.236   6.055  0.9797  0.8368 -1.0835
 5425SOL    HW227738   1.633   3.229   6.184 -1.0672  2.6633  0.3119
 5426SOL     OW27739   3.984   0.625   4.294 -0.2107 -0.2074 -0.6216
 5426SOL    HW127740   3.913   0.682   4.264 -0.5230 -0.0964  0.3237
 5426SOL    HW227741   3.975   0.640   4.388  0.6753 -1.8157 -0.2913
 5427SOL     OW27742   3.449   0.147  15.487 -0.0786  0.1368  0.1876
 5427SOL    HW127743   3.542   0.156  15.465 -0.4270 -0.2475 -1.4325
 5427SOL    HW227744   3.440   0.080  15.554 -2.5681  1.4076  1.0979
 5428SOL     OW27745   2.267   3.142   9.128 -0.0637 -0.5715  0.8607
 5428SOL    HW127746   2.362   3.150   9.131 -0.1422  0.4989  0.6267
 5428SOL    HW227747   2.245   3.230   9.158  0.7775 -0.2087  0.3897
 5429SOL     OW27748   0.406   1.606   3.014  0.1364 -0.0499  0.1980
 5429SOL    HW127749   0.455   1.552   3.076  1.4144  0.1948 -0.5979
 5429SOL    HW227750   0.453   1.688   3.026 -1.4682  0.8632  0.2987
 5430SOL     OW27751   2.798   3.415   7.050  0.3439 -0.0255  0.4869
 5430SOL    HW127752   2.833   3.400   6.962  0.2745 -1.1698  0.6461
 5430SOL    HW227753   2.746   3.492   7.027  2.4347  1.1853 -0.1922
 5431SOL     OW27754   3.380   3.645  11.997 -0.1110  0.6834 -0.1192
 5431SOL    HW127755   3.302   3.696  12.021 -1.4586 -1.0990 -0.7870
 5431SOL    HW227756   3.396   3.650  11.903 -0.6813 -1.1775 -0.3083
 5432SOL     OW27757   1.904   2.189   6.480  0.5998 -0.2569  0.2325
 5432SOL    HW127758   1.887   2.106   6.524 -0.2378  0.3652  1.0648
 5432SOL    HW227759   1.828   2.184   6.422  2.7224  1.2200 -2.7296
 5433SOL     OW27760   0.262   3.260   6.713 -0.0779  0.0517  0.1311
 5433SOL    HW127761   0.264   3.217   6.798  1.8647 -1.0145 -0.4699
 5433SOL    HW227762   0.213   3.196   6.663 -1.8438  1.2722  0.2945
 5434SOL     OW27763   2.924   3.401  13.452 -0.1372 -0.2786 -0.3069
 5434SOL    HW127764   2.861   3.380  13.382  1.6452 -0.6716 -1.8005
 5434SOL    HW227765   2.971   3.318  13.454  0.2404 -0.0764 -0.5899
 5435SOL     OW27766   3.284   2.377   5.968 -0.3473 -0.0273 -0.7433
 5435SOL    HW127767   3.209   2.405   6.020 -0.9393  1.5104 -2.4369
 5435SOL    HW227768   3.243   2.312   5.910  0.6376 -1.4797  0.1851
 5436SOL     OW27769   3.661   3.761   4.645  0.8730  0.9008  0.4995
 5436SOL    HW127770   3.631   3.842   4.686  0.4676  0.2130  1.5653
 5436SOL    HW227771   3.752   3.760   4.675  0.9068  1.5441  0.4147
 5437SOL     OW27772   2.908   0.659   6.807 -0.4463 -0.0482 -0.3806
 5437SOL    HW127773   2.914   0.574   6.850  2.8686 -0.2267 -1.2102
 5437SOL    HW227774   2.862   0.705   6.877 -2.9523 -1.3305 -1.1640
 5438SOL     OW27775   3.923   2.197   8.863 -0.3967  0.0505  0.2059
 5438SOL    HW127776   3.895   2.146   8.787  0.1719  1.3678 -0.8848
 5438SOL    HW227777   3.861   2.159   8.926 -1.0115 -0.5249 -0.7298
 5439SOL     OW27778   3.986   1.947   6.706  0.0595 -0.5930 -0.1723
 5439SOL    HW127779   3.914   1.914   6.759  0.2390  0.8932  1.0051
 5439SOL    HW227780   4.018   1.871   6.658  1.5523  1.1999 -2.0276
 5440SOL     OW27781   4.264   3.365  13.452 -0.1773  0.9031 -0.2328
 5440SOL    HW127782   4.331   3.394  13.389  1.1269 -0.5944  0.4514
 5440SOL    HW227783   4.301   3.389  13.537 -1.1935  0.8563  0.2196
 5441SOL     OW27784   3.057   0.666   5.613  0.2121  0.2978  0.1024
 5441SOL    HW127785   3.033   0.758   5.620 -1.0598 -0.0249  0.0343
 5441SOL    HW227786   3.114   0.676   5.537  2.1682 -1.6446  1.3262
 5442SOL     OW27787   4.508   2.502   2.256 -0.4070 -0.3357  0.5442
 5442SOL    HW127788   4.602   2.516   2.242 -0.5937 -1.5907 -1.9169
 5442SOL    HW227789   4.479   2.465   2.173 -0.9515  0.9814  0.1371
 5443SOL     OW27790   0.293   2.629   3.450  0.2948  0.0432  0.3432
 5443SOL    HW127791   0.341   2.550   3.426  0.6649  0.6632 -0.9633
 5443SOL    HW227792   0.365   2.690   3.468  0.9549 -0.4326 -0.6826
 5444SOL     OW27793   1.343   1.513   4.897  0.4454 -1.1045 -0.1988
 5444SOL    HW127794   1.250   1.534   4.904  0.9357  1.2558 -0.9290
 5444SOL    HW227795   1.355   1.516   4.803 -0.8668 -1.1047 -0.3738
 5445SOL     OW27796   1.814   0.220  15.292 -0.0426  0.7061 -0.1382
 5445SOL    HW127797   1.867   0.285  15.338  0.4238  2.0173 -2.5004
 5445SOL    HW227798   1.750   0.204  15.360  0.2706  0.5240  0.1147
 5446SOL     OW27799   0.283   2.964   3.005  0.9917 -0.6970  0.2098
 5446SOL    HW127800   0.295   2.936   2.914 -0.4902  3.3846 -1.2517
 5446SOL    HW227801   0.190   2.946   3.022  0.4872  2.4783  0.7732
 5447SOL     OW27802   3.139   1.319   6.745 -0.2004  1.1213 -0.0266
 5447SOL    HW127803   3.228   1.354   6.746  0.5381 -0.7339 -1.8728
 5447SOL    HW227804   3.091   1.395   6.711  0.6630  0.0896 -3.5182
 5448SOL     OW27805   2.181   0.323   3.449 -0.3445  0.0051 -0.4088
 5448SOL    HW127806   2.226   0.279   3.378  0.5406 -0.8201  0.6718
 5448SOL    HW227807   2.170   0.408   3.406  1.8197 -0.8508 -2.6288
 5449SOL     OW27808   3.099   3.189  13.483  0.3890 -0.0848 -0.0298
 5449SOL    HW127809   3.112   3.117  13.421  0.1146 -1.8292  1.9178
 5449SOL    HW227810   3.187   3.206  13.517  0.7704  0.1893 -1.1873
 5450SOL     OW27811   0.036   3.288  10.582 -0.4765  0.4845  0.5052
 5450SOL    HW127812   0.009   3.380  10.574  0.8868  0.9235  1.0588
 5450SOL    HW227813   0.064   3.287  10.673 -0.1789 -0.6871  0.4032
 5451SOL     OW27814   3.656   3.841  12.000  0.5295 -0.1434 -0.2665
 5451SOL    HW127815   3.736   3.885  12.029 -0.5725  1.6281  0.0321
 5451SOL    HW227816   3.668   3.754  12.040  0.3383 -0.3136 -0.5787
 5452SOL     OW27817   1.032   4.224   0.332  0.2391 -0.2234  0.4051
 5452SOL    HW127818   1.127   4.219   0.340  0.2511 -0.4047  0.1743
 5452SOL    HW227819   1.006   4.148   0.385 -0.7463 -1.6280 -2.0838
 5453SOL     OW27820   3.868   1.342   6.081 -0.0776  0.1448 -0.5804
 5453SOL    HW127821   3.945   1.301   6.040  0.1314  0.2580 -0.3003
 5453SOL    HW227822   3.825   1.368   6.000  0.6121  0.8864 -0.7107
 5454SOL     OW27823   4.678   3.800  16.236  0.1262 -0.4957  0.5191
 5454SOL    HW127824   4.631   3.794  16.318 -2.2524 -0.1683 -0.8340
 5454SOL    HW227825   0.012   3.725  16.234 -0.6405 -1.1238  1.9351
 5455SOL     OW27826   1.135   0.579  10.582 -0.2222 -0.0880  0.1002
 5455SOL    HW127827   1.220   0.594  10.542 -0.5386  2.8731  0.5424
 5455SOL    HW227828   1.148   0.627  10.664 -0.0046  0.9933 -0.5686
 5456SOL     OW27829   2.726   0.704   7.050 -0.3740 -0.4705  0.6408
 5456SOL    HW127830   2.761   0.792   7.055  0.8767 -1.1284  3.0965
 5456SOL    HW227831   2.673   0.701   7.130 -0.4229 -0.5336  0.6069
 5457SOL     OW27832   0.341   1.424   7.060  0.6135  0.0768  0.2868
 5457SOL    HW127833   0.304   1.346   7.020 -1.1446  0.6151  0.8525
 5457SOL    HW227834   0.429   1.392   7.077  0.6798 -0.2671 -0.6904
 5458SOL     OW27835   1.213   1.050   4.176 -0.0264  0.2652  0.1366
 5458SOL    HW127836   1.135   0.999   4.202  0.0843 -0.3543 -0.7468
 5458SOL    HW227837   1.239   0.989   4.107 -0.3346 -0.2555  0.4789
 5459SOL     OW27838   2.880   3.827   0.859  0.5566  0.5631  0.1166
 5459SOL    HW127839   2.796   3.782   0.870 -0.4586  2.4130 -0.2280
 5459SOL    HW227840   2.911   3.786   0.778  0.2209  1.0522 -0.2574
 5460SOL     OW27841   0.197   1.669   5.241 -0.1023  0.7983  0.3421
 5460SOL    HW127842   0.110   1.708   5.233 -1.0495 -0.6775  3.6304
 5460SOL    HW227843   0.242   1.753   5.250  0.4956  0.7401 -2.0374
 5461SOL     OW27844   0.463   3.891   4.104 -0.6919 -0.7269  0.2702
 5461SOL    HW127845   0.463   3.937   4.188 -0.2763 -2.4360  1.1827
 5461SOL    HW227846   0.372   3.861   4.102  0.1067 -3.1142  0.3187
 5462SOL     OW27847   3.790   4.617   9.108  0.0532 -0.5467 -0.4322
 5462SOL    HW127848   3.758   4.703   9.135  0.2359 -0.7566  0.4516
 5462SOL    HW227849   3.729   4.562   9.157  2.2926 -0.6269  2.2921
 5463SOL     OW27850   3.788   1.705   6.780  0.3605  0.2140  0.4290
 5463SOL    HW127851   3.701   1.680   6.812  0.6134  1.6855  2.3375
 5463SOL    HW227852   3.836   1.676   6.858  1.3029  0.4905 -0.0516
 5464SOL     OW27853   1.779   0.542  13.202 -0.2581  0.1125  0.3132
 5464SOL    HW127854   1.852   0.483  13.222  0.2848  0.5882 -0.2658
 5464SOL    HW227855   1.720   0.481  13.158 -0.3327  0.2135  0.2727
 5465SOL     OW27856   3.403   0.063  13.189 -0.4546 -0.0958  0.0717
 5465SOL    HW127857   3.417   0.095  13.278  1.1836 -0.2572 -0.1341
 5465SOL    HW227858   3.483   0.106  13.160 -1.1582  0.5974 -0.8952
 5466SOL     OW27859   0.880   1.674  11.109 -0.1205 -0.1908 -0.4377
 5466SOL    HW127860   0.916   1.636  11.029 -2.1979 -0.3484 -1.2842
 5466SOL    HW227861   0.887   1.766  11.083  0.4878 -0.0700  0.1402
 5467SOL     OW27862   0.506   1.142   8.741 -0.0134 -0.0746  0.0317
 5467SOL    HW127863   0.486   1.190   8.821  0.4951 -1.7582  1.1614
 5467SOL    HW227864   0.418   1.108   8.721  0.4524 -0.0968 -2.0527
 5468SOL     OW27865   4.120   1.494   1.833  0.2974 -0.1661  0.0702
 5468SOL    HW127866   4.052   1.439   1.872 -0.4924 -0.3258 -1.5183
 5468SOL    HW227867   4.064   1.564   1.799 -2.2076 -1.4502  1.5892
 5469SOL     OW27868   1.207   4.620  11.357 -0.6373 -0.5516  0.4710
 5469SOL    HW127869   1.200   4.661  11.271 -1.3165 -0.0575  0.7597
 5469SOL    HW227870   1.144   4.548  11.349 -0.1772 -0.8091 -0.8783
 5470SOL     OW27871   3.173   0.854  14.999 -0.3081  0.3433 -0.5731
 5470SOL    HW127872   3.150   0.878  15.088  0.8096 -1.6269  0.2496
 5470SOL    HW227873   3.194   0.761  15.007 -1.0657  0.3918  1.9343
 5471SOL     OW27874   2.788   2.157   5.765  0.3036  0.2142 -0.4552
 5471SOL    HW127875   2.830   2.216   5.827  1.2177 -0.8913 -0.0102
 5471SOL    HW227876   2.719   2.209   5.724  0.3172 -0.3704 -1.2305
 5472SOL     OW27877   2.827   4.001  13.359  0.2336  0.1015 -0.4733
 5472SOL    HW127878   2.814   4.096  13.361 -0.9102 -0.0333 -2.1753
 5472SOL    HW227879   2.753   3.979  13.303 -2.0314 -0.0746  2.5565
 5473SOL     OW27880   4.131   3.333  10.466 -0.4316 -0.6998  0.1629
 5473SOL    HW127881   4.075   3.362  10.394  1.0155  2.5768  0.3484
 5473SOL    HW227882   4.219   3.354  10.433 -0.8480 -1.0607 -1.1898
 5474SOL     OW27883   4.190   0.813   0.492  0.2686 -0.0756 -0.1006
 5474SOL    HW127884   4.236   0.752   0.433  0.2246  0.5943 -0.8248
 5474SOL    HW227885   4.263   0.875   0.494  1.6255 -1.7276  1.7453
 5475SOL     OW27886   3.575   3.649   9.523 -0.6418  0.3686  0.3403
 5475SOL    HW127887   3.543   3.723   9.575  1.7244  1.9234 -0.3977
 5475SOL    HW227888   3.569   3.683   9.433  0.7729 -3.0306 -1.0390
 5476SOL     OW27889   2.462   2.713   3.166 -0.1580  0.3636 -0.0749
 5476SOL    HW127890   2.514   2.640   3.198  0.3347  1.2937  1.2235
 5476SOL    HW227891   2.530   2.765   3.123  1.0163 -1.5436 -0.5040
 5477SOL     OW27892   1.398   3.028   8.908 -0.7312 -0.5305 -0.7518
 5477SOL    HW127893   1.437   3.088   8.972 -0.7932 -1.6534  0.3294
 5477SOL    HW227894   1.463   2.958   8.909 -2.7501 -2.3937 -0.0183
 5478SOL     OW27895   3.420   4.232   4.472 -0.2158  0.1289 -0.4084
 5478SOL    HW127896   3.363   4.290   4.522  1.5684  2.0700 -0.6149
 5478SOL    HW227897   3.494   4.285   4.443  0.6852 -0.1698  1.3766
 5479SOL     OW27898   3.276   2.974   4.203 -0.3468 -0.2109 -0.2739
 5479SOL    HW127899   3.358   2.943   4.165  0.2734  0.4954  0.4919
 5479SOL    HW227900   3.214   2.905   4.180 -0.8265  0.4281 -0.8864
 5480SOL     OW27901   2.973   0.654  10.439 -0.2435  0.2119  0.7487
 5480SOL    HW127902   3.039   0.659  10.370 -1.8613 -1.5898 -0.9393
 5480SOL    HW227903   2.892   0.635  10.393  0.8208 -2.0776 -0.1834
 5481SOL     OW27904   4.152   2.722   6.321 -0.1951 -0.5706 -0.6218
 5481SOL    HW127905   4.127   2.768   6.240 -0.2501  0.1946 -0.1674
 5481SOL    HW227906   4.070   2.688   6.357 -0.4231  3.0408  2.1558
 5482SOL     OW27907   4.107   0.313   8.990  0.1590 -0.3146  0.6662
 5482SOL    HW127908   4.139   0.305   8.900 -2.0744 -0.9160 -0.0931
 5482SOL    HW227909   4.021   0.271   8.984 -0.3842  0.6861  1.4905
 5483SOL     OW27910   4.473   2.451   4.335 -0.2177 -0.2448 -0.5183
 5483SOL    HW127911   4.482   2.360   4.304  0.4431 -0.7246  1.1220
 5483SOL    HW227912   4.421   2.430   4.412 -0.4383  2.1476 -0.0292
 5484SOL     OW27913   0.304   0.421   9.590 -0.3439 -0.6838 -0.1490
 5484SOL    HW127914   0.298   0.501   9.643  1.3948 -0.1474 -0.7518
 5484SOL    HW227915   0.343   0.365   9.656  0.2179 -2.6448 -2.1332
 5485SOL     OW27916   1.074   4.488   8.758 -0.0851 -1.0691 -0.5495
 5485SOL    HW127917   1.157   4.533   8.740 -1.0996  1.4292  1.0721
 5485SOL    HW227918   1.099   4.424   8.825  0.7967  0.2727  0.3898
 5486SOL     OW27919   0.238   1.204   4.757  0.8320  0.3349  0.2190
 5486SOL    HW127920   0.159   1.256   4.738 -0.0845 -0.3761  2.0440
 5486SOL    HW227921   0.260   1.183   4.667  0.4566 -1.6262  0.5829
 5487SOL     OW27922   0.735   0.282   6.247  0.4744  0.3271 -0.0347
 5487SOL    HW127923   0.790   0.264   6.323 -0.6488 -0.0878  0.6792
 5487SOL    HW227924   0.730   0.378   6.249 -0.4032  0.2937 -0.5383
 5488SOL     OW27925   0.634   0.269   7.507  0.2234  0.0446 -0.6449
 5488SOL    HW127926   0.634   0.335   7.576 -2.6391  2.2289 -2.6917
 5488SOL    HW227927   0.611   0.188   7.551 -1.1574 -0.9447 -3.1418
 5489SOL     OW27928   3.092   0.343  15.415 -0.5451 -0.0751 -0.5103
 5489SOL    HW127929   3.050   0.375  15.335  0.5484 -0.0444 -1.0659
 5489SOL    HW227930   3.172   0.305  15.380 -1.4864 -2.2049 -0.3189
 5490SOL     OW27931   1.818   2.547  10.919  0.2031  0.1926 -0.5341
 5490SOL    HW127932   1.797   2.454  10.915  0.9046  0.0559 -0.8920
 5490SOL    HW227933   1.779   2.569  11.004  2.3935  3.3486 -0.3344
 5491SOL     OW27934   3.780   3.219  13.445 -0.4127 -0.1500  0.3676
 5491SOL    HW127935   3.728   3.196  13.368 -1.9661 -1.4195  1.7844
 5491SOL    HW227936   3.812   3.306  13.423 -0.0856 -0.5246 -0.6613
 5492SOL     OW27937   0.586   1.473   3.674 -0.0063 -0.6766 -0.5693
 5492SOL    HW127938   0.618   1.470   3.584  0.4865 -0.3867 -0.4093
 5492SOL    HW227939   0.669   1.447   3.714  0.1505 -1.1518 -1.2217
 5493SOL     OW27940   1.587   2.428   4.855  0.3134 -0.4253  0.1191
 5493SOL    HW127941   1.586   2.333   4.850 -0.4026 -0.5699  2.9523
 5493SOL    HW227942   1.553   2.454   4.770 -0.6709  0.7094  0.8473
 5494SOL     OW27943   1.365   4.639  16.731 -0.1814  0.1622 -0.0781
 5494SOL    HW127944   1.375   4.559  16.679 -0.2024  0.0358  0.1135
 5494SOL    HW227945   1.315   4.693  16.669 -0.5825  0.4396  0.4902
 5495SOL     OW27946   0.745   0.518  17.466  0.0749  0.2201  0.5271
 5495SOL    HW127947   0.716   0.508  17.557  1.3506  0.3640  0.9540
 5495SOL    HW227948   0.659   0.502  17.428 -0.1899 -0.8899  1.5681
 5496SOL     OW27949   3.453   2.420   2.414 -0.2379 -0.2616 -0.8740
 5496SOL    HW127950   3.416   2.341   2.375  1.0378  0.2373 -3.1393
 5496SOL    HW227951   3.521   2.427   2.347  1.6177  0.6783  1.1104
 5497SOL     OW27952   1.738   2.255   8.993  0.3073  0.3256 -0.0273
 5497SOL    HW127953   1.812   2.209   8.954  1.7678  0.8889  2.0645
 5497SOL    HW227954   1.665   2.232   8.936  0.4662 -0.4134  0.0756
 5498SOL     OW27955   2.157   4.479   6.608 -0.5799 -0.3965 -0.0710
 5498SOL    HW127956   2.196   4.476   6.521  0.3402  0.4075  0.3212
 5498SOL    HW227957   2.107   4.561   6.608  0.6025  0.3128  1.0800
 5499SOL     OW27958   1.659   0.432   4.867 -0.3399 -0.0662 -0.1454
 5499SOL    HW127959   1.708   0.512   4.889  1.4044 -1.3541  0.6817
 5499SOL    HW227960   1.681   0.371   4.938 -0.0532 -1.3986 -1.3726
 5500SOL     OW27961   3.819   1.532   6.579  0.1454  0.1772 -0.3948
 5500SOL    HW127962   3.900   1.567   6.542  0.4423  0.6649  0.6842
 5500SOL    HW227963   3.805   1.587   6.657  0.3763 -0.1858 -0.0971
 5501SOL     OW27964   4.332   4.366   9.109 -0.3011  0.0274  0.1537
 5501SOL    HW127965   4.427   4.362   9.110 -0.2148  1.8391 -1.6977
 5501SOL    HW227966   4.300   4.276   9.099  0.5689 -0.1949 -0.6700
 5502SOL     OW27967   2.195   2.878   8.096 -0.2871  0.6372 -0.4156
 5502SOL    HW127968   2.232   2.961   8.126  0.3121  0.2235 -0.0222
 5502SOL    HW227969   2.132   2.913   8.033 -1.4920  0.8681  0.9019
 5503SOL     OW27970   0.272   3.471   9.806  0.3320 -0.0338 -0.1174
 5503SOL    HW127971   0.354   3.519   9.821  0.0479  0.3606  0.1794
 5503SOL    HW227972   0.249   3.452   9.897  1.3559 -0.3091  0.0879
 5504SOL     OW27973   3.846   3.171   9.258 -0.5336 -0.0666 -0.0257
 5504SOL    HW127974   3.934   3.142   9.279 -0.7112 -1.0037 -0.5365
 5504SOL    HW227975   3.817   3.190   9.347 -3.0484 -0.7033 -0.7014
 5505SOL     OW27976   1.845   2.461   2.697 -0.8678 -0.4869 -0.1035
 5505SOL    HW127977   1.829   2.514   2.618  1.7328 -0.4409 -0.5865
 5505SOL    HW227978   1.924   2.500   2.735 -0.6611 -0.5801 -0.4332
 5506SOL     OW27979   1.309   0.105  16.941  0.0542 -0.0346 -0.0525
 5506SOL    HW127980   1.345   0.038  16.882  3.4455  1.8961 -0.1845
 5506SOL    HW227981   1.234   0.123  16.884  0.0118  1.2713  0.4280
 5507SOL     OW27982   2.678   3.006   6.203  0.3996  0.1118 -1.1002
 5507SOL    HW127983   2.651   2.917   6.224  0.4729  0.5575  0.8741
 5507SOL    HW227984   2.740   2.998   6.131  0.4826 -0.2819 -0.9835
 5508SOL     OW27985   0.597   0.310   9.958 -0.1325 -0.6439 -0.7011
 5508SOL    HW127986   0.631   0.395   9.928  2.1858 -0.9891  0.9818
 5508SOL    HW227987   0.525   0.304   9.895 -1.6222 -2.4681  1.1960
 5509SOL     OW27988   3.143   2.067  13.677 -0.0984 -0.5115  0.1108
 5509SOL    HW127989   3.178   2.109  13.755 -1.5107 -1.1278  1.0840
 5509SOL    HW227990   3.053   2.055  13.708  0.3458  2.5481  2.5078
 5510SOL     OW27991   1.827   2.873  13.243 -0.2178 -0.3784 -0.6005
 5510SOL    HW127992   1.904   2.884  13.187 -0.9788  1.3241 -1.3288
 5510SOL    HW227993   1.776   2.829  13.176  0.6136 -1.3445 -0.6000
 5511SOL     OW27994   1.255   0.867   2.066 -0.3451 -0.3384  0.2007
 5511SOL    HW127995   1.166   0.875   2.100 -0.6223 -1.7068 -0.2384
 5511SOL    HW227996   1.291   0.955   2.079 -0.7302  0.2063 -2.5403
 5512SOL     OW27997   3.715   1.182   4.016 -0.4743 -0.0145 -0.3619
 5512SOL    HW127998   3.633   1.204   4.060 -0.4032  3.6043 -2.0180
 5512SOL    HW227999   3.761   1.136   4.086 -1.3279 -0.6284 -0.2066
 5513SOL     OW28000   4.122   2.570   7.285  0.1053 -0.2274  0.2302
 5513SOL    HW128001   4.108   2.525   7.369  2.3358 -2.2335 -0.4949
 5513SOL    HW228002   4.214   2.591   7.301 -0.1703  0.5562  0.7888
 5514SOL     OW28003   4.287   1.795   9.961  0.0457 -0.0685 -0.7493
 5514SOL    HW128004   4.191   1.796   9.964 -0.0058 -2.2359 -1.7512
 5514SOL    HW228005   4.305   1.703   9.978 -2.8575 -0.4539  0.3497
 5515SOL     OW28006   3.598   3.599  12.145  0.2020 -0.3522  0.4713
 5515SOL    HW128007   3.524   3.622  12.089 -0.1636 -0.7870  0.7727
 5515SOL    HW228008   3.560   3.528  12.197 -0.3538 -1.9139 -2.0276
 5516SOL     OW28009   2.820   0.799   2.174  0.0082 -0.1430  0.1050
 5516SOL    HW128010   2.885   0.864   2.147 -0.3814  0.2257  0.0535
 5516SOL    HW228011   2.873   0.720   2.166  1.8906  1.1446 -0.2768
 5517SOL     OW28012   3.250   0.678  12.827 -0.3718 -0.0117 -0.2257
 5517SOL    HW128013   3.303   0.620  12.773  1.1230  3.2880 -2.2913
 5517SOL    HW228014   3.171   0.691  12.774  0.7436 -2.7330 -2.5164
 5518SOL     OW28015   0.347   4.471   6.505 -0.1226 -0.4729  0.0451
 5518SOL    HW128016   0.354   4.420   6.586 -1.3073 -0.1000  0.3812
 5518SOL    HW228017   0.263   4.515   6.508  0.9360  1.6573 -1.4209
 5519SOL     OW28018   0.585   4.473   0.857  0.5814  0.3315  0.0385
 5519SOL    HW128019   0.631   4.554   0.836  0.3554 -0.0136 -1.7910
 5519SOL    HW228020   0.502   4.506   0.891  0.4304 -0.7143  0.7077
 5520SOL     OW28021   3.745   2.849   4.858  0.6040 -0.3819  0.2569
 5520SOL    HW128022   3.756   2.938   4.892  0.9292  0.1468 -1.2497
 5520SOL    HW228023   3.707   2.804   4.933  2.8505 -0.4918  1.3334
 5521SOL     OW28024   1.881   3.724   5.712 -0.5901 -0.3130 -0.0325
 5521SOL    HW128025   1.944   3.712   5.782 -0.8590  0.0207  0.2680
 5521SOL    HW228026   1.832   3.642   5.716  0.1983 -0.7631  0.4032
 5522SOL     OW28027   2.019   1.502  10.258  0.3857 -0.4168  0.2835
 5522SOL    HW128028   1.983   1.590  10.247  0.3592 -0.2375  1.8458
 5522SOL    HW228029   2.098   1.528  10.306  1.8379 -1.0159 -1.8062
 5523SOL     OW28030   2.703   3.545   6.306  0.1882 -0.8261 -0.0886
 5523SOL    HW128031   2.789   3.508   6.287 -0.6459 -2.6901 -0.3139
 5523SOL    HW228032   2.719   3.638   6.290 -0.4910 -0.8776 -1.0842
 5524SOL     OW28033   2.647   2.594   8.317  0.1499  0.4066 -0.1766
 5524SOL    HW128034   2.593   2.519   8.343  0.6673  0.8939  2.3067
 5524SOL    HW228035   2.577   2.659   8.306 -0.0361  0.4859  1.5638
 5525SOL     OW28036   2.137   4.329  15.454 -0.0151 -0.7544  0.5655
 5525SOL    HW128037   2.058   4.303  15.502 -0.0549  0.0300  0.9376
 5525SOL    HW228038   2.163   4.404  15.508  0.7358 -1.5223  1.2903
 5526SOL     OW28039   1.456   2.948   2.021  0.1063 -0.1295  0.2517
 5526SOL    HW128040   1.400   3.026   2.012  1.2204  0.4071 -2.0000
 5526SOL    HW228041   1.394   2.882   2.050 -0.0836  0.7786  1.9506
 5527SOL     OW28042   4.180   1.695   4.858 -0.6991 -0.3948 -0.1039
 5527SOL    HW128043   4.122   1.646   4.800  0.2634  0.2342 -1.5944
 5527SOL    HW228044   4.142   1.783   4.850 -0.6590 -0.4385 -0.7638
 5528SOL     OW28045   0.254   1.557  14.980  0.2133 -0.0819 -0.4773
 5528SOL    HW128046   0.171   1.604  14.973  0.3117 -0.0501 -1.4203
 5528SOL    HW228047   0.293   1.583  14.897 -1.1618  0.4290 -0.9528
 5529SOL     OW28048   2.197   0.830   8.285 -0.1729 -0.5445 -0.0991
 5529SOL    HW128049   2.127   0.801   8.344  1.0150 -0.0856  1.5498
 5529SOL    HW228050   2.233   0.746   8.257  0.3884  0.1638 -1.4468
 5530SOL     OW28051   2.779   2.761  11.288 -0.4227  0.2173 -0.1123
 5530SOL    HW128052   2.710   2.792  11.346  1.3722  1.4130  1.3847
 5530SOL    HW228053   2.735   2.779  11.205  0.8203 -0.5203 -0.9211
 5531SOL     OW28054   1.538   3.963   3.433 -0.7123 -0.4780 -0.3283
 5531SOL    HW128055   1.529   3.871   3.407  3.2819 -1.1438  0.6314
 5531SOL    HW228056   1.455   3.987   3.476 -0.2381  1.9543 -0.8067
 5532SOL     OW28057   3.352   3.119  16.019 -0.8395 -0.1663 -0.3719
 5532SOL    HW128058   3.357   3.137  16.112 -0.2542  0.7093 -0.5692
 5532SOL    HW228059   3.395   3.198  15.986  2.8321 -1.0018  2.3893
 5533SOL     OW28060   2.501   0.427   9.168 -0.5665  0.5589 -0.2112
 5533SOL    HW128061   2.410   0.407   9.190  0.1862 -1.1358  1.3734
 5533SOL    HW228062   2.540   0.340   9.176  1.0809  1.2446 -0.6666
 5534SOL     OW28063   3.630   4.534   4.567  0.0032  0.2156 -0.1131
 5534SOL    HW128064   3.605   4.590   4.494  0.1931  2.6734  1.6924
 5534SOL    HW228065   3.577   4.568   4.639  2.8802 -0.9341  2.5413
 5535SOL     OW28066   2.688   1.472   6.969  0.2419  0.6977  0.3477
 5535SOL    HW128067   2.635   1.528   6.912 -1.1656 -2.1830 -1.1774
 5535SOL    HW228068   2.694   1.396   6.912  1.5002  0.6633  0.5228
 5536SOL     OW28069   3.624   1.731  15.824 -0.0906 -0.5035 -0.3367
 5536SOL    HW128070   3.567   1.690  15.889 -0.0778 -0.9361 -0.6040
 5536SOL    HW228071   3.697   1.736  15.886 -1.4895  2.9956  1.0526
 5537SOL     OW28072   2.757   1.358   7.198 -0.0271 -0.2821 -0.3107
 5537SOL    HW128073   2.662   1.360   7.192 -0.1133  0.6507  1.4368
 5537SOL    HW228074   2.766   1.417   7.123  2.9025 -0.2388  0.0874
 5538SOL     OW28075   2.436   2.076   4.235 -0.2995  0.2193  0.0649
 5538SOL    HW128076   2.359   2.131   4.249  1.1563  2.4782 -0.8617
 5538SOL    HW228077   2.510   2.135   4.250 -0.2535  0.6086 -1.7852
 5539SOL     OW28078   4.667   0.264   0.437  0.1200  0.2238 -0.1200
 5539SOL    HW128079   4.665   0.181   0.388 -0.4037 -1.5842  3.0205
 5539SOL    HW228080   4.663   0.320   0.360  1.7636 -0.3351 -0.6148
 5540SOL     OW28081   2.009   1.889   6.482  0.1503 -0.1439 -0.1672
 5540SOL    HW128082   2.009   1.793   6.487  1.5638 -0.0405  1.5408
 5540SOL    HW228083   1.994   1.890   6.387 -0.2584  0.2954 -0.0979
 5541SOL     OW28084   4.388   1.556  11.335  0.4291 -0.3123 -0.0964
 5541SOL    HW128085   4.334   1.529  11.260 -0.8899  0.9930  0.3950
 5541SOL    HW228086   4.363   1.485  11.394 -0.2077  0.3344  0.4073
 5542SOL     OW28087   3.062   4.116   3.804 -0.1010 -0.2068 -0.4893
 5542SOL    HW128088   3.149   4.090   3.775  0.3147 -3.1334  3.2563
 5542SOL    HW228089   3.080   4.208   3.821 -1.3944  0.1549 -1.0757
 5543SOL     OW28090   3.582   3.541   1.916 -0.2112  0.2087 -0.1433
 5543SOL    HW128091   3.595   3.617   1.973 -1.4735 -0.9390  1.6607
 5543SOL    HW228092   3.513   3.492   1.960  1.3978 -1.9671 -0.0364
 5544SOL     OW28093   2.392   1.568   1.899 -0.3068  0.1642  0.4331
 5544SOL    HW128094   2.444   1.512   1.842 -2.9903  0.5273 -2.3423
 5544SOL    HW228095   2.458   1.623   1.941  0.2618  0.1094 -0.3841
 5545SOL     OW28096   0.767   2.215   5.228 -0.0839 -0.2204  0.0544
 5545SOL    HW128097   0.737   2.266   5.304 -0.3583 -1.9189  1.0969
 5545SOL    HW228098   0.731   2.261   5.153  0.1107 -2.1497 -1.2204
 5546SOL     OW28099   2.518   4.612   2.019  0.1025 -0.1763 -0.6185
 5546SOL    HW128100   2.560   4.602   2.105 -1.3441  0.3521  0.1459
 5546SOL    HW228101   2.574   4.658   1.956  0.2466  1.2332  0.5346
 5547SOL     OW28102   2.279   3.231   2.980 -0.2333  0.0321  0.1452
 5547SOL    HW128103   2.240   3.148   3.006 -1.6855  0.4706 -0.5910
 5547SOL    HW228104   2.327   3.250   3.060  0.0025  0.1721 -0.0297
 5548SOL     OW28105   4.467   4.338   3.135  0.1911  0.0470 -0.0029
 5548SOL    HW128106   4.511   4.292   3.206 -0.6912 -2.1724 -0.9202
 5548SOL    HW228107   4.528   4.326   3.062  0.2066 -1.1590  0.2178
 5549SOL     OW28108   0.868   3.388   4.621  0.5830 -0.3712 -0.0086
 5549SOL    HW128109   0.901   3.313   4.672 -0.7114 -1.2390 -0.4301
 5549SOL    HW228110   0.789   3.412   4.669  0.2688 -0.5910 -0.4162
 5550SOL     OW28111   0.255   2.756  17.003 -0.1160 -0.0277  0.0853
 5550SOL    HW128112   0.287   2.736  17.091 -2.5889  1.9934  1.4572
 5550SOL    HW228113   0.301   2.832  16.967 -0.2010  0.6592  1.3997
 5551SOL     OW28114   0.446   1.771   6.979  0.3573  0.3991  0.4334
 5551SOL    HW128115   0.468   1.736   7.065 -0.1768 -0.0298  0.3910
 5551SOL    HW228116   0.373   1.715   6.955 -2.1166  3.8217  0.0603
 5552SOL     OW28117   2.209   3.374  13.451  0.5410  0.1753  0.1874
 5552SOL    HW128118   2.268   3.429  13.399 -1.1601  2.0861  0.2929
 5552SOL    HW228119   2.259   3.356  13.531 -0.4885  1.6136  1.1407
 5553SOL     OW28120   4.638   2.297   6.864  0.1278  0.0122 -0.1929
 5553SOL    HW128121   4.641   2.202   6.851  2.7736 -0.3189  2.9214
 5553SOL    HW228122   4.583   2.301   6.942  1.4567 -4.7507  0.9405
 5554SOL     OW28123   0.394   3.096  10.227  0.1522 -0.0504  0.4546
 5554SOL    HW128124   0.365   3.021  10.175  0.3303  0.5804 -0.5531
 5554SOL    HW228125   0.315   3.148  10.241  1.4914  3.1335 -3.9137
 5555SOL     OW28126   1.060   3.563   4.763  0.3463 -0.0627  0.2061
 5555SOL    HW128127   0.990   3.503   4.737  0.6744 -0.8905  1.2198
 5555SOL    HW228128   1.120   3.544   4.691  0.7402  2.0689 -0.0417
 5556SOL     OW28129   3.222   4.623   3.573 -0.5311 -0.2519  0.0382
 5556SOL    HW128130   3.182   4.710   3.575 -1.7273 -0.6902 -3.9832
 5556SOL    HW228131   3.285   4.640   3.643 -1.3179 -1.2242  0.9773
 5557SOL     OW28132   1.838   4.321   5.926 -0.2389 -0.2043 -0.3331
 5557SOL    HW128133   1.765   4.328   5.865 -0.9399 -3.3070  0.1672
 5557SOL    HW228134   1.864   4.229   5.918 -0.5533 -0.3466  0.2537
 5558SOL     OW28135   3.651   3.632   6.678  0.0596 -0.2247  0.5319
 5558SOL    HW128136   3.601   3.713   6.668  2.3094  0.5461 -4.4537
 5558SOL    HW228137   3.716   3.665   6.740 -0.4250  0.1060  0.8621
 5559SOL     OW28138   1.916   4.280   0.940  0.1628  0.1570  0.4730
 5559SOL    HW128139   1.997   4.275   0.889  0.0523 -1.5057  0.4682
 5559SOL    HW228140   1.882   4.193   0.922  1.6662 -0.2877 -0.2263
 5560SOL     OW28141   2.649   1.806   5.850 -0.0191 -0.2204  0.6232
 5560SOL    HW128142   2.606   1.841   5.772 -1.6095  1.0451  2.0810
 5560SOL    HW228143   2.707   1.742   5.808  0.0453 -0.7970  1.5965
 5561SOL     OW28144   1.522   2.186   8.826 -0.3612  0.3340 -0.5301
 5561SOL    HW128145   1.438   2.229   8.841  0.7694  2.8719 -1.5712
 5561SOL    HW228146   1.554   2.241   8.755  2.3351 -0.1926  0.3008
 5562SOL     OW28147   3.824   0.451   2.559 -0.5610 -0.3230  0.4788
 5562SOL    HW128148   3.806   0.362   2.528 -1.9441 -0.1571  0.7909
 5562SOL    HW228149   3.762   0.460   2.632  0.4310  0.1229  1.2697
 5563SOL     OW28150   3.436   0.150   9.536 -0.4026  0.1063 -0.0541
 5563SOL    HW128151   3.489   0.089   9.587 -1.9319 -0.5190  0.7837
 5563SOL    HW228152   3.358   0.158   9.590  0.6522 -0.2301  1.5410
 5564SOL     OW28153   0.756   1.335   4.184 -0.1526 -0.0679  0.1080
 5564SOL    HW128154   0.847   1.307   4.194  0.2206  0.8328 -0.8355
 5564SOL    HW228155   0.761   1.361   4.092  0.2140  0.9073  0.4059
 5565SOL     OW28156   1.588   4.324   7.759  0.1432  0.1910 -0.4084
 5565SOL    HW128157   1.574   4.388   7.689  1.5967  2.4957  1.3749
 5565SOL    HW228158   1.507   4.337   7.808  0.2553  0.4977 -0.3017
 5566SOL     OW28159   1.989   1.169   8.605 -0.6829 -0.3970 -0.2073
 5566SOL    HW128160   1.974   1.174   8.700  0.2018 -1.9564  0.0228
 5566SOL    HW228161   2.084   1.158   8.610 -0.8750 -1.9052  0.3919
 5567SOL     OW28162   3.044   2.263  11.294  0.1160 -0.5356 -0.1495
 5567SOL    HW128163   3.001   2.230  11.373 -0.6189 -0.3443 -0.4735
 5567SOL    HW228164   3.016   2.353  11.307  1.8334  0.0125 -0.2007
 5568SOL     OW28165   3.347   4.657  13.730 -0.1214  0.0147 -0.2463
 5568SOL    HW128166   3.289   0.007  13.717  0.3132  0.4418  0.3455
 5568SOL    HW228167   3.436   4.693  13.727  0.0681 -0.5533 -1.5166
 5569SOL     OW28168   2.244   0.110   7.346  0.3823  0.1359  0.1455
 5569SOL    HW128169   2.256   0.023   7.309  0.3755  0.5369 -0.8066
 5569SOL    HW228170   2.331   0.147   7.331  0.6752 -0.9315 -0.7955
 5570SOL     OW28171   3.069   2.130  12.500  0.2906 -0.1078  0.4541
 5570SOL    HW128172   3.013   2.063  12.461  1.0740 -0.2999 -0.3494
 5570SOL    HW228173   3.123   2.074  12.556  1.1608  0.5925  0.3148
 5571SOL     OW28174   0.265   1.398   2.147  0.0469  0.4265 -0.5595
 5571SOL    HW128175   0.258   1.360   2.059 -0.3160  0.0909 -0.3853
 5571SOL    HW228176   0.359   1.412   2.146  0.0389  0.4856 -0.2965
 5572SOL     OW28177   3.312   1.212  13.515 -0.5873 -0.5537 -0.0493
 5572SOL    HW128178   3.274   1.289  13.472 -0.0111  1.0670  2.3318
 5572SOL    HW228179   3.336   1.252  13.599  1.0751  0.3411 -0.9508
 5573SOL     OW28180   2.585   1.786   8.142  0.1033 -0.5095  0.2285
 5573SOL    HW128181   2.543   1.740   8.069  0.3243 -0.3394 -0.0045
 5573SOL    HW228182   2.536   1.868   8.141 -2.9673 -2.3140  2.2009
 5574SOL     OW28183   2.384   2.587   7.118  0.2148  0.0803  0.1068
 5574SOL    HW128184   2.366   2.608   7.209 -1.1438 -1.1523  0.1336
 5574SOL    HW228185   2.445   2.654   7.089  2.5638 -0.8959  2.8316
 5575SOL     OW28186   2.129   4.198   4.608  0.1971 -0.5019  0.0989
 5575SOL    HW128187   2.165   4.132   4.548 -0.8389  0.0439 -1.1038
 5575SOL    HW228188   2.151   4.278   4.562  2.3196 -0.7506  0.6536
 5576SOL     OW28189   2.256   3.114   8.470  0.1072 -0.4056 -0.0441
 5576SOL    HW128190   2.290   3.091   8.557  0.4385  5.8997  1.4904
 5576SOL    HW228191   2.260   3.209   8.480  0.7336 -0.5850  1.4083
 5577SOL     OW28192   1.036   1.274   4.207  0.0380  0.0860 -0.0992
 5577SOL    HW128193   1.081   1.191   4.224 -0.2571  0.1621  1.0518
 5577SOL    HW228194   1.112   1.332   4.210 -1.2281  1.7983 -1.4754
 5578SOL     OW28195   0.480   3.282   9.231  0.0381  0.3052 -0.3780
 5578SOL    HW128196   0.507   3.205   9.282 -0.0257 -1.6360 -3.2389
 5578SOL    HW228197   0.563   3.330   9.237  0.8591 -1.3606  1.7214
 5579SOL     OW28198   0.343   2.752   4.527 -0.0257  0.0083  0.0751
 5579SOL    HW128199   0.381   2.684   4.473  1.5780  1.2997 -0.4380
 5579SOL    HW228200   0.421   2.807   4.536 -0.2919  0.3310  0.4236
 5580SOL     OW28201   0.835   1.127   1.797 -0.3976  0.0038 -0.1931
 5580SOL    HW128202   0.757   1.088   1.757 -0.0301  0.1512 -1.0587
 5580SOL    HW228203   0.827   1.218   1.769  0.6201 -0.0794 -0.7552
 5581SOL     OW28204   3.101   1.245   2.021  0.2842  0.1951 -0.7643
 5581SOL    HW128205   3.108   1.326   1.970  0.3677 -0.1307 -1.2713
 5581SOL    HW228206   3.093   1.278   2.110 -0.9178 -0.8305 -0.5056
 5582SOL     OW28207   0.633   4.681  13.103  0.0733 -0.1336 -0.5160
 5582SOL    HW128208   0.594   4.657  13.019 -1.5365 -0.1784  0.2511
 5582SOL    HW228209   0.611   4.603  13.154 -0.8858  0.7380  0.4123
 5583SOL     OW28210   1.809   1.766   1.822  0.0377  0.0036 -0.2673
 5583SOL    HW128211   1.730   1.713   1.807  0.0053  0.0874 -0.3871
 5583SOL    HW228212   1.870   1.710   1.775 -0.6018 -1.1624  0.2663
 5584SOL     OW28213   2.305   2.850   8.546 -0.2461 -0.0837 -0.2319
 5584SOL    HW128214   2.237   2.889   8.491 -0.6484  0.8394  0.8985
 5584SOL    HW228215   2.257   2.773   8.580 -1.1757 -0.1329 -1.6641
 5585SOL     OW28216   2.850   2.986   5.971  0.2176  0.3437 -0.4607
 5585SOL    HW128217   2.916   2.917   5.975 -0.3945 -0.2447 -0.3851
 5585SOL    HW228218   2.818   2.971   5.882 -2.3018 -1.1650  0.6902
 5586SOL     OW28219   2.383   2.848  17.334 -0.2720  0.1773 -0.1738
 5586SOL    HW128220   2.400   2.760  17.367 -0.0856 -0.4276 -1.8636
 5586SOL    HW228221   2.381   2.904  17.411 -0.9190  0.7131 -0.5719
 5587SOL     OW28222   4.321   0.383   2.118  0.4219  0.7241  1.0195
 5587SOL    HW128223   4.253   0.324   2.151  0.1168  0.8460  0.6086
 5587SOL    HW228224   4.319   0.370   2.023 -0.9543  2.2712  0.8461
 5588SOL     OW28225   1.867   2.361   2.387 -0.1976 -0.3625 -0.3176
 5588SOL    HW128226   1.802   2.293   2.401  1.7793 -1.7686  2.0733
 5588SOL    HW228227   1.879   2.358   2.292  1.1777  1.3914 -0.2145
 5589SOL     OW28228   3.438   0.539   0.918  0.1160 -0.2054 -0.3274
 5589SOL    HW128229   3.481   0.575   0.996 -0.7934 -2.5916  1.2673
 5589SOL    HW228230   3.505   0.548   0.850 -0.6240  1.7344 -0.7906
 5590SOL     OW28231   1.695   1.395   9.576 -0.1635  0.3089 -0.2788
 5590SOL    HW128232   1.652   1.427   9.655 -0.2877 -2.0309  0.6110
 5590SOL    HW228233   1.623   1.400   9.514 -1.3974 -0.7249  1.0783
 5591SOL     OW28234   2.105   0.841  14.052  0.7051 -0.0678  0.6458
 5591SOL    HW128235   2.076   0.750  14.057 -0.0124 -0.0750 -3.5853
 5591SOL    HW228236   2.143   0.853  14.139  1.1775  2.8508  0.0420
 5592SOL     OW28237   0.343   2.423   6.763  0.3010  0.2974 -0.2154
 5592SOL    HW128238   0.373   2.379   6.842 -0.9621  1.3779  0.8617
 5592SOL    HW228239   0.379   2.511   6.771 -0.4788  1.1864 -6.6209
 5593SOL     OW28240   1.392   3.589  11.801 -0.5961  0.0592 -0.5744
 5593SOL    HW128241   1.310   3.605  11.753 -0.3055  2.5755 -0.2274
 5593SOL    HW228242   1.453   3.632  11.742  4.0768 -1.1185  3.4431
 5594SOL     OW28243   1.941   0.299  14.679 -0.2276  0.7586  0.4649
 5594SOL    HW128244   1.988   0.234  14.731 -0.1858  1.8722  1.8127
 5594SOL    HW228245   1.915   0.249  14.601  1.2720 -0.8930  1.0297
 5595SOL     OW28246   2.289   1.251  10.197 -0.0834  0.4127  0.3183
 5595SOL    HW128247   2.355   1.281  10.135  0.0259  1.2643  0.8447
 5595SOL    HW228248   2.310   1.317  10.263  4.2643  0.2361 -0.9033
 5596SOL     OW28249   2.538   2.445   3.270 -0.2304  0.1677 -1.0815
 5596SOL    HW128250   2.466   2.382   3.260  1.4681 -1.8823 -0.3844
 5596SOL    HW228251   2.606   2.410   3.212  0.4235 -2.2546  1.1402
 5597SOL     OW28252   0.652   2.053  11.688 -0.0359  0.3399 -0.2067
 5597SOL    HW128253   0.569   2.085  11.654  0.3573  1.0062 -0.5432
 5597SOL    HW228254   0.702   2.079  11.610 -2.0752 -2.2339 -2.3721
 5598SOL     OW28255   1.852   4.618   7.579  0.1127  0.4416  0.9048
 5598SOL    HW128256   1.795   4.603   7.654 -0.8420  1.1916  0.3238
 5598SOL    HW228257   1.883   4.535   7.542  1.1321  0.8300  0.8678
 5599SOL     OW28258   4.595   1.576  11.520 -0.2119 -0.3414  0.3078
 5599SOL    HW128259   4.659   1.618  11.578 -1.4039  2.2959 -0.2725
 5599SOL    HW228260   4.658   1.507  11.499  1.0015  0.3451  1.6711
 5600SOL     OW28261   1.050   0.692   2.635  0.2495  0.0302 -0.4162
 5600SOL    HW128262   0.969   0.641   2.632  0.1976 -0.0233  1.4384
 5600SOL    HW228263   1.023   0.750   2.564 -1.0644  1.6911  1.4109
 5601SOL     OW28264   1.342   3.055  12.499  0.3147 -0.3767  0.4403
 5601SOL    HW128265   1.404   3.093  12.561  0.5598  2.5961 -1.6041
 5601SOL    HW228266   1.409   3.030  12.435  0.8575  0.1774  0.7930
 5602SOL     OW28267   4.557   3.091   6.779 -0.5464  1.1624  0.3467
 5602SOL    HW128268   4.564   3.046   6.864  0.0840  0.0807 -0.2663
 5602SOL    HW228269   4.570   3.026   6.710 -2.0137 -0.7197  1.8493
 5603SOL     OW28270   2.019   4.719   8.145 -0.1442  0.6275 -0.7275
 5603SOL    HW128271   2.056   4.656   8.084 -0.0401 -0.6626  0.6651
 5603SOL    HW228272   1.928   4.691   8.146 -0.8179  2.9668  2.9373
 5604SOL     OW28273   3.300   1.492   3.295  0.3792  0.2538  0.4051
 5604SOL    HW128274   3.372   1.441   3.257  1.8821  1.6693  1.3285
 5604SOL    HW228275   3.307   1.478   3.389  2.4260  1.1936  0.3886
 5605SOL     OW28276   3.325   1.171  17.583  0.1010 -0.1844 -0.2100
 5605SOL    HW128277   3.241   1.171  17.629  0.7866 -2.0214  1.0447
 5605SOL    HW228278   3.333   1.083  17.546  0.3196  0.0211 -0.6523
 5606SOL     OW28279   0.971   2.814   6.847  0.1780 -0.8093 -0.3760
 5606SOL    HW128280   1.031   2.844   6.778 -1.5209  0.7363 -1.1843
 5606SOL    HW228281   0.929   2.899   6.858  0.3233 -0.6354 -1.1025
 5607SOL     OW28282   0.311   2.732   6.754 -0.3005  0.1085  0.8431
 5607SOL    HW128283   0.285   2.811   6.802 -1.3824  0.5304 -0.4280
 5607SOL    HW228284   0.407   2.732   6.752 -0.3547 -0.9073 -2.0411
 5608SOL     OW28285   1.954   3.441   1.877  0.3463  0.4326 -0.1597
 5608SOL    HW128286   1.933   3.464   1.787  2.6481 -0.7906 -0.9841
 5608SOL    HW228287   1.892   3.499   1.923  0.1227 -0.5005  0.7246
 5609SOL     OW28288   1.229   2.098   7.251 -0.8355  0.0366 -0.4082
 5609SOL    HW128289   1.262   2.009   7.238 -3.8193 -0.5246 -3.9449
 5609SOL    HW228290   1.134   2.085   7.243 -0.9245 -0.3863  1.1962
 5610SOL     OW28291   1.793   0.765  12.073 -0.2302 -0.3432  0.1105
 5610SOL    HW128292   1.883   0.741  12.051  0.0572  1.5918 -0.8218
 5610SOL    HW228293   1.799   0.806  12.160 -1.1897 -0.4267  0.2123
 5611SOL     OW28294   0.599   2.726   8.862  0.1539  0.0507  0.2492
 5611SOL    HW128295   0.594   2.694   8.952 -0.3128  0.8831  0.5194
 5611SOL    HW228296   0.528   2.790   8.861  0.4360  0.3623  0.1305
 5612SOL     OW28297   2.136   4.675   5.059  0.3659  0.4598  0.0704
 5612SOL    HW128298   2.138   0.040   5.030 -0.2741  0.3713 -0.2396
 5612SOL    HW228299   2.218   4.670   5.109  0.6550  0.0429 -0.4494
 5613SOL     OW28300   0.960   1.649   6.811  0.4017 -0.4847 -0.1580
 5613SOL    HW128301   0.880   1.653   6.758  1.2289 -0.6743 -1.4213
 5613SOL    HW228302   0.992   1.738   6.797 -1.2839  0.2133  0.4008
 5614SOL     OW28303   1.771   2.802   7.035  0.3414 -0.6661  0.1835
 5614SOL    HW128304   1.864   2.822   7.034 -0.0730  1.1750 -0.1782
 5614SOL    HW228305   1.743   2.816   7.126 -1.3631 -1.3878 -0.2201
 5615SOL     OW28306   3.047   3.572   4.307  0.2992 -0.2004  1.1268
 5615SOL    HW128307   3.017   3.514   4.236  0.5511 -0.6760  1.4064
 5615SOL    HW228308   3.059   3.656   4.263 -3.4775 -0.6490 -0.8249
 5616SOL     OW28309   2.730   1.769   8.611  0.4931 -0.0292 -0.4346
 5616SOL    HW128310   2.809   1.755   8.663  0.6209 -0.2538 -0.6903
 5616SOL    HW228311   2.684   1.794   8.691  1.4480 -0.7286  0.3343
 5617SOL     OW28312   4.020   1.470   3.223  0.8903  0.0541  0.3541
 5617SOL    HW128313   3.980   1.384   3.233  0.3377  0.4038  1.1938
 5617SOL    HW228314   4.104   1.437   3.193  2.1347  0.5925  3.3054
 5618SOL     OW28315   1.057   4.358   8.139  0.2164 -0.0385  0.7240
 5618SOL    HW128316   1.068   4.270   8.101  1.2524 -0.2916  1.6002
 5618SOL    HW228317   0.962   4.358   8.144  0.1670 -1.4403 -0.0255
 5619SOL     OW28318   0.544   3.568  13.750  0.6400 -0.5871  0.5124
 5619SOL    HW128319   0.535   3.641  13.690 -0.6674 -0.1984  1.1927
 5619SOL    HW228320   0.636   3.579  13.775  0.3979  2.2060  0.1551
 5620SOL     OW28321   2.609   2.630   3.789 -0.0265 -0.4034  0.3018
 5620SOL    HW128322   2.609   2.698   3.722  2.8395 -2.0706 -1.3824
 5620SOL    HW228323   2.595   2.685   3.866 -1.8995 -0.3113 -0.0933
 5621SOL     OW28324   1.186   1.697   6.480  0.3417 -0.1779 -0.1945
 5621SOL    HW128325   1.216   1.742   6.402  1.0886 -0.4176 -0.0440
 5621SOL    HW228326   1.100   1.739   6.486 -0.1986 -1.4433  0.9762
 5622SOL     OW28327   0.197   3.421   8.346 -0.1911  0.5679  0.6972
 5622SOL    HW128328   0.122   3.465   8.307  1.2852  0.7686 -1.8956
 5622SOL    HW228329   0.179   3.327   8.339 -1.3385  0.7472  1.1873
 5623SOL     OW28330   4.060   0.479  17.206  0.8646 -0.2107 -0.0996
 5623SOL    HW128331   4.066   0.490  17.112  0.5589 -0.0668 -0.1023
 5623SOL    HW228332   4.012   0.396  17.211  0.3175  0.1972  1.4622
 5624SOL     OW28333   3.058   2.011  16.056 -0.1751  0.1158 -0.0312
 5624SOL    HW128334   3.082   1.946  15.990 -0.6266 -0.9025  0.8110
 5624SOL    HW228335   2.998   2.059  15.998  1.4201  1.2920 -0.7058
 5625SOL     OW28336   3.784   3.730  12.605 -0.0176 -0.2771  0.8076
 5625SOL    HW128337   3.809   3.740  12.513 -4.3297 -3.5242 -0.6927
 5625SOL    HW228338   3.695   3.696  12.598 -0.5417  0.5930  3.2790
 5626SOL     OW28339   0.530   4.614   5.778 -0.0416  0.3128  0.0958
 5626SOL    HW128340   0.538   4.707   5.801 -3.8626  0.5028  0.7191
 5626SOL    HW228341   0.600   4.588   5.838 -0.1464 -0.0194  0.0734
 5627SOL     OW28342   2.766   4.463   5.949 -0.3908 -0.6820 -0.0121
 5627SOL    HW128343   2.837   4.500   5.897 -1.8507  1.4547 -0.4565
 5627SOL    HW228344   2.800   4.491   6.034  0.8913 -1.3885 -0.2857
 5628SOL     OW28345   4.096   0.486   2.461  0.4886 -0.0351  0.6717
 5628SOL    HW128346   4.004   0.469   2.479  0.6557 -1.3344  0.2981
 5628SOL    HW228347   4.089   0.510   2.368 -0.5721  0.8537  0.9827
 5629SOL     OW28348   3.267   2.055   7.932  0.5665  0.3617  0.1686
 5629SOL    HW128349   3.237   2.029   7.845  0.9569 -0.8396  0.3836
 5629SOL    HW228350   3.218   2.007   7.999  2.1286 -0.2212  0.9011
 5630SOL     OW28351   3.787   1.984   5.959  0.1795 -0.0161  0.2766
 5630SOL    HW128352   3.767   2.037   5.882 -2.0617  0.6546  1.3442
 5630SOL    HW228353   3.800   2.053   6.024 -1.0944 -1.1017  1.6961
 5631SOL     OW28354   1.760   2.366   5.393 -0.5936  0.1072 -0.4344
 5631SOL    HW128355   1.813   2.440   5.423 -1.8009  1.0758 -0.6585
 5631SOL    HW228356   1.800   2.299   5.448  0.4092  2.1432  1.3362
 5632SOL     OW28357   1.258   3.075   6.739 -0.3073 -0.0997  0.5413
 5632SOL    HW128358   1.301   3.138   6.681  1.4427  0.1778  2.1551
 5632SOL    HW228359   1.230   3.129   6.812 -1.5298 -1.3515  1.0013
 5633SOL     OW28360   2.705   1.923   1.563  0.3113 -0.1670 -0.3345
 5633SOL    HW128361   2.736   1.921   1.473  0.9134 -0.6111 -0.1211
 5633SOL    HW228362   2.659   1.839   1.575 -0.3053  0.2976  0.4993
 5634SOL     OW28363   1.727   4.615  17.145 -0.0808 -0.4575 -0.6613
 5634SOL    HW128364   1.710   4.708  17.162 -1.6137 -0.8075 -0.3048
 5634SOL    HW228365   1.705   4.608  17.052 -0.4864 -2.0125 -0.4416
 5635SOL     OW28366   1.268   3.369   3.897 -0.3354 -0.1648 -0.5457
 5635SOL    HW128367   1.198   3.356   3.961  0.9122  1.2742  1.1108
 5635SOL    HW228368   1.229   3.392   3.813 -2.1227  1.4820  0.7328
 5636SOL     OW28369   2.676   2.875   6.716 -0.5194  0.0952 -0.1479
 5636SOL    HW128370   2.738   2.812   6.678  0.5432 -0.2642  2.1741
 5636SOL    HW228371   2.596   2.836   6.680  0.1648  0.0113 -1.5755
 5637SOL     OW28372   0.129   1.411   7.426 -0.1097 -0.4026  0.3224
 5637SOL    HW128373   0.060   1.417   7.492  0.6765 -2.3137  1.3002
 5637SOL    HW228374   0.178   1.491   7.446 -0.4401 -0.8036  2.6750
 5638SOL     OW28375   3.098   3.406   8.568 -0.0215  0.2680  0.5833
 5638SOL    HW128376   3.018   3.356   8.560  0.0200  0.4169 -0.8176
 5638SOL    HW228377   3.080   3.481   8.511  1.5357 -1.1131 -1.7404
 5639SOL     OW28378   2.417   4.389  11.681 -0.4073 -0.0739 -0.8182
 5639SOL    HW128379   2.461   4.305  11.696 -0.9852  0.0578  1.5604
 5639SOL    HW228380   2.441   4.431  11.763 -1.2446  0.3650 -0.8099
 5640SOL     OW28381   0.141   4.606   0.551  0.0827 -0.1414  0.2233
 5640SOL    HW128382   0.164   4.616   0.459 -0.8436 -0.9249 -0.0844
 5640SOL    HW228383   0.153   4.512   0.562  2.7102  0.0635 -0.8135
 5641SOL     OW28384   2.745   3.727   9.137  0.5784  0.2181 -0.1127
 5641SOL    HW128385   2.650   3.737   9.125  0.4147 -1.5019 -0.2736
 5641SOL    HW228386   2.762   3.818   9.113  0.0573  0.3319 -0.0509
 5642SOL     OW28387   1.516   3.867  13.001  0.0369  0.0018  0.0111
 5642SOL    HW128388   1.431   3.824  12.998 -0.2612  0.7483 -2.0344
 5642SOL    HW228389   1.509   3.938  12.937 -1.0003 -1.9178 -2.0170
 5643SOL     OW28390   2.464   3.789   3.922  0.3739  0.3505 -0.1228
 5643SOL    HW128391   2.414   3.787   3.840  1.6223 -0.3435 -0.8718
 5643SOL    HW228392   2.543   3.744   3.893 -0.5398 -2.7582  2.1579
 5644SOL     OW28393   1.872   2.485   1.696 -0.2236  0.3832  0.3194
 5644SOL    HW128394   1.916   2.456   1.616  1.3839 -0.7822  1.6212
 5644SOL    HW228395   1.944   2.447   1.746  0.6487 -0.3430 -1.4725
 5645SOL     OW28396   0.672   3.215  14.710  0.0145  0.3529  0.0786
 5645SOL    HW128397   0.739   3.168  14.660 -1.5382 -0.2132 -1.4584
 5645SOL    HW228398   0.716   3.299  14.699  0.7707 -0.0875 -0.3325
 5646SOL     OW28399   2.413   3.549   3.081 -0.8397 -0.1927  0.0325
 5646SOL    HW128400   2.338   3.530   3.139 -0.3902  1.1685  1.0723
 5646SOL    HW228401   2.434   3.639   3.106  0.6539 -0.3671 -0.6657
 5647SOL     OW28402   3.607   2.917   6.142 -0.0082  0.0980 -0.1813
 5647SOL    HW128403   3.652   2.958   6.216  0.8137 -1.7606  0.3410
 5647SOL    HW228404   3.663   2.843   6.118 -0.3782  0.6080 -2.6711
 5648SOL     OW28405   0.005   3.569  10.520  0.5529  0.0188 -0.2826
 5648SOL    HW128406   4.680   3.644  10.553  1.6531 -0.1377  1.7760
 5648SOL    HW228407   0.094   3.599  10.535 -0.1407  1.9104  0.1429
 5649SOL     OW28408   2.798   1.710   1.851  0.7579  0.0063  0.7163
 5649SOL    HW128409   2.833   1.700   1.763  1.3264 -0.6494  1.0177
 5649SOL    HW228410   2.756   1.796   1.840 -2.8502 -1.7623  0.7534
 5650SOL     OW28411   3.626   4.640   8.312  0.0077 -0.0834 -0.4678
 5650SOL    HW128412   3.565   4.573   8.344  2.0061 -1.8701 -0.3701
 5650SOL    HW228413   3.615   4.635   8.217  1.5163  0.7281 -0.6921
 5651SOL     OW28414   3.569   3.484   7.398  0.4214  0.4651 -0.4191
 5651SOL    HW128415   3.609   3.465   7.313  4.2237 -2.2531  2.0100
 5651SOL    HW228416   3.517   3.406   7.418 -0.5434  1.4003  0.7111
 5652SOL     OW28417   2.600   2.837   7.954 -0.4722  0.5187 -0.1574
 5652SOL    HW128418   2.532   2.904   7.949 -1.4700 -0.5799 -1.4031
 5652SOL    HW228419   2.641   2.862   8.037 -1.6755 -2.3025  1.3021
 5653SOL     OW28420   3.993   1.572  17.281 -0.3513 -0.1081  0.1758
 5653SOL    HW128421   4.004   1.488  17.324 -0.8320  0.0605  0.6295
 5653SOL    HW228422   3.942   1.623  17.344 -0.1690 -0.8533  0.9216
 5654SOL     OW28423   2.682   2.045  11.951  0.3744 -0.1045 -0.2137
 5654SOL    HW128424   2.619   2.070  12.019  0.4136 -1.9803  0.5187
 5654SOL    HW228425   2.752   1.998  11.995  1.3192  0.1341 -1.4729
 5655SOL     OW28426   2.624   2.225   0.899 -0.3650  0.7383  0.1469
 5655SOL    HW128427   2.561   2.166   0.940  0.1547  0.4939  0.5951
 5655SOL    HW228428   2.589   2.250   0.813  2.2746 -0.7507 -1.3528
 5656SOL     OW28429   2.157   2.098   2.392  0.6152 -0.1313  0.0927
 5656SOL    HW128430   2.065   2.123   2.397  0.0994 -1.4373 -2.7687
 5656SOL    HW228431   2.197   2.179   2.424 -0.4968  0.5310 -0.2165
 5657SOL     OW28432   0.924   3.075   5.184  0.1614 -0.2943 -0.0761
 5657SOL    HW128433   0.936   3.151   5.126 -0.1759  0.7872  1.2660
 5657SOL    HW228434   1.001   3.030   5.149  0.7725  0.8592 -0.2264
 5658SOL     OW28435   4.448   3.665  17.340  0.3506  0.1522  0.0401
 5658SOL    HW128436   4.381   3.598  17.350 -0.4460  1.1634  1.4695
 5658SOL    HW228437   4.452   3.676  17.245 -0.7132  2.5074  0.2614
 5659SOL     OW28438   0.333   0.196  14.704  0.1813  0.7699  0.3008
 5659SOL    HW128439   0.308   0.196  14.611  2.4171  1.6213 -0.3020
 5659SOL    HW228440   0.313   0.107  14.735 -3.0514  0.7959 -1.6678
 5660SOL     OW28441   3.696   3.871   8.730  0.3289  0.3906  0.1889
 5660SOL    HW128442   3.785   3.872   8.697  0.1637  0.3742 -0.2617
 5660SOL    HW228443   3.663   3.801   8.673  4.0353 -0.1278 -1.3088
 5661SOL     OW28444   4.648   2.034   9.217  0.1038 -0.1382 -0.0473
 5661SOL    HW128445   4.634   2.126   9.196 -0.5331  0.1945  1.8755
 5661SOL    HW228446   4.621   1.982   9.142  0.3887  1.1795 -1.0652
 5662SOL     OW28447   2.408   2.061   0.965 -0.6132 -0.8429 -0.1175
 5662SOL    HW128448   2.374   1.993   0.906 -2.0652 -0.0994 -0.1308
 5662SOL    HW228449   2.352   2.060   1.042  2.2175  0.4059  1.9819
 5663SOL     OW28450   1.050   3.136   4.638 -0.1398  0.2551 -0.0982
 5663SOL    HW128451   1.104   3.171   4.567  1.7127  0.6826  1.5215
 5663SOL    HW228452   1.105   3.158   4.713 -1.3657 -4.7432  2.3125
 5664SOL     OW28453   3.558   0.206   5.751 -0.4001  0.4147 -0.0803
 5664SOL    HW128454   3.602   0.257   5.819  0.1684 -1.0621  0.6645
 5664SOL    HW228455   3.547   0.125   5.801  0.3652  0.9678  0.9898
 5665SOL     OW28456   3.018   3.584  15.440  0.3518 -0.2792  0.0835
 5665SOL    HW128457   3.006   3.546  15.527 -0.5401 -2.1204 -0.8482
 5665SOL    HW228458   2.930   3.573  15.404 -0.5174  1.1875  1.7678
 5666SOL     OW28459   1.703   1.776   9.294 -0.4316 -0.6597 -0.6267
 5666SOL    HW128460   1.759   1.751   9.221 -1.8586 -0.8532 -1.6561
 5666SOL    HW228461   1.739   1.716   9.360  0.4809 -0.1104 -0.6151
 5667SOL     OW28462   3.495   3.007   7.897  0.5599  0.4005 -0.1813
 5667SOL    HW128463   3.527   3.092   7.867  1.8928 -0.7077 -1.9471
 5667SOL    HW228464   3.407   3.010   7.859  0.2156 -0.9599  0.5217
 5668SOL     OW28465   1.363   2.748   6.385 -0.9625  0.4434  0.1342
 5668SOL    HW128466   1.409   2.808   6.326  0.2866  0.7355  1.4029
 5668SOL    HW228467   1.390   2.665   6.345 -0.1321 -0.4131  2.4912
 5669SOL     OW28468   3.684   4.171   7.620 -0.3244 -0.1640  0.9586
 5669SOL    HW128469   3.660   4.249   7.569  0.9636 -0.0969  0.4685
 5669SOL    HW228470   3.618   4.106   7.596  0.9555 -0.6775 -1.1647
 5670SOL     OW28471   4.044   4.135   7.817  0.4500  0.2237 -0.5061
 5670SOL    HW128472   4.098   4.102   7.888 -0.4765 -2.8056 -1.2148
 5670SOL    HW228473   3.984   4.196   7.860  0.0831  0.3318 -1.1576
 5671SOL     OW28474   1.888   0.004   3.584  0.0608 -0.1492 -0.5916
 5671SOL    HW128475   1.916   4.639   3.574 -0.0604 -0.4074  1.3276
 5671SOL    HW228476   1.937   0.032   3.661  0.5059  0.2274 -1.0147
 5672SOL     OW28477   1.850   0.111   5.739  0.2162 -0.8117 -0.2804
 5672SOL    HW128478   1.923   0.053   5.715 -1.6296 -2.6249 -1.4405
 5672SOL    HW228479   1.856   0.116   5.834 -0.4264 -1.7308 -0.1969
 5673SOL     OW28480   1.188   2.680   8.405 -0.3811  0.6179 -0.1997
 5673SOL    HW128481   1.229   2.764   8.386 -0.7829  0.7783 -0.3648
 5673SOL    HW228482   1.263   2.630   8.436 -0.5320  0.8028  0.4835
 5674SOL     OW28483   2.742   1.188   1.540 -0.4832  0.3642 -0.2704
 5674SOL    HW128484   2.771   1.201   1.630 -0.0455  2.5261 -0.7347
 5674SOL    HW228485   2.650   1.212   1.546 -0.6905  0.3284 -3.1877
 5675SOL     OW28486   4.201   0.246   4.095  0.1870  0.2051 -0.6278
 5675SOL    HW128487   4.109   0.273   4.099  0.5344  1.4263 -0.9361
 5675SOL    HW228488   4.203   0.157   4.131 -2.6062  0.5000  0.2962
 5676SOL     OW28489   0.749   1.756  15.899 -0.0682  0.6349 -0.0229
 5676SOL    HW128490   0.687   1.828  15.911 -0.0724  0.2190  2.5245
 5676SOL    HW228491   0.749   1.720  15.988  0.8465  0.3627 -0.1338
 5677SOL     OW28492   4.368   2.472  15.684  0.1435  0.0707 -0.2344
 5677SOL    HW128493   4.336   2.438  15.767  0.3398 -1.7876 -0.9174
 5677SOL    HW228494   4.332   2.561  15.678  1.8708  0.8010  0.1957
 5678SOL     OW28495   2.918   1.504   3.869  0.1591  0.4008  0.0403
 5678SOL    HW128496   2.889   1.439   3.804 -2.2047 -0.2291  1.7172
 5678SOL    HW228497   2.835   1.551   3.873 -0.5996 -0.7717 -1.6704
 5679SOL     OW28498   1.108   2.077   6.566  0.6424  0.9338  0.5309
 5679SOL    HW128499   1.198   2.066   6.594 -0.1832  0.2948  2.9243
 5679SOL    HW228500   1.104   2.169   6.543  1.9935 -0.0065 -3.4529
 5680SOL     OW28501   3.630   0.404   7.760  0.1529 -0.4608 -0.0776
 5680SOL    HW128502   3.538   0.386   7.779  0.2571 -0.6762  0.2310
 5680SOL    HW228503   3.639   0.498   7.780  1.8673 -0.1246 -2.4361
 5681SOL     OW28504   3.593   0.221  15.862  0.0171 -0.0430 -0.4359
 5681SOL    HW128505   3.654   0.153  15.833 -0.6956 -0.5098 -0.8057
 5681SOL    HW228506   3.645   0.271  15.926  1.2137 -1.7276 -0.1013
 5682SOL     OW28507   0.618   4.416   5.505  0.2865  0.0338  0.8628
 5682SOL    HW128508   0.618   4.325   5.476  0.9551  0.1921  0.3631
 5682SOL    HW228509   0.709   4.427   5.533  0.3700 -1.2282  1.0696
 5683SOL     OW28510   4.422   3.821  14.702  0.7255  0.2658 -0.0803
 5683SOL    HW128511   4.349   3.845  14.760  1.8285 -0.5951  1.6503
 5683SOL    HW228512   4.390   3.748  14.650  1.3747  0.1328 -0.2851
 5684SOL     OW28513   1.416   2.511   9.216 -0.5606  0.0557  0.1386
 5684SOL    HW128514   1.399   2.469   9.131 -2.8817 -3.3633  2.2916
 5684SOL    HW228515   1.511   2.508   9.217 -0.5179  2.0853  0.4069
 5685SOL     OW28516   0.098   1.437  13.413  0.6168 -0.3909  0.0424
 5685SOL    HW128517   0.170   1.492  13.446  0.3070  0.1824 -0.2253
 5685SOL    HW228518   0.048   1.416  13.492 -0.0996 -2.2823 -0.9403
 5686SOL     OW28519   4.350   0.606   8.388 -0.7088  0.0974  0.3781
 5686SOL    HW128520   4.343   0.609   8.293 -0.3101  0.2600  0.3531
 5686SOL    HW228521   4.275   0.658   8.417 -1.3371 -0.6969  0.1540
 5687SOL     OW28522   2.463   1.437   0.000  0.0789  0.4799 -0.1267
 5687SOL    HW128523   2.499   1.360   0.044  0.8434  1.9968  1.9153
 5687SOL    HW228524   2.492   1.508   0.057 -1.6476 -0.0793  1.4621
 5688SOL     OW28525   4.465   1.437   5.897  0.4943 -0.4971 -0.2235
 5688SOL    HW128526   4.462   1.341   5.899 -0.8617 -0.4285  0.9349
 5688SOL    HW228527   4.547   1.444   5.945 -0.6182 -1.8013  1.8789
 5689SOL     OW28528   2.226   4.085   3.533 -0.3460  0.1330  0.0952
 5689SOL    HW128529   2.286   4.157   3.553  0.6825 -1.0358  1.1529
 5689SOL    HW228530   2.141   4.111   3.569  0.1681  0.6989  0.8931
 5690SOL     OW28531   2.737   1.029   5.134  0.1712  0.3764 -0.8815
 5690SOL    HW128532   2.824   1.049   5.099  0.5421 -2.2752 -1.5335
 5690SOL    HW228533   2.739   1.067   5.222 -0.7503 -2.1946  0.2665
 5691SOL     OW28534   2.242   1.474  17.535  0.3356  0.3544 -0.0725
 5691SOL    HW128535   2.198   1.417  17.599 -0.3392  0.2187 -0.6496
 5691SOL    HW228536   2.328   1.473  17.577 -0.6100 -5.0758  1.8304
 5692SOL     OW28537   2.306   1.243   2.500 -0.6260  0.1561  0.4265
 5692SOL    HW128538   2.317   1.163   2.449 -0.3251 -0.8990  2.1423
 5692SOL    HW228539   2.260   1.302   2.441  0.6022 -1.7918 -2.4692
 5693SOL     OW28540   0.810   0.378   3.334  0.1084  0.0669 -0.2589
 5693SOL    HW128541   0.749   0.418   3.396 -2.7389 -1.1741 -2.2305
 5693SOL    HW228542   0.777   0.288   3.327 -0.1332  0.0809  0.7179
 5694SOL     OW28543   3.941   4.535   3.065  0.0892  0.1470  0.1786
 5694SOL    HW128544   3.965   4.513   3.154 -2.1567  1.0457  1.0037
 5694SOL    HW228545   3.845   4.531   3.066  0.1985 -2.2512  0.2607
 5695SOL     OW28546   2.727   4.369   8.577  0.0704 -0.5757  0.3369
 5695SOL    HW128547   2.734   4.349   8.671 -1.3857 -1.4850  0.2591
 5695SOL    HW228548   2.690   4.285   8.550 -1.4426 -0.3641  1.6882
 5696SOL     OW28549   3.191   1.361   8.017 -0.2726 -0.3075  0.8274
 5696SOL    HW128550   3.124   1.422   8.046  0.7102  0.0077  2.4843
 5696SOL    HW228551   3.154   1.324   7.937  1.6695  0.9370 -0.6470
 5697SOL     OW28552   4.171   0.603  15.721  0.2211  0.0262 -0.3367
 5697SOL    HW128553   4.135   0.579  15.636  2.0126  0.7281 -1.2976
 5697SOL    HW228554   4.255   0.645  15.702  0.2075 -0.7336 -2.0369
 5698SOL     OW28555   0.047   0.938   2.077  0.2002  0.6398  0.0604
 5698SOL    HW128556   0.110   0.985   2.023  1.7485 -0.5715  0.8171
 5698SOL    HW228557   4.716   0.917   2.002 -1.0789 -0.0841  1.2325
 5699SOL     OW28558   3.277   0.535   5.055  0.3489  0.1130 -0.7579
 5699SOL    HW128559   3.318   0.618   5.029 -1.9381  1.2492 -0.7883
 5699SOL    HW228560   3.187   0.559   5.033  1.0404  2.0763 -1.4471
 5700SOL     OW28561   4.247   2.009  14.685  0.1017  0.3275  0.6740
 5700SOL    HW128562   4.190   2.055  14.747 -0.5853 -2.8009  2.3552
 5700SOL    HW228563   4.288   1.944  14.741  0.5260 -0.9704 -1.1381
 5701SOL     OW28564   0.541   4.051   6.454 -0.6017 -0.3999 -0.3813
 5701SOL    HW128565   0.535   4.119   6.387  3.3816  2.9903  2.6641
 5701SOL    HW228566   0.473   4.076   6.515  0.0943  0.1677  0.1540
 5702SOL     OW28567   3.910   1.016   1.779 -0.4459  0.5713 -0.1956
 5702SOL    HW128568   3.925   1.107   1.754 -1.0663  0.2846 -1.6260
 5702SOL    HW228569   3.887   0.977   1.695 -0.9557  2.0108 -0.7286
 5703SOL     OW28570   2.269   3.695   4.359 -0.1303 -0.0431 -0.0623
 5703SOL    HW128571   2.358   3.694   4.323 -0.2010  0.2697 -0.2434
 5703SOL    HW228572   2.282   3.648   4.441 -0.0971  1.5780  0.8571
 5704SOL     OW28573   0.270   1.438  17.236 -0.1417 -0.7540  0.4551
 5704SOL    HW128574   0.190   1.386  17.232 -0.4081 -0.3766  0.7784
 5704SOL    HW228575   0.316   1.389  17.304  1.3651  0.2359  0.1508
 5705SOL     OW28576   2.811   2.729  13.529  0.2052  0.2012  0.4978
 5705SOL    HW128577   2.837   2.667  13.460  0.9132  0.6160  0.3842
 5705SOL    HW228578   2.716   2.718  13.528  0.3224 -0.7250 -2.5949
 5706SOL     OW28579   3.645   0.918   4.379  0.7944  0.4297 -0.1995
 5706SOL    HW128580   3.565   0.969   4.390 -0.3300 -1.3119 -0.4519
 5706SOL    HW228581   3.627   0.834   4.421 -3.4148  1.9647  1.0095
 5707SOL     OW28582   3.946   1.307   8.814  0.5437 -0.3141 -0.2985
 5707SOL    HW128583   3.960   1.315   8.720 -2.9034 -0.5429 -0.8233
 5707SOL    HW228584   3.993   1.225   8.827  2.6627  1.3416  2.3769
 5708SOL     OW28585   2.943   1.116   5.835 -0.4411  0.7344 -0.3639
 5708SOL    HW128586   2.942   1.054   5.908 -1.2292  0.7462 -0.3685
 5708SOL    HW228587   2.986   1.183   5.887 -1.5880  1.3346 -0.2000
 5709SOL     OW28588   2.212   2.306   4.010 -0.6273 -0.1305  0.2497
 5709SOL    HW128589   2.292   2.270   3.971 -0.8378  2.5409 -2.5914
 5709SOL    HW228590   2.236   2.309   4.103  1.0929  2.8817 -0.3090
 5710SOL     OW28591   4.256   1.739   3.553  0.5161  0.4089 -0.2814
 5710SOL    HW128592   4.340   1.695   3.565  0.1666  0.9346  3.9508
 5710SOL    HW228593   4.219   1.764   3.637  0.9301  1.6295 -0.4597
 5711SOL     OW28594   2.982   0.917   6.564  0.5194 -0.1934  0.4548
 5711SOL    HW128595   2.893   0.897   6.595 -0.5929  3.0183 -0.6201
 5711SOL    HW228596   2.982   0.834   6.516  1.3189 -0.5201  1.0335
 5712SOL     OW28597   1.783   1.731   1.078  0.4444 -0.4528  0.5777
 5712SOL    HW128598   1.859   1.675   1.095  2.5178  2.1108 -0.3814
 5712SOL    HW228599   1.718   1.672   1.117  1.6337 -2.0405  0.1788
 5713SOL     OW28600   0.896   1.535   3.719  0.2951 -0.0162 -0.3069
 5713SOL    HW128601   0.917   1.609   3.661 -0.0866  0.7202  0.4884
 5713SOL    HW228602   0.974   1.481   3.723  0.0008 -0.3067  1.4211
 5714SOL     OW28603   2.966   1.793  13.780 -0.3069  0.1252  0.2299
 5714SOL    HW128604   2.884   1.796  13.831 -1.2538 -2.5922 -1.1426
 5714SOL    HW228605   3.027   1.807  13.852 -0.2199 -0.5626  0.2906
 5715SOL     OW28606   0.335   1.716   9.506  0.2350 -0.6818  0.5092
 5715SOL    HW128607   0.404   1.660   9.540  2.4490  1.2566 -0.8134
 5715SOL    HW228608   0.268   1.651   9.484 -0.2245  0.6338 -2.0430
 5716SOL     OW28609   1.569   3.314   4.692 -0.3240 -0.0637  0.0638
 5716SOL    HW128610   1.595   3.395   4.649  0.8784  0.2609  1.3825
 5716SOL    HW228611   1.598   3.247   4.630  0.7297  1.5353 -1.1716
 5717SOL     OW28612   3.095   3.564   0.972  0.3347  0.2871  0.0702
 5717SOL    HW128613   3.154   3.603   0.907  1.0955  0.3626  0.8081
 5717SOL    HW228614   3.117   3.620   1.046  0.6566  1.4382 -0.8901
 5718SOL     OW28615   4.664   3.481  10.272 -0.2289  0.0917  0.0231
 5718SOL    HW128616   4.697   3.519  10.354 -0.0297  0.1037 -0.0638
 5718SOL    HW228617   4.619   3.555  10.230  2.4678  1.4361 -0.4766
 5719SOL     OW28618   0.541   3.217  16.274 -0.2569 -0.6801 -0.0473
 5719SOL    HW128619   0.612   3.171  16.229  0.4388  1.3708 -1.0616
 5719SOL    HW228620   0.491   3.146  16.315 -0.1900 -0.2577  0.7610
 5720SOL     OW28621   0.727   2.352  16.315  0.3408 -0.0967 -0.5242
 5720SOL    HW128622   0.775   2.433  16.332  0.4970 -0.3985  0.5022
 5720SOL    HW228623   0.773   2.290  16.372  0.1667  0.7617  0.5413
 5721SOL     OW28624   2.030   4.233  10.085 -0.5462 -0.4493 -0.1568
 5721SOL    HW128625   1.972   4.175  10.135  0.0405 -0.9732 -0.0926
 5721SOL    HW228626   2.011   4.318  10.124 -0.9473 -1.3162  1.5570
 5722SOL     OW28627   2.263   0.341   7.992  0.6739  0.6673  0.4178
 5722SOL    HW128628   2.182   0.390   7.977  1.5848  1.6188 -1.4209
 5722SOL    HW228629   2.212   0.260   7.983  2.1188 -0.0499 -1.2191
 5723SOL     OW28630   3.566   1.464   2.506  0.1291 -0.0058 -0.3436
 5723SOL    HW128631   3.493   1.489   2.450 -0.5164 -1.2377 -0.0512
 5723SOL    HW228632   3.617   1.416   2.441  0.0526  1.2891 -1.3705
 5724SOL     OW28633   3.985   0.955   7.462 -0.3748  0.1104 -0.6542
 5724SOL    HW128634   4.033   0.899   7.402 -1.8340 -2.8585  0.9620
 5724SOL    HW228635   3.906   0.902   7.470 -0.8503  0.8277 -0.5961
 5725SOL     OW28636   4.183   4.204   1.743  0.3432 -0.2435 -0.0339
 5725SOL    HW128637   4.232   4.258   1.806 -2.7908 -0.6587  2.7410
 5725SOL    HW228638   4.257   4.147   1.720  1.1927  1.2055 -0.8780
 5726SOL     OW28639   4.287   1.088   9.632 -0.3142 -0.0905  0.3021
 5726SOL    HW128640   4.365   1.137   9.658  0.2597 -0.6083 -0.4321
 5726SOL    HW228641   4.230   1.114   9.704  0.1262  1.0073  0.2478
 5727SOL     OW28642   0.102   0.925  10.681  0.0465 -0.3178 -0.3212
 5727SOL    HW128643   0.085   1.017  10.663  0.4204  0.0044  1.0136
 5727SOL    HW228644   0.091   0.882  10.596 -0.0835  1.2535 -1.0929
 5728SOL     OW28645   4.618   4.703  16.743 -1.0831  0.2902 -0.5637
 5728SOL    HW128646   4.709   0.008  16.742 -1.0531  0.1808 -0.9247
 5728SOL    HW228647   4.582   0.041  16.681  1.2300  2.1759  0.0078
 5729SOL     OW28648   4.610   4.338   4.190 -0.3916 -0.3475  0.3055
 5729SOL    HW128649   4.651   4.339   4.103 -0.9221  2.4917  0.0798
 5729SOL    HW228650   4.651   4.415   4.230 -1.9525  0.9678 -0.5852
 5730SOL     OW28651   1.592   4.460   8.037 -0.2930 -0.0410 -0.6411
 5730SOL    HW128652   1.517   4.450   7.980 -1.9156  1.3232  1.2549
 5730SOL    HW228653   1.571   4.386   8.094 -1.0513  1.6106  1.2201
 5731SOL     OW28654   3.186   0.634   6.802 -0.4190 -0.3522 -0.2104
 5731SOL    HW128655   3.162   0.603   6.890 -0.6299  1.3468  0.3402
 5731SOL    HW228656   3.102   0.633   6.756 -0.9690 -1.5630  0.8171
 5732SOL     OW28657   4.440   4.354  16.802 -0.8085  0.0446  0.1582
 5732SOL    HW128658   4.392   4.272  16.788  0.1664 -0.5910  0.5138
 5732SOL    HW228659   4.362   4.400  16.832 -0.4838 -0.4614  1.7866
 5733SOL     OW28660   4.660   4.694   0.773 -0.2865 -0.3067 -0.4164
 5733SOL    HW128661   4.713   4.669   0.697  0.6092 -0.8143  0.3734
 5733SOL    HW228662   4.706   0.045   0.807  0.9655 -1.4072  0.3722
 5734SOL     OW28663   1.534   1.725   0.045  0.1672 -0.1641 -0.1420
 5734SOL    HW128664   1.484   1.729  17.668 -0.1605  1.0555  0.1286
 5734SOL    HW228665   1.520   1.812   0.082 -1.8933 -1.1475  1.3453
 5735SOL     OW28666   0.361   3.722   5.645 -0.4418  0.8311  0.4421
 5735SOL    HW128667   0.375   3.629   5.663  0.3670  1.1974  1.6296
 5735SOL    HW228668   0.306   3.716   5.566  1.2870 -0.8629 -0.6153
 5736SOL     OW28669   1.156   0.068  12.645  0.3118 -0.2675 -0.0707
 5736SOL    HW128670   1.183   0.159  12.656  0.6209 -0.4258  0.4885
 5736SOL    HW228671   1.236   0.032  12.608  2.1047  1.6280  1.9790
 5737SOL     OW28672   4.628   3.438   4.949  0.0339  0.3274 -0.0780
 5737SOL    HW128673   4.699   3.375   4.965  0.1596  1.1417  2.6992
 5737SOL    HW228674   4.591   3.449   5.037  1.2502 -0.5135  0.5453
 5738SOL     OW28675   0.224   2.552   9.150 -0.0077  0.2639  0.0729
 5738SOL    HW128676   0.298   2.499   9.121 -0.8245 -0.7303 -0.2220
 5738SOL    HW228677   0.188   2.497   9.220 -1.6613 -1.3683 -2.0404
 5739SOL     OW28678   0.706   4.168   8.633 -0.1267 -0.2322  0.1438
 5739SOL    HW128679   0.677   4.228   8.703 -1.5479 -0.4971 -0.2224
 5739SOL    HW228680   0.725   4.090   8.685  0.0389 -0.6932 -0.6072
 5740SOL     OW28681   3.152   0.595   4.684 -0.5159  0.2866 -0.2017
 5740SOL    HW128682   3.223   0.533   4.700 -1.0965 -0.2891  0.1256
 5740SOL    HW228683   3.180   0.630   4.600 -2.6195  0.3175 -0.9035
 5741SOL     OW28684   2.574   0.631   0.506  0.4670 -0.2109 -0.2196
 5741SOL    HW128685   2.561   0.600   0.596  3.5368  0.3892  0.3981
 5741SOL    HW228686   2.559   0.725   0.513 -0.9894 -0.2366 -2.8349
 5742SOL     OW28687   3.254   4.081  16.001 -0.8145 -0.0499  0.1534
 5742SOL    HW128688   3.191   4.038  15.943  0.8650  0.1744 -1.8469
 5742SOL    HW228689   3.331   4.025  15.993 -0.5663  0.1496  1.1768
 5743SOL     OW28690   3.642   2.546   5.733  0.3624 -0.0755 -0.0842
 5743SOL    HW128691   3.644   2.474   5.796 -1.3269  0.2377  0.3103
 5743SOL    HW228692   3.553   2.544   5.699 -0.4274 -1.7530  2.0886
 5744SOL     OW28693   3.236   4.416   7.547  0.2345  0.4066 -0.2095
 5744SOL    HW128694   3.238   4.436   7.641  0.0875  1.7586 -0.4899
 5744SOL    HW228695   3.209   4.324   7.552  1.3180  0.0163 -1.5704
 5745SOL     OW28696   0.738   3.620   3.019 -0.1786  0.2787 -0.2688
 5745SOL    HW128697   0.792   3.674   2.962 -0.1699 -0.1757 -0.6908
 5745SOL    HW228698   0.733   3.543   2.962 -2.2281  1.2556 -1.4163
 5746SOL     OW28699   0.911   4.619   1.507  0.0494 -0.7560 -0.2205
 5746SOL    HW128700   0.818   4.618   1.484  1.1314 -0.8597 -4.7424
 5746SOL    HW228701   0.908   4.565   1.586  2.6394  1.0568  1.0923
 5747SOL     OW28702   0.130   4.526  16.972  0.5351 -0.9564  0.4425
 5747SOL    HW128703   0.127   4.510  16.878  2.5046 -1.2694  0.4298
 5747SOL    HW228704   0.216   4.567  16.968  0.3300 -0.3384  2.4703
 5748SOL     OW28705   2.845   4.264   6.871 -0.8718  0.0143  0.2235
 5748SOL    HW128706   2.758   4.233   6.845 -0.1466 -1.7684 -0.0742
 5748SOL    HW228707   2.888   4.230   6.793 -2.7692  3.0549 -2.1440
 5749SOL     OW28708   1.064   1.314   9.622  0.3374 -0.0759 -0.0775
 5749SOL    HW128709   1.007   1.248   9.583  0.5790 -0.6781  0.5747
 5749SOL    HW228710   1.144   1.264   9.603 -0.7400 -1.7580 -0.1698
 5750SOL     OW28711   4.314   2.579  16.589  0.1655  0.2379  0.9021
 5750SOL    HW128712   4.344   2.584  16.498 -0.1072 -0.2594  0.7850
 5750SOL    HW228713   4.387   2.536  16.634 -0.6675 -0.6362  1.4190
 5751SOL     OW28714   3.479   3.940   5.514 -0.2194  0.9343 -0.2509
 5751SOL    HW128715   3.446   3.852   5.498  1.8590  0.1966 -0.5998
 5751SOL    HW228716   3.506   3.962   5.424  1.0315  3.4840  0.7401
 5752SOL     OW28717   4.499   0.806   2.755  0.4528  0.1083  0.2426
 5752SOL    HW128718   4.414   0.824   2.716 -0.1257 -0.9942  0.9876
 5752SOL    HW228719   4.560   0.878   2.739  0.3296  0.2145  0.2525
 5753SOL     OW28720   3.537   1.702   4.463  0.2612  0.7874  0.0950
 5753SOL    HW128721   3.591   1.648   4.522 -1.3709  1.2218  1.9713
 5753SOL    HW228722   3.567   1.787   4.496  0.1642  1.1147 -0.6619
 5754SOL     OW28723   0.734   3.572  10.302 -0.4975  0.0980  0.7300
 5754SOL    HW128724   0.800   3.595  10.236  0.9958  1.9249  2.8545
 5754SOL    HW228725   0.755   3.479  10.315  0.2059  0.2804  0.8819
 5755SOL     OW28726   0.109   3.108   7.841 -0.2732 -0.0459  0.0675
 5755SOL    HW128727   0.176   3.042   7.825  0.8086  1.2149 -0.6287
 5755SOL    HW228728   0.060   3.085   7.763  0.1093 -1.7674  0.3300
 5756SOL     OW28729   2.423   3.143   5.864  0.1786 -0.0952  0.5285
 5756SOL    HW128730   2.469   3.069   5.825  1.4548  1.7318 -1.3737
 5756SOL    HW228731   2.433   3.113   5.955  2.4486 -0.5538  0.1135
 5757SOL     OW28732   0.782   4.023   4.835  0.5205  0.1383  0.6931
 5757SOL    HW128733   0.847   3.979   4.780  0.2493 -0.2175  0.6597
 5757SOL    HW228734   0.737   3.946   4.870 -3.3384  2.7839  1.5654
 5758SOL     OW28735   4.448   3.484  13.306 -1.0805 -0.3291 -0.6282
 5758SOL    HW128736   4.511   3.422  13.269 -2.3427  0.2326 -3.7158
 5758SOL    HW228737   4.392   3.494  13.229 -2.0680 -0.3318  0.0943
 5759SOL     OW28738   0.904   0.399   8.789 -0.1458 -0.2212  0.3668
 5759SOL    HW128739   0.867   0.332   8.732  0.4564  1.4109 -1.9251
 5759SOL    HW228740   0.826   0.448   8.811  0.2071  1.3754 -1.9424
 5760SOL     OW28741   4.003   3.651   4.649  0.3727  0.8744  0.0436
 5760SOL    HW128742   4.015   3.745   4.634  1.2195  0.5686 -1.1391
 5760SOL    HW228743   3.976   3.616   4.564 -0.7792  0.8687  0.4214
 5761SOL     OW28744   1.873   0.419   7.796 -0.2157  0.1167 -0.5417
 5761SOL    HW128745   1.879   0.368   7.716  0.8233 -2.0508  0.9162
 5761SOL    HW228746   1.834   0.351   7.851  0.5461 -1.2545 -1.7245
 5762SOL     OW28747   4.657   3.307  13.191  0.3465 -0.0766  0.0394
 5762SOL    HW128748   0.009   3.257  13.217 -0.0303 -0.7889 -0.2034
 5762SOL    HW228749   4.662   3.303  13.096  1.1557  0.0911  0.0752
 5763SOL     OW28750   0.327   3.998  15.474  0.1171  0.1536 -0.5847
 5763SOL    HW128751   0.234   4.003  15.455 -0.3327 -1.6467  1.0872
 5763SOL    HW228752   0.359   4.083  15.443  1.9753 -0.5163 -0.5126
 5764SOL     OW28753   4.527   0.749   6.422 -0.2950  0.2176 -0.2585
 5764SOL    HW128754   4.527   0.825   6.481  0.6106  0.0309 -0.0038
 5764SOL    HW228755   4.522   0.674   6.481  1.6755 -0.1299 -0.5350
 5765SOL     OW28756   0.183   1.911  16.848 -0.1525 -0.4166 -0.0101
 5765SOL    HW128757   0.094   1.920  16.813  1.0147 -4.7514 -4.0761
 5765SOL    HW228758   0.223   1.995  16.823 -2.1749  0.3451 -0.6892
 5766SOL     OW28759   1.140   1.183  16.188 -0.5055 -0.3415 -0.1796
 5766SOL    HW128760   1.142   1.213  16.097 -1.2287 -2.6983 -0.9477
 5766SOL    HW228761   1.127   1.262  16.241  0.6117 -0.4114  0.1931
 5767SOL     OW28762   0.861   1.472   7.059 -0.3513 -0.0483 -0.4133
 5767SOL    HW128763   0.771   1.446   7.043  0.0694 -1.4875 -0.4347
 5767SOL    HW228764   0.884   1.537   6.992  1.8337  1.0373  1.3747
 5768SOL     OW28765   2.521   4.064   2.538 -0.5481  0.4327 -0.0426
 5768SOL    HW128766   2.478   4.100   2.616  0.2409 -1.2515  1.1705
 5768SOL    HW228767   2.540   4.148   2.496  1.2960 -0.9937 -2.0325
 5769SOL     OW28768   3.848   0.942   1.506  0.0428 -0.8362  0.5083
 5769SOL    HW128769   3.872   0.851   1.485  0.5052 -0.3651 -1.0022
 5769SOL    HW228770   3.844   0.978   1.417  1.5144 -2.8984 -0.3943
 5770SOL     OW28771   0.799   4.362  11.983  0.3997 -0.5694 -0.1043
 5770SOL    HW128772   0.852   4.282  11.973  0.8440 -0.1442 -1.1284
 5770SOL    HW228773   0.732   4.335  11.921 -0.9858  1.8096  0.3999
 5771SOL     OW28774   2.546   3.140   8.629  0.1982  0.3425  0.6249
 5771SOL    HW128775   2.583   3.052   8.621  0.5468  0.6241 -0.9407
 5771SOL    HW228776   2.550   3.160   8.535 -0.0153 -0.5856  0.4207
 5772SOL     OW28777   2.020   2.777   3.760  0.3709 -0.2584 -0.1699
 5772SOL    HW128778   2.051   2.697   3.802  1.0086  0.2229  0.2738
 5772SOL    HW228779   1.926   2.782   3.778  0.5569 -0.3369  0.8081
 5773SOL     OW28780   2.751   4.194   6.355 -0.1868  0.5199  0.2278
 5773SOL    HW128781   2.789   4.145   6.282  0.7195 -0.5032  1.3807
 5773SOL    HW228782   2.830   4.243   6.376  1.7230 -1.6652 -1.7988
 5774SOL     OW28783   4.631   2.526   7.293  0.4302 -0.1301 -0.1216
 5774SOL    HW128784   4.712   2.479   7.276  2.0130  2.1761  1.1610
 5774SOL    HW228785   4.591   2.467   7.357 -0.9140  1.1735  0.2330
 5775SOL     OW28786   0.746   1.159  13.073  0.3734  0.3681  0.1757
 5775SOL    HW128787   0.747   1.234  13.015  0.7063 -0.8991 -1.4468
 5775SOL    HW228788   0.825   1.159  13.128  0.5945 -1.0056 -0.1313
 5776SOL     OW28789   0.363   4.425   4.884  0.4787 -0.4684 -0.2272
 5776SOL    HW128790   0.441   4.398   4.835  1.0921 -0.1935  0.6150
 5776SOL    HW228791   0.305   4.451   4.811  0.2340 -1.2431 -0.3066
 5777SOL     OW28792   0.964   1.764   8.812  0.5234 -0.3180  0.2135
 5777SOL    HW128793   1.008   1.837   8.855  0.3803 -0.8414  1.2697
 5777SOL    HW228794   1.026   1.693   8.831 -0.1538 -0.4502  2.0057
 5778SOL     OW28795   1.402   3.299   6.312  0.0533 -0.0297  0.3012
 5778SOL    HW128796   1.413   3.387   6.348  1.2739 -0.2370  0.4206
 5778SOL    HW228797   1.369   3.272   6.398  1.5783 -1.4854  0.4401
 5779SOL     OW28798   1.832   4.091  12.116  0.0357  0.7669  0.0110
 5779SOL    HW128799   1.869   4.068  12.201  0.4964  0.4362 -0.2758
 5779SOL    HW228800   1.741   4.099  12.144  0.3028 -2.2241  1.7185
 5780SOL     OW28801   2.521   1.446   3.048  1.2222  0.2710 -0.3603
 5780SOL    HW128802   2.473   1.369   3.077 -0.1998  1.8376  1.5291
 5780SOL    HW228803   2.484   1.456   2.961  0.8924  0.5738 -0.1860
 5781SOL     OW28804   3.013   3.797   2.383 -0.1263  0.9297 -0.5965
 5781SOL    HW128805   3.037   3.820   2.472 -1.3549 -2.0331  0.5052
 5781SOL    HW228806   2.943   3.862   2.379 -0.5702  0.4242 -1.2798
 5782SOL     OW28807   4.127   0.471  13.727  0.0625 -0.5859 -0.4911
 5782SOL    HW128808   4.164   0.504  13.809 -0.3096 -1.4092  0.0042
 5782SOL    HW228809   4.142   0.377  13.724 -4.8107 -1.4047  1.3183
 5783SOL     OW28810   1.889   3.539   5.235 -0.6725 -0.4754  0.1771
 5783SOL    HW128811   1.926   3.591   5.307 -1.2175 -0.9456  0.8018
 5783SOL    HW228812   1.885   3.450   5.271  0.4952  0.3037  2.2740
 5784SOL     OW28813   2.935   3.396   6.258 -0.2003 -0.0926 -0.0270
 5784SOL    HW128814   2.959   3.339   6.185 -0.4906 -0.2106 -0.0270
 5784SOL    HW228815   2.934   3.341   6.336  0.4715  2.4822  1.8011
 5785SOL     OW28816   2.729   2.299  13.320  0.0567 -0.1481  0.0283
 5785SOL    HW128817   2.666   2.260  13.381 -0.6821  1.3073  0.2065
 5785SOL    HW228818   2.797   2.233  13.333  0.6176  0.7784  1.8195
 5786SOL     OW28819   3.094   2.948  13.364 -0.0233  0.1444  0.3519
 5786SOL    HW128820   3.121   2.977  13.276 -0.1234 -2.5782 -0.5593
 5786SOL    HW228821   3.138   2.865  13.381 -0.5348  0.2710  2.2651
 5787SOL     OW28822   2.436   3.522  13.301 -0.2902  0.7628 -0.7220
 5787SOL    HW128823   2.428   3.612  13.332  1.7835  0.6499  0.1336
 5787SOL    HW228824   2.522   3.526  13.260  0.3057 -0.0303  0.4327
 5788SOL     OW28825   2.438   0.976   6.973  0.1010  0.2581 -0.3203
 5788SOL    HW128826   2.397   0.898   7.011 -0.4996  1.0192  0.6140
 5788SOL    HW228827   2.501   0.997   7.042 -0.2260  0.2628 -0.0224
 5789SOL     OW28828   3.703   1.939   6.419 -0.3707 -0.5690  0.0024
 5789SOL    HW128829   3.697   1.844   6.408  0.6093 -0.3847 -2.2287
 5789SOL    HW228830   3.650   1.968   6.345  0.3410 -0.0141 -0.2998
 5790SOL     OW28831   0.715   4.704   5.407 -0.6391  0.3450  0.4665
 5790SOL    HW128832   0.647   4.657   5.455 -1.4743  0.8957 -0.1902
 5790SOL    HW228833   0.723   0.053   5.466  1.1800  0.5933 -0.0784
 5791SOL     OW28834   1.561   3.551   2.002  0.4734 -0.1816  0.0234
 5791SOL    HW128835   1.594   3.505   2.079 -0.5310  0.1547  0.6606
 5791SOL    HW228836   1.477   3.510   1.978  0.9424  0.1402 -2.2276
 5792SOL     OW28837   3.251   3.008   8.282  0.3182  0.0017 -0.1598
 5792SOL    HW128838   3.207   3.079   8.235  0.7962 -0.2791 -1.0382
 5792SOL    HW228839   3.256   2.949   8.206  1.7365  0.0903 -0.1381
 5793SOL     OW28840   2.600   0.386   5.545  0.5060 -0.0356  0.5288
 5793SOL    HW128841   2.671   0.442   5.578  0.9936  1.6796 -3.3581
 5793SOL    HW228842   2.545   0.448   5.498 -0.0946 -2.2265 -1.6540
 5794SOL     OW28843   2.467   3.991  16.186  0.7769 -0.1603 -0.6251
 5794SOL    HW128844   2.471   4.077  16.229 -0.4840 -1.2277  1.6492
 5794SOL    HW228845   2.504   4.021  16.104 -0.7315 -1.1852 -1.6727
 5795SOL     OW28846   2.529   0.909   3.535  0.0874 -0.2297  0.7587
 5795SOL    HW128847   2.531   0.855   3.614  0.7252 -1.5244 -0.1368
 5795SOL    HW228848   2.435   0.907   3.518  0.2378 -1.1056 -0.0108
 5796SOL     OW28849   1.302   3.976   3.523 -0.5215  0.0168  0.1631
 5796SOL    HW128850   1.215   3.991   3.486  0.4068  0.7261 -1.7757
 5796SOL    HW228851   1.277   3.954   3.612 -0.6253  0.7748  0.3186
 5797SOL     OW28852   1.380   3.126   2.665  0.1113 -0.3784 -0.0232
 5797SOL    HW128853   1.419   3.074   2.735  0.3402 -0.4415 -0.1937
 5797SOL    HW228854   1.313   3.069   2.629  0.2726 -1.6454  1.7359
 5798SOL     OW28855   4.013   2.821   9.943  0.3300 -0.5098  0.0911
 5798SOL    HW128856   3.975   2.778   9.867 -0.5377  0.4980 -0.0487
 5798SOL    HW228857   3.936   2.834   9.999 -0.0987  0.5196 -0.7404
 5799SOL     OW28858   4.517   1.636   7.956  0.0847  0.1464  0.1941
 5799SOL    HW128859   4.428   1.668   7.973  0.5657  1.7117 -0.1756
 5799SOL    HW228860   4.578   1.690   8.007 -1.9080  0.7189  1.9755
 5800SOL     OW28861   4.691   2.668  10.596 -0.2556  0.2401 -0.7372
 5800SOL    HW128862   4.631   2.594  10.594  0.3440 -0.3286  1.6670
 5800SOL    HW228863   4.647   2.701  10.675  0.3761  0.7388 -0.5967
 5801SOL     OW28864   1.927   2.711   6.188 -0.0860  0.0923  0.0871
 5801SOL    HW128865   1.985   2.780   6.158  0.0536 -0.4802 -0.9676
 5801SOL    HW228866   1.986   2.641   6.217  1.0520  0.3809 -1.5548
 5802SOL     OW28867   1.003   2.618   8.952 -0.8363 -0.7572  0.1399
 5802SOL    HW128868   1.036   2.652   8.868 -0.2399 -1.5669  0.0377
 5802SOL    HW228869   0.969   2.700   8.987 -1.2574  0.3026 -2.7600
 5803SOL     OW28870   2.880   0.352   5.124  0.0850  0.4940 -0.1232
 5803SOL    HW128871   2.901   0.370   5.032 -2.4261  1.5245 -0.5004
 5803SOL    HW228872   2.844   0.265   5.111 -0.9206  0.9227 -0.2414
 5804SOL     OW28873   4.034   2.258   9.528 -0.0425  0.0434 -0.0569
 5804SOL    HW128874   3.996   2.190   9.472  0.0328 -1.1022  1.2794
 5804SOL    HW228875   3.969   2.274   9.597  1.2416 -0.0003  1.1491
 5805SOL     OW28876   3.735   3.950  13.297 -0.5436 -0.2285 -0.0928
 5805SOL    HW128877   3.773   3.987  13.378 -0.6054 -0.8979  0.2378
 5805SOL    HW228878   3.805   3.980  13.239 -0.4289 -0.4037 -0.0440
 5806SOL     OW28879   0.339   1.217   3.983  0.1246  0.3109  0.1177
 5806SOL    HW128880   0.311   1.308   3.996 -0.9744 -0.1859  1.2252
 5806SOL    HW228881   0.401   1.231   3.911  0.2205  1.0916  0.3481
 5807SOL     OW28882   2.059   2.642  16.967  0.1505 -0.2858  0.3864
 5807SOL    HW128883   2.153   2.626  16.978  0.3993  1.2335  0.4995
 5807SOL    HW228884   2.040   2.664  17.058 -0.1706 -0.8763  0.4623
 5808SOL     OW28885   3.710   1.124   2.641  0.1944  0.0521  0.0255
 5808SOL    HW128886   3.732   1.110   2.733 -0.6929  1.5344  0.4762
 5808SOL    HW228887   3.756   1.206   2.622 -0.5836  0.4469 -0.1504
 5809SOL     OW28888   2.729   1.784   4.640 -0.3440 -0.7583 -0.4279
 5809SOL    HW128889   2.806   1.727   4.646  0.5529  0.3898 -1.0880
 5809SOL    HW228890   2.684   1.764   4.557  0.3712 -0.9202 -0.7764
 5810SOL     OW28891   0.366   2.947   3.697 -0.1017  0.4187 -0.3411
 5810SOL    HW128892   0.296   2.979   3.640  1.0914  1.9441 -0.9592
 5810SOL    HW228893   0.395   2.875   3.641 -1.6402 -0.4281 -0.0582
 5811SOL     OW28894   2.003   1.702   5.594 -0.3769 -0.8960  0.2554
 5811SOL    HW128895   1.929   1.748   5.555  1.5357  2.0411  0.0727
 5811SOL    HW228896   1.989   1.706   5.689 -1.8885 -0.8502  0.0196
 5812SOL     OW28897   4.620   3.323  12.261  0.5339  0.1447 -0.3482
 5812SOL    HW128898   4.662   3.399  12.220 -0.0607  0.7325  0.1206
 5812SOL    HW228899   4.527   3.345  12.252  0.2635 -1.1355 -0.7111
 5813SOL     OW28900   1.353   1.383   7.922  0.3300 -0.7907  0.3712
 5813SOL    HW128901   1.350   1.450   7.853 -1.3560 -0.5679  0.6815
 5813SOL    HW228902   1.261   1.377   7.946  0.0871  0.8660 -0.0990
 5814SOL     OW28903   1.606   4.393   6.117  0.5128  0.5302 -0.0026
 5814SOL    HW128904   1.701   4.389   6.125  0.3571  0.1853  1.4793
 5814SOL    HW228905   1.596   4.314   6.064 -1.6134  0.4229  0.5370
 5815SOL     OW28906   4.296   0.871  15.510  0.4398  0.3950 -0.4247
 5815SOL    HW128907   4.204   0.899  15.505  0.2070 -0.3441 -0.3213
 5815SOL    HW228908   4.302   0.817  15.431 -0.3365  2.2440 -1.7236
 5816SOL     OW28909   4.160   3.225   6.071  0.4278 -0.3495 -0.4390
 5816SOL    HW128910   4.149   3.139   6.030 -0.7020  0.8324 -2.6532
 5816SOL    HW228911   4.165   3.198   6.162 -1.5296 -0.4384 -0.3518
 5817SOL     OW28912   0.598   2.368   0.211  0.6115 -0.4708  0.7603
 5817SOL    HW128913   0.641   2.446   0.245  1.1151 -0.2410 -0.3995
 5817SOL    HW228914   0.514   2.402   0.181  0.5626 -2.4331 -1.3560
 5818SOL     OW28915   0.802   1.594   0.699  0.3936  0.2892  0.5522
 5818SOL    HW128916   0.814   1.653   0.624 -0.0437 -0.1976  0.0874
 5818SOL    HW228917   0.747   1.523   0.665  3.0063 -1.8388  0.7888
 5819SOL     OW28918   3.155   2.537  14.917  0.2922 -0.1205  0.0578
 5819SOL    HW128919   3.204   2.463  14.954 -0.9624  0.0442  2.0566
 5819SOL    HW228920   3.188   2.550  14.828 -0.7695 -0.8496 -0.4435
 5820SOL     OW28921   1.063   2.309   5.990 -0.1084 -0.1886  0.1869
 5820SOL    HW128922   1.057   2.261   6.073 -1.4189  0.0668  0.2446
 5820SOL    HW228923   1.030   2.394   6.019 -0.9243 -0.5166  0.2213
 5821SOL     OW28924   3.829   1.543  12.098 -0.4143  0.4632 -0.1192
 5821SOL    HW128925   3.744   1.520  12.060 -0.4283 -0.0145  0.2017
 5821SOL    HW228926   3.846   1.460  12.143  0.1351  0.3155 -0.5925
 5822SOL     OW28927   3.637   0.300   4.359 -0.5333 -0.4426  0.7418
 5822SOL    HW128928   3.632   0.327   4.451  2.4804 -0.0785  0.7930
 5822SOL    HW228929   3.703   0.357   4.319 -0.4779 -2.2151 -1.7216
 5823SOL     OW28930   2.275   2.748   5.956 -0.3080 -0.3262  0.5616
 5823SOL    HW128931   2.316   2.708   6.033  0.1528  0.9880  1.0077
 5823SOL    HW228932   2.259   2.838   5.983  2.0888 -0.2387  1.6890
 5824SOL     OW28933   1.312   2.115   8.049 -0.1144 -0.8477  0.7361
 5824SOL    HW128934   1.406   2.117   8.031 -0.5382 -2.0853 -1.6346
 5824SOL    HW228935   1.284   2.206   8.038 -0.2762 -0.9319  0.4482
 5825SOL     OW28936   2.788   3.307   7.977 -0.2732 -0.0493  0.1265
 5825SOL    HW128937   2.817   3.235   8.034  0.8076  0.6407  0.4651
 5825SOL    HW228938   2.795   3.390   8.026  0.5008 -0.1844  0.2547
 5826SOL     OW28939   0.389   2.057   6.105  0.6206  0.2153 -0.0341
 5826SOL    HW128940   0.413   2.089   6.192  0.3250 -1.0043  0.4923
 5826SOL    HW228941   0.478   2.046   6.072  0.0988 -1.0531 -0.9896
 5827SOL     OW28942   0.606   3.205   8.977  0.0629  0.2584  0.1875
 5827SOL    HW128943   0.580   3.264   8.907 -0.4793  0.2182  0.3568
 5827SOL    HW228944   0.544   3.229   9.045  0.6635  1.5983  0.2591
 5828SOL     OW28945   0.330   0.709   3.099  0.2901 -0.2471 -0.4555
 5828SOL    HW128946   0.330   0.615   3.117 -1.0375 -0.2929 -0.7044
 5828SOL    HW228947   0.363   0.712   3.010 -0.8648 -0.7525 -0.8915
 5829SOL     OW28948   2.845   2.356   5.947 -0.4466  0.1475 -0.5723
 5829SOL    HW128949   2.920   2.411   5.921  0.4678 -1.3136 -1.0062
 5829SOL    HW228950   2.849   2.346   6.042 -1.4577  0.6977 -0.4699
 5830SOL     OW28951   0.241   2.181   9.746  0.4550 -0.1913  0.2572
 5830SOL    HW128952   0.223   2.166   9.839  0.7456  1.1401  0.5407
 5830SOL    HW228953   0.265   2.095   9.714 -0.5166 -1.0726  1.9067
 5831SOL     OW28954   2.245   1.252  13.458 -0.9972  0.4762 -0.0139
 5831SOL    HW128955   2.177   1.227  13.520 -2.2147  1.8377 -0.7977
 5831SOL    HW228956   2.249   1.343  13.487 -1.6691 -0.3251  2.5787
 5832SOL     OW28957   3.947   2.857   7.695  0.7780  0.1492  0.0572
 5832SOL    HW128958   3.971   2.838   7.785 -0.9810  0.0237  0.4942
 5832SOL    HW228959   3.928   2.766   7.670 -0.7419  0.6527 -0.5812
 5833SOL     OW28960   1.708   2.697   5.250  0.2241  0.1665  0.3677
 5833SOL    HW128961   1.783   2.656   5.293 -0.9713 -1.0432  1.2658
 5833SOL    HW228962   1.703   2.646   5.169 -1.4609  0.4369  0.2991
 5834SOL     OW28963   0.513   1.921   5.680 -0.4249  0.1896 -0.4002
 5834SOL    HW128964   0.574   1.993   5.663 -0.0475 -0.0634 -0.1065
 5834SOL    HW228965   0.501   1.887   5.592  0.9271  0.4022 -0.6708
 5835SOL     OW28966   3.428   0.423   4.031 -0.5267 -0.3872 -0.2577
 5835SOL    HW128967   3.444   0.337   3.992  2.5244 -0.4415  1.1823
 5835SOL    HW228968   3.505   0.477   4.016 -0.4024 -0.5273 -0.1190
 5836SOL     OW28969   1.158   0.309   0.593  0.2273 -0.0978  0.0959
 5836SOL    HW128970   1.137   0.220   0.564 -1.1004  0.5449 -0.9261
 5836SOL    HW228971   1.094   0.366   0.550 -0.2019 -0.4196  0.3007
 5837SOL     OW28972   1.930   1.706   2.760  0.8972  0.5872 -0.4013
 5837SOL    HW128973   1.838   1.696   2.784  1.1314  1.0127  0.7068
 5837SOL    HW228974   1.933   1.796   2.793 -0.5339  0.0694  1.1490
 5838SOL     OW28975   3.205   2.651   6.477 -0.1224 -0.2415 -0.2498
 5838SOL    HW128976   3.276   2.592   6.452 -1.0246 -0.7681 -1.5032
 5838SOL    HW228977   3.172   2.622   6.562 -1.2385 -3.7554 -1.9269
 5839SOL     OW28978   2.538   3.220  16.296 -0.3816 -0.4591 -0.1436
 5839SOL    HW128979   2.568   3.196  16.208  0.8366  0.7649 -0.0649
 5839SOL    HW228980   2.588   3.302  16.296  2.2322 -2.0699 -0.8247
 5840SOL     OW28981   0.732   3.397  14.068 -0.4774  0.2387  0.0217
 5840SOL    HW128982   0.695   3.385  14.156  1.6818  0.2649  0.9382
 5840SOL    HW228983   0.782   3.475  14.091  0.9197 -0.8402  0.6313
 5841SOL     OW28984   1.837   0.771   4.358 -0.4408  0.4750 -0.0964
 5841SOL    HW128985   1.870   0.842   4.303 -1.0206 -0.6619 -1.9378
 5841SOL    HW228986   1.807   0.816   4.437 -0.3370 -0.9746  0.7640
 5842SOL     OW28987   3.327   1.463   8.815 -0.3509  0.0232 -0.1463
 5842SOL    HW128988   3.254   1.406   8.790 -1.1247  1.2536 -0.7482
 5842SOL    HW228989   3.408   1.420   8.787  0.4850 -0.2783  2.8255
 5843SOL     OW28990   4.435   1.061   5.636  0.3195 -0.5195  0.5757
 5843SOL    HW128991   4.482   0.985   5.602 -1.7306 -1.4547 -0.1653
 5843SOL    HW228992   4.435   1.125   5.565 -0.6707  1.7140  2.5674
 5844SOL     OW28993   3.992   4.596  17.001 -0.1255  0.2020 -0.6488
 5844SOL    HW128994   3.913   4.581  16.948  1.2598 -2.7038 -1.8904
 5844SOL    HW228995   3.960   4.554  17.082  0.0871 -1.2412 -1.3098
 5845SOL     OW28996   4.016   4.657   3.881  0.5645 -0.1650  0.5108
 5845SOL    HW128997   4.057   0.013   3.852  1.3980 -1.6318 -2.3732
 5845SOL    HW228998   3.922   4.675   3.878  0.9375  1.6645 -0.5932
 5846SOL     OW28999   2.062   3.389   3.436  0.7861 -0.0450 -0.2186
 5846SOL    HW129000   2.029   3.446   3.505  3.0680 -1.0941  1.7455
 5846SOL    HW229001   2.008   3.310   3.450  1.7012 -0.6476 -0.0849
 5847SOL     OW29002   1.427   0.560   4.399 -0.5252 -0.1591 -0.2921
 5847SOL    HW129003   1.410   0.644   4.443  1.1988 -0.7978  1.6273
 5847SOL    HW229004   1.490   0.534   4.467  0.9534  0.1420 -1.5542
 5848SOL     OW29005   1.554   2.963  10.919 -0.7027  0.0410 -0.4847
 5848SOL    HW129006   1.482   2.907  10.948 -2.6500  2.8743  0.2247
 5848SOL    HW229007   1.506   3.036  10.879  1.3675  0.9844 -1.2617
 5849SOL     OW29008   4.119   2.786   3.875  0.3580  1.1915  0.1774
 5849SOL    HW129009   4.160   2.713   3.828  1.3181  2.1206 -0.4140
 5849SOL    HW229010   4.158   2.856   3.824  1.3322 -0.6903 -1.6729
 5850SOL     OW29011   0.874   2.465   7.977  0.0053  0.3967 -0.0616
 5850SOL    HW129012   0.810   2.395   7.963 -1.3277  1.0747  2.7927
 5850SOL    HW229013   0.950   2.408   7.961 -1.0299 -0.7682 -0.7732
 5851SOL     OW29014   2.168   2.377   6.858  0.2672 -0.0576 -0.2109
 5851SOL    HW129015   2.239   2.333   6.905 -1.9742 -4.0544 -0.5653
 5851SOL    HW229016   2.203   2.391   6.770 -0.9240 -0.0071 -0.6722
 5852SOL     OW29017   1.482   0.706   4.849  0.0974  0.0778  0.4106
 5852SOL    HW129018   1.428   0.764   4.795  1.3403  4.1652  3.5338
 5852SOL    HW229019   1.433   0.626   4.866 -0.6030 -0.1863 -2.8494
 5853SOL     OW29020   3.180   1.107   8.161  0.3310 -0.2334  0.2619
 5853SOL    HW129021   3.090   1.077   8.166  1.4336 -3.6500 -0.7323
 5853SOL    HW229022   3.169   1.201   8.143 -0.2792 -1.1439 -4.2312
 5854SOL     OW29023   3.320   1.548  14.209  0.4477  0.1291  0.8944
 5854SOL    HW129024   3.278   1.539  14.294  0.7749 -1.3354  0.8969
 5854SOL    HW229025   3.264   1.498  14.150  0.0607 -2.6101  3.6126
 5855SOL     OW29026   4.216   2.251   5.876  0.2176  0.2770 -0.0304
 5855SOL    HW129027   4.286   2.209   5.926 -0.3241 -1.8641 -1.0808
 5855SOL    HW229028   4.181   2.184   5.818  1.3351 -0.6972  0.4164
 5856SOL     OW29029   3.044   0.613   2.151 -0.3080 -0.2180  0.2139
 5856SOL    HW129030   3.022   0.577   2.237  0.1161 -3.0827 -0.8679
 5856SOL    HW229031   3.118   0.669   2.175  0.3237 -1.0152  0.1696
 5857SOL     OW29032   3.287   3.082   0.042  0.3385 -0.3190  0.6898
 5857SOL    HW129033   3.365   3.034   0.070  1.1078  1.3021  1.3392
 5857SOL    HW229034   3.232   3.016  17.704 -0.8031  1.2511 -0.2596
 5858SOL     OW29035   0.127   1.179   1.887  0.4259  0.2765  0.3211
 5858SOL    HW129036   0.146   1.143   1.800 -2.0897  0.0443 -0.1180
 5858SOL    HW229037   0.215   1.214   1.904  1.5931 -1.6583 -1.6445
 5859SOL     OW29038   4.127   0.562   6.984  0.1183 -0.0022 -0.4057
 5859SOL    HW129039   4.199   0.565   7.047  0.1283 -2.0604 -0.3376
 5859SOL    HW229040   4.120   0.469   6.966  0.5297 -0.0884 -0.1353
 5860SOL     OW29041   4.650   3.026   8.781  0.1073  0.8346  0.5921
 5860SOL    HW129042   4.682   3.108   8.820 -0.8071  0.7599  1.4950
 5860SOL    HW229043   0.006   2.994   8.744 -0.2134 -0.5911  1.1149
 5861SOL     OW29044   2.562   4.567   0.812 -0.5848  0.3808  0.1366
 5861SOL    HW129045   2.487   4.601   0.862  1.4458  1.3445  2.5650
 5861SOL    HW229046   2.611   4.530   0.886  1.3479 -1.0628 -1.8983
 5862SOL     OW29047   3.190   1.145   4.247  0.1680 -0.1372 -0.0550
 5862SOL    HW129048   3.165   1.053   4.257  0.0321 -0.2276 -1.1851
 5862SOL    HW229049   3.134   1.173   4.175  0.1769 -2.9003 -1.1193
 5863SOL     OW29050   2.551   1.239  14.519 -0.1956 -0.0997 -0.3271
 5863SOL    HW129051   2.593   1.187  14.587 -1.8088  0.6756  1.2838
 5863SOL    HW229052   2.561   1.330  14.549  2.5005 -0.8380  1.0083
 5864SOL     OW29053   0.015   4.706   5.018 -0.8465  0.5154 -0.2022
 5864SOL    HW129054   4.646   4.712   5.003 -0.9215  2.6433  1.0896
 5864SOL    HW229055   0.054   4.723   4.933  2.1376  0.8494  1.2270
 5865SOL     OW29056   1.569   0.255  11.783 -0.2968 -0.1836 -0.6006
 5865SOL    HW129057   1.615   0.338  11.794  0.6870 -0.7320 -0.5792
 5865SOL    HW229058   1.493   0.272  11.838 -0.1279 -0.4913 -0.2736
 5866SOL     OW29059   1.003   4.406   0.900  0.1198 -0.2306 -0.6819
 5866SOL    HW129060   1.019   4.499   0.884  0.3398 -0.0992  0.2900
 5866SOL    HW229061   1.060   4.387   0.974 -0.7264 -1.5979 -0.3897
 5867SOL     OW29062   1.802   3.403  16.953 -0.0426 -0.5090 -0.2969
 5867SOL    HW129063   1.778   3.453  17.031 -0.6596  0.6310 -1.2109
 5867SOL    HW229064   1.723   3.350  16.950 -0.5113  0.2785 -1.8817
 5868SOL     OW29065   4.139   3.099  15.788 -0.3675 -0.4161 -0.1492
 5868SOL    HW129066   4.194   3.087  15.711  0.8104  3.6582  0.0683
 5868SOL    HW229067   4.057   3.131  15.749 -0.2767 -0.0037  0.0001
 5869SOL     OW29068   0.698   0.090   3.888  0.3398  0.4314  0.1574
 5869SOL    HW129069   0.638   0.093   3.813 -1.1679 -3.3009  1.2173
 5869SOL    HW229070   0.785   0.089   3.847  0.6366  2.6983  0.7257
 5870SOL     OW29071   0.735   1.614  17.588  0.2309 -0.2390  0.3097
 5870SOL    HW129072   0.758   1.534  17.634 -1.5196 -0.6817  0.4251
 5870SOL    HW229073   0.660   1.584  17.537  0.4394 -2.3904  1.2549
 5871SOL     OW29074   2.090   4.367   6.293 -0.2640  0.0246  0.2422
 5871SOL    HW129075   2.173   4.413   6.286 -0.2013 -0.0937  0.2175
 5871SOL    HW229076   2.029   4.432   6.258  1.0596  1.5576  0.8041
 5872SOL     OW29077   3.774   1.941   9.536  0.2549 -0.5734  0.4660
 5872SOL    HW129078   3.857   1.957   9.580  0.0313  0.1111  0.6482
 5872SOL    HW229079   3.758   1.850   9.560  1.7574 -0.1720  2.9723
 5873SOL     OW29080   0.188   0.698   7.005 -0.2846  0.4571  0.6758
 5873SOL    HW129081   0.112   0.680   7.059 -0.4635 -0.8057  0.0152
 5873SOL    HW229082   0.202   0.792   7.017  0.9261  0.6009 -1.9498
 5874SOL     OW29083   0.893   3.127   7.925  0.3435 -0.0391 -0.3154
 5874SOL    HW129084   0.882   3.045   7.973 -1.6270 -0.1458 -0.9570
 5874SOL    HW229085   0.812   3.134   7.875 -0.1133 -2.6157  0.0741
 5875SOL     OW29086   3.766   3.366   4.458  0.6785 -0.4792 -0.5569
 5875SOL    HW129087   3.738   3.280   4.427  4.2790 -0.6020 -3.5171
 5875SOL    HW229088   3.682   3.412   4.452  2.3454  2.6728  0.2579
 5876SOL     OW29089   3.318   2.751  13.749  0.3959 -0.0438 -0.0038
 5876SOL    HW129090   3.230   2.768  13.783  0.6145 -1.3654  1.2067
 5876SOL    HW229091   3.355   2.839  13.758  1.0065 -0.2412 -0.6131
 5877SOL     OW29092   3.152   3.149   9.590  0.2590 -0.0945  0.0841
 5877SOL    HW129093   3.083   3.140   9.523  0.2287 -1.8968  0.3616
 5877SOL    HW229094   3.224   3.099   9.552  1.2679 -0.4544  2.5253
 5878SOL     OW29095   2.499   0.462   0.254  0.2006 -0.0752  0.1673
 5878SOL    HW129096   2.499   0.501   0.341 -0.2780  2.9579 -1.1738
 5878SOL    HW229097   2.499   0.540   0.199  1.3090 -1.4500 -1.7967
 5879SOL     OW29098   2.027   2.113   8.681  0.6673 -0.2308 -0.5557
 5879SOL    HW129099   1.964   2.163   8.630 -0.7981 -0.1578  1.3277
 5879SOL    HW229100   1.984   2.101   8.765  1.5892 -1.8728 -0.3027
 5880SOL     OW29101   3.880   1.765  12.285 -0.4932  0.5125 -0.1774
 5880SOL    HW129102   3.958   1.772  12.341 -1.0216  2.6333  0.2830
 5880SOL    HW229103   3.886   1.675  12.255 -2.1658  0.6611 -0.9560
 5881SOL     OW29104   1.780   4.650   2.744 -0.1140 -0.2969  0.4372
 5881SOL    HW129105   1.730   4.655   2.825  0.4028  2.1738  0.5886
 5881SOL    HW229106   1.750   0.007   2.707  0.0610 -0.4770 -0.1210
 5882SOL     OW29107   2.595   1.086  13.845 -0.7989 -0.2935  0.4454
 5882SOL    HW129108   2.669   1.062  13.789  1.7046  0.7541  3.2738
 5882SOL    HW229109   2.639   1.084  13.930  1.8943  0.9709 -0.9397
 5883SOL     OW29110   3.903   3.985   8.558  0.5805 -0.3182 -0.3656
 5883SOL    HW129111   3.984   4.027   8.588  0.3660 -0.5694  0.5617
 5883SOL    HW229112   3.928   3.978   8.466  2.2841 -2.2206  0.2371
 5884SOL     OW29113   1.922   1.852   7.970  0.1062  0.1846  0.0516
 5884SOL    HW129114   2.009   1.864   7.932 -0.0971  3.4882  0.6122
 5884SOL    HW229115   1.874   1.905   7.906  1.2450 -0.5796 -1.4393
 5885SOL     OW29116   3.046   0.609   8.094  0.2258 -0.3725 -0.0539
 5885SOL    HW129117   3.002   0.648   8.018  0.9611  0.2867 -0.1377
 5885SOL    HW229118   3.015   0.520   8.078 -1.9102  0.1983  0.9008
 5886SOL     OW29119   4.361   4.080   4.132 -0.5146 -0.0092 -0.0549
 5886SOL    HW129120   4.451   4.108   4.115 -0.1160 -1.1237  0.2493
 5886SOL    HW229121   4.308   4.147   4.089 -0.3583 -0.0017 -0.2360
 5887SOL     OW29122   4.144   0.566   8.147 -0.3773  0.4726  0.5585
 5887SOL    HW129123   4.145   0.659   8.166  1.9954  0.4721  0.4105
 5887SOL    HW229124   4.057   0.556   8.108  0.2434 -1.1268 -0.4443
 5888SOL     OW29125   1.903   0.564   8.924  0.5637 -0.7726 -0.1979
 5888SOL    HW129126   1.881   0.547   9.015 -0.9583 -1.6979 -0.7314
 5888SOL    HW229127   1.821   0.602   8.891  0.4353  0.3018  1.3403
 5889SOL     OW29128   1.880   0.671   3.253 -0.3380 -0.6829  0.7953
 5889SOL    HW129129   1.848   0.689   3.341  1.5953  0.8812  1.1691
 5889SOL    HW229130   1.814   0.608   3.224  1.6864 -0.6310 -3.9722
 5890SOL     OW29131   3.356   1.658   9.821 -0.3761  0.3895  0.1375
 5890SOL    HW129132   3.362   1.603   9.743 -2.5955 -0.2554  0.4070
 5890SOL    HW229133   3.395   1.601   9.887  0.2295  0.8682  0.1887
 5891SOL     OW29134   1.211   3.408   7.726 -0.3665 -0.1912  0.2381
 5891SOL    HW129135   1.241   3.467   7.795  1.6850 -0.1565 -0.6963
 5891SOL    HW229136   1.293   3.359   7.718 -1.0486 -1.3684  0.3384
 5892SOL     OW29137   3.350   3.643   8.891 -0.1200 -0.6348 -0.5167
 5892SOL    HW129138   3.304   3.646   8.807  0.2542 -2.3886 -0.7917
 5892SOL    HW229139   3.275   3.652   8.950 -0.1252  0.6572 -0.7118
 5893SOL     OW29140   3.515   2.989   3.396 -0.1793 -0.1457  0.5976
 5893SOL    HW129141   3.566   2.947   3.327 -2.0465 -0.9224 -0.2886
 5893SOL    HW229142   3.577   2.981   3.468 -1.9454 -0.0224  2.1273
 5894SOL     OW29143   3.820   3.815   5.305 -0.0087  0.0725  0.0654
 5894SOL    HW129144   3.901   3.783   5.344  1.4464  0.5035 -2.5764
 5894SOL    HW229145   3.835   3.910   5.302 -2.6301  0.5023  0.4667
 5895SOL     OW29146   1.489   0.978   4.294 -0.0251 -0.2614 -0.3375
 5895SOL    HW129147   1.441   0.985   4.211 -1.0175  1.0435  0.3602
 5895SOL    HW229148   1.420   0.956   4.356 -0.8505 -1.2907 -1.6127
 5896SOL     OW29149   2.644   0.835   3.081 -0.6506  0.3981  0.0646
 5896SOL    HW129150   2.659   0.887   3.160  0.4952 -1.8480  1.3242
 5896SOL    HW229151   2.625   0.906   3.020 -1.3952  1.7616  1.8728
 5897SOL     OW29152   0.164   0.603   0.091  0.5019 -0.1096 -0.0670
 5897SOL    HW129153   0.092   0.575   0.148 -0.3316  0.8254 -0.6666
 5897SOL    HW229154   0.160   0.699   0.087  1.2905 -0.0832 -0.2563
 5898SOL     OW29155   2.971   2.415   8.504 -0.2372  0.2785 -0.0498
 5898SOL    HW129156   2.876   2.422   8.509 -0.1680  0.3222  1.2401
 5898SOL    HW229157   2.999   2.395   8.593 -0.0022  0.3066 -0.1179
 5899SOL     OW29158   3.857   1.604   4.938 -0.5712 -0.3316 -0.1591
 5899SOL    HW129159   3.785   1.566   4.989 -0.3866 -0.8029 -0.2436
 5899SOL    HW229160   3.876   1.535   4.875 -0.8417 -0.2818 -0.2955
 5900SOL     OW29161   4.554   2.897   6.962  0.4467  0.6225 -0.2544
 5900SOL    HW129162   4.610   2.824   6.935  0.8615  1.4076 -1.4808
 5900SOL    HW229163   4.479   2.842   6.983 -0.1900  2.2874  1.7700
 5901SOL     OW29164   0.854   3.581   5.531 -0.5893  0.1057  0.1465
 5901SOL    HW129165   0.921   3.624   5.583  0.2623  0.7802 -1.5006
 5901SOL    HW229166   0.801   3.657   5.507 -1.0149 -0.1335  0.3354
 5902SOL     OW29167   1.564   1.480   6.669 -0.4876  0.4171 -0.7344
 5902SOL    HW129168   1.574   1.416   6.598  1.1194 -1.5837  1.2961
 5902SOL    HW229169   1.468   1.481   6.672 -0.4684  1.9055 -0.5199
 5903SOL     OW29170   3.737   2.997   7.569  0.0341  0.6061 -0.0394
 5903SOL    HW129171   3.775   3.080   7.540 -1.4136  0.4178 -2.4893
 5903SOL    HW229172   3.809   2.936   7.586  0.8219  1.3998 -0.5560
 5904SOL     OW29173   3.281   0.796   4.987  0.0638 -0.1504 -0.3545
 5904SOL    HW129174   3.322   0.883   4.986  2.1341 -1.1411  1.2842
 5904SOL    HW229175   3.194   0.810   4.948  0.2047  0.3618 -0.4901
 5905SOL     OW29176   3.465   3.041   7.524  0.2155 -0.5087 -0.1935
 5905SOL    HW129177   3.552   3.003   7.527 -0.5500 -2.2843 -0.4798
 5905SOL    HW229178   3.477   3.118   7.579  0.3915 -0.8047  0.1835
 5906SOL     OW29179   2.535   4.321  12.150  0.1144  0.5001 -0.0866
 5906SOL    HW129180   2.457   4.316  12.094 -0.0194  2.1027 -0.0230
 5906SOL    HW229181   2.505   4.274  12.229 -0.1999  2.1967  0.7969
 5907SOL     OW29182   2.759   4.158   0.213  0.6981  0.8395 -0.1622
 5907SOL    HW129183   2.791   4.178   0.301 -0.7056  1.3067  0.2523
 5907SOL    HW229184   2.664   4.174   0.220  0.2069 -1.7895 -0.9438
 5908SOL     OW29185   2.671   3.146   6.737  0.4919 -0.1878  0.0203
 5908SOL    HW129186   2.662   3.051   6.733  1.9534 -0.3377  0.4724
 5908SOL    HW229187   2.628   3.159   6.652 -2.0332 -0.5056  1.2444
 5909SOL     OW29188   2.911   0.696   6.109 -0.1603 -0.3091 -0.2163
 5909SOL    HW129189   2.892   0.783   6.074 -0.5872 -0.7131 -0.9832
 5909SOL    HW229190   3.000   0.716   6.140 -1.0219  0.6451  1.6421
 5910SOL     OW29191   2.185   4.683   6.862 -0.0313 -0.0998  0.1655
 5910SOL    HW129192   2.209   4.622   6.932 -1.4237 -2.2702 -1.2747
 5910SOL    HW229193   2.206   4.624   6.790  0.6268 -2.0138  1.9364
 5911SOL     OW29194   3.952   3.664   0.629  0.2189 -0.1211  0.2973
 5911SOL    HW129195   3.912   3.618   0.703 -0.5070  1.6497  0.9854
 5911SOL    HW229196   3.884   3.654   0.563  1.0269  0.6560 -0.6492
 5912SOL     OW29197   0.428   3.304   4.172 -0.5994 -0.1785  0.2781
 5912SOL    HW129198   0.333   3.307   4.165 -0.6104 -1.7124 -0.1648
 5912SOL    HW229199   0.445   3.391   4.137 -0.8291 -0.5247 -0.7107
 5913SOL     OW29200   3.644   2.723   6.865 -0.6312  0.1179  0.4593
 5913SOL    HW129201   3.568   2.680   6.824  1.0645 -1.6617 -0.8389
 5913SOL    HW229202   3.677   2.777   6.794 -0.1818 -2.6807 -1.4844
 5914SOL     OW29203   1.603   2.625   3.059 -0.2802  0.3459  0.2639
 5914SOL    HW129204   1.509   2.622   3.073 -0.6193  2.1653 -1.6432
 5914SOL    HW229205   1.629   2.532   3.064  0.0473  0.3460 -1.3989
 5915SOL     OW29206   1.230   4.266   0.734  0.3557 -0.2545  0.2968
 5915SOL    HW129207   1.205   4.352   0.769 -0.0223 -0.0250 -0.5329
 5915SOL    HW229208   1.158   4.208   0.758  0.4025 -0.4701 -0.0867
 5916SOL     OW29209   0.481   3.448   6.081  0.4352  0.4522 -0.2288
 5916SOL    HW129210   0.545   3.386   6.116  0.7728  0.0647 -1.5331
 5916SOL    HW229211   0.430   3.391   6.024 -1.1931  2.2932 -0.5853
 5917SOL     OW29212   0.157   3.296   4.114  0.0748 -0.4271  0.3357
 5917SOL    HW129213   0.103   3.308   4.035  1.8096 -0.4194 -0.8629
 5917SOL    HW229214   0.104   3.230   4.158 -0.7929  0.2746  0.3540
 5918SOL     OW29215   1.066   0.059  11.857 -0.5913  0.3653 -0.2521
 5918SOL    HW129216   1.117   0.033  11.781 -1.4533 -1.0598 -0.3311
 5918SOL    HW229217   0.978   0.044  11.825 -1.2439  0.9992  1.2219
 5919SOL     OW29218   3.505   0.534   1.998  0.6082 -0.0917 -0.6079
 5919SOL    HW129219   3.487   0.476   1.924 -1.0339  1.5427 -1.4696
 5919SOL    HW229220   3.538   0.467   2.059 -1.7850 -0.5495  0.2022
 5920SOL     OW29221   1.424   0.856   3.623 -0.3537 -0.3214 -0.3031
 5920SOL    HW129222   1.510   0.836   3.660 -0.1024  0.8340 -0.2636
 5920SOL    HW229223   1.387   0.768   3.627  0.5596 -0.8052 -2.2201
 5921SOL     OW29224   0.603   0.821   6.526  0.8105 -0.1296  0.0865
 5921SOL    HW129225   0.618   0.747   6.585  0.0680  1.5740  2.3998
 5921SOL    HW229226   0.539   0.772   6.474 -0.1442  3.4862 -2.1489
 5922SOL     OW29227   3.866   1.047   2.407  0.1018  0.4319 -0.2959
 5922SOL    HW129228   3.815   1.052   2.487 -0.4945  1.8918 -0.7759
 5922SOL    HW229229   3.959   1.040   2.431  0.3859  0.2017 -1.4279
 5923SOL     OW29230   3.260   4.361   3.625  0.1316 -0.0197  0.3543
 5923SOL    HW129231   3.235   4.367   3.717  1.9339  2.7376  0.6643
 5923SOL    HW229232   3.242   4.453   3.601  0.8167  0.3653  1.3268
 5924SOL     OW29233   2.190   4.526   1.597 -0.0020  0.1511 -0.2343
 5924SOL    HW129234   2.219   4.545   1.686  1.1135  2.8992 -1.1861
 5924SOL    HW229235   2.107   4.574   1.603 -0.4598 -0.7958  1.1283
 5925SOL     OW29236   3.352   2.057   0.410  0.1900 -0.0119  0.2336
 5925SOL    HW129237   3.367   1.962   0.408  3.6259  0.5663 -2.0773
 5925SOL    HW229238   3.436   2.091   0.439  0.4619 -0.9172  0.5163
 5926SOL     OW29239   2.200   4.465   4.521  0.8717  0.1852  0.1287
 5926SOL    HW129240   2.127   4.489   4.578  0.6578  1.1265 -0.5528
 5926SOL    HW229241   2.174   4.506   4.438  0.4445 -1.0271 -0.3386
 5927SOL     OW29242   0.683   2.457   9.824  0.4947  0.3815  0.1460
 5927SOL    HW129243   0.728   2.382   9.863 -1.3313 -0.4472  0.6523
 5927SOL    HW229244   0.592   2.429   9.823  1.0172 -1.2339 -2.7092
 5928SOL     OW29245   1.349   0.335   5.143  0.4117  0.0637  0.2537
 5928SOL    HW129246   1.389   0.289   5.069 -0.1879  1.0113 -0.6517
 5928SOL    HW229247   1.304   0.402   5.092 -1.1530 -0.1645  1.3463
 5929SOL     OW29248   2.201   4.044  13.643 -0.1803 -0.5774  0.1470
 5929SOL    HW129249   2.157   4.113  13.692 -1.3721 -0.4781 -1.0818
 5929SOL    HW229250   2.130   4.019  13.585  0.8393  1.1474 -1.8135
 5930SOL     OW29251   3.267   4.620   4.077  0.0087 -0.4795  0.1375
 5930SOL    HW129252   3.257   4.715   4.068 -0.1224 -0.6750 -1.7268
 5930SOL    HW229253   3.179   4.588   4.061  0.7682 -2.0959 -0.7954
 5931SOL     OW29254   2.587   2.748   8.729 -0.1857  0.8789 -0.6427
 5931SOL    HW129255   2.556   2.682   8.667 -0.1343  0.3758 -0.1317
 5931SOL    HW229256   2.505   2.798   8.726 -1.3164 -0.8736  1.6546
 5932SOL     OW29257   4.391   0.061  17.702  0.7383 -0.0741  0.4223
 5932SOL    HW129258   4.300   0.091  17.694  0.5732 -1.2131 -1.9424
 5932SOL    HW229259   4.379   4.697  17.672  1.3461  0.1915 -0.6234
 5933SOL     OW29260   1.335   0.550   6.405 -0.7112 -0.2383  0.0172
 5933SOL    HW129261   1.306   0.637   6.375  1.5373 -0.6458 -3.2586
 5933SOL    HW229262   1.283   0.530   6.483 -0.8336 -2.0700 -0.5555
 5934SOL     OW29263   1.086   1.790   2.456  0.0814  0.5820 -0.2782
 5934SOL    HW129264   1.094   1.725   2.526  2.6607 -0.5295 -1.5638
 5934SOL    HW229265   1.142   1.863   2.480  0.8888 -0.4937  1.1390
 5935SOL     OW29266   0.914   2.720   2.319 -0.0148 -0.2828 -0.0337
 5935SOL    HW129267   0.911   2.814   2.298  0.7764 -0.5156 -1.1499
 5935SOL    HW229268   0.853   2.685   2.254 -0.6019  0.4131  0.1379
 5936SOL     OW29269   1.990   1.510   8.034  0.1081 -0.1488  0.0531
 5936SOL    HW129270   1.959   1.559   7.959  0.9746 -0.5756 -0.5820
 5936SOL    HW229271   2.060   1.571   8.057 -0.5685  0.2236  1.1123
 5937SOL     OW29272   3.953   2.450  11.707 -0.0292  0.5984 -0.3184
 5937SOL    HW129273   3.895   2.470  11.633 -0.2026  0.5461 -0.1968
 5937SOL    HW229274   4.033   2.481  11.664  0.1481  0.6050  0.0192
 5938SOL     OW29275   0.632   3.364   6.432 -0.0131  0.0397  0.3585
 5938SOL    HW129276   0.695   3.412   6.378 -0.5744 -0.2263 -0.5286
 5938SOL    HW229277   0.657   3.279   6.398  0.0338 -0.3543  1.3946
 5939SOL     OW29278   0.023   2.813   7.373 -0.0276 -0.1171  0.3064
 5939SOL    HW129279   4.720   2.731   7.334  1.1835 -0.6442  0.5505
 5939SOL    HW229280   0.101   2.779   7.417 -1.1212 -1.6562  1.0634
 5940SOL     OW29281   0.155   4.578   6.684 -0.0385 -0.0313 -0.0230
 5940SOL    HW129282   0.129   4.591   6.775  0.4344 -0.6406  0.1999
 5940SOL    HW229283   0.249   4.598   6.685 -0.0708  0.1368 -0.6253
 5941SOL     OW29284   1.209   1.073   1.810  0.4815 -0.0380  0.0285
 5941SOL    HW129285   1.147   1.049   1.879  0.0792  2.4284  0.5430
 5941SOL    HW229286   1.150   1.115   1.747  0.3725 -0.2358 -0.0006
 5942SOL     OW29287   3.020   1.711   7.973  0.2003 -0.1486  0.0774
 5942SOL    HW129288   3.008   1.797   8.014 -0.3383 -0.5658  0.7938
 5942SOL    HW229289   3.012   1.659   8.053 -0.0815  0.0251  0.1649
 5943SOL     OW29290   2.639   3.000  16.881 -0.1015  0.6065 -0.0391
 5943SOL    HW129291   2.717   3.040  16.844 -1.0212  1.5532 -0.9781
 5943SOL    HW229292   2.593   3.067  16.932  0.5303 -0.9197  2.5478
 5944SOL     OW29293   1.375   4.599   3.225  0.4122 -0.1579 -0.8172
 5944SOL    HW129294   1.435   4.673   3.212 -1.9403  1.6639 -1.2208
 5944SOL    HW229295   1.434   4.540   3.273 -0.4689 -1.5304 -1.4387
 5945SOL     OW29296   3.748   0.310  15.128  0.7659 -0.2669 -0.2653
 5945SOL    HW129297   3.737   0.254  15.205 -1.3571  1.2497  0.5200
 5945SOL    HW229298   3.798   0.388  15.151 -0.1119 -0.1837  1.3395
 5946SOL     OW29299   4.351   0.141   8.194 -0.3541 -0.0179 -0.4077
 5946SOL    HW129300   4.402   0.081   8.248  1.3459  2.6026  0.9124
 5946SOL    HW229301   4.282   0.081   8.167  0.5126 -0.1258 -2.3957
 5947SOL     OW29302   1.483   1.168   5.777  0.1921 -0.2609 -0.3604
 5947SOL    HW129303   1.530   1.252   5.778 -0.4660  0.1278 -2.0974
 5947SOL    HW229304   1.405   1.196   5.729 -0.0865 -1.9258 -0.8768
 5948SOL     OW29305   1.826   1.963   6.674 -0.4271  1.1777 -0.1938
 5948SOL    HW129306   1.902   1.928   6.628 -1.8800 -3.8191  1.2236
 5948SOL    HW229307   1.756   1.925   6.621 -0.5258 -0.1613  0.8961
 5949SOL     OW29308   2.354   4.216  14.068  0.6621  0.8197 -0.6586
 5949SOL    HW129309   2.391   4.129  14.050 -0.8357  0.6792 -2.9745
 5949SOL    HW229310   2.420   4.256  14.125  2.0500 -3.2250  0.5558
 5950SOL     OW29311   0.478   1.966   2.105 -0.4913 -0.0316 -0.4383
 5950SOL    HW129312   0.450   1.979   2.014 -2.8965  1.0683  0.4766
 5950SOL    HW229313   0.562   1.921   2.091 -0.8945 -0.9610  0.1379
 5951SOL     OW29314   1.402   2.178   5.243 -0.4901 -0.4064 -0.4412
 5951SOL    HW129315   1.357   2.185   5.160 -0.4592 -0.0611 -0.4276
 5951SOL    HW229316   1.462   2.107   5.217  1.9797  1.0318  1.2693
 5952SOL     OW29317   2.206   1.984   5.860 -0.3010 -0.0065 -0.3156
 5952SOL    HW129318   2.115   2.007   5.839 -0.7420 -1.0621  0.4517
 5952SOL    HW229319   2.245   1.987   5.773 -0.9891  2.7300 -0.5413
 5953SOL     OW29320   4.326   1.407  16.683  0.8475  0.5441 -0.0835
 5953SOL    HW129321   4.300   1.335  16.740 -0.8387  1.4629  0.3114
 5953SOL    HW229322   4.420   1.416  16.698  0.8336 -0.1317  0.3878
 5954SOL     OW29323   1.888   2.386   4.694 -0.0298  0.5338 -0.2041
 5954SOL    HW129324   1.918   2.476   4.681  1.4608  0.4926  2.9530
 5954SOL    HW229325   1.871   2.375   4.787 -2.8829 -1.8953 -1.0015
 5955SOL     OW29326   1.359   2.736   3.177 -0.5794  0.3717  0.3765
 5955SOL    HW129327   1.286   2.798   3.182  0.3018  1.6727 -3.1119
 5955SOL    HW229328   1.321   2.649   3.181  1.6353 -0.5616  1.1136
 5956SOL     OW29329   2.483   1.486  13.873  0.0503  0.0647 -0.3822
 5956SOL    HW129330   2.430   1.427  13.820 -0.8881  0.6800 -0.1330
 5956SOL    HW229331   2.484   1.433  13.953  0.2828  0.5027 -0.0980
 5957SOL     OW29332   4.139   2.970   9.545 -0.4676  0.3768  0.0195
 5957SOL    HW129333   4.170   3.060   9.554  0.1071  0.3584 -1.8020
 5957SOL    HW229334   4.047   2.993   9.556 -0.5370  1.7989 -3.4365
 5958SOL     OW29335   4.720   2.642   5.987 -0.5288 -0.0146 -0.2177
 5958SOL    HW129336   0.016   2.549   5.983 -0.7072 -0.1120  0.9011
 5958SOL    HW229337   4.719   2.660   6.081 -4.0661 -0.5575 -0.1340
 5959SOL     OW29338   2.815   1.150   6.956 -0.1973  0.7689  0.8311
 5959SOL    HW129339   2.762   1.151   7.036  0.5490  0.5219  1.3299
 5959SOL    HW229340   2.907   1.148   6.983 -0.1820  1.3169  0.8283
 5960SOL     OW29341   3.320   2.620   7.288 -0.1473 -0.0970 -0.1967
 5960SOL    HW129342   3.325   2.525   7.289  1.3023 -0.0038  2.1828
 5960SOL    HW229343   3.412   2.643   7.269 -0.2273 -0.0359 -0.5113
 5961SOL     OW29344   4.523   3.942   2.406 -0.1131 -0.2510 -0.0139
 5961SOL    HW129345   4.541   3.855   2.372  0.5849 -0.6368  1.3496
 5961SOL    HW229346   4.492   3.916   2.493 -2.6348 -1.0709 -1.1615
 5962SOL     OW29347   1.028   0.909   6.837  0.3918  0.1973  0.1828
 5962SOL    HW129348   1.049   1.002   6.827  0.6693 -0.0443 -1.4780
 5962SOL    HW229349   0.948   0.917   6.888  0.9926 -0.5293  1.2337
 5963SOL     OW29350   1.024   0.304   5.512  0.3262 -0.7971  0.6218
 5963SOL    HW129351   1.042   0.240   5.443  0.3172 -0.0877 -0.0364
 5963SOL    HW229352   1.021   0.393   5.477 -1.1406 -0.2009  2.2690
 5964SOL     OW29353   3.275   2.913   6.520  0.1246  0.2225  0.1675
 5964SOL    HW129354   3.271   2.818   6.518  1.6599  0.1292  1.5023
 5964SOL    HW229355   3.286   2.918   6.425  3.4738 -0.2120  0.5101
 5965SOL     OW29356   3.789   3.139   4.852 -0.1466  0.1539 -0.3929
 5965SOL    HW129357   3.808   3.231   4.872  1.6527 -1.2074  4.0032
 5965SOL    HW229358   3.712   3.144   4.794 -1.5395 -0.4022  1.4098
 5966SOL     OW29359   2.480   1.078   3.861  0.3562 -0.4446  0.3678
 5966SOL    HW129360   2.478   0.983   3.851  0.8238 -0.4304  0.1455
 5966SOL    HW229361   2.386   1.078   3.881  0.2801  1.3903 -0.0471
 5967SOL     OW29362   4.340   1.927   9.570  0.7790 -1.2309 -0.3280
 5967SOL    HW129363   4.287   1.959   9.497  0.0566  0.9093  1.1419
 5967SOL    HW229364   4.412   1.988   9.558 -0.1389 -0.2932 -1.1060
 5968SOL     OW29365   2.593   3.994   3.268 -0.4619 -0.0547  0.2861
 5968SOL    HW129366   2.684   4.023   3.264 -0.4749 -0.2812 -1.8225
 5968SOL    HW229367   2.561   4.048   3.195  1.6646  0.5062 -0.2367
 5969SOL     OW29368   1.884   4.587  13.228 -0.3101  0.5643  0.1095
 5969SOL    HW129369   1.825   4.663  13.233  0.1231  0.8013  1.5018
 5969SOL    HW229370   1.914   4.605  13.139 -0.7701  0.4968 -0.0602
 5970SOL     OW29371   4.025   2.528   2.181  0.3129 -0.6383  0.0892
 5970SOL    HW129372   3.969   2.598   2.215  1.3207  0.6149 -0.7795
 5970SOL    HW229373   3.974   2.484   2.113 -0.0161 -0.0763 -0.0350
 5971SOL     OW29374   0.001   2.376   4.076 -0.2932 -0.0168  0.3975
 5971SOL    HW129375   4.679   2.401   3.997 -0.7146  2.0467  1.2962
 5971SOL    HW229376   0.089   2.388   4.040  0.1226 -2.5158  0.5771
 5972SOL     OW29377   1.604   4.308  17.516  0.0447 -0.4953 -0.7673
 5972SOL    HW129378   1.623   4.360  17.438 -0.6501  0.3914 -0.3538
 5972SOL    HW229379   1.674   4.243  17.510  1.6067  1.0936  0.1031
 5973SOL     OW29380   4.034   0.640  17.429 -0.1030  0.8784  0.0637
 5973SOL    HW129381   4.060   0.585  17.355 -2.3747 -0.1632  0.0104
 5973SOL    HW229382   3.967   0.586  17.471  0.5684 -1.6348 -2.0912
 5974SOL     OW29383   3.499   2.413   7.095 -0.0691 -0.1549 -0.4066
 5974SOL    HW129384   3.428   2.386   7.037 -0.0274 -3.0682  0.8467
 5974SOL    HW229385   3.474   2.368   7.176 -1.1909 -0.1177 -0.7279
 5975SOL     OW29386   1.523   0.544  17.172  0.0983  0.1207  0.1900
 5975SOL    HW129387   1.505   0.452  17.151 -0.3928  0.2904 -0.1314
 5975SOL    HW229388   1.464   0.563  17.245 -0.9489 -0.3815 -0.5155
 5976SOL     OW29389   1.000   2.266   3.037 -0.5898 -0.5590 -0.3513
 5976SOL    HW129390   1.085   2.274   2.993 -1.5411 -0.0341 -2.1255
 5976SOL    HW229391   0.967   2.356   3.041  0.1774 -0.4556  3.2685
 5977SOL     OW29392   3.932   1.329  16.352 -0.3213  0.0443  0.1289
 5977SOL    HW129393   4.001   1.286  16.404  1.3320  0.4728 -1.6902
 5977SOL    HW229394   3.854   1.304  16.401  1.6072 -3.5939  1.3795
 5978SOL     OW29395   2.153   2.484   5.975  0.3630  0.0024  0.5725
 5978SOL    HW129396   2.198   2.568   5.982  0.3783  0.0502 -0.1300
 5978SOL    HW229397   2.187   2.457   5.889 -0.2613  2.2792 -0.3808
 5979SOL     OW29398   2.716   0.891   6.596  0.0757 -0.1501  0.1482
 5979SOL    HW129399   2.665   0.875   6.516  0.3082  0.3492 -0.0970
 5979SOL    HW229400   2.644   0.897   6.660  1.6813 -1.1565  2.0387
 5980SOL     OW29401   4.448   1.112   3.159  0.1854  0.4763 -0.3343
 5980SOL    HW129402   4.439   1.194   3.208 -0.6597 -0.5211  1.1907
 5980SOL    HW229403   4.518   1.142   3.101  2.4497 -0.5676  1.8756
 5981SOL     OW29404   0.671   1.308   4.871  0.3402 -0.2724  0.1049
 5981SOL    HW129405   0.741   1.359   4.830  1.1807  0.1391  2.0094
 5981SOL    HW229406   0.596   1.365   4.885  0.7480  1.0879 -3.3695
 5982SOL     OW29407   4.414   1.488   6.384  0.0294 -0.2128 -0.2269
 5982SOL    HW129408   4.390   1.430   6.456 -0.6682 -1.7333 -1.6600
 5982SOL    HW229409   4.497   1.449   6.357  1.2104  2.4424 -0.3648
 5983SOL     OW29410   2.986   0.567   7.205  0.2956 -0.1180  0.4183
 5983SOL    HW129411   2.932   0.634   7.162 -0.2568 -2.0052 -1.8391
 5983SOL    HW229412   3.002   0.597   7.294  0.5685 -0.6690  0.5567
 5984SOL     OW29413   3.140   0.347   2.869  0.2678 -0.1954  0.6754
 5984SOL    HW129414   3.174   0.314   2.785 -0.0505  2.1089 -0.3519
 5984SOL    HW229415   3.052   0.375   2.844  0.2507 -1.5125 -0.7798
 5985SOL     OW29416   3.410   1.296   1.114 -0.4870  0.1716 -0.0906
 5985SOL    HW129417   3.505   1.284   1.113 -0.5136  0.0848 -2.6546
 5985SOL    HW229418   3.402   1.329   1.203 -0.2202  0.4792 -0.1797
 5986SOL     OW29419   2.399   3.169   3.227  0.9112  0.8405  0.3836
 5986SOL    HW129420   2.442   3.098   3.274  1.9842  2.7117  2.2316
 5986SOL    HW229421   2.310   3.133   3.221  1.3709 -0.3070  0.5128
 5987SOL     OW29422   3.855   1.203   7.499 -0.6934  0.0856 -0.2585
 5987SOL    HW129423   3.870   1.109   7.512 -0.3656  0.2173  0.3184
 5987SOL    HW229424   3.768   1.197   7.460 -1.4042  0.4041  1.2658
 5988SOL     OW29425   1.724   2.401   3.321 -0.1672 -0.0035 -0.0191
 5988SOL    HW129426   1.775   2.343   3.265 -1.1505 -2.5390  1.7532
 5988SOL    HW229427   1.788   2.472   3.310 -1.7055  1.7146  1.9826
 5989SOL     OW29428   1.965   2.318   6.131 -0.1861 -0.3166 -0.0269
 5989SOL    HW129429   2.008   2.234   6.116  0.7476 -0.0039  0.9050
 5989SOL    HW229430   2.041   2.366   6.097 -0.2494  0.0255  0.3102
 5990SOL     OW29431   2.259   2.937   3.738  0.1042 -0.0412 -0.2767
 5990SOL    HW129432   2.180   2.883   3.743 -0.2231  0.5283  0.7049
 5990SOL    HW229433   2.294   2.911   3.653  2.4716 -2.2108  1.3777
 5991SOL     OW29434   4.383   0.783   4.646  0.2493  0.2945 -0.7061
 5991SOL    HW129435   4.422   0.729   4.715 -0.8112  1.4961  0.8219
 5991SOL    HW229436   4.358   0.720   4.578 -2.0233  2.9625 -2.3683
 5992SOL     OW29437   4.669   4.482   7.540 -0.2475 -0.6184 -0.3082
 5992SOL    HW129438   4.685   4.561   7.488 -0.4395 -0.9653 -0.8975
 5992SOL    HW229439   0.033   4.448   7.540 -0.0376 -0.0629  0.7404
 5993SOL     OW29440   3.338   0.571   6.272  0.0981  0.1544 -0.0707
 5993SOL    HW129441   3.395   0.495   6.283 -1.4559 -0.6097  2.5092
 5993SOL    HW229442   3.400   0.640   6.250  0.2660 -0.5893 -1.9438
 5994SOL     OW29443   2.895   0.721   4.720 -0.0015 -0.7702  0.4658
 5994SOL    HW129444   2.974   0.671   4.702 -0.2184 -1.2316  0.8010
 5994SOL    HW229445   2.891   0.742   4.627 -1.1998  0.0828  0.6984
 5995SOL     OW29446   2.493   4.116   0.190 -0.1083 -0.8728  0.6345
 5995SOL    HW129447   2.503   4.023   0.172 -1.7835 -0.8321 -0.4692
 5995SOL    HW229448   2.405   4.132   0.156  0.7562  2.1703 -0.2070
 5996SOL     OW29449   4.537   1.733   0.642 -0.3261 -0.2398  0.4136
 5996SOL    HW129450   4.541   1.826   0.665  1.0137 -0.0010 -0.7458
 5996SOL    HW229451   4.533   1.705   0.733  2.2446  1.3559  1.0310
 5997SOL     OW29452   3.275   1.773   9.344 -0.2426 -0.3006 -0.0618
 5997SOL    HW129453   3.276   1.816   9.430 -3.0843 -0.2879 -0.0568
 5997SOL    HW229454   3.369   1.752   9.336 -0.1713  0.2726 -0.7090
 5998SOL     OW29455   3.317   2.561  13.283 -0.3750 -0.8309  0.3195
 5998SOL    HW129456   3.250   2.494  13.271 -2.2281  1.2612 -0.9393
 5998SOL    HW229457   3.264   2.632  13.318  0.9241  0.2147  0.1639
 5999SOL     OW29458   2.223   0.616   4.921  0.4214  0.3212 -0.0726
 5999SOL    HW129459   2.196   0.544   4.863  0.7660  0.9574 -1.0242
 5999SOL    HW229460   2.188   0.589   5.006  1.3792  1.5943  0.7332
 6000SOL     OW29461   1.189   4.141   7.982  0.0239  0.0068  0.0908
 6000SOL    HW129462   1.174   4.079   8.054  0.1887 -0.2709 -0.1169
 6000SOL    HW229463   1.254   4.092   7.932  0.3426  1.1888 -0.6567
 6001SOL     OW29464   1.029   3.942   2.453  0.1633  0.5212 -0.3341
 6001SOL    HW129465   0.989   3.856   2.460 -0.4171  0.8994  0.9016
 6001SOL    HW229466   1.007   3.960   2.361 -2.0618 -1.6183 -0.2187
 6002SOL     OW29467   0.970   0.116   6.102 -0.3314  0.2796 -0.0180
 6002SOL    HW129468   0.932   0.052   6.162 -1.2353  0.1153 -0.7818
 6002SOL    HW229469   0.907   0.110   6.031 -1.2802  0.3416  0.8220
 6003SOL     OW29470   0.370   4.691   5.013  0.5639  0.1201 -0.2521
 6003SOL    HW129471   0.367   0.026   4.939  0.6286  0.6779  0.1989
 6003SOL    HW229472   0.356   4.607   4.970 -0.3027  0.1244  0.0218
 6004SOL     OW29473   2.144   4.170   6.458 -0.6980  0.5722  0.5562
 6004SOL    HW129474   2.230   4.180   6.417 -0.2837  2.6531  1.9934
 6004SOL    HW229475   2.117   4.256   6.428  1.0854  0.7975 -0.4296
 6005SOL     OW29476   1.863   3.327  15.298  0.6850 -0.2529 -0.0279
 6005SOL    HW129477   1.772   3.318  15.268  0.9114 -0.4012 -0.6630
 6005SOL    HW229478   1.881   3.418  15.272 -2.1927  0.5674  0.7722
 6006SOL     OW29479   1.630   1.404   4.080 -0.0143  0.0358 -0.2311
 6006SOL    HW129480   1.615   1.310   4.067 -0.7812  0.3579 -1.6700
 6006SOL    HW229481   1.613   1.432   3.990 -2.0179 -1.5809 -0.3599
 6007SOL     OW29482   0.044   3.435  10.872  0.2430  0.2786 -0.0314
 6007SOL    HW129483   4.702   3.367  10.864  0.0931  0.2752  1.1942
 6007SOL    HW229484   0.118   3.379  10.896  2.1317  2.4967 -0.7734
 6008SOL     OW29485   0.564   2.643   0.548 -0.5875 -0.0887  0.5253
 6008SOL    HW129486   0.506   2.695   0.493  1.7629 -1.1622 -2.9896
 6008SOL    HW229487   0.510   2.636   0.626 -1.1751 -0.7326  0.0652
 6009SOL     OW29488   2.401   1.201   3.037 -0.3366  0.3735  0.2446
 6009SOL    HW129489   2.361   1.117   3.017  1.9933 -0.2130 -1.8975
 6009SOL    HW229490   2.488   1.170   3.012 -0.3758 -1.0140  1.8382
 6010SOL     OW29491   0.778   0.408   0.693 -0.4933  0.3347 -0.3723
 6010SOL    HW129492   0.687   0.437   0.688 -1.1541 -1.9319 -1.2512
 6010SOL    HW229493   0.776   0.357   0.773 -0.1501 -0.9403 -1.1736
 6011SOL     OW29494   2.707   4.344  14.835 -0.1151  0.0547  0.7068
 6011SOL    HW129495   2.675   4.396  14.909  0.7660 -0.6243  1.5724
 6011SOL    HW229496   2.719   4.260  14.881 -0.9595 -0.1862  0.4889
 6012SOL     OW29497   3.369   3.806  15.131  0.3210 -0.3642 -0.0178
 6012SOL    HW129498   3.313   3.750  15.185 -1.4896  0.8379 -0.6479
 6012SOL    HW229499   3.431   3.748  15.086  0.2819 -0.6825  0.3378
 6013SOL     OW29500   2.384   1.082  12.810  0.0638  0.1641 -0.1296
 6013SOL    HW129501   2.313   1.030  12.772 -0.6777  0.9325  0.1958
 6013SOL    HW229502   2.448   1.073  12.740  2.0374  0.5966  1.5962
 6014SOL     OW29503   0.305   4.604   8.496  0.1884  0.5403 -0.0960
 6014SOL    HW129504   0.384   4.551   8.500 -0.3251 -0.2605 -0.5528
 6014SOL    HW229505   0.244   4.538   8.462 -0.4390  0.9604  0.1970
 6015SOL     OW29506   1.904   2.250   3.173 -0.4394  0.0055  0.1438
 6015SOL    HW129507   1.849   2.183   3.132  1.1666 -1.5582  0.5511
 6015SOL    HW229508   1.984   2.251   3.120 -0.4516  1.5955  0.1766
 6016SOL     OW29509   2.826   3.568   5.279 -0.7732  0.3963 -0.6452
 6016SOL    HW129510   2.761   3.622   5.325 -0.1322 -0.4114  1.1913
 6016SOL    HW229511   2.864   3.511   5.345  0.0475  1.9298  0.1907
 6017SOL     OW29512   1.776   1.421   0.906 -0.1303 -0.0844  0.1947
 6017SOL    HW129513   1.830   1.347   0.934 -2.5552 -2.2681 -0.9354
 6017SOL    HW229514   1.739   1.382   0.827  1.4354  1.1602 -1.1659
 6018SOL     OW29515   3.954   3.704   8.207  0.2101 -0.1997 -0.4878
 6018SOL    HW129516   3.968   3.791   8.244  1.7472 -0.7275  0.1991
 6018SOL    HW229517   3.913   3.668   8.286  1.2412 -1.6279 -0.5942
 6019SOL     OW29518   2.783   1.375   5.056 -0.5192  0.7843 -0.5390
 6019SOL    HW129519   2.819   1.286   5.060 -1.5333  0.3925 -0.3779
 6019SOL    HW229520   2.862   1.419   5.087 -0.3769  1.8211 -2.3840
 6020SOL     OW29521   1.063   1.828  16.427  0.0711 -0.2742  0.8165
 6020SOL    HW129522   1.075   1.736  16.402 -0.4417 -0.4886  1.3371
 6020SOL    HW229523   0.969   1.845  16.430  0.0943 -0.2085  1.1625
 6021SOL     OW29524   2.640   4.130   6.757  0.2047  0.4703  0.2647
 6021SOL    HW129525   2.604   4.060   6.812 -2.3432  0.7045 -1.1102
 6021SOL    HW229526   2.601   4.104   6.674  0.9287  0.9715 -0.2292
 6022SOL     OW29527   1.072   2.922   6.621 -0.0491 -0.2735 -0.1548
 6022SOL    HW129528   1.074   2.975   6.541  0.6641 -0.7406 -0.4504
 6022SOL    HW229529   1.111   2.991   6.674  1.9977 -1.9480  0.5634
 6023SOL     OW29530   3.700   1.397   3.704 -0.6692 -0.1999  0.1990
 6023SOL    HW129531   3.606   1.382   3.697 -0.2181 -1.6019 -2.8917
 6023SOL    HW229532   3.699   1.467   3.770 -0.1552  1.5999 -1.6958
 6024SOL     OW29533   3.147   2.258   3.848 -0.4991 -0.0240 -0.1736
 6024SOL    HW129534   3.151   2.262   3.753 -3.0230 -1.0165 -0.3164
 6024SOL    HW229535   3.137   2.163   3.856  1.7791 -0.1446  1.3441
 6025SOL     OW29536   2.094   3.366   6.712 -0.7685 -0.5318  0.2530
 6025SOL    HW129537   2.156   3.335   6.646 -1.2710  1.9120 -1.3606
 6025SOL    HW229538   2.140   3.360   6.796  0.4510  0.4731 -0.3340
 6026SOL     OW29539   3.517   1.787  15.561  0.1331 -0.0773 -0.5934
 6026SOL    HW129540   3.502   1.734  15.640 -0.2905 -0.9421 -1.2488
 6026SOL    HW229541   3.564   1.861  15.599 -0.6828  0.6019 -0.9271
 6027SOL     OW29542   4.526   1.953  11.492  0.1924  0.0034 -0.1647
 6027SOL    HW129543   4.516   2.040  11.530 -0.2711 -0.4903  0.8554
 6027SOL    HW229544   4.460   1.909  11.546  0.0623  0.1730 -0.1850
 6028SOL     OW29545   1.651   2.380   4.440  0.2211 -0.1498 -0.4816
 6028SOL    HW129546   1.589   2.424   4.497 -1.1302 -1.1543 -1.1800
 6028SOL    HW229547   1.695   2.460   4.411  0.1550  0.2585  0.5371
 6029SOL     OW29548   2.581   4.325   5.407  0.5705 -0.4466 -0.1730
 6029SOL    HW129549   2.508   4.338   5.347  0.6108  0.9427  0.0852
 6029SOL    HW229550   2.645   4.392   5.385 -0.7071  0.4464 -1.2086
 6030SOL     OW29551   1.439   1.831  11.421  0.4667 -0.1208  0.2485
 6030SOL    HW129552   1.370   1.893  11.396 -0.3272 -0.5610  1.3401
 6030SOL    HW229553   1.502   1.847  11.351 -0.1986 -3.8196 -1.2026
 6031SOL     OW29554   0.327   4.226  17.459 -0.1911  0.1113 -0.2112
 6031SOL    HW129555   0.377   4.190  17.532 -1.7298 -1.2281  0.1691
 6031SOL    HW229556   0.268   4.154  17.440  1.0015 -1.7845  3.3511
 6032SOL     OW29557   1.936   2.546   5.825 -0.2243  0.5406  0.1680
 6032SOL    HW129558   1.967   2.546   5.915  0.7502 -0.1342 -0.1660
 6032SOL    HW229559   2.000   2.485   5.788 -0.3783  1.4442 -1.6064
 6033SOL     OW29560   2.868   0.292   3.728 -0.0366 -0.1049  0.2710
 6033SOL    HW129561   2.775   0.304   3.745 -0.2638 -2.7991  0.9271
 6033SOL    HW229562   2.899   0.369   3.775  1.7528 -0.2359 -0.6871
 6034SOL     OW29563   2.546   2.019  17.161 -0.2175 -0.0160  0.1572
 6034SOL    HW129564   2.582   2.044  17.076 -1.9552  2.5129  0.1691
 6034SOL    HW229565   2.577   1.929  17.167  0.3968  0.2819  1.4701
 6035SOL     OW29566   1.632   3.070   6.700 -0.0222  0.4277  0.3679
 6035SOL    HW129567   1.592   3.020   6.771 -0.1272 -1.0845 -0.7499
 6035SOL    HW229568   1.724   3.059   6.722 -0.3797 -0.6168  1.3562
 6036SOL     OW29569   3.224   4.122   3.052 -0.7834 -0.4045  0.0703
 6036SOL    HW129570   3.203   4.193   2.990 -1.8314 -0.1116  0.7676
 6036SOL    HW229571   3.150   4.116   3.112 -2.3002 -1.2304 -1.8815
 6037SOL     OW29572   4.240   1.374   5.489 -0.1010  0.2999 -0.6255
 6037SOL    HW129573   4.310   1.314   5.460  3.2577  1.8261  4.3701
 6037SOL    HW229574   4.285   1.422   5.559 -1.6562  0.2369  0.4155
 6038SOL     OW29575   3.981   4.572   1.774  0.6724 -0.2587 -0.4842
 6038SOL    HW129576   3.908   4.518   1.805 -0.9425  2.1070 -0.1371
 6038SOL    HW229577   4.008   4.522   1.697  0.4456 -1.2210  0.0661
 6039SOL     OW29578   3.692   1.495   2.999 -0.3619  0.1477  0.1119
 6039SOL    HW129579   3.639   1.553   2.944 -0.5990  0.2963  0.5061
 6039SOL    HW229580   3.746   1.554   3.051  0.7757  0.2703 -1.1976
 6040SOL     OW29581   3.749   3.818   3.061  0.5704 -0.3149  0.6032
 6040SOL    HW129582   3.807   3.874   3.009  1.5294  0.0615  2.0677
 6040SOL    HW229583   3.734   3.744   3.002 -1.7003  2.1389 -1.9501
 6041SOL     OW29584   0.277   2.568   3.119 -0.1713  0.1677  0.7328
 6041SOL    HW129585   0.331   2.647   3.115 -1.2028  0.8581  0.4088
 6041SOL    HW229586   0.196   2.596   3.163 -0.6548 -1.7166  1.0467
 6042SOL     OW29587   4.414   4.638   0.727 -0.3191 -0.5340 -0.7783
 6042SOL    HW129588   4.503   4.662   0.753 -0.8135 -0.0707  0.4766
 6042SOL    HW229589   4.372   4.724   0.729 -0.4905 -0.5916 -2.0464
 6043SOL     OW29590   3.653   1.931  11.180  0.1871 -0.6958 -0.1955
 6043SOL    HW129591   3.600   1.989  11.235  0.7122  1.2352 -1.6976
 6043SOL    HW229592   3.627   1.965  11.094  0.4441  0.2979  0.1216
 6044SOL     OW29593   0.438   0.356   6.610  0.2142  0.5359 -0.0744
 6044SOL    HW129594   0.506   0.314   6.662 -1.2033  0.4194  1.6981
 6044SOL    HW229595   0.384   0.278   6.598 -0.4410  0.7247  1.6002
 6045SOL     OW29596   1.255   4.338   5.502  0.3437  0.0850  0.0615
 6045SOL    HW129597   1.334   4.390   5.491 -1.0141  1.8556 -1.4216
 6045SOL    HW229598   1.278   4.280   5.574  0.7581  0.1722 -0.0032
 6046SOL     OW29599   4.571   1.272   7.306 -0.7699 -0.3286 -0.0608
 6046SOL    HW129600   4.662   1.241   7.308 -0.5988 -0.0255 -2.7013
 6046SOL    HW229601   4.576   1.353   7.356  1.0816  0.2007 -1.0910
 6047SOL     OW29602   3.930   4.147   1.822  0.1216  0.3795 -0.1589
 6047SOL    HW129603   3.963   4.058   1.812  0.5470  0.5856 -0.5819
 6047SOL    HW229604   4.004   4.199   1.793 -0.2300  1.2042  0.4214
 6048SOL     OW29605   3.588   3.530   8.855  0.2649  0.0641 -0.8516
 6048SOL    HW129606   3.649   3.577   8.912  1.3553 -1.3445 -0.8677
 6048SOL    HW229607   3.506   3.568   8.886  1.9682  1.5020  1.8911
 6049SOL     OW29608   1.346   3.331   7.404 -0.5844 -0.1946  0.2728
 6049SOL    HW129609   1.353   3.306   7.496  0.5624 -1.1984 -0.0929
 6049SOL    HW229610   1.273   3.393   7.411 -0.2522  0.2703 -0.3692
 6050SOL     OW29611   3.263   2.075   3.418  0.1874 -0.3333  0.3271
 6050SOL    HW129612   3.213   2.007   3.372 -0.7575 -0.0262  0.8934
 6050SOL    HW229613   3.353   2.044   3.407  0.7184  0.4808  2.2969
 6051SOL     OW29614   1.132   1.608   8.512  0.5747 -0.3752  0.2233
 6051SOL    HW129615   1.043   1.591   8.544  0.0953  1.6014 -0.0650
 6051SOL    HW229616   1.119   1.700   8.488 -0.0761 -0.9329 -1.5588
 6052SOL     OW29617   2.648   4.377   1.870  0.0426 -0.1153  0.5190
 6052SOL    HW129618   2.611   4.439   1.807  0.6072 -1.4372 -1.1017
 6052SOL    HW229619   2.568   4.367   1.922 -0.3858 -2.2934 -0.5664
 6053SOL     OW29620   2.759   3.034   9.178  0.5268  0.7733  0.5604
 6053SOL    HW129621   2.784   2.945   9.201 -3.1841 -0.3407  0.2211
 6053SOL    HW229622   2.814   3.043   9.101 -0.7651 -1.8188 -0.6625
 6054SOL     OW29623   2.800   2.381   6.237 -0.0709  0.4174 -0.0158
 6054SOL    HW129624   2.849   2.415   6.312  1.0764 -1.6817  0.1602
 6054SOL    HW229625   2.725   2.346   6.284  0.4966 -3.0257 -1.7012
 6055SOL     OW29626   3.074   0.572  13.048  0.4235  0.3959 -0.7751
 6055SOL    HW129627   3.106   0.580  12.958 -0.7017  0.2902 -1.1927
 6055SOL    HW229628   2.995   0.626  13.047  2.7122  3.7391 -0.8650
 6056SOL     OW29629   3.836   1.594   5.629 -0.6174  0.3001  0.1466
 6056SOL    HW129630   3.877   1.525   5.576  1.6147  1.0917  0.8855
 6056SOL    HW229631   3.892   1.584   5.705 -0.7613  0.6301  0.2965
 6057SOL     OW29632   3.843   0.041   9.935 -0.0288 -0.3383  0.1366
 6057SOL    HW129633   3.756   0.077   9.954  1.3662  0.4680  4.9740
 6057SOL    HW229634   3.822   4.681   9.971 -0.7847 -0.0515  0.3840
 6058SOL     OW29635   2.318   3.606   9.545 -0.6387 -0.4645 -0.1999
 6058SOL    HW129636   2.234   3.567   9.570 -0.2327 -0.1139  1.7179
 6058SOL    HW229637   2.376   3.538   9.578  0.3282  0.2331 -0.4665
 6059SOL     OW29638   4.667   1.820  12.894 -0.5452  0.0940  0.5524
 6059SOL    HW129639   4.710   1.736  12.879 -1.2361 -0.0222 -0.7311
 6059SOL    HW229640   4.687   1.868  12.814 -2.7617 -0.8861 -0.5919
 6060SOL     OW29641   3.417   2.923  10.886  0.0637  0.3088 -0.6896
 6060SOL    HW129642   3.505   2.930  10.849 -0.1263 -0.8805 -1.3662
 6060SOL    HW229643   3.443   2.963  10.969  1.6080  0.5529 -1.2924
 6061SOL     OW29644   3.223   0.760  16.303  0.4039 -0.0225 -0.2293
 6061SOL    HW129645   3.214   0.669  16.275 -2.8746  0.4433 -0.6680
 6061SOL    HW229646   3.267   0.790  16.223  0.5729  0.7437  0.1470
 6062SOL     OW29647   3.603   0.000   3.337  0.4983  0.2112  0.1258
 6062SOL    HW129648   3.539   0.066   3.308 -0.5374 -0.6398  0.4848
 6062SOL    HW229649   3.625   4.685   3.254  2.6801  1.5506  0.0490
 6063SOL     OW29650   3.271   2.309   9.480 -0.0794 -0.3832 -0.4520
 6063SOL    HW129651   3.303   2.236   9.427 -0.1468 -0.4562 -0.3912
 6063SOL    HW229652   3.338   2.314   9.548 -1.6517 -0.4635  1.1010
 6064SOL     OW29653   1.647   1.747   7.967  0.9838 -0.0138  0.4875
 6064SOL    HW129654   1.742   1.756   7.975  1.1637 -0.2277 -1.3382
 6064SOL    HW229655   1.642   1.652   7.965  0.2132  0.0402  0.0269
 6065SOL     OW29656   1.781   0.691   7.721  0.6621  0.3926  0.0222
 6065SOL    HW129657   1.802   0.609   7.767  2.9321 -0.2692 -2.1829
 6065SOL    HW229658   1.829   0.668   7.641 -0.2282 -0.4826 -0.2658
 6066SOL     OW29659   0.583   3.628  17.227 -0.0527 -0.2836 -0.1324
 6066SOL    HW129660   0.493   3.656  17.209  0.5502  1.7860  0.0685
 6066SOL    HW229661   0.619   3.626  17.139  0.7822 -0.4739  0.2118
 6067SOL     OW29662   1.070   4.588  11.028 -0.1979  0.0687  0.6457
 6067SOL    HW129663   1.102   4.663  11.077  1.4061  0.2002 -0.5995
 6067SOL    HW229664   1.079   4.520  11.095  0.1020 -1.0017 -0.4769
 6068SOL     OW29665   2.741   1.627   8.296 -0.2747  0.2998 -0.0047
 6068SOL    HW129666   2.690   1.684   8.238  0.7935 -0.3258 -1.5779
 6068SOL    HW229667   2.682   1.565   8.339  1.5138 -0.8104  0.8130
 6069SOL     OW29668   2.700   4.065   8.803  0.2659  0.3051 -0.1660
 6069SOL    HW129669   2.647   4.130   8.849 -1.7325 -1.7060  0.4207
 6069SOL    HW229670   2.622   4.034   8.756  0.7723  2.8652 -2.7190
 6070SOL     OW29671   4.639   0.578   7.719  0.0022 -0.1687  0.1041
 6070SOL    HW129672   4.646   0.498   7.772 -0.3411 -0.0786  0.2827
 6070SOL    HW229673   4.698   0.640   7.761 -0.6380  0.0623  0.6447
 6071SOL     OW29674   2.475   0.488   1.270  0.0602 -0.0610 -0.0240
 6071SOL    HW129675   2.565   0.518   1.279  0.0877  0.0815 -0.8070
 6071SOL    HW229676   2.482   0.397   1.242 -0.4182 -0.0533 -0.1653
 6072SOL     OW29677   4.271   4.346  17.164 -0.4027 -0.7739  0.3621
 6072SOL    HW129678   4.270   4.436  17.194 -0.0040 -0.2388 -1.2399
 6072SOL    HW229679   4.205   4.308  17.222 -2.7549  1.0261 -1.1580
 6073SOL     OW29680   0.957   3.060   2.549  0.0460  0.4812  0.1906
 6073SOL    HW129681   1.028   3.016   2.595 -1.5595 -0.4328  1.8078
 6073SOL    HW229682   0.978   3.153   2.556 -1.6206  0.8158  0.7159
 6074SOL     OW29683   3.985   1.282   6.769 -0.5625 -0.6302 -0.1322
 6074SOL    HW129684   4.017   1.237   6.690 -0.3444  3.0283 -2.1115
 6074SOL    HW229685   4.036   1.230   6.832 -1.8533 -1.7285 -0.0003
 6075SOL     OW29686   4.338   3.514   5.721  0.6795 -0.0646  0.3923
 6075SOL    HW129687   4.348   3.449   5.791  0.1284 -0.0072  0.5244
 6075SOL    HW229688   4.243   3.520   5.711  0.7953 -0.2963 -0.7744
 6076SOL     OW29689   0.048   4.082   7.829 -0.0773 -0.4516  0.7252
 6076SOL    HW129690   0.099   4.157   7.800 -0.0272 -0.5927  0.4519
 6076SOL    HW229691   4.700   4.093   7.769  0.7991  0.3710 -0.1804
 6077SOL     OW29692   1.509   0.920   3.223  0.1099  0.7641 -0.4583
 6077SOL    HW129693   1.451   0.891   3.153 -2.1467  1.4092  1.1501
 6077SOL    HW229694   1.585   0.943   3.170  1.2979 -2.3358 -0.1439
 6078SOL     OW29695   2.011   4.350   3.314  0.1255 -0.2799  0.1034
 6078SOL    HW129696   1.997   4.419   3.249  0.0947 -1.2785 -0.9501
 6078SOL    HW229697   1.948   4.283   3.290  2.3639 -1.8355 -1.4233
 6079SOL     OW29698   2.501   1.188  13.025  0.2935  0.0016  0.1501
 6079SOL    HW129699   2.475   1.154  12.939 -1.6234 -3.7426  2.2076
 6079SOL    HW229700   2.506   1.115  13.087  0.0687 -0.5342 -0.4526
 6080SOL     OW29701   1.836   2.856   8.165  0.2784  0.2842  0.5110
 6080SOL    HW129702   1.852   2.764   8.186  2.1857  0.5209  0.0716
 6080SOL    HW229703   1.752   2.851   8.120 -0.3865 -0.8423  1.8682
 6081SOL     OW29704   4.257   2.797  15.433 -0.5567  0.2227  0.0048
 6081SOL    HW129705   4.312   2.875  15.431  0.8811 -0.7434  1.3243
 6081SOL    HW229706   4.278   2.762  15.520  0.2000  0.4692 -0.0818
 6082SOL     OW29707   1.835   1.296  10.321  0.2000  0.4988 -0.7596
 6082SOL    HW129708   1.898   1.362  10.291 -0.0859  0.7211 -0.8692
 6082SOL    HW229709   1.898   1.225  10.307  1.0709  0.8445  1.3894
 6083SOL     OW29710   4.446   0.049  16.103 -0.3999  0.1982 -0.0032
 6083SOL    HW129711   4.519   0.016  16.156  2.6027  1.5997 -3.2396
 6083SOL    HW229712   4.484   0.061  16.015 -1.1363 -1.0608 -0.5024
 6084SOL     OW29713   1.729   2.110   5.911  0.1790  0.6922 -0.2445
 6084SOL    HW129714   1.694   2.134   5.997  0.8385  0.6088  0.0423
 6084SOL    HW229715   1.681   2.176   5.862 -2.6328  0.0390  1.6185
 6085SOL     OW29716   0.832   4.719   6.942 -0.1496  0.0304 -0.3569
 6085SOL    HW129717   0.838   4.624   6.942 -3.2946 -0.1697 -0.6670
 6085SOL    HW229718   0.804   0.004   6.851 -2.0090 -0.2059  0.1782
 6086SOL     OW29719   4.601   1.442   0.778  0.2369 -0.0775 -0.6145
 6086SOL    HW129720   4.527   1.496   0.806 -0.7184 -1.5124 -0.3179
 6086SOL    HW229721   4.559   1.383   0.715  0.5952 -1.2893  0.2711
 6087SOL     OW29722   0.265   2.407   4.438 -0.1147  0.1523  0.2506
 6087SOL    HW129723   0.316   2.448   4.507 -0.5971 -0.1359  0.7837
 6087SOL    HW229724   0.331   2.355   4.393  0.3586  1.2662 -0.3297
 6088SOL     OW29725   1.370   4.409  11.357 -0.1614  0.3420  0.6033
 6088SOL    HW129726   1.291   4.354  11.355  0.9801 -1.1569 -2.7018
 6088SOL    HW229727   1.336   4.495  11.382  0.1335  0.6524 -0.0617
 6089SOL     OW29728   2.982   1.079   2.390 -0.8801  0.2648 -0.2906
 6089SOL    HW129729   2.921   1.030   2.445 -1.0495 -0.6269 -1.2656
 6089SOL    HW229730   2.971   1.042   2.302 -1.4075 -3.0986  1.2066
 6090SOL     OW29731   0.243   1.510   0.180  0.1012 -0.3463  0.5934
 6090SOL    HW129732   0.264   1.587   0.127  1.0278 -1.1339 -0.1994
 6090SOL    HW229733   0.233   1.448   0.107  0.5003 -0.5988  0.7539
 6091SOL     OW29734   2.959   3.478   2.840  0.5169 -0.1876  0.1670
 6091SOL    HW129735   3.053   3.464   2.823  0.5432 -0.1002  0.2445
 6091SOL    HW229736   2.928   3.460   2.751 -1.5920  0.6002  0.7504
 6092SOL     OW29737   2.336   2.664   8.172  0.2287 -0.3405 -0.2080
 6092SOL    HW129738   2.273   2.724   8.132  0.9456  0.5874  0.0193
 6092SOL    HW229739   2.394   2.724   8.220  0.7813 -0.2240 -1.0201
 6093SOL     OW29740   0.980   3.810  16.318 -0.6667 -0.0848  0.6048
 6093SOL    HW129741   0.955   3.831  16.228  2.9512 -0.7230 -0.5151
 6093SOL    HW229742   0.917   3.740  16.338 -3.2004  1.6433 -1.2669
 6094SOL     OW29743   1.879   2.561   1.238 -0.1914 -0.5595 -0.1078
 6094SOL    HW129744   1.946   2.537   1.301 -1.1583  0.3244  1.2605
 6094SOL    HW229745   1.836   2.480   1.211 -0.2893 -0.8435  0.8911
 6095SOL     OW29746   1.573   0.475   4.619 -0.1022  0.3463  0.3757
 6095SOL    HW129747   1.482   0.448   4.632  0.6678  0.1394  5.0725
 6095SOL    HW229748   1.613   0.472   4.705 -1.5365 -1.3016  0.9756
 6096SOL     OW29749   2.456   4.671   4.844 -0.1933  0.7589 -0.0431
 6096SOL    HW129750   2.478   4.593   4.896 -1.0055 -1.0281 -2.4055
 6096SOL    HW229751   2.373   4.639   4.811  0.6722  0.4450 -1.9060
 6097SOL     OW29752   4.298   4.496   3.577  0.6040 -1.0080  0.3872
 6097SOL    HW129753   4.358   4.529   3.643 -0.7502 -1.5611  1.8841
 6097SOL    HW229754   4.219   4.482   3.629  0.3796  1.3189  0.6467
 6098SOL     OW29755   2.295   0.538   7.656 -0.1758  0.6560  0.0732
 6098SOL    HW129756   2.361   0.480   7.694 -1.3491 -2.2713 -2.4168
 6098SOL    HW229757   2.297   0.616   7.712  0.2762  0.9887 -0.4132
 6099SOL     OW29758   2.236   3.910   6.360  0.3882 -0.0717  0.0816
 6099SOL    HW129759   2.192   3.981   6.408  0.5186  0.0679 -0.0069
 6099SOL    HW229760   2.314   3.948   6.319 -1.4185  0.4734 -2.8262
 6100SOL     OW29761   3.009   3.800   6.946 -0.0910 -0.3348  0.2155
 6100SOL    HW129762   2.981   3.871   7.004 -1.7086 -1.6611  1.0547
 6100SOL    HW229763   2.929   3.789   6.894  0.8557 -0.8453 -1.1407
 6101SOL     OW29764   0.719   3.468   7.515  0.0664 -0.2455  0.4694
 6101SOL    HW129765   0.750   3.541   7.461 -1.4241  0.3912  0.4690
 6101SOL    HW229766   0.713   3.508   7.601  4.5557 -1.5521  1.3682
 6102SOL     OW29767   1.519   4.203   7.412  0.5690  0.3048 -0.1874
 6102SOL    HW129768   1.542   4.295   7.396  0.4715  0.1785 -1.0534
 6102SOL    HW229769   1.431   4.213   7.448  1.0555 -1.6049  1.5091
 6103SOL     OW29770   1.046   1.562   6.200 -0.4773 -0.1670 -0.4629
 6103SOL    HW129771   1.068   1.566   6.107  1.6524  0.1654  0.0595
 6103SOL    HW229772   1.071   1.471   6.213  1.8895  0.4900 -0.4193
 6104SOL     OW29773   0.147   0.625   0.877 -0.0535  0.2285  0.1440
 6104SOL    HW129774   0.095   0.629   0.797 -1.6466  0.2898  1.1787
 6104SOL    HW229775   0.101   0.690   0.930 -3.0117 -0.2399 -1.8264
 6105SOL     OW29776   2.545   3.544  16.388 -0.0894  0.1094 -0.3351
 6105SOL    HW129777   2.488   3.607  16.432 -0.6859 -0.9179  0.3395
 6105SOL    HW229778   2.524   3.578  16.301  0.2431  1.6869  0.1985
 6106SOL     OW29779   1.646   2.735   9.888  0.1096  0.5016  0.1032
 6106SOL    HW129780   1.700   2.798   9.936 -0.5852  1.5436 -0.4864
 6106SOL    HW229781   1.713   2.706   9.825 -2.3330 -0.3006 -2.0897
 6107SOL     OW29782   3.830   2.297   9.709  0.1268 -0.2739 -0.7556
 6107SOL    HW129783   3.842   2.324   9.800  1.1011 -1.5528 -0.4952
 6107SOL    HW229784   3.737   2.273   9.713 -0.1252  1.2892  2.8254
 6108SOL     OW29785   1.201   1.943  11.759  0.4642  0.0031  0.2723
 6108SOL    HW129786   1.109   1.968  11.758  0.1363 -1.2684 -0.7281
 6108SOL    HW229787   1.243   1.988  11.686  1.1640 -2.1292 -0.6518
 6109SOL     OW29788   3.872   1.314   8.559  0.0820  0.5016 -0.1689
 6109SOL    HW129789   3.908   1.310   8.470 -0.6999 -1.5393 -0.3860
 6109SOL    HW229790   3.781   1.341   8.547  0.4862  1.4418 -1.1021
 6110SOL     OW29791   0.998   1.312  11.561  0.4028 -0.2986  0.1538
 6110SOL    HW129792   0.986   1.329  11.467 -1.7268  0.5361  0.5720
 6110SOL    HW229793   1.029   1.223  11.576 -0.4519 -1.3005 -4.0308
 6111SOL     OW29794   2.033   1.157  10.227 -0.3635  0.0299 -0.5102
 6111SOL    HW129795   2.109   1.215  10.221  0.1226 -0.7562 -2.0679
 6111SOL    HW229796   2.075   1.072  10.244 -1.3795 -0.8856 -2.6063
 6112SOL     OW29797   2.916   1.642   5.224 -0.2964  0.0865  0.1519
 6112SOL    HW129798   2.863   1.683   5.156  1.8117  1.4537 -0.6604
 6112SOL    HW229799   2.910   1.701   5.299  1.9572 -0.7861  1.0365
 6113SOL     OW29800   3.679   4.245   6.596 -0.7653 -0.4023 -0.1828
 6113SOL    HW129801   3.593   4.272   6.563 -0.9804  0.1082  0.8103
 6113SOL    HW229802   3.706   4.333   6.618  0.1010 -0.5164 -0.7906
 6114SOL     OW29803   0.460   0.295   1.573  0.3748 -0.7202  0.7801
 6114SOL    HW129804   0.509   0.373   1.601 -0.1058  0.2826 -1.1995
 6114SOL    HW229805   0.495   0.277   1.486 -0.9326  0.3601  0.0293
 6115SOL     OW29806   4.591   2.836  12.274 -0.3844 -0.3401  0.0446
 6115SOL    HW129807   4.624   2.863  12.359  2.4726  0.4709 -1.3502
 6115SOL    HW229808   4.531   2.768  12.305  1.2767 -0.8680  2.0211
 6116SOL     OW29809   3.378   2.094   9.340 -0.4455 -0.1295  0.3120
 6116SOL    HW129810   3.462   2.115   9.382  0.7559  0.1622 -2.1855
 6116SOL    HW229811   3.376   1.998   9.344 -1.6411 -0.1979 -1.8984
 6117SOL     OW29812   3.755   0.795   2.785 -0.0766  0.3595 -0.8086
 6117SOL    HW129813   3.709   0.722   2.824  1.4258  0.9018  1.9729
 6117SOL    HW229814   3.680   0.844   2.752 -1.5961  0.1338  2.4135
 6118SOL     OW29815   1.947   2.580   8.603  0.2245 -0.5929 -0.0788
 6118SOL    HW129816   1.993   2.664   8.604 -1.9914  0.6212 -1.3194
 6118SOL    HW229817   2.018   2.522   8.632  2.8425  2.7644  0.2784
 6119SOL     OW29818   3.327   2.876  16.467 -0.5829  0.3258  0.1994
 6119SOL    HW129819   3.421   2.878  16.454 -0.7156  0.0801 -0.7559
 6119SOL    HW229820   3.311   2.967  16.442  2.2372  0.1417 -2.1577
 6120SOL     OW29821   2.105   4.219   5.690  1.0685  0.1495  0.3808
 6120SOL    HW129822   2.058   4.203   5.772  1.1256 -1.8575  0.0085
 6120SOL    HW229823   2.041   4.276   5.647 -0.2910 -1.2405  0.5418
 6121SOL     OW29824   1.346   2.061   6.665 -0.2665  0.1179  0.4088
 6121SOL    HW129825   1.379   2.144   6.699  1.9274 -0.8662  0.6510
 6121SOL    HW229826   1.345   2.003   6.741 -1.1523  0.9203  1.0095
 6122SOL     OW29827   4.127   3.437  14.199 -0.1936  0.0115 -0.0800
 6122SOL    HW129828   4.172   3.474  14.122 -1.6493 -1.8908 -1.8280
 6122SOL    HW229829   4.181   3.469  14.271  1.8603 -0.8097 -1.2427
 6123SOL     OW29830   3.595   2.069   6.656  0.0386  0.5838  0.3909
 6123SOL    HW129831   3.666   2.086   6.718  0.4396 -0.4743  0.2273
 6123SOL    HW229832   3.654   2.044   6.585 -0.0812  0.5434  0.3052
 6124SOL     OW29833   4.564   1.972  15.389 -0.1826  0.0026  0.0516
 6124SOL    HW129834   4.556   1.923  15.471  0.8354  0.2056  0.2739
 6124SOL    HW229835   4.641   2.027  15.407 -0.2649 -0.8423  2.9185
 6125SOL     OW29836   2.664   0.856  14.564  0.4321  0.2338 -0.1630
 6125SOL    HW129837   2.744   0.843  14.513 -0.3930 -0.6768 -1.2291
 6125SOL    HW229838   2.684   0.940  14.606  1.0831  1.0904 -2.1726
 6126SOL     OW29839   0.041   4.702   7.398  0.5977 -0.6035  0.2863
 6126SOL    HW129840   0.073   0.019   7.318  0.2215 -0.1186  0.3913
 6126SOL    HW229841   4.688   0.030   7.409  0.2307 -0.6913 -1.9489
 6127SOL     OW29842   1.940   2.807   9.524  0.0518  0.2441 -0.4019
 6127SOL    HW129843   2.022   2.856   9.526 -0.6003  1.2723  1.3464
 6127SOL    HW229844   1.958   2.753   9.448  1.8465 -2.4356  1.9233
 6128SOL     OW29845   0.601   1.081  11.915 -0.0424  0.1445 -0.1288
 6128SOL    HW129846   0.675   1.095  11.855 -1.2480 -1.3370 -1.9507
 6128SOL    HW229847   0.529   1.091  11.853 -0.9678 -1.1492  0.7357
 6129SOL     OW29848   1.093   3.484  14.840 -0.1351  0.5313  0.0925
 6129SOL    HW129849   1.048   3.480  14.755 -3.0132 -1.0523  1.6701
 6129SOL    HW229850   1.160   3.550  14.823  0.2333 -0.0471 -0.6891
 6130SOL     OW29851   4.331   0.438  16.100  0.0414 -0.0488 -0.0695
 6130SOL    HW129852   4.327   0.386  16.181 -1.1100 -0.4526 -0.3905
 6130SOL    HW229853   4.248   0.485  16.094  1.9957  3.3532 -0.0719
 6131SOL     OW29854   3.057   1.769  16.194  0.1877  0.2007 -0.4631
 6131SOL    HW129855   3.040   1.757  16.287  0.9614 -0.3858 -0.4055
 6131SOL    HW229856   3.020   1.858  16.188 -1.8624 -0.7007 -1.2514
 6132SOL     OW29857   3.819   0.226   7.856  0.0313  0.0386  0.4216
 6132SOL    HW129858   3.822   0.195   7.765  1.1336 -1.9408  1.1278
 6132SOL    HW229859   3.762   0.303   7.853  1.9617  1.4415 -0.2064
 6133SOL     OW29860   3.620   2.256   8.673 -0.0002 -0.4366 -0.1575
 6133SOL    HW129861   3.601   2.249   8.766 -0.1449 -1.5410 -0.2622
 6133SOL    HW229862   3.544   2.307   8.646  0.5745  0.6066  0.2335
 6134SOL     OW29863   3.871   2.355   7.791  0.0768 -0.2441 -0.2847
 6134SOL    HW129864   3.962   2.385   7.787  0.1322 -0.3040  0.6185
 6134SOL    HW229865   3.827   2.439   7.801  1.9008  0.7277 -0.2363
 6135SOL     OW29866   3.509   3.638   5.577  0.1758 -0.0671 -0.1797
 6135SOL    HW129867   3.553   3.553   5.570  0.3131  0.0246 -0.4416
 6135SOL    HW229868   3.574   3.699   5.612  1.7671 -1.9932  0.2141
 6136SOL     OW29869   1.971   4.036   4.320  0.2855 -0.1163 -0.0053
 6136SOL    HW129870   1.980   4.131   4.324 -2.3311  0.1307  0.4611
 6136SOL    HW229871   1.877   4.031   4.338  0.9984 -1.2633  3.2554
 6137SOL     OW29872   0.850   0.269  12.315  0.6234 -0.7153 -0.3391
 6137SOL    HW129873   0.769   0.319  12.328  1.6857  1.2302 -1.2250
 6137SOL    HW229874   0.821   0.209  12.247 -1.5046 -1.4558  1.2081
 6138SOL     OW29875   1.185   4.287   8.931 -0.0945  0.1449  0.1941
 6138SOL    HW129876   1.204   4.219   8.996 -0.7017 -1.2120 -1.0409
 6138SOL    HW229877   1.191   4.239   8.848 -2.1967  0.9011 -0.4021
 6139SOL     OW29878   2.581   4.370   7.240  0.3988 -0.5902  0.2540
 6139SOL    HW129879   2.546   4.394   7.326 -1.3506 -1.3029 -0.2720
 6139SOL    HW229880   2.673   4.357   7.266  0.3188  2.1853  1.9286
 6140SOL     OW29881   1.713   0.880  12.779 -0.0909 -0.3863  0.3090
 6140SOL    HW129882   1.723   0.806  12.838 -1.4357  0.7891  2.0152
 6140SOL    HW229883   1.744   0.944  12.843 -0.0325 -0.1139  0.0095
 6141SOL     OW29884   0.256   4.177  13.968 -0.4031  0.2129 -0.0035
 6141SOL    HW129885   0.330   4.125  13.997 -1.2850 -3.8237 -4.9132
 6141SOL    HW229886   0.227   4.200  14.056  0.5938  0.2294  0.3170
 6142SOL     OW29887   2.650   3.533   4.745 -0.3978  0.1407  0.5716
 6142SOL    HW129888   2.723   3.482   4.710  0.0352  0.4466  1.0263
 6142SOL    HW229889   2.591   3.459   4.732  0.1658 -0.1624 -0.2411
 6143SOL     OW29890   1.340   2.502   1.714 -0.1368  0.3891 -0.4522
 6143SOL    HW129891   1.428   2.537   1.706 -0.3822  1.1402  0.1801
 6143SOL    HW229892   1.368   2.413   1.690 -0.0553 -0.0529  1.3036
 6144SOL     OW29893   0.290   2.028   7.973 -0.0089 -0.2503  0.2532
 6144SOL    HW129894   0.323   1.953   8.023 -0.8602 -0.0785  1.0740
 6144SOL    HW229895   0.346   2.100   8.001 -1.2051  1.6974 -2.3517
 6145SOL     OW29896   0.939   1.190  12.435 -0.2214  0.3884 -0.1834
 6145SOL    HW129897   1.019   1.137  12.427 -1.6903 -1.7581 -0.5972
 6145SOL    HW229898   0.907   1.182  12.345 -0.0879 -0.2462 -0.1789
 6146SOL     OW29899   2.691   1.256   8.090 -0.3138 -0.2463 -0.0150
 6146SOL    HW129900   2.621   1.194   8.110 -1.3676  0.3806 -1.7996
 6146SOL    HW229901   2.647   1.339   8.074 -1.2579 -0.7344  0.0936
 6147SOL     OW29902   4.257   0.061   4.910 -0.5942  0.6843 -0.2305
 6147SOL    HW129903   4.245   0.087   5.001 -0.0752  0.4435 -0.0950
 6147SOL    HW229904   4.314   0.131   4.877 -0.4428  0.1610 -1.0870
 6148SOL     OW29905   0.344   1.644  11.481  0.1048 -0.1159 -0.2219
 6148SOL    HW129906   0.382   1.731  11.473  0.3377 -0.2273 -0.3224
 6148SOL    HW229907   0.412   1.585  11.512 -0.6157 -1.5394 -1.3191
 6149SOL     OW29908   2.725   4.243   8.081 -0.1982  0.3535  0.0012
 6149SOL    HW129909   2.676   4.321   8.056 -0.8064 -1.3400 -4.1361
 6149SOL    HW229910   2.798   4.272   8.026 -1.0847  0.2105 -1.2256
 6150SOL     OW29911   4.700   1.849  13.162  0.0929 -0.3273 -0.5069
 6150SOL    HW129912   4.709   1.847  13.066  0.2589  0.9082 -0.5260
 6150SOL    HW229913   0.020   1.775  13.202 -0.3017 -0.1060  0.3479
 6151SOL     OW29914   4.552   4.498   6.673 -0.5482  0.3388 -0.0101
 6151SOL    HW129915   4.608   4.501   6.596 -0.4706 -1.2171 -0.0132
 6151SOL    HW229916   4.492   4.430   6.644  0.4578 -1.1041  1.2818
 6152SOL     OW29917   0.732   0.176   4.734  0.3800  0.1103 -0.2178
 6152SOL    HW129918   0.687   0.218   4.807 -0.8889 -1.6481  0.0074
 6152SOL    HW229919   0.812   0.158   4.784  0.5713  2.9547  0.4619
 6153SOL     OW29920   3.411   0.872   1.733  0.6637 -0.3780  0.0483
 6153SOL    HW129921   3.373   0.807   1.674  0.3223 -2.3401  2.4485
 6153SOL    HW229922   3.374   0.836   1.813 -0.1212 -1.1065 -0.6465
 6154SOL     OW29923   0.250   2.589   8.377 -0.1649  0.4985  0.1893
 6154SOL    HW129924   0.201   2.667   8.351  0.7711  2.2845  3.7224
 6154SOL    HW229925   0.312   2.621   8.443  0.2210 -1.6813  0.8863
 6155SOL     OW29926   2.460   1.062   8.600  0.4361  0.0174 -0.5223
 6155SOL    HW129927   2.463   1.121   8.675  1.4369 -0.1562 -0.4277
 6155SOL    HW229928   2.381   1.010   8.615 -0.3362  0.9379 -1.4480
 6156SOL     OW29929   0.227   0.480  16.511  0.3016 -0.7116  0.0678
 6156SOL    HW129930   0.270   0.538  16.574 -1.8976  0.2678  0.6440
 6156SOL    HW229931   0.197   0.417  16.576  2.3743 -1.3202  0.4525
 6157SOL     OW29932   3.573   1.406   7.648  0.1363 -0.2707 -0.3773
 6157SOL    HW129933   3.653   1.413   7.699 -0.5387  2.3676  0.3231
 6157SOL    HW229934   3.573   1.492   7.606  0.1965  0.3493  0.9141
 6158SOL     OW29935   3.195   4.310   6.053  0.1548  0.2258 -0.4558
 6158SOL    HW129936   3.195   4.239   6.117 -3.2649  0.5553 -0.1170
 6158SOL    HW229937   3.290   4.310   6.040  0.3356  2.1990  0.7941
 6159SOL     OW29938   0.507   3.402   6.943 -1.1557 -0.2909 -0.1301
 6159SOL    HW129939   0.511   3.369   6.854 -1.8735  1.5505 -0.8314
 6159SOL    HW229940   0.556   3.484   6.937 -1.1708 -0.1866  1.1239
 6160SOL     OW29941   3.943   2.202   3.707 -0.1456 -0.1335  0.0320
 6160SOL    HW129942   4.017   2.226   3.763  1.3367 -1.3423 -1.3829
 6160SOL    HW229943   3.985   2.135   3.653  1.1475  0.7128 -0.0073
 6161SOL     OW29944   2.320   1.997   2.083 -0.0721  0.0119  0.4910
 6161SOL    HW129945   2.400   2.019   2.129  1.6181  0.3988 -2.6167
 6161SOL    HW229946   2.275   1.940   2.145  1.4281  0.2842  1.8004
 6162SOL     OW29947   0.975   1.960   6.781 -0.1456 -0.3181 -0.8093
 6162SOL    HW129948   0.978   2.046   6.823  0.2848  0.3484 -2.1735
 6162SOL    HW229949   1.024   1.993   6.705  2.3648 -0.9869  0.5333
 6163SOL     OW29950   2.589   4.325   6.532 -0.0120  0.1008  0.6341
 6163SOL    HW129951   2.633   4.268   6.470 -0.6926  1.5174 -1.1486
 6163SOL    HW229952   2.519   4.351   6.472 -1.0343  1.3949  2.3647
 6164SOL     OW29953   0.308   4.500   0.033  0.3785  0.6062 -0.4576
 6164SOL    HW129954   0.217   4.484   0.007  0.6052  1.5206 -1.8316
 6164SOL    HW229955   0.294   4.482   0.126 -0.4462  0.3429 -0.6326
 6165SOL     OW29956   1.246   3.815   4.352  0.0739 -0.6454  0.2973
 6165SOL    HW129957   1.318   3.773   4.305 -0.7752 -2.5401  0.7024
 6165SOL    HW229958   1.279   3.905   4.349  0.0978 -0.6912 -0.8861
 6166SOL     OW29959   4.614   1.150  11.644 -0.6646 -0.3953 -0.7566
 6166SOL    HW129960   4.557   1.073  11.642 -1.3420  0.0753  0.4044
 6166SOL    HW229961   4.554   1.216  11.680  0.1998  0.2945 -0.5878
 6167SOL     OW29962   4.201   3.039   5.808 -0.1020 -0.1882 -0.0590
 6167SOL    HW129963   4.293   3.052   5.829 -0.2286  0.6955 -0.0679
 6167SOL    HW229964   4.205   2.953   5.766 -0.3083 -0.4316  0.4147
 6168SOL     OW29965   1.769   0.280   5.085 -0.4639  0.5176  0.8535
 6168SOL    HW129966   1.758   0.221   5.159  3.1226 -1.0667  0.1671
 6168SOL    HW229967   1.863   0.302   5.086 -0.3037 -0.0814 -0.0882
 6169SOL     OW29968   3.726   2.169  13.201  0.0780  0.2947  0.6522
 6169SOL    HW129969   3.646   2.123  13.175 -0.8612  0.6399  2.9391
 6169SOL    HW229970   3.730   2.237  13.134 -1.0163  0.1429  0.4227
 6170SOL     OW29971   0.670   1.514  11.328  0.3414 -0.1983 -0.3227
 6170SOL    HW129972   0.630   1.592  11.288  0.5801 -0.7377 -1.6294
 6170SOL    HW229973   0.598   1.474  11.376  0.3246 -1.0005 -1.0268
 6171SOL     OW29974   1.569   0.944   0.045 -0.5472 -0.6720 -0.2008
 6171SOL    HW129975   1.663   0.931   0.029  0.0728 -0.4982  3.2183
 6171SOL    HW229976   1.580   1.037   0.065  0.7483 -0.7170 -0.7139
 6172SOL     OW29977   0.559   4.088   6.147  0.0799 -0.2858 -0.2351
 6172SOL    HW129978   0.501   4.026   6.102 -0.1714 -0.9234  0.9753
 6172SOL    HW229979   0.505   4.167   6.159 -0.9806 -1.2592  1.2775
 6173SOL     OW29980   3.550   1.087   6.399  0.4522 -0.1824 -0.8726
 6173SOL    HW129981   3.477   1.055   6.345 -0.0864 -0.6210  0.1267
 6173SOL    HW229982   3.581   1.157   6.341 -0.3602  0.5305 -0.4571
 6174SOL     OW29983   2.225   0.839   2.497  0.6022 -0.0392 -0.7173
 6174SOL    HW129984   2.160   0.805   2.559 -1.8046  1.8581 -2.2007
 6174SOL    HW229985   2.284   0.879   2.561 -0.4765 -1.1550  0.9826
 6175SOL     OW29986   2.378   2.301   7.403  0.5509 -0.1743  0.1249
 6175SOL    HW129987   2.322   2.253   7.464  2.1070 -3.5381 -1.0758
 6175SOL    HW229988   2.465   2.288   7.439  1.1582  0.1439 -1.2134
 6176SOL     OW29989   2.280   1.573   7.490  0.0681 -0.3512  0.2513
 6176SOL    HW129990   2.300   1.581   7.583  1.2562  0.2334 -0.0589
 6176SOL    HW229991   2.232   1.654   7.473 -0.9848 -0.7133  1.5064
 6177SOL     OW29992   2.074   4.622   4.742  0.0567  0.3344  0.2805
 6177SOL    HW129993   2.108   4.688   4.682 -1.4669  1.8193  1.0538
 6177SOL    HW229994   2.083   4.673   4.822 -1.8425 -1.4643  1.6462
 6178SOL     OW29995   1.094   0.085   8.150  0.2527 -0.0223 -0.5304
 6178SOL    HW129996   1.126   0.172   8.177 -3.1211  0.8120  0.7439
 6178SOL    HW229997   1.159   0.026   8.187  1.7556  0.1577 -2.8389
 6179SOL     OW29998   1.500   3.866   1.009 -0.0737 -0.2643 -0.4431
 6179SOL    HW129999   1.472   3.780   0.977  1.5066 -1.3737  1.1156
 6179SOL    HW230000   1.517   3.841   1.100  0.9345 -0.3043 -0.6447
 6180SOL     OW30001   3.542   2.053   5.730  0.3943 -0.3469  0.4424
 6180SOL    HW130002   3.467   2.005   5.766 -1.3871  2.3193  0.2554
 6180SOL    HW230003   3.555   2.019   5.641  0.8508 -2.2087  1.2269
 6181SOL     OW30004   0.694   4.427  17.106 -0.1626  0.1556  0.4261
 6181SOL    HW130005   0.736   4.475  17.035 -1.5946  2.9830  1.4644
 6181SOL    HW230006   0.641   4.359  17.064  0.7742  0.7989 -1.7774
 6182SOL     OW30007   1.260   1.392   3.943  0.1725  0.3612 -0.4550
 6182SOL    HW130008   1.192   1.401   3.877  0.0497 -0.3977 -0.4328
 6182SOL    HW230009   1.234   1.450   4.014  0.0846  1.1439 -1.1354
 6183SOL     OW30010   4.608   2.346  15.032 -0.2179 -0.3702 -0.1822
 6183SOL    HW130011   4.610   2.280  15.100 -3.7729 -0.3997 -0.1118
 6183SOL    HW230012   4.672   2.413  15.059  0.0186 -0.6835  0.0320
 6184SOL     OW30013   3.094   0.137   3.582  0.1080  0.5699  0.0535
 6184SOL    HW130014   3.029   0.158   3.648  0.0387  0.9373 -0.1348
 6184SOL    HW230015   3.053   0.164   3.500  0.0273 -0.0103 -0.0951
 6185SOL     OW30016   1.347   0.966  14.694 -0.0627 -0.2710 -0.0943
 6185SOL    HW130017   1.422   1.012  14.731 -1.5342  1.4072  0.8402
 6185SOL    HW230018   1.278   1.030  14.716  0.3237 -0.2936  1.1726
 6186SOL     OW30019   1.593   2.793   9.361 -0.0667  0.0533 -0.1999
 6186SOL    HW130020   1.624   2.708   9.392  1.0341  0.0444 -1.3241
 6186SOL    HW230021   1.632   2.777   9.275  2.6793 -1.1128  1.2364
 6187SOL     OW30022   0.214   1.554  15.364  0.9200  0.4826  0.2382
 6187SOL    HW130023   0.170   1.624  15.317  2.1012  1.3651  0.4480
 6187SOL    HW230024   0.297   1.552  15.315  1.1900 -1.3723  0.7606
 6188SOL     OW30025   4.180   0.209   3.809  0.4433 -0.0411  0.8705
 6188SOL    HW130026   4.208   0.233   3.897  0.0379  0.8782  0.7529
 6188SOL    HW230027   4.242   0.256   3.753  1.6291 -3.1596 -0.4623
 6189SOL     OW30028   0.922   1.662   7.250  0.4431  0.7793 -0.0085
 6189SOL    HW130029   0.956   1.731   7.194  0.2457  0.4809 -0.4999
 6189SOL    HW230030   0.938   1.578   7.206 -0.4814  0.8570 -0.5025
 6190SOL     OW30031   1.373   3.993   7.879 -0.6354  0.2985  0.6664
 6190SOL    HW130032   1.426   4.020   7.805  0.1219 -0.5928  0.8890
 6190SOL    HW230033   1.356   3.904   7.847  0.2790  0.0201  0.9640
 6191SOL     OW30034   1.980   2.427   9.689  0.0787  0.1042  0.4383
 6191SOL    HW130035   1.900   2.374   9.691  0.7243 -0.9320 -1.2817
 6191SOL    HW230036   1.938   2.511   9.707  0.4558  0.1159  1.2603
 6192SOL     OW30037   0.990   2.993  13.151  0.1109 -0.2930 -0.2480
 6192SOL    HW130038   0.918   3.006  13.212 -0.1065  0.8403 -0.7490
 6192SOL    HW230039   0.951   3.038  13.076 -2.1144  0.4816  1.3900
 6193SOL     OW30040   3.532   2.016  10.935 -0.0083 -0.2052  0.2245
 6193SOL    HW130041   3.449   2.047  10.898  0.7589  0.9931 -0.4869
 6193SOL    HW230042   3.536   1.941  10.876  2.7442 -1.6879  2.2744
 6194SOL     OW30043   2.687   4.450   4.731 -0.2325  0.3828  0.3320
 6194SOL    HW130044   2.688   4.395   4.810 -0.5425  0.0271  0.0885
 6194SOL    HW230045   2.783   4.454   4.731 -0.1478 -1.4533  1.0671
 6195SOL     OW30046   4.673   0.010   4.042  0.1308 -0.4083  0.0680
 6195SOL    HW130047   4.701   4.676   3.973 -0.0630  1.9387 -2.0431
 6195SOL    HW230048   0.001   4.709   4.116  0.9808  2.6555  0.5781
 6196SOL     OW30049   4.049   0.803  11.138 -0.2694 -0.1865  0.3762
 6196SOL    HW130050   4.140   0.775  11.124  0.7327  2.0853  2.2711
 6196SOL    HW230051   4.002   0.722  11.161 -0.1781 -0.1015  0.8596
 6197SOL     OW30052   1.104   2.580   1.370  0.0288 -0.3562  0.1390
 6197SOL    HW130053   1.046   2.504   1.359 -1.1998  0.4042  1.4237
 6197SOL    HW230054   1.041   2.651   1.358 -0.8801 -1.1231  0.3534
 6198SOL     OW30055   0.867   2.743   7.244 -0.1068 -0.3926 -0.3836
 6198SOL    HW130056   0.928   2.771   7.311  1.1454 -0.1918 -1.6130
 6198SOL    HW230057   0.816   2.823   7.231  1.5688  0.7674  0.1972
 6199SOL     OW30058   1.414   0.166  12.201  0.1398 -0.2246  0.0836
 6199SOL    HW130059   1.331   0.132  12.234 -0.7492  1.9945  0.1164
 6199SOL    HW230060   1.407   0.155  12.106  1.3696 -0.1728 -0.0117
 6200SOL     OW30061   1.289   2.735  13.798 -0.5270  0.2937  0.6172
 6200SOL    HW130062   1.332   2.753  13.715 -1.5642  1.1707  0.2765
 6200SOL    HW230063   1.211   2.789  13.788  0.7562  2.2179  0.9050
 6201SOL     OW30064   3.661   2.063   3.716 -0.4988 -0.2276  0.0042
 6201SOL    HW130065   3.722   1.997   3.748  0.1588 -0.9075 -2.6102
 6201SOL    HW230066   3.705   2.084   3.633 -1.0258 -0.8263 -0.4265
 6202SOL     OW30067   3.584   1.464  10.255 -0.4199  0.1825 -0.1793
 6202SOL    HW130068   3.606   1.436  10.167  0.3320 -2.8992  0.9970
 6202SOL    HW230069   3.634   1.392  10.294  0.9434 -0.4160 -3.0974
 6203SOL     OW30070   0.883   1.968   4.045 -0.1099 -0.1949  0.6332
 6203SOL    HW130071   0.915   1.943   4.132  0.6268 -1.0680  0.1115
 6203SOL    HW230072   0.853   2.057   4.063 -2.8499 -1.4545  2.2992
 6204SOL     OW30073   2.920   3.806  12.628 -0.2346 -0.3077 -0.3824
 6204SOL    HW130074   2.956   3.753  12.699  1.4826 -0.4073 -1.3341
 6204SOL    HW230075   2.996   3.802  12.570 -1.1711 -0.4216 -1.6132
 6205SOL     OW30076   0.731   0.585   5.292  0.9384 -0.1628  0.6010
 6205SOL    HW130077   0.673   0.516   5.323 -0.3700  0.4280 -0.5675
 6205SOL    HW230078   0.823   0.561   5.306  1.2877  0.1524 -1.1103
 6206SOL     OW30079   0.979   0.051   3.320  0.0305  0.2583 -0.2517
 6206SOL    HW130080   1.062   0.097   3.306 -0.7916  1.6310 -0.5305
 6206SOL    HW230081   1.003   4.718   3.248 -0.7738 -0.8790  0.4061
 6207SOL     OW30082   3.109   3.180  17.356 -0.2220 -0.1121  0.3828
 6207SOL    HW130083   3.184   3.197  17.299 -0.8684 -0.9637 -0.7216
 6207SOL    HW230084   3.123   3.085  17.354 -0.6390 -0.2013  1.5036
 6208SOL     OW30085   3.192   3.185   4.668  0.0272 -0.0385 -0.2305
 6208SOL    HW130086   3.179   3.093   4.688  1.6536  0.0858  1.3944
 6208SOL    HW230087   3.266   3.172   4.610  0.1597 -1.5898  0.2921
 6209SOL     OW30088   2.536   2.247   4.510 -0.4961  0.5745  0.2957
 6209SOL    HW130089   2.581   2.249   4.425  0.2450 -1.9442  0.6230
 6209SOL    HW230090   2.555   2.340   4.524  1.3213  0.0994  0.9258
 6210SOL     OW30091   1.324   0.137   7.470 -0.0598 -0.0785 -0.1193
 6210SOL    HW130092   1.356   0.101   7.387 -0.1426 -1.4464  0.4336
 6210SOL    HW230093   1.230   0.137   7.456 -0.0986  1.2508  0.1347
 6211SOL     OW30094   3.937   2.749  12.427  0.3717 -0.1436  0.3930
 6211SOL    HW130095   3.884   2.671  12.412 -0.1692  0.0731  1.2241
 6211SOL    HW230096   3.897   2.808  12.363 -0.8903  0.2590  1.5533
 6212SOL     OW30097   3.921   0.361   2.231 -0.7359 -0.0220  0.6679
 6212SOL    HW130098   3.964   0.444   2.211 -1.6541 -0.3805 -2.8823
 6212SOL    HW230099   3.996   0.304   2.218  1.8051  3.6890 -1.0785
 6213SOL     OW30100   1.128   1.224  12.073 -0.3929  0.2917  0.2181
 6213SOL    HW130101   1.214   1.260  12.096 -0.5345  0.4255  0.5386
 6213SOL    HW230102   1.157   1.177  11.995  0.4635  0.0690  0.6641
 6214SOL     OW30103   4.181   4.599   7.106 -0.1151 -0.1346 -0.2611
 6214SOL    HW130104   4.228   4.517   7.093  1.5487  0.4788  1.8986
 6214SOL    HW230105   4.095   4.567   7.134 -0.9585  1.2018 -1.3137
 6215SOL     OW30106   2.032   4.708   9.977  0.1861 -1.0112  0.2763
 6215SOL    HW130107   2.058   4.721  10.068  0.9223 -0.5229 -0.0034
 6215SOL    HW230108   2.108   4.690   9.921  1.3930  2.2034  0.9152
 6216SOL     OW30109   4.240   0.171   6.283 -0.0854 -0.0686  0.0370
 6216SOL    HW130110   4.229   0.150   6.375 -0.0056 -2.9277 -0.5885
 6216SOL    HW230111   4.336   0.176   6.276 -0.0759 -1.6605 -1.1780
 6217SOL     OW30112   2.504   3.626  17.099  0.0562 -0.5249  0.0082
 6217SOL    HW130113   2.430   3.669  17.143 -1.4065 -1.2395 -1.7948
 6217SOL    HW230114   2.477   3.606  17.010 -3.1942  0.0466  0.8452
 6218SOL     OW30115   4.314   0.682  13.905 -0.0484 -0.3056  0.7761
 6218SOL    HW130116   4.394   0.673  13.853  0.9494 -0.4946  2.3400
 6218SOL    HW230117   4.277   0.764  13.873 -0.1692 -0.1345  1.3588
 6219SOL     OW30118   3.114   3.893  12.416  0.4185 -0.5273 -0.3685
 6219SOL    HW130119   3.124   3.944  12.496  1.0616  1.0838 -1.4735
 6219SOL    HW230120   3.091   3.962  12.353 -0.3874 -2.3219 -2.0678
 6220SOL     OW30121   3.415   1.916  15.791  0.0113 -0.0433 -0.0638
 6220SOL    HW130122   3.465   1.998  15.789 -1.2050  0.7324  1.9998
 6220SOL    HW230123   3.484   1.849  15.794 -0.5463 -0.5610  1.2230
 6221SOL     OW30124   1.622   1.855  11.618 -0.2535 -0.2885  0.5106
 6221SOL    HW130125   1.616   1.760  11.633 -0.0942 -0.8436 -2.8991
 6221SOL    HW230126   1.547   1.861  11.559  0.9766  1.5009 -0.8698
 6222SOL     OW30127   4.489   3.937   6.513  0.3727  0.5298 -0.7195
 6222SOL    HW130128   4.534   3.897   6.587 -1.1054  0.7014  0.2710
 6222SOL    HW230129   4.454   3.864   6.461  0.7091  1.8726 -2.8600
 6223SOL     OW30130   0.808   4.473   4.746  0.7375  0.7731 -0.3049
 6223SOL    HW130131   0.822   4.443   4.836 -0.2048 -0.0070 -0.4268
 6223SOL    HW230132   0.878   4.532   4.719  1.8962 -1.0420 -1.2417
 6224SOL     OW30133   0.082   1.764  15.199 -0.4281  0.1202 -0.4393
 6224SOL    HW130134   0.029   1.707  15.143  0.6644 -0.3170 -1.0288
 6224SOL    HW230135   0.064   1.847  15.156 -3.4120 -1.0110 -1.3925
 6225SOL     OW30136   0.020   3.205   7.109  0.7912 -0.1144  0.2349
 6225SOL    HW130137   4.670   3.181   7.162  0.6491 -0.8562 -0.3121
 6225SOL    HW230138   0.068   3.251   7.178  1.6732  0.1906 -0.5795
 6226SOL     OW30139   0.493   2.676  12.590 -0.2476  0.0625 -0.2188
 6226SOL    HW130140   0.427   2.615  12.624  0.2021 -0.1329  0.3003
 6226SOL    HW230141   0.553   2.682  12.664  1.3325 -1.1175 -1.4102
 6227SOL     OW30142   0.886   3.588  10.052  0.1903 -0.2626  0.5160
 6227SOL    HW130143   0.861   3.509  10.004  1.6276 -0.0959 -0.5168
 6227SOL    HW230144   0.980   3.573  10.044 -0.0110 -0.6710 -0.9754
 6228SOL     OW30145   2.164   0.524   6.732  0.0869  0.6207  0.7212
 6228SOL    HW130146   2.091   0.483   6.685 -0.1555  1.2657  0.5326
 6228SOL    HW230147   2.230   0.501   6.666 -0.7165  1.2251 -0.2963
 6229SOL     OW30148   1.005   4.451  12.894 -0.7902 -0.4531  0.1220
 6229SOL    HW130149   1.003   4.513  12.821 -2.2425 -0.9389 -0.2515
 6229SOL    HW230150   0.933   4.391  12.874 -1.0752  0.3524 -1.2566
 6230SOL     OW30151   4.231   3.316   3.209  0.2738  0.0750  0.3717
 6230SOL    HW130152   4.302   3.321   3.144 -1.0986 -0.4451 -1.1720
 6230SOL    HW230153   4.188   3.402   3.211  2.0883  0.9747  0.9919
 6231SOL     OW30154   1.692   4.052   4.172  0.3629  0.4716 -0.0912
 6231SOL    HW130155   1.684   4.122   4.237 -0.8239  0.1841  0.0634
 6231SOL    HW230156   1.695   3.978   4.234  2.8774  2.1426  1.7784
 6232SOL     OW30157   3.475   3.037  14.134  0.5288  0.5020 -0.0570
 6232SOL    HW130158   3.511   2.963  14.084 -1.8633 -1.1220  0.6698
 6232SOL    HW230159   3.400   3.062  14.081 -1.8517 -0.9498  2.6766
 6233SOL     OW30160   3.036   3.019  11.200 -0.0017  0.3672 -0.2518
 6233SOL    HW130161   3.128   3.010  11.175  0.0487  0.0154  0.0616
 6233SOL    HW230162   3.025   3.111  11.174 -1.7131 -0.1411 -1.3401
 6234SOL     OW30163   2.810   1.561  16.209  0.0324  0.4421  0.1775
 6234SOL    HW130164   2.864   1.507  16.150 -0.9197  1.5306 -1.6831
 6234SOL    HW230165   2.856   1.643  16.225  0.6731 -0.0100  0.6331
 6235SOL     OW30166   2.007   2.664   2.414  0.1159  0.6379 -0.2657
 6235SOL    HW130167   2.021   2.654   2.320 -2.0094 -1.2286 -0.3657
 6235SOL    HW230168   2.092   2.627   2.437  0.8673  1.0868 -2.3195
 6236SOL     OW30169   2.166   1.794   7.366 -0.0652 -0.4459  0.3057
 6236SOL    HW130170   2.107   1.742   7.313 -0.2842  1.2147 -1.0832
 6236SOL    HW230171   2.240   1.802   7.306  0.0858 -0.7937  0.4414
 6237SOL     OW30172   4.383   2.314   8.783 -0.5542 -0.5428  0.2902
 6237SOL    HW130173   4.317   2.383   8.775 -0.1243 -0.2639 -0.9079
 6237SOL    HW230174   4.332   2.234   8.774 -1.6937  0.0948  1.1126
 6238SOL     OW30175   2.988   1.262   8.533 -0.3881  0.0575  0.2541
 6238SOL    HW130176   2.992   1.176   8.574 -2.8649 -1.9638 -3.7619
 6238SOL    HW230177   2.903   1.286   8.571  0.2200  0.4489  1.3650
 6239SOL     OW30178   3.228   2.285   3.576 -0.5188  0.8173 -0.5524
 6239SOL    HW130179   3.323   2.283   3.586 -0.6742 -0.4654  0.7467
 6239SOL    HW230180   3.216   2.206   3.522 -1.3115 -0.6005  1.6974
 6240SOL     OW30181   1.670   1.639   2.177 -0.0284 -0.0992  0.3264
 6240SOL    HW130182   1.652   1.584   2.101 -2.0272  1.5538 -0.4171
 6240SOL    HW230183   1.733   1.588   2.227  0.8789  1.0322  0.3273
 6241SOL     OW30184   4.554   1.050   8.916 -0.7128  0.0876 -1.3508
 6241SOL    HW130185   4.473   1.100   8.929 -0.0200  0.9230 -0.2446
 6241SOL    HW230186   4.547   0.979   8.979  1.3398 -0.4477 -1.7427
 6242SOL     OW30187   0.840   0.533   5.761  0.2774  0.2563 -0.1596
 6242SOL    HW130188   0.933   0.552   5.754  0.1758  1.0281  0.6812
 6242SOL    HW230189   0.839   0.482   5.843 -1.5919 -2.3990 -1.8093
 6243SOL     OW30190   2.552   1.792   9.088 -0.0094 -0.0573 -0.0101
 6243SOL    HW130191   2.521   1.790   9.178  0.0616 -0.2201  0.0105
 6243SOL    HW230192   2.579   1.701   9.075 -0.4664 -0.2552  0.4479
 6244SOL     OW30193   2.471   1.848   3.737 -0.3652 -0.1285 -0.4792
 6244SOL    HW130194   2.527   1.784   3.781 -1.8411 -0.0255  1.5328
 6244SOL    HW230195   2.537   1.911   3.707  0.7425 -1.3413 -0.5556
 6245SOL     OW30196   0.429   3.976   2.928  0.1672 -0.2341  0.2373
 6245SOL    HW130197   0.434   4.022   2.844  2.8616 -0.8386  0.0537
 6245SOL    HW230198   0.510   3.927   2.940  0.1804 -0.1031  0.6859
 6246SOL     OW30199   0.197   1.363  17.611  0.8896 -0.0387 -0.4801
 6246SOL    HW130200   0.191   1.273  17.579 -1.3951  0.2246 -0.7633
 6246SOL    HW230201   0.141   1.407  17.547  1.5712 -1.8674 -2.3452
 6247SOL     OW30202   2.727   3.576  13.510  0.4193 -0.4048  0.5265
 6247SOL    HW130203   2.805   3.528  13.483  0.3645 -1.9258  3.0914
 6247SOL    HW230204   2.665   3.502  13.512 -0.3866  0.2436 -0.6483
 6248SOL     OW30205   3.599   4.109   8.577  0.4288  0.2252 -0.0556
 6248SOL    HW130206   3.555   4.123   8.661  0.5581  1.8035 -0.2480
 6248SOL    HW230207   3.636   4.022   8.589 -0.9547 -0.6556 -2.2162
 6249SOL     OW30208   4.411   3.472  11.979  0.3145  0.3590  0.2223
 6249SOL    HW130209   4.466   3.402  11.946  0.6762  0.5789  0.3607
 6249SOL    HW230210   4.384   3.436  12.063 -0.6259 -0.3508 -0.3856
 6250SOL     OW30211   1.512   1.797   4.652  0.3757  0.3978  0.1799
 6250SOL    HW130212   1.601   1.831   4.663 -0.1928  2.3884 -1.3289
 6250SOL    HW230213   1.527   1.714   4.607 -1.0247  0.3648 -0.2147
 6251SOL     OW30214   2.506   1.229  14.124  0.2203  0.5012  0.9103
 6251SOL    HW130215   2.430   1.180  14.094  1.3036 -0.4705 -0.2526
 6251SOL    HW230216   2.579   1.202  14.068  0.9530  2.7224  0.7577
 6252SOL     OW30217   4.642   3.942  16.974 -0.3530 -0.2986 -0.4384
 6252SOL    HW130218   4.592   3.920  17.053  1.0099 -0.7329  0.3010
 6252SOL    HW230219   4.717   3.887  16.997 -0.5564 -0.3773  0.0306
 6253SOL     OW30220   4.645   1.498   9.242 -0.2997  0.6677 -0.5692
 6253SOL    HW130221   4.569   1.515   9.297 -1.4277 -0.5186 -1.7766
 6253SOL    HW230222   4.626   1.409   9.212 -0.8992  0.7538 -0.4287
 6254SOL     OW30223   2.401   0.709  15.256 -0.2464 -0.5452  0.2671
 6254SOL    HW130224   2.376   0.675  15.342 -1.1273 -0.8873 -0.1283
 6254SOL    HW230225   2.496   0.724  15.259 -0.0982 -1.3081 -0.6620
 6255SOL     OW30226   0.895   1.915   6.093  0.1724 -0.2864  0.1343
 6255SOL    HW130227   0.877   1.951   6.006  2.3024 -1.8819 -0.9567
 6255SOL    HW230228   0.824   1.852   6.099  1.7891 -2.0488  0.5812
 6256SOL     OW30229   0.355   4.640   5.993 -0.3225 -0.4291 -0.3866
 6256SOL    HW130230   0.428   4.623   6.052 -0.2663  1.7133  0.1527
 6256SOL    HW230231   0.390   4.605   5.910 -2.5212 -2.2261 -0.5332
 6257SOL     OW30232   2.372   4.154   8.173 -0.2410  0.3715  0.0398
 6257SOL    HW130233   2.319   4.204   8.112 -1.4426  1.5016  2.0036
 6257SOL    HW230234   2.395   4.233   8.221  3.7238 -0.8179  0.0759
 6258SOL     OW30235   3.580   2.969  17.086  0.0697  0.4370  0.0592
 6258SOL    HW130236   3.536   2.922  17.014  0.9202  0.3380 -0.3903
 6258SOL    HW230237   3.511   2.971  17.152 -0.8699 -2.3965 -0.8331
 6259SOL     OW30238   0.765   2.974   8.753  0.4756 -0.1201 -0.1787
 6259SOL    HW130239   0.708   2.983   8.830  1.6151 -0.4849  0.7142
 6259SOL    HW230240   0.812   2.892   8.772  0.3479  0.3475  2.1405
 6260SOL     OW30241   4.005   0.189   6.869  0.1407  0.1821  0.2292
 6260SOL    HW130242   3.917   0.191   6.906 -0.3927  0.6097 -1.0668
 6260SOL    HW230243   4.026   0.097   6.853 -1.2105 -0.2554  0.9994
 6261SOL     OW30244   2.991   4.278   0.949 -0.8248  0.2381  0.1820
 6261SOL    HW130245   2.953   4.365   0.941 -0.1052  0.2987 -2.3525
 6261SOL    HW230246   2.927   4.228   0.899  0.4482 -1.0666 -0.1432
 6262SOL     OW30247   1.017   1.901   3.564 -0.2307 -0.1245  0.3659
 6262SOL    HW130248   0.958   1.862   3.500 -0.2317 -1.5017  1.2000
 6262SOL    HW230249   1.069   1.968   3.520 -0.7760 -0.8300 -1.3288
 6263SOL     OW30250   3.523   2.895   4.110 -0.0286  0.2073 -0.8896
 6263SOL    HW130251   3.518   2.939   4.025 -2.7460 -1.1599 -1.4448
 6263SOL    HW230252   3.612   2.913   4.140  0.1213 -0.4044 -0.9648
 6264SOL     OW30253   3.928   2.117  15.881  0.1679  0.2654 -0.1456
 6264SOL    HW130254   3.953   2.203  15.913 -0.9589 -0.1695  1.9335
 6264SOL    HW230255   4.002   2.102  15.822  1.5513  0.4607  1.5687
 6265SOL     OW30256   0.770   0.591   4.115 -0.0894  0.0753  0.4031
 6265SOL    HW130257   0.728   0.583   4.201  1.8306 -2.8864  1.0865
 6265SOL    HW230258   0.699   0.633   4.068  0.3679 -1.4331 -1.6182
 6266SOL     OW30259   4.469   4.320  17.681 -0.4301 -0.1254  0.6983
 6266SOL    HW130260   4.414   4.397  17.665  0.6291  0.8205  1.5507
 6266SOL    HW230261   4.440   4.294   0.064 -0.1915 -0.4223  0.6897
 6267SOL     OW30262   0.997   3.232   5.922  0.3837 -0.4181  0.4466
 6267SOL    HW130263   0.908   3.201   5.908  0.8083 -1.2266 -0.4112
 6267SOL    HW230264   1.036   3.225   5.835  0.7135 -2.0116  0.7264
 6268SOL     OW30265   4.695   4.346   1.319 -0.5710 -0.4481  0.1703
 6268SOL    HW130266   4.693   4.250   1.319 -0.3390 -0.4520 -0.0894
 6268SOL    HW230267   4.602   4.368   1.321 -0.8403 -1.0917 -4.3902
 6269SOL     OW30268   0.787   4.236   1.557 -0.2343 -0.0905  0.9491
 6269SOL    HW130269   0.701   4.265   1.526 -0.2574 -0.3142  0.8082
 6269SOL    HW230270   0.829   4.320   1.576 -1.6985  1.0643 -0.9613
 6270SOL     OW30271   1.916   2.410   0.888  0.3492  0.3050  0.2100
 6270SOL    HW130272   2.004   2.415   0.925  0.7681  0.4523 -0.8010
 6270SOL    HW230273   1.925   2.322   0.852  1.5219  0.6200 -0.2509
 6271SOL     OW30274   1.194   3.169   2.230  0.0324 -0.3479  0.3643
 6271SOL    HW130275   1.114   3.186   2.280  1.2910  3.4709  1.0722
 6271SOL    HW230276   1.160   3.095   2.180  2.1724 -1.7994  1.0612
 6272SOL     OW30277   0.182   0.372   8.115 -0.6673  0.4405 -0.1988
 6272SOL    HW130278   0.096   0.341   8.087 -0.6202 -0.7288  0.9831
 6272SOL    HW230279   0.156   0.417   8.196 -1.6202  0.0680 -0.3057
 6273SOL     OW30280   2.331   1.224   6.437  0.4179 -0.1085  0.1446
 6273SOL    HW130281   2.327   1.132   6.460 -0.7902 -0.5681 -1.9389
 6273SOL    HW230282   2.267   1.216   6.367  1.1118  2.4685 -0.8162
 6274SOL     OW30283   1.873   0.723   3.613 -0.3276 -0.4066 -0.1637
 6274SOL    HW130284   1.964   0.702   3.632  0.4806  0.9840 -2.5898
 6274SOL    HW230285   1.885   0.817   3.597 -0.3467 -0.1503  1.2830
 6275SOL     OW30286   2.283   4.108   9.807  0.2562 -0.3705 -0.0687
 6275SOL    HW130287   2.246   4.194   9.829  2.4958  0.6503 -0.2734
 6275SOL    HW230288   2.295   4.123   9.714  1.4043  1.6539  0.3959
 6276SOL     OW30289   2.406   1.446   4.920 -0.9134 -0.4083 -0.0270
 6276SOL    HW130290   2.424   1.358   4.952 -1.0446 -0.2617  0.4647
 6276SOL    HW230291   2.471   1.459   4.851 -0.9106  0.8793  0.2080
 6277SOL     OW30292   2.056   0.347   9.607  0.0303 -0.2152 -0.1617
 6277SOL    HW130293   2.136   0.323   9.654 -0.0348 -1.7366 -0.8246
 6277SOL    HW230294   2.079   0.437   9.585 -2.2665  0.0844 -1.2454
 6278SOL     OW30295   0.966   1.215   6.895 -0.1802 -0.3182 -0.4571
 6278SOL    HW130296   0.893   1.276   6.896  1.5322  1.7497 -0.9937
 6278SOL    HW230297   1.029   1.268   6.944 -0.8479 -3.4280  3.7154
 6279SOL     OW30298   1.212   0.979   8.469 -0.0683 -0.2282  0.5378
 6279SOL    HW130299   1.189   1.062   8.428 -0.4281 -0.8823 -0.5897
 6279SOL    HW230300   1.141   0.965   8.532 -0.0521 -1.3813  0.3147
 6280SOL     OW30301   0.424   1.509  15.204  0.2594 -0.0626 -0.0597
 6280SOL    HW130302   0.445   1.416  15.209  1.1307  0.0934 -0.7603
 6280SOL    HW230303   0.376   1.502  15.121  0.1427 -0.4014  0.0349
 6281SOL     OW30304   4.332   2.137  12.562 -0.3963  0.4413 -0.1363
 6281SOL    HW130305   4.259   2.199  12.562  2.6591  4.0684  3.3743
 6281SOL    HW230306   4.325   2.101  12.473  0.0924  1.1335 -0.4544
 6282SOL     OW30307   2.928   0.939   7.475 -0.4939  0.8265 -0.0953
 6282SOL    HW130308   2.948   0.953   7.568  1.8074  1.8587 -0.7430
 6282SOL    HW230309   2.873   1.012   7.449 -2.4548 -0.5770  0.1094
 6283SOL     OW30310   3.725   4.157   8.940 -0.5003  0.2426 -0.0194
 6283SOL    HW130311   3.768   4.128   8.860  1.8133  0.2693  1.2081
 6283SOL    HW230312   3.633   4.180   8.923 -0.7401  1.5736  2.9372
 6284SOL     OW30313   4.143   4.672   6.815  0.4905  0.4194  0.4547
 6284SOL    HW130314   4.177   4.644   6.900  0.8769 -0.5388 -0.0175
 6284SOL    HW230315   4.075   4.607   6.796  1.6169 -1.3835  2.6015
 6285SOL     OW30316   3.897   2.093   9.318  0.3913  0.6624 -0.7804
 6285SOL    HW130317   3.908   2.064   9.227 -2.1794 -0.2899 -0.7720
 6285SOL    HW230318   3.817   2.049   9.344  0.7711  1.1391  1.1595
 6286SOL     OW30319   0.534   1.532   9.532  0.3818 -0.7143 -0.2773
 6286SOL    HW130320   0.613   1.518   9.585  0.3196  1.2209  0.3430
 6286SOL    HW230321   0.490   1.448   9.544 -5.1453  2.5052  1.9080
 6287SOL     OW30322   0.397   1.630  12.537 -0.5364  0.3815  0.0992
 6287SOL    HW130323   0.471   1.650  12.480  0.2181  3.1575  2.0546
 6287SOL    HW230324   0.430   1.647  12.625 -0.7488  1.3750 -0.0216
 6288SOL     OW30325   2.234   3.670   6.966 -0.3412  0.3695 -0.0717
 6288SOL    HW130326   2.198   3.714   7.044  0.8713 -0.5671  1.0175
 6288SOL    HW230327   2.250   3.743   6.906  3.7830 -0.1073  0.4274
 6289SOL     OW30328   0.874   2.867   9.696  0.2614 -0.0386  0.0975
 6289SOL    HW130329   0.821   2.800   9.654  2.6699 -0.3870 -2.3356
 6289SOL    HW230330   0.965   2.856   9.669 -0.0960  0.0052 -1.1321
 6290SOL     OW30331   0.294   1.690  13.778  0.2503  0.3045 -0.3691
 6290SOL    HW130332   0.272   1.670  13.869  1.2422  2.1071  0.2469
 6290SOL    HW230333   0.243   1.769  13.764  0.5229  0.7811  1.4544
 6291SOL     OW30334   1.824   2.818   2.078 -0.4849  0.2399  0.4286
 6291SOL    HW130335   1.802   2.890   2.136  0.8309  0.9432  0.0517
 6291SOL    HW230336   1.906   2.850   2.042 -2.3573 -0.0258 -4.1767
 6292SOL     OW30337   0.979   0.909   4.216 -0.4601  0.2540 -0.1679
 6292SOL    HW130338   0.901   0.959   4.192 -0.3811  1.5091  2.1697
 6292SOL    HW230339   0.940   0.822   4.209  0.2327  0.1355 -2.3816
 6293SOL     OW30340   1.141   2.932   3.213 -0.0130  0.4417  0.5405
 6293SOL    HW130341   1.197   2.985   3.156  0.7913 -1.2528 -0.2544
 6293SOL    HW230342   1.153   2.974   3.298  0.5431  1.1371  0.1118
 6294SOL     OW30343   0.675   2.172   7.100  0.3000 -0.1752  0.1406
 6294SOL    HW130344   0.748   2.203   7.153  0.0426 -0.6311  0.7677
 6294SOL    HW230345   0.693   2.205   7.013 -2.1036  1.1450  0.1424
 6295SOL     OW30346   1.511   2.745   8.258 -0.2437  0.2479  0.4944
 6295SOL    HW130347   1.434   2.800   8.275  0.1311  0.4085  1.6154
 6295SOL    HW230348   1.525   2.770   8.166  0.6541  0.1097  0.5960
 6296SOL     OW30349   4.394   4.408  14.507  0.1263 -0.9625 -0.4781
 6296SOL    HW130350   4.456   4.463  14.459  0.2548 -0.4129  0.3107
 6296SOL    HW230351   4.416   4.440  14.594 -3.3997  1.6880 -0.5522
 6297SOL     OW30352   3.602   3.106   5.899  0.5404 -0.1818  0.4771
 6297SOL    HW130353   3.625   3.083   5.989  0.9969 -0.7697  0.2138
 6297SOL    HW230354   3.628   3.023   5.859 -1.2532 -0.5679  0.0862
 6298SOL     OW30355   3.587   3.203  13.895  0.2380  0.0286  0.3251
 6298SOL    HW130356   3.637   3.248  13.826 -0.0651  2.1439  1.4799
 6298SOL    HW230357   3.593   3.270  13.963 -0.2484 -0.6714  1.0522
 6299SOL     OW30358   2.196   0.408   9.206 -0.1068  0.7299  0.1762
 6299SOL    HW130359   2.149   0.338   9.253 -0.8397  2.3001  1.7881
 6299SOL    HW230360   2.155   0.486   9.244 -0.5042 -0.1730  1.6037
 6300SOL     OW30361   0.414   3.899   0.818  0.4987 -0.0365 -0.4072
 6300SOL    HW130362   0.491   3.901   0.761 -0.1015 -1.3876 -1.2615
 6300SOL    HW230363   0.391   3.806   0.813  0.3196  0.0329 -0.9540
 6301SOL     OW30364   2.862   4.148   9.398  0.1876  0.2368  0.5833
 6301SOL    HW130365   2.911   4.071   9.369 -1.3274 -0.3719 -0.3426
 6301SOL    HW230366   2.771   4.121   9.402  0.6647 -1.4691 -0.2616
 6302SOL     OW30367   2.635   3.242   3.046 -0.2300 -0.4139  0.0944
 6302SOL    HW130368   2.646   3.322   2.995 -2.4122 -1.5647 -2.1482
 6302SOL    HW230369   2.560   3.257   3.104  0.9347  2.9894  0.7494
 6303SOL     OW30370   3.276   1.953   6.829 -0.4174  0.2414 -0.0444
 6303SOL    HW130371   3.313   1.913   6.750  1.2055 -0.6090  1.1572
 6303SOL    HW230372   3.356   1.950   6.882  0.2989  1.3723 -1.0563
 6304SOL     OW30373   0.079   1.034  14.463  0.1879  0.3513 -0.4881
 6304SOL    HW130374   0.056   0.982  14.541  3.3993  0.5833  0.5936
 6304SOL    HW230375   0.173   1.019  14.457  0.1129  0.3699 -1.5536
 6305SOL     OW30376   1.883   0.547   7.516  0.4867 -1.0421  0.2289
 6305SOL    HW130377   1.923   0.599   7.446  0.1427 -4.1460 -2.2847
 6305SOL    HW230378   1.943   0.472   7.521  2.3074  0.2230 -2.6707
 6306SOL     OW30379   1.763   1.036   8.765 -0.0020  0.6864  0.2116
 6306SOL    HW130380   1.813   1.022   8.845 -1.1081 -0.0824  0.7644
 6306SOL    HW230381   1.765   1.131   8.770 -2.4326  0.6499  1.5688
 6307SOL     OW30382   0.567   2.661   8.011  0.5557  0.3225  0.1771
 6307SOL    HW130383   0.655   2.641   8.043  0.6222  1.6176  0.8107
 6307SOL    HW230384   0.549   2.728   8.078  1.0532  1.5150 -0.8712
 6308SOL     OW30385   3.567   4.661   5.891  0.5109 -0.4965 -0.3782
 6308SOL    HW130386   3.581   4.604   5.815  1.9286  1.1205 -1.3045
 6308SOL    HW230387   3.617   4.618   5.960  1.1745 -0.5148 -0.8723
 6309SOL     OW30388   2.732   4.080  14.961 -0.4992 -0.0448 -0.3330
 6309SOL    HW130389   2.791   4.021  14.914 -0.4959 -2.4214  2.6496
 6309SOL    HW230390   2.720   4.053  15.052 -0.8906  0.4608 -0.2305
 6310SOL     OW30391   2.941   3.936   9.275 -0.4778  0.3380  0.2730
 6310SOL    HW130392   2.875   3.948   9.207 -0.7675 -1.0393  0.3092
 6310SOL    HW230393   3.021   3.935   9.222 -0.6363  1.4079  0.0042
 6311SOL     OW30394   2.790   2.586   4.271 -0.3023  0.1122  0.1500
 6311SOL    HW130395   2.862   2.547   4.320 -0.4355  0.2091  0.4239
 6311SOL    HW230396   2.762   2.661   4.323 -0.5649 -0.9129  1.4963
 6312SOL     OW30397   0.538   2.681   8.501 -0.0962  0.1272  0.1485
 6312SOL    HW130398   0.537   2.775   8.520 -0.3439 -0.1590  1.5960
 6312SOL    HW230399   0.627   2.668   8.534 -0.1008  0.2076  0.1941
 6313SOL     OW30400   3.306   0.908  14.503  0.3021 -0.4661  0.1338
 6313SOL    HW130401   3.258   0.835  14.543  2.2156 -0.9722  1.4674
 6313SOL    HW230402   3.337   0.952  14.582 -0.6413 -0.9243  0.7573
 6314SOL     OW30403   2.251   4.474  12.253 -0.4458 -0.3126 -0.0475
 6314SOL    HW130404   2.280   4.408  12.189  0.7912 -0.8794  1.0789
 6314SOL    HW230405   2.313   4.457  12.324 -1.0097  0.5597  0.6574
 6315SOL     OW30406   2.383   4.220  13.016  0.8868 -0.2932 -0.3549
 6315SOL    HW130407   2.409   4.129  13.028 -1.3044 -0.7755  0.7103
 6315SOL    HW230408   2.433   4.267  13.083  0.9826 -0.3055 -0.4192
 6316SOL     OW30409   0.334   2.165  10.225 -0.4005 -0.7582  0.3628
 6316SOL    HW130410   0.272   2.175  10.153 -0.5808 -0.4607  0.5582
 6316SOL    HW230411   0.416   2.151  10.178 -1.6681 -0.6518 -1.8903
 6317SOL     OW30412   4.540   2.162   2.930 -0.2974  0.2937  0.4536
 6317SOL    HW130413   4.495   2.231   2.978  0.2989  2.1165 -1.5994
 6317SOL    HW230414   4.466   2.102   2.925  1.2192 -1.5232 -0.3603
 6318SOL     OW30415   0.459   0.998  13.156 -0.3109 -0.4162  0.3315
 6318SOL    HW130416   0.487   1.084  13.125 -0.9155 -0.0742  0.7494
 6318SOL    HW230417   0.511   0.948  13.092  2.5297  3.3808 -0.3412
 6319SOL     OW30418   0.916   1.095   3.261  0.0893 -0.2188 -0.2715
 6319SOL    HW130419   0.876   1.152   3.195  1.0418 -0.6450 -1.2108
 6319SOL    HW230420   0.919   1.008   3.222  0.0151 -0.0160 -0.7298
 6320SOL     OW30421   1.883   1.917   5.104  0.9472  0.9206  0.2157
 6320SOL    HW130422   1.954   1.887   5.048 -0.0381  2.3450 -1.7943
 6320SOL    HW230423   1.812   1.856   5.083 -0.4472  3.1082 -1.4240
 6321SOL     OW30424   0.405   2.472   5.828 -0.0804 -0.0432  0.2647
 6321SOL    HW130425   0.428   2.527   5.903 -2.5226  0.3570  0.7094
 6321SOL    HW230426   0.310   2.464   5.820  0.0891 -1.3318 -0.3702
 6322SOL     OW30427   0.006   1.255   4.181  0.2106  0.2236 -0.3779
 6322SOL    HW130428   4.684   1.334   4.158 -1.4791 -0.3118  1.2382
 6322SOL    HW230429   0.091   1.278   4.220  0.6188 -0.5893 -0.7839
 6323SOL     OW30430   3.583   2.786   0.413  0.0324 -0.4801 -0.3624
 6323SOL    HW130431   3.653   2.783   0.348  0.9237 -0.5820  0.5961
 6323SOL    HW230432   3.587   2.878   0.439  1.4122 -0.7325  0.2901
 6324SOL     OW30433   0.651   0.263   5.025 -0.1349  0.5700  0.6030
 6324SOL    HW130434   0.714   0.202   5.063  1.4946  1.7459 -0.1712
 6324SOL    HW230435   0.568   0.237   5.064 -1.4006  0.8401 -1.8997
 6325SOL     OW30436   1.492   3.197  16.271  0.1594  0.1270  0.4564
 6325SOL    HW130437   1.567   3.252  16.292  0.0543  0.4402  0.0127
 6325SOL    HW230438   1.415   3.238  16.311 -0.3172  0.5508 -0.8855
 6326SOL     OW30439   3.102   4.370   3.872  0.5609  0.5041  0.2848
 6326SOL    HW130440   3.083   4.395   3.963  0.1020 -1.1741  0.6585
 6326SOL    HW230441   3.071   4.449   3.829 -0.7895 -1.3348 -2.0818
 6327SOL     OW30442   0.955   2.172   0.177  0.1593  0.1580  0.0226
 6327SOL    HW130443   0.950   2.220   0.260 -1.5110  0.8879 -0.5122
 6327SOL    HW230444   1.007   2.234   0.125  3.4102 -1.8538  0.8584
 6328SOL     OW30445   0.989   4.125   5.670  0.5111 -0.5712 -0.1378
 6328SOL    HW130446   0.946   4.209   5.653 -0.6518 -0.9364  0.9641
 6328SOL    HW230447   0.912   4.070   5.659  0.5986 -0.5993 -0.6247
 6329SOL     OW30448   4.426   0.300   5.955  0.6207 -0.3195  0.7970
 6329SOL    HW130449   4.429   0.374   6.016 -0.4788 -0.3797  0.9307
 6329SOL    HW230450   4.517   0.287   5.928 -0.2681 -3.5325 -0.6181
 6330SOL     OW30451   3.051   2.259   7.935 -0.0681  0.9033 -0.0798
 6330SOL    HW130452   3.036   2.277   8.028  1.7225 -1.1021  0.6194
 6330SOL    HW230453   3.139   2.224   7.924  0.0244  1.2353 -0.3738
 6331SOL     OW30454   1.573   1.917   6.550  0.2421  0.0880  0.5083
 6331SOL    HW130455   1.573   1.875   6.464 -1.5629  1.1041 -0.0020
 6331SOL    HW230456   1.502   1.982   6.549 -0.5804 -0.8154  0.8366
 6332SOL     OW30457   4.032   1.703   6.556 -0.2541  0.7270 -0.3731
 6332SOL    HW130458   4.090   1.712   6.631  1.3087  1.9732 -1.7225
 6332SOL    HW230459   4.107   1.710   6.496  0.7533  0.0023  0.8038
 6333SOL     OW30460   0.634   0.584   7.270  0.0360 -0.1466  0.0169
 6333SOL    HW130461   0.565   0.565   7.332 -1.0761  1.2252 -0.8096
 6333SOL    HW230462   0.574   0.617   7.203 -0.8243  1.2504  1.4908
 6334SOL     OW30463   4.045   4.227   9.031  0.2234  0.2157 -0.2114
 6334SOL    HW130464   4.002   4.151   8.992  1.2207 -1.3985  1.8535
 6334SOL    HW230465   3.989   4.300   9.004 -0.6666 -0.7510 -0.9586
 6335SOL     OW30466   1.217   1.925   5.616  0.0493 -0.1932 -0.1721
 6335SOL    HW130467   1.197   1.968   5.532 -0.3560 -0.9986 -0.4906
 6335SOL    HW230468   1.181   1.991   5.674 -0.1714  0.2183 -0.7696
 6336SOL     OW30469   2.625   0.097  10.760  0.3304  0.2461 -0.2284
 6336SOL    HW130470   2.658   0.092  10.670  2.7382 -1.8946  0.7899
 6336SOL    HW230471   2.560   0.166  10.745 -1.3003 -1.1691  0.2518
 6337SOL     OW30472   1.333   2.806   6.798  0.9668  0.0047 -0.1995
 6337SOL    HW130473   1.422   2.823   6.827  0.3344  2.4269  0.2946
 6337SOL    HW230474   1.301   2.894   6.780 -0.5518 -0.8267 -1.6165
 6338SOL     OW30475   1.396   0.296   7.869  0.3657  0.1684  0.5002
 6338SOL    HW130476   1.302   0.310   7.870  0.1793 -1.0278 -0.6255
 6338SOL    HW230477   1.436   0.381   7.885 -1.2891  0.8474  0.9531
 6339SOL     OW30478   1.536   3.556  13.178 -0.2724  0.3198 -0.3981
 6339SOL    HW130479   1.549   3.528  13.088  0.7082 -1.5116  0.3137
 6339SOL    HW230480   1.506   3.471  13.211  3.3753 -0.0083  2.0036
 6340SOL     OW30481   4.537   1.730   4.748  0.4491 -0.1233  0.5288
 6340SOL    HW130482   4.562   1.705   4.659 -0.9950 -0.3591  0.1977
 6340SOL    HW230483   4.583   1.664   4.800  0.7802 -0.3177 -0.0092
 6341SOL     OW30484   3.441   4.635   9.676 -0.3227  0.6941 -0.1662
 6341SOL    HW130485   3.420   4.600   9.763  0.1595 -1.9342 -1.0928
 6341SOL    HW230486   3.529   4.608   9.649  0.3606  0.8885  1.8101
 6342SOL     OW30487   3.996   2.802   7.257  0.4769  0.0947 -0.2043
 6342SOL    HW130488   3.916   2.765   7.220  0.5548  1.2874 -1.5602
 6342SOL    HW230489   4.046   2.721   7.258  1.0128  0.4124 -1.9653
 6343SOL     OW30490   2.125   4.097   6.705 -0.3596 -0.5047 -0.5561
 6343SOL    HW130491   2.136   4.095   6.610  0.0817  0.5160 -0.5255
 6343SOL    HW230492   2.037   4.133   6.707  0.1776  0.7998 -0.3084
 6344SOL     OW30493   2.222   3.030   5.160 -0.0434  0.1336 -0.5802
 6344SOL    HW130494   2.137   3.057   5.126 -0.3237 -1.2126 -0.9377
 6344SOL    HW230495   2.266   3.110   5.190 -1.7951  0.3440  1.3992
 6345SOL     OW30496   0.674   1.306   2.682  0.0565  0.1630 -0.1665
 6345SOL    HW130497   0.765   1.308   2.711 -0.2875 -1.4171  0.9934
 6345SOL    HW230498   0.652   1.398   2.699 -0.3000 -0.3741  2.1870
 6346SOL     OW30499   3.354   4.523  10.943 -0.1520 -0.2804 -0.0039
 6346SOL    HW130500   3.269   4.526  10.900 -0.2713 -1.6813  0.1283
 6346SOL    HW230501   3.400   4.453  10.897 -0.3107 -1.0346  0.9697
 6347SOL     OW30502   0.183   0.963   0.521 -0.2300  0.4992 -0.0320
 6347SOL    HW130503   0.234   0.946   0.599 -2.7389  2.3758  2.0124
 6347SOL    HW230504   0.190   1.057   0.509 -0.9417  0.6778  0.9923
 6348SOL     OW30505   1.483   2.163   1.966 -0.9673 -0.6276 -0.4448
 6348SOL    HW130506   1.558   2.106   1.977  0.4437  1.7382  2.0339
 6348SOL    HW230507   1.411   2.100   1.973  0.7963 -2.5789 -0.1486
 6349SOL     OW30508   4.244   3.491   1.582 -0.2306  0.0975  0.3592
 6349SOL    HW130509   4.167   3.456   1.628 -0.0770 -0.4525  0.1976
 6349SOL    HW230510   4.242   3.443   1.499  0.5882 -0.4471  0.6569
 6350SOL     OW30511   1.111   0.561  13.041 -0.5236 -0.1500 -0.5703
 6350SOL    HW130512   1.089   0.593  13.128  0.3013 -0.3068 -0.2962
 6350SOL    HW230513   1.085   0.632  12.983  1.2117 -0.3321 -1.5686
 6351SOL     OW30514   2.329   3.381   8.797 -0.0321 -0.0311  0.0291
 6351SOL    HW130515   2.267   3.413   8.863  0.8746  0.0868  0.8393
 6351SOL    HW230516   2.320   3.286   8.799 -1.5771  0.1182 -0.3540
 6352SOL     OW30517   4.100   0.562  13.989 -0.6952 -0.6062  0.2903
 6352SOL    HW130518   4.178   0.616  13.978  0.6305 -3.1756 -3.1001
 6352SOL    HW230519   4.029   0.623  14.011 -0.6700 -0.5744  0.2841
 6353SOL     OW30520   0.390   4.295   1.998 -0.0824  0.1403  0.5128
 6353SOL    HW130521   0.391   4.380   2.041 -0.3441 -0.6545  2.0783
 6353SOL    HW230522   0.299   4.292   1.969  0.5335 -0.7200 -1.3683
 6354SOL     OW30523   1.310   3.428   1.980  0.1774 -0.4589  0.0895
 6354SOL    HW130524   1.264   3.443   1.898  0.8584  1.2236  0.0219
 6354SOL    HW230525   1.257   3.469   2.048  0.7237  0.8792 -0.3052
 6355SOL     OW30526   3.139   3.693   2.634 -0.0838 -0.1822 -0.1390
 6355SOL    HW130527   3.207   3.749   2.672 -0.5812 -0.0931  0.6282
 6355SOL    HW230528   3.158   3.611   2.680  0.9688  0.6150  0.8635
 6356SOL     OW30529   3.780   2.778   5.298  0.3433  0.0953  0.2231
 6356SOL    HW130530   3.846   2.795   5.231 -0.7096 -2.7204 -1.5399
 6356SOL    HW230531   3.704   2.829   5.271  0.9926  1.1627  0.4109
 6357SOL     OW30532   4.681   0.292  15.223  0.0327  0.5562 -0.1808
 6357SOL    HW130533   4.639   0.312  15.140  1.4869  1.8066 -0.6263
 6357SOL    HW230534   0.031   0.348  15.207 -0.2150  0.1740 -2.7054
 6358SOL     OW30535   3.044   4.255  15.527 -0.2171 -0.2751  0.2656
 6358SOL    HW130536   3.108   4.262  15.598 -1.1737  0.2161  1.0766
 6358SOL    HW230537   3.079   4.326  15.474  0.0545 -0.3101  0.3956
 6359SOL     OW30538   4.389   0.029   5.927 -0.1488  0.0599 -0.1465
 6359SOL    HW130539   4.380   0.125   5.927 -2.7750 -0.1496  1.6534
 6359SOL    HW230540   4.393   0.006   5.835 -0.0519  0.4784 -0.2487
 6360SOL     OW30541   3.154   1.857   3.285  0.1376  0.1867 -0.1336
 6360SOL    HW130542   3.201   1.860   3.202  0.9112 -0.1341  0.2941
 6360SOL    HW230543   3.067   1.834   3.251  0.7503  0.3656 -1.8036
 6361SOL     OW30544   1.074   0.302  11.945  0.1443 -0.1430 -0.0411
 6361SOL    HW130545   1.079   0.213  11.910  0.9839  0.4361 -1.4200
 6361SOL    HW230546   1.001   0.345  11.901 -1.6066 -1.6261  1.4117
 6362SOL     OW30547   3.351   3.323   7.469 -0.2544 -0.8807  0.3264
 6362SOL    HW130548   3.309   3.262   7.408  1.0143 -0.8642 -0.5431
 6362SOL    HW230549   3.283   3.390   7.478 -0.0519 -0.6382  0.0656
 6363SOL     OW30550   3.648   3.105   2.404 -0.0708  0.0337  0.1507
 6363SOL    HW130551   3.715   3.166   2.435  1.8820 -2.2740  0.4557
 6363SOL    HW230552   3.678   3.017   2.426  2.1709  0.8411  0.3544
 6364SOL     OW30553   1.047   2.438   6.705 -0.2279 -0.1883  0.2842
 6364SOL    HW130554   1.115   2.435   6.773 -0.3183  1.0380  0.4262
 6364SOL    HW230555   1.077   2.503   6.642  0.6071 -1.3167 -0.4911
 6365SOL     OW30556   3.965   4.249   5.809 -0.1820 -0.4178  0.0393
 6365SOL    HW130557   3.956   4.343   5.799 -0.4695 -0.3912  0.5373
 6365SOL    HW230558   4.057   4.235   5.834  0.1986  1.2920 -0.4416
 6366SOL     OW30559   0.986   1.517  11.763  0.7125  0.4208 -0.4416
 6366SOL    HW130560   1.034   1.591  11.725  0.2854  0.7688 -0.2957
 6366SOL    HW230561   0.985   1.467  11.681  1.9283  1.6445 -1.2281
 6367SOL     OW30562   0.020   0.243  13.962 -0.0439 -0.0810  0.1298
 6367SOL    HW130563   4.704   0.161  13.987 -0.0457  0.7563  2.8188
 6367SOL    HW230564   4.670   0.301  13.962  1.4345  1.8818 -2.4454
 6368SOL     OW30565   4.552   3.808   1.712  0.1421  0.0652  0.0187
 6368SOL    HW130566   4.612   3.816   1.638  0.9039 -1.0744  0.5240
 6368SOL    HW230567   4.622   3.793   1.776 -0.3827  0.3166  0.6485
 6369SOL     OW30568   3.881   1.886   3.708  0.0585 -0.2715  0.0110
 6369SOL    HW130569   3.962   1.900   3.659 -0.8015  1.3256 -0.9573
 6369SOL    HW230570   3.835   1.818   3.658 -0.8071 -0.6225  1.2990
 6370SOL     OW30571   4.304   0.698  17.491  0.3661 -0.6867 -0.3220
 6370SOL    HW130572   4.323   0.607  17.467 -2.3487 -1.3258 -0.0210
 6370SOL    HW230573   4.217   0.719  17.455 -0.6733 -0.7487  2.1895
 6371SOL     OW30574   3.848   0.313  14.878 -0.5280  0.1050  0.5299
 6371SOL    HW130575   3.788   0.305  14.804 -1.1849  0.3126  1.0366
 6371SOL    HW230576   3.807   0.289  14.961 -2.6319  0.8160 -0.3060
 6372SOL     OW30577   2.967   4.629   8.381  0.0133  0.3170  0.9107
 6372SOL    HW130578   2.918   4.711   8.390  0.9915  1.2506 -2.4955
 6372SOL    HW230579   3.055   4.666   8.379  0.6041 -1.1133  1.1317
 6373SOL     OW30580   3.718   0.118  15.430 -0.5822  0.6016  0.2457
 6373SOL    HW130581   3.762   0.050  15.379  0.8124  1.0618  0.8696
 6373SOL    HW230582   3.788   0.173  15.464 -0.3011  0.4309 -0.0623
 6374SOL     OW30583   2.665   1.968   2.493 -0.0174 -0.5292 -0.0548
 6374SOL    HW130584   2.723   2.044   2.502 -0.1374 -0.2672 -1.4328
 6374SOL    HW230585   2.622   1.975   2.578 -2.3334  1.1817 -1.3831
 6375SOL     OW30586   3.906   2.901  10.606  0.0371  0.2529  0.2950
 6375SOL    HW130587   3.967   2.974  10.602  0.7395 -0.3138  0.5163
 6375SOL    HW230588   3.909   2.863  10.518  0.5123  1.4767 -0.2123
 6376SOL     OW30589   2.852   0.728   0.534 -0.4552  0.3648  0.1722
 6376SOL    HW130590   2.840   0.775   0.452 -3.2595 -2.0511 -0.8008
 6376SOL    HW230591   2.788   0.657   0.520  0.6221 -0.1777 -1.8662
 6377SOL     OW30592   0.668   3.919   2.970  0.0458  0.4899  0.0541
 6377SOL    HW130593   0.733   3.870   2.920 -0.6929 -0.8048  0.3822
 6377SOL    HW230594   0.708   3.943   3.054  0.0581  2.5365 -0.5408
 6378SOL     OW30595   3.819   0.559   6.394 -0.4169 -0.5881 -0.6532
 6378SOL    HW130596   3.806   0.633   6.334 -1.5524 -0.8681 -0.7544
 6378SOL    HW230597   3.762   0.592   6.463 -1.9633 -2.1851 -1.1708
 6379SOL     OW30598   2.733   0.294   1.863 -0.8898  0.6147  0.3319
 6379SOL    HW130599   2.648   0.336   1.852 -1.7837 -0.8997  1.5366
 6379SOL    HW230600   2.784   0.327   1.788  0.4098  0.3845  1.1086
 6380SOL     OW30601   1.661   0.856   4.699  0.1280 -0.2456  0.1722
 6380SOL    HW130602   1.602   0.930   4.684 -1.2522 -1.6995 -1.5800
 6380SOL    HW230603   1.610   0.796   4.753  0.2238 -0.7274 -0.2743
 6381SOL     OW30604   1.611   2.590  15.588  0.1795 -0.1902  1.3387
 6381SOL    HW130605   1.655   2.668  15.555  0.4102 -0.9311 -0.1534
 6381SOL    HW230606   1.627   2.523  15.521  0.4452  1.0346  0.1844
 6382SOL     OW30607   0.805   4.577   2.048  0.1933  0.3502 -0.3557
 6382SOL    HW130608   0.739   4.564   1.980 -0.3505  2.4564 -0.2401
 6382SOL    HW230609   0.847   4.492   2.061  1.5212  0.9199 -0.9441
 6383SOL     OW30610   0.024   2.358   2.659  0.6510  0.0660 -0.0514
 6383SOL    HW130611   4.698   2.375   2.737 -0.4922  0.6813 -0.9456
 6383SOL    HW230612   0.042   2.441   2.615 -0.4119 -0.0322 -0.6762
 6384SOL     OW30613   3.070   3.218  17.619 -0.8587 -0.3228  0.6619
 6384SOL    HW130614   3.084   3.193  17.528  0.9409 -1.6825  1.3211
 6384SOL    HW230615   3.160   3.234  17.648 -0.1119 -0.2150 -1.7456
 6385SOL     OW30616   1.294   2.927   8.271 -0.1998  0.4295  0.0981
 6385SOL    HW130617   1.208   2.967   8.285 -0.1565 -0.5063  3.2125
 6385SOL    HW230618   1.347   2.988   8.322  0.5555  1.5822 -2.0706
 6386SOL     OW30619   0.432   3.010   7.525 -0.3187 -0.2118  0.0958
 6386SOL    HW130620   0.387   3.025   7.441 -1.1147 -0.2006  0.5233
 6386SOL    HW230621   0.459   3.099   7.547  0.9700 -1.1723  2.2971
 6387SOL     OW30622   2.290   2.917  16.884 -0.5274  0.4022 -0.2310
 6387SOL    HW130623   2.259   3.007  16.870  1.6406  1.1186 -0.4590
 6387SOL    HW230624   2.230   2.881  16.949  0.8470 -2.2042 -0.4408
 6388SOL     OW30625   2.282   3.104   7.592  0.0932  0.1732  0.3079
 6388SOL    HW130626   2.192   3.078   7.573  0.2174  0.3840 -0.5285
 6388SOL    HW230627   2.315   3.110   7.503 -0.1877  1.6357  0.2988
 6389SOL     OW30628   0.795   3.554  13.809  0.4197 -0.1597  0.4959
 6389SOL    HW130629   0.844   3.568  13.890  0.1439 -0.0939  0.6508
 6389SOL    HW230630   0.859   3.584  13.744 -1.4633 -2.7155 -2.5497
 6390SOL     OW30631   4.006   1.948  12.121 -0.1285  0.1211  0.5021
 6390SOL    HW130632   4.067   1.880  12.094 -0.8857 -0.1780 -0.4710
 6390SOL    HW230633   3.941   1.902  12.174  0.9847 -0.8505  0.9906
 6391SOL     OW30634   2.745   2.133   1.144 -0.3607 -0.2423  0.1194
 6391SOL    HW130635   2.837   2.116   1.124 -0.2223 -0.0177  0.5621
 6391SOL    HW230636   2.723   2.201   1.080  2.3792 -0.8990 -1.5371
 6392SOL     OW30637   1.469   4.297   2.040  0.1271  0.4818  0.0317
 6392SOL    HW130638   1.546   4.247   2.013 -0.1621 -0.7621  1.5216
 6392SOL    HW230639   1.481   4.311   2.134  1.1081 -0.3782  0.0396
 6393SOL     OW30640   0.078   3.730   8.071 -0.1458  0.2671  0.1410
 6393SOL    HW130641   0.098   3.680   7.991 -0.0488  1.2468 -0.4448
 6393SOL    HW230642   0.159   3.773   8.097 -0.2583  1.4704 -1.5076
 6394SOL     OW30643   1.704   1.080   0.989 -0.4571  0.2139  0.2586
 6394SOL    HW130644   1.724   1.121   1.073 -0.7507  1.0049 -0.0628
 6394SOL    HW230645   1.751   0.997   0.998 -1.1726 -0.1177  0.8517
 6395SOL     OW30646   3.726   1.746   5.875 -0.2269 -0.1785  0.3141
 6395SOL    HW130647   3.773   1.741   5.792 -0.8486 -0.9012  0.0132
 6395SOL    HW230648   3.786   1.813   5.910  1.2845 -1.6260  0.5030
 6396SOL     OW30649   3.159   2.703  16.580 -0.3141 -0.2899  0.2862
 6396SOL    HW130650   3.235   2.757  16.555  0.4427 -1.9756 -1.0699
 6396SOL    HW230651   3.096   2.745  16.522 -0.0083 -1.9592 -1.2909
 6397SOL     OW30652   3.711   2.891  17.360 -0.4413  0.0390  0.6356
 6397SOL    HW130653   3.708   2.797  17.339  0.5492  0.9780 -3.6833
 6397SOL    HW230654   3.646   2.931  17.302 -1.0561 -1.2097  0.4615
 6398SOL     OW30655   1.035   1.049   7.601  0.2328  0.3467  0.4137
 6398SOL    HW130656   1.105   0.993   7.636 -1.7060 -1.5671  1.2439
 6398SOL    HW230657   0.980   1.076   7.675 -1.6090  0.5559 -1.0467
 6399SOL     OW30658   1.867   2.663   3.166 -0.0623  0.4372 -0.0985
 6399SOL    HW130659   1.773   2.658   3.150 -0.1606 -0.9219  0.9080
 6399SOL    HW230660   1.903   2.728   3.106  2.4847 -0.0238  0.9136
 6400SOL     OW30661   0.495   0.165   0.994  0.0883 -0.4158 -0.4697
 6400SOL    HW130662   0.419   0.223   0.984  0.5996  0.6571  1.9084
 6400SOL    HW230663   0.507   0.146   0.901 -2.0619  1.2923 -1.0993
 6401SOL     OW30664   0.355   2.388   2.820 -0.2518  0.4102  0.4587
 6401SOL    HW130665   0.383   2.337   2.744  3.6418  2.7233  0.3295
 6401SOL    HW230666   0.298   2.326   2.864  2.8148 -2.2542  0.6430
 6402SOL     OW30667   3.468   3.925   0.136  0.3829 -0.0111 -0.1433
 6402SOL    HW130668   3.447   3.889   0.222 -0.8370  1.8353  0.3449
 6402SOL    HW230669   3.438   4.015   0.147 -2.3740 -0.7364 -1.6507
 6403SOL     OW30670   2.295   1.666  10.234  0.1821  0.1457 -0.5582
 6403SOL    HW130671   2.293   1.749  10.188 -0.9858  1.6147  2.1645
 6403SOL    HW230672   2.300   1.609  10.157 -0.5033  1.8910 -1.8985
 6404SOL     OW30673   4.192   0.477   2.808  0.0748 -0.1507  0.9663
 6404SOL    HW130674   4.118   0.423   2.836 -0.6230 -0.3755 -1.3874
 6404SOL    HW230675   4.146   0.522   2.738  0.4124  0.2050  0.9725
 6405SOL     OW30676   3.638   1.749   5.587 -0.0592  0.3171 -0.4346
 6405SOL    HW130677   3.597   1.750   5.673  1.5868 -1.3816  0.3810
 6405SOL    HW230678   3.702   1.679   5.599 -0.6864 -0.0175  0.8801
 6406SOL     OW30679   0.076   4.452  17.332  0.0302 -0.2511  0.2213
 6406SOL    HW130680   0.045   4.529  17.380 -1.8405 -1.7572  1.4078
 6406SOL    HW230681   0.122   4.403  17.400  2.0897 -1.0118 -1.7439
 6407SOL     OW30682   2.239   2.278   0.014  0.4393  0.3762 -0.1139
 6407SOL    HW130683   2.174   2.282   0.084 -0.7090 -2.0156 -1.0432
 6407SOL    HW230684   2.266   2.187   0.020 -0.5782  0.0770 -0.1132
 6408SOL     OW30685   0.158   0.522  12.334 -0.1028 -0.1635  0.2537
 6408SOL    HW130686   0.113   0.454  12.384 -0.6484  0.3337  0.4351
 6408SOL    HW230687   0.117   0.506  12.249  1.2432 -1.9806 -0.0571
 6409SOL     OW30688   2.485   4.381   6.859 -0.1205 -0.0801 -0.1684
 6409SOL    HW130689   2.390   4.370   6.863  0.0411 -2.2942 -2.4311
 6409SOL    HW230690   2.503   4.296   6.819 -0.0967  0.5278 -1.4636
 6410SOL     OW30691   3.277   0.510  11.891  0.0350  0.1678 -0.1117
 6410SOL    HW130692   3.292   0.467  11.976  1.3146  3.3743  1.3002
 6410SOL    HW230693   3.344   0.465  11.839  0.1624  0.1022  0.1091
 6411SOL     OW30694   1.668   0.189  11.517 -0.3059  0.0859  0.7018
 6411SOL    HW130695   1.727   0.244  11.465 -1.6585 -0.5976 -1.5539
 6411SOL    HW230696   1.593   0.245  11.533 -1.2958 -1.0934  0.1688
 6412SOL     OW30697   2.326   0.652   2.323 -0.3486  0.3275  0.3388
 6412SOL    HW130698   2.273   0.707   2.382  0.7978  1.2086  0.5516
 6412SOL    HW230699   2.395   0.710   2.292 -0.3206  0.2273  0.2159
 6413SOL     OW30700   2.490   1.294  16.093  0.2270 -0.5827 -0.3090
 6413SOL    HW130701   2.440   1.329  16.019  1.5717 -0.2299 -1.0479
 6413SOL    HW230702   2.520   1.209  16.061 -1.0412 -0.7068 -1.2052
 6414SOL     OW30703   0.488   1.733   8.267  0.5277 -0.0426  0.2569
 6414SOL    HW130704   0.529   1.712   8.351  0.5489 -1.7326 -0.1838
 6414SOL    HW230705   0.474   1.648   8.227 -1.9167  0.7587 -0.6089
 6415SOL     OW30706   0.050   0.857   6.435 -0.0006  0.4862 -0.1793
 6415SOL    HW130707   4.711   0.803   6.389  0.1975 -0.8307  1.1035
 6415SOL    HW230708   0.064   0.815   6.520 -0.8655  1.7091  0.5829
 6416SOL     OW30709   1.310   0.761   0.236 -0.3692  0.0383  0.1488
 6416SOL    HW130710   1.299   0.716   0.319 -0.2408 -0.6762 -0.2149
 6416SOL    HW230711   1.245   0.715   0.182  0.7563  0.9255 -1.9981
 6417SOL     OW30712   0.900   2.858   5.777 -0.0789 -0.0799 -0.1416
 6417SOL    HW130713   0.959   2.790   5.744  0.9660 -0.0820  1.6902
 6417SOL    HW230714   0.932   2.857   5.868  1.9139 -0.0329 -0.8432
 6418SOL     OW30715   2.515   3.264   8.369 -0.4954  0.9156  0.3322
 6418SOL    HW130716   2.439   3.302   8.414 -1.4987 -0.4642 -0.1978
 6418SOL    HW230717   2.541   3.339   8.316  2.0887 -1.1735 -1.3157
 6419SOL     OW30718   2.501   0.415   5.867  0.3094  0.4093  0.0333
 6419SOL    HW130719   2.579   0.368   5.897  1.3310  1.7470 -0.5492
 6419SOL    HW230720   2.457   0.346   5.817  2.5544 -1.6162  0.8018
 6420SOL     OW30721   0.924   3.020  11.124  0.3602 -0.2131  0.6869
 6420SOL    HW130722   1.019   3.010  11.123  0.3191 -0.2701 -2.2303
 6420SOL    HW230723   0.887   2.946  11.077  0.0626  1.0878 -1.1035
 6421SOL     OW30724   4.167   3.041   4.354  0.2201 -0.5979  0.1503
 6421SOL    HW130725   4.081   3.002   4.341  0.8179 -1.7246 -0.4156
 6421SOL    HW230726   4.206   3.025   4.268 -0.2117  0.1345 -0.1779
 6422SOL     OW30727   2.462   3.855   4.567 -0.2289  0.1510  0.5976
 6422SOL    HW130728   2.503   3.872   4.482  0.8973  1.1192  1.3272
 6422SOL    HW230729   2.538   3.848   4.626  1.2144  2.9413 -0.9089
 6423SOL     OW30730   3.270   4.064   1.458 -0.6138 -0.4290 -0.1009
 6423SOL    HW130731   3.277   4.159   1.444  0.1787 -0.6401 -1.1382
 6423SOL    HW230732   3.216   4.038   1.384  3.0992  1.0162 -3.3119
 6424SOL     OW30733   2.862   2.764   8.872 -0.7851 -0.3093 -0.8917
 6424SOL    HW130734   2.776   2.743   8.836 -0.9809 -1.1324  0.0550
 6424SOL    HW230735   2.906   2.790   8.791  1.1267  1.4871  0.7535
 6425SOL     OW30736   1.196   4.587  12.035  0.1175 -1.2081 -0.3079
 6425SOL    HW130737   1.144   4.643  11.978 -0.3779 -1.8226 -0.4597
 6425SOL    HW230738   1.127   4.554  12.092  0.9316 -2.1311  0.1440
 6426SOL     OW30739   3.781   1.473   3.355 -0.4699  0.0814 -0.6353
 6426SOL    HW130740   3.813   1.393   3.397  0.1039  1.3108  1.2369
 6426SOL    HW230741   3.861   1.516   3.327  0.0358 -0.6778 -0.3479
 6427SOL     OW30742   2.124   3.405  14.073 -0.6451  0.1131 -0.3424
 6427SOL    HW130743   2.189   3.469  14.044  0.1892 -0.9523 -0.8338
 6427SOL    HW230744   2.174   3.327  14.048  1.0782  1.3101 -0.6302
 6428SOL     OW30745   2.360   2.378   2.340  0.0004 -0.5162 -0.3801
 6428SOL    HW130746   2.313   2.432   2.277  1.2057  0.1935 -0.6678
 6428SOL    HW230747   2.419   2.327   2.285 -0.7333 -0.9631 -0.7625
 6429SOL     OW30748   4.552   2.679  12.900  0.2908 -0.4925 -0.1451
 6429SOL    HW130749   4.574   2.759  12.949  0.7860  0.7383 -2.3972
 6429SOL    HW230750   4.554   2.613  12.970 -1.0764  0.4805  0.8113
 6430SOL     OW30751   3.389   3.312  13.705 -0.4693  0.9492  0.5234
 6430SOL    HW130752   3.332   3.274  13.772 -0.9911 -0.3094 -0.6425
 6430SOL    HW230753   3.460   3.347  13.759 -0.6473 -0.9198  1.9905
 6431SOL     OW30754   4.042   1.056   8.723  0.0278  0.2199  0.3181
 6431SOL    HW130755   4.091   1.053   8.641 -1.1086  2.3682 -0.4482
 6431SOL    HW230756   3.998   0.971   8.732  1.4950 -0.4661  0.9835
 6432SOL     OW30757   3.538   1.257   4.549 -0.6166 -0.1381  0.4667
 6432SOL    HW130758   3.498   1.175   4.519  1.0680 -1.1400  0.9742
 6432SOL    HW230759   3.567   1.297   4.467  0.8146 -0.7307  0.6873
 6433SOL     OW30760   0.711   0.706  13.415  0.5869 -0.9784 -0.2246
 6433SOL    HW130761   0.706   0.666  13.329  1.5895  0.1245 -0.7875
 6433SOL    HW230762   0.621   0.740  13.421  1.5077  0.8140  3.3570
 6434SOL     OW30763   3.526   2.048   8.472  0.4556 -0.0392  0.1470
 6434SOL    HW130764   3.580   2.071   8.548  0.3091  0.5668  0.0676
 6434SOL    HW230765   3.441   2.029   8.511 -0.0315 -0.2243 -0.9999
 6435SOL     OW30766   3.098   3.287   6.615  0.3785  0.4593  1.0810
 6435SOL    HW130767   3.101   3.382   6.626 -1.6814  0.5828  0.6644
 6435SOL    HW230768   3.023   3.282   6.555 -0.6839  1.4862  2.3047
 6436SOL     OW30769   4.375   2.686   5.244 -0.3445 -0.2058 -0.0682
 6436SOL    HW130770   4.363   2.667   5.337  0.3637 -0.5048 -0.0387
 6436SOL    HW230771   4.314   2.624   5.203 -1.3537  1.0872 -0.5259
 6437SOL     OW30772   3.497   0.111   2.581 -0.5578  0.0553  0.2654
 6437SOL    HW130773   3.509   0.123   2.487 -0.6751 -1.4420  0.0584
 6437SOL    HW230774   3.497   0.015   2.590 -0.2960  0.1375  1.1870
 6438SOL     OW30775   4.441   4.285   3.755 -0.0110 -0.2328  0.5060
 6438SOL    HW130776   4.453   4.379   3.763 -2.5456  0.3470 -2.2429
 6438SOL    HW230777   4.371   4.292   3.689 -0.9011 -0.7292  1.4079
 6439SOL     OW30778   2.580   3.328  15.288  0.4418  0.2996 -0.5416
 6439SOL    HW130779   2.532   3.345  15.207  1.1036 -1.3927 -1.2788
 6439SOL    HW230780   2.602   3.236  15.280 -1.2913 -0.1972  0.5198
 6440SOL     OW30781   0.166   1.805   6.132 -0.3311  1.0323  0.7421
 6440SOL    HW130782   0.162   1.847   6.047  2.0390  1.7269  0.9748
 6440SOL    HW230783   0.158   1.880   6.190 -1.5811  0.4438  1.3404
 6441SOL     OW30784   2.454   0.032   9.095  0.1084 -0.4460  0.1060
 6441SOL    HW130785   2.504   0.093   9.149 -1.6346 -1.0635  2.4271
 6441SOL    HW230786   2.460   4.676   9.143  2.9432  0.2702  1.0053
 6442SOL     OW30787   2.024   1.994  14.248 -0.2767 -0.2491  0.3165
 6442SOL    HW130788   1.988   1.909  14.273 -0.6050  0.2453  1.5300
 6442SOL    HW230789   1.946   2.049  14.249 -1.1232 -1.4970  2.1850
 6443SOL     OW30790   0.969   0.279  14.646  0.0748 -0.1101 -0.3756
 6443SOL    HW130791   1.026   0.296  14.722  0.4832  0.7042 -0.8563
 6443SOL    HW230792   0.889   0.315  14.684  0.9391  2.3664 -0.8567
 6444SOL     OW30793   0.643   1.993   3.622 -0.3599  0.1910  0.0376
 6444SOL    HW130794   0.682   1.967   3.539 -2.7954 -2.9096 -0.1252
 6444SOL    HW230795   0.679   1.928   3.682 -2.4408 -1.0912 -0.1029
 6445SOL     OW30796   2.166   2.079   6.611 -0.1523  0.6527  0.2899
 6445SOL    HW130797   2.139   2.155   6.560 -0.7894 -0.7960 -1.5559
 6445SOL    HW230798   2.115   2.014   6.561  4.4554 -0.9468 -2.3177
 6446SOL     OW30799   3.315   0.739   5.499  0.2428 -0.0946  0.0813
 6446SOL    HW130800   3.299   0.661   5.446  1.2898  0.2302 -0.7184
 6446SOL    HW230801   3.348   0.797   5.430 -0.0355  0.6241  0.5606
 6447SOL     OW30802   3.081   2.494   3.502  0.3413  0.4192 -0.0456
 6447SOL    HW130803   3.150   2.429   3.509 -0.3312 -0.2540  0.2977
 6447SOL    HW230804   3.028   2.485   3.581  0.7756  1.4152  0.3548
 6448SOL     OW30805   1.345   3.565   4.144  0.3387  0.5707 -0.2068
 6448SOL    HW130806   1.295   3.501   4.092  1.7176 -0.6368 -0.0469
 6448SOL    HW230807   1.349   3.522   4.229 -0.8476 -0.6838 -0.7859
 6449SOL     OW30808   0.992   0.561   5.404 -0.0273  0.9578 -0.1886
 6449SOL    HW130809   0.970   0.640   5.453 -0.5159  0.5206  0.3016
 6449SOL    HW230810   1.076   0.583   5.364  0.9681 -1.3255  0.6439
 6450SOL     OW30811   1.010   3.576   7.706  0.8164 -0.1412 -0.0995
 6450SOL    HW130812   1.003   3.621   7.622  0.7590  0.1072  0.0394
 6450SOL    HW230813   1.079   3.511   7.695  0.4067 -0.6458  0.3131
 6451SOL     OW30814   3.462   3.133   5.008 -0.1929 -0.0266  0.1611
 6451SOL    HW130815   3.496   3.123   4.919  1.6001 -1.0516  0.9556
 6451SOL    HW230816   3.380   3.174   4.982  1.1533  1.7969 -1.2671
 6452SOL     OW30817   3.332   1.666   2.858  0.9236  0.4010  0.7730
 6452SOL    HW130818   3.417   1.661   2.815  1.2161  1.4198  1.2545
 6452SOL    HW230819   3.291   1.585   2.826  2.0951 -0.6588  1.9760
 6453SOL     OW30820   0.721   3.588   3.902  0.2180  0.0886  0.3538
 6453SOL    HW130821   0.682   3.623   3.822 -0.8802 -0.3177  0.7218
 6453SOL    HW230822   0.787   3.529   3.866  1.2593  0.6055  1.3917
 6454SOL     OW30823   2.398   2.060   9.602 -0.3131  0.9291  0.1398
 6454SOL    HW130824   2.486   2.081   9.633 -0.0093 -2.8294  1.8177
 6454SOL    HW230825   2.389   1.978   9.651  1.2807 -0.6700 -2.2440
 6455SOL     OW30826   2.683   0.122   4.775  0.2031 -0.4114 -0.1309
 6455SOL    HW130827   2.616   0.054   4.772 -1.0432  0.7280  1.4963
 6455SOL    HW230828   2.678   0.155   4.685  0.0707 -0.4179 -0.1265
 6456SOL     OW30829   1.628   1.675   7.639  0.2207  0.1282 -0.3615
 6456SOL    HW130830   1.649   1.724   7.559 -2.1726  0.3259 -0.8674
 6456SOL    HW230831   1.603   1.590   7.604 -2.4262 -0.3402  2.6375
 6457SOL     OW30832   4.307   3.974  13.541  0.0295  0.5772  0.3142
 6457SOL    HW130833   4.336   3.898  13.491 -0.3549  1.1396 -0.7458
 6457SOL    HW230834   4.294   3.940  13.630  0.6693 -1.8104 -0.5114
 6458SOL     OW30835   4.376   4.331   0.674  0.0856  0.1107 -0.1022
 6458SOL    HW130836   4.378   4.298   0.764 -1.0491  1.4737  0.4298
 6458SOL    HW230837   4.407   4.419   0.693  0.3316 -0.5743  2.8006
 6459SOL     OW30838   0.258   2.275  16.279 -0.2541 -0.2372  0.1009
 6459SOL    HW130839   0.199   2.351  16.276  1.0846  0.7623 -0.8107
 6459SOL    HW230840   0.345   2.314  16.286 -0.4973  0.7638 -2.5407
 6460SOL     OW30841   2.881   1.198   7.904  0.1279 -0.2700  0.4141
 6460SOL    HW130842   2.925   1.130   7.956  0.3574  0.6822  1.4569
 6460SOL    HW230843   2.824   1.230   7.972  2.7731  1.2881  1.8908
 6461SOL     OW30844   4.498   4.126  15.156 -0.0899  0.2769 -0.5006
 6461SOL    HW130845   4.547   4.119  15.238 -0.2990  1.5551 -0.2618
 6461SOL    HW230846   4.408   4.114  15.189 -0.2906  2.3677 -0.2663
 6462SOL     OW30847   3.767   2.869   2.490  0.6679 -0.1700  0.4081
 6462SOL    HW130848   3.816   2.908   2.562  0.0890  0.3652  0.5199
 6462SOL    HW230849   3.684   2.836   2.525 -1.1961  1.2361 -2.6679
 6463SOL     OW30850   2.243   0.155   6.355  0.2544  0.3184  0.1747
 6463SOL    HW130851   2.316   0.156   6.416  0.1454 -3.8951  0.3666
 6463SOL    HW230852   2.278   0.111   6.277  0.6937  0.9182  0.0343
 6464SOL     OW30853   0.125   1.350   0.729 -0.7606  0.7202  0.0397
 6464SOL    HW130854   0.198   1.408   0.753  0.0464 -0.5473  0.6502
 6464SOL    HW230855   0.051   1.411   0.732 -1.3198  0.0454 -0.1113
 6465SOL     OW30856   0.554   2.550  11.557  0.0149 -0.5775 -0.1336
 6465SOL    HW130857   0.489   2.619  11.557  0.9001  0.2589 -0.9194
 6465SOL    HW230858   0.632   2.592  11.593 -0.6379  1.3341 -0.9831
 6466SOL     OW30859   0.096   0.079   5.546 -0.4768  0.4790 -0.4924
 6466SOL    HW130860   0.034   0.141   5.507  0.3907  1.3830 -0.4467
 6466SOL    HW230861   0.037   0.004   5.549 -1.4718  1.4850  4.9903
 6467SOL     OW30862   4.293   3.758  13.768  0.3901  0.1780 -0.3280
 6467SOL    HW130863   4.343   3.726  13.693 -0.9916  0.5924 -1.4265
 6467SOL    HW230864   4.362   3.808  13.812  0.6381 -0.3701 -0.0908
 6468SOL     OW30865   2.815   2.858  12.606 -0.4607 -0.3556  0.4636
 6468SOL    HW130866   2.856   2.789  12.553  1.0343 -0.8134  2.2464
 6468SOL    HW230867   2.721   2.844  12.595 -0.8211  1.2088  1.5373
 6469SOL     OW30868   4.440   0.307  15.761 -0.0459 -0.0220 -0.0032
 6469SOL    HW130869   4.417   0.333  15.850 -0.3687  0.9330 -0.3649
 6469SOL    HW230870   4.480   0.220  15.769 -1.0073 -0.6651 -2.1907
 6470SOL     OW30871   0.083   1.980   6.326 -0.3575  0.2607 -0.0195
 6470SOL    HW130872   0.028   2.002   6.401  0.0501 -3.2025  1.3092
 6470SOL    HW230873   0.064   2.041   6.255 -0.3855  2.5103  1.8999
 6471SOL     OW30874   1.343   0.213   3.402  0.2526 -0.1400  0.1228
 6471SOL    HW130875   1.299   0.288   3.442 -1.4581 -0.8312 -0.4703
 6471SOL    HW230876   1.411   0.260   3.354  1.2718 -0.6811  1.0488
 6472SOL     OW30877   4.106   2.366   9.000  0.1132 -0.4642 -0.1193
 6472SOL    HW130878   4.045   2.310   8.951  0.2092 -1.2757  0.6915
 6472SOL    HW230879   4.139   2.424   8.932 -0.0696  0.7592  0.8334
 6473SOL     OW30880   2.226   2.293   6.405 -0.0863  0.4536 -0.3226
 6473SOL    HW130881   2.143   2.332   6.379  0.5106  1.9165 -0.0385
 6473SOL    HW230882   2.281   2.306   6.327 -0.5353  0.8710 -0.5706
 6474SOL     OW30883   4.554   2.886   3.686 -0.0274 -0.2509 -0.1440
 6474SOL    HW130884   4.595   2.951   3.629  0.5327 -1.5260 -1.1887
 6474SOL    HW230885   4.620   2.818   3.698  0.5212  0.3491  0.2325
 6475SOL     OW30886   4.097   3.974  11.296 -0.4128 -0.1837 -0.1827
 6475SOL    HW130887   4.192   3.982  11.300 -0.2533 -2.5485  0.6200
 6475SOL    HW230888   4.094   4.054  11.244  3.6894  0.1726  0.0905
 6476SOL     OW30889   0.501   1.270   0.803  0.0470 -0.3036  0.2689
 6476SOL    HW130890   0.587   1.228   0.796  0.0603 -0.2345 -0.0015
 6476SOL    HW230891   0.522   1.353   0.760 -0.3444  0.4086  1.4684
 6477SOL     OW30892   4.638   0.637   8.675 -0.5196 -0.1845  0.0052
 6477SOL    HW130893   4.592   0.721   8.673 -1.3930 -0.6785 -0.5282
 6477SOL    HW230894   4.694   0.657   8.600  1.1736  1.3739  1.6528
 6478SOL     OW30895   1.716   4.604   8.586 -0.6795  0.0447 -0.3088
 6478SOL    HW130896   1.805   4.571   8.590 -0.1448  1.7829  1.8843
 6478SOL    HW230897   1.675   4.518   8.572 -1.8480  0.5627 -0.0995
 6479SOL     OW30898   3.183   1.270   6.246  0.1784 -0.5153 -0.8956
 6479SOL    HW130899   3.156   1.189   6.289 -2.0646  0.7205  0.0087
 6479SOL    HW230900   3.122   1.332   6.286 -1.4006 -1.3004 -2.0915
 6480SOL     OW30901   4.029   1.660   3.413  0.0303  0.0893  0.1300
 6480SOL    HW130902   4.117   1.661   3.449  0.6470  2.0932 -1.3747
 6480SOL    HW230903   4.041   1.577   3.366 -2.6804  0.8739 -1.9969
 6481SOL     OW30904   4.580   3.392   9.262  0.0451  0.3654  0.0605
 6481SOL    HW130905   4.530   3.313   9.241  0.7592  0.3563 -1.5933
 6481SOL    HW230906   4.662   3.347   9.279 -0.4531 -0.1413  1.1197
 6482SOL     OW30907   1.450   2.120   7.026  0.1757 -0.3732  0.8016
 6482SOL    HW130908   1.404   2.047   6.984  1.2650 -2.1683  2.7278
 6482SOL    HW230909   1.541   2.091   7.017 -0.2542 -1.6886  0.6722
 6483SOL     OW30910   4.141   0.093   9.890 -0.4926 -0.0296 -0.0893
 6483SOL    HW130911   4.084   0.026   9.928 -0.9347  0.3143 -0.1409
 6483SOL    HW230912   4.114   0.099   9.798 -0.0629 -1.1628 -0.2881
 6484SOL     OW30913   0.863   1.190   2.161  0.9138 -0.4290 -0.1982
 6484SOL    HW130914   0.787   1.134   2.176  2.0027 -2.0562 -0.8050
 6484SOL    HW230915   0.838   1.228   2.076  1.5961 -2.3766 -1.2711
 6485SOL     OW30916   0.073   2.403   5.889  0.0903 -0.4029 -0.2226
 6485SOL    HW130917   0.026   2.346   5.829 -2.5140 -0.4552  1.8535
 6485SOL    HW230918   0.123   2.339   5.941  0.0820  0.7258  1.1903
 6486SOL     OW30919   0.568   1.644   3.246  0.2513 -0.0230  0.1907
 6486SOL    HW130920   0.500   1.679   3.304  0.0702  0.9646 -0.6145
 6486SOL    HW230921   0.584   1.720   3.190 -1.6232  1.1639  1.2611
 6487SOL     OW30922   1.909   3.936   8.596 -0.1075  0.3729  0.0601
 6487SOL    HW130923   1.851   3.893   8.658 -0.8670  0.6018 -0.5020
 6487SOL    HW230924   1.952   3.871   8.540  2.5493  1.6400  0.5817
 6488SOL     OW30925   1.752   0.367   3.369  0.2787  0.7258  0.0240
 6488SOL    HW130926   1.687   0.422   3.324 -0.2847  1.4353  1.7328
 6488SOL    HW230927   1.813   0.337   3.301  0.5977  0.1202  0.5839
 6489SOL     OW30928   0.593   2.144  13.330  0.0266 -1.1850 -0.0740
 6489SOL    HW130929   0.514   2.091  13.342 -0.4879 -0.1990  0.8211
 6489SOL    HW230930   0.562   2.233  13.346  1.8753 -0.8788  1.9486
 6490SOL     OW30931   0.622   3.196  15.470  0.2344  0.0455 -0.0213
 6490SOL    HW130932   0.645   3.289  15.469 -4.1975  1.1456  2.4452
 6490SOL    HW230933   0.708   3.160  15.448 -0.1460 -0.4610 -0.6781
 6491SOL     OW30934   0.735   1.981   3.330 -0.1683 -0.0705  0.2768
 6491SOL    HW130935   0.752   1.889   3.348 -1.9937 -0.1278  1.7329
 6491SOL    HW230936   0.695   1.981   3.243 -0.7291 -1.0618  0.5434
 6492SOL     OW30937   0.838   4.442  13.815 -0.2250  0.7583 -0.1248
 6492SOL    HW130938   0.869   4.424  13.903  2.2370  1.8136 -0.7717
 6492SOL    HW230939   0.743   4.442  13.821 -0.0998 -1.2893  1.7749
 6493SOL     OW30940   1.889   2.437  12.474 -0.0867 -0.0598  0.5167
 6493SOL    HW130941   1.939   2.515  12.498  0.5222  0.1234 -1.3373
 6493SOL    HW230942   1.868   2.403  12.561  1.2685  1.5435  1.4619
 6494SOL     OW30943   4.052   0.177   3.012  0.2818  0.0402 -0.0941
 6494SOL    HW130944   3.957   0.172   3.019  0.3418 -0.4820  0.3177
 6494SOL    HW230945   4.075   0.257   3.059  0.3841 -0.3639  0.5330
 6495SOL     OW30946   2.156   1.386   2.324 -0.2033  0.2106 -0.4931
 6495SOL    HW130947   2.132   1.469   2.283  0.7865  0.2713 -0.9512
 6495SOL    HW230948   2.199   1.341   2.251 -0.5171 -1.5792  0.4114
 6496SOL     OW30949   3.937   0.019   2.320  0.2523 -0.0692  0.2055
 6496SOL    HW130950   3.957   4.678   2.386 -0.8279  0.1155  0.7108
 6496SOL    HW230951   3.974   4.707   2.240 -1.0817  0.0873 -0.4730
 6497SOL     OW30952   0.843   3.955   8.763  0.3381  0.6279 -0.0485
 6497SOL    HW130953   0.770   3.985   8.817  0.3431 -0.1386  0.3821
 6497SOL    HW230954   0.910   4.004   8.810 -0.0068 -0.6110  1.7490
 6498SOL     OW30955   3.191   0.158   9.668  0.2437  0.1494 -0.1952
 6498SOL    HW130956   3.192   0.170   9.573 -1.2064 -0.3470 -0.2766
 6498SOL    HW230957   3.125   0.089   9.663  1.6104 -1.2455  1.0987
 6499SOL     OW30958   1.218   1.548  14.258 -0.0629  0.4638  0.0814
 6499SOL    HW130959   1.235   1.641  14.273 -1.8103  1.5150 -4.3157
 6499SOL    HW230960   1.226   1.502  14.342 -0.0435 -0.9428 -0.6858
 6500SOL     OW30961   3.432   0.132  13.461  0.1217  0.3607 -0.0006
 6500SOL    HW130962   3.360   0.148  13.522  0.6569 -1.8759  1.2085
 6500SOL    HW230963   3.500   0.110  13.525  1.4957 -0.0860 -1.6292
 6501SOL     OW30964   1.314   1.608   2.618 -0.2689  0.6612  0.3425
 6501SOL    HW130965   1.356   1.649   2.543 -2.2259  1.1022 -0.5160
 6501SOL    HW230966   1.337   1.663   2.693  1.3886  1.7014 -0.9406
 6502SOL     OW30967   2.925   4.363   1.905  0.4629  0.0016  0.0698
 6502SOL    HW130968   2.907   4.316   1.986 -0.9409 -0.0391 -0.2589
 6502SOL    HW230969   2.839   4.355   1.864 -0.4341 -0.2452  2.0303
 6503SOL     OW30970   2.556   0.520   8.339 -0.0498 -0.5703 -0.1457
 6503SOL    HW130971   2.476   0.544   8.292  0.0508  0.6135  0.2766
 6503SOL    HW230972   2.525   0.530   8.428 -3.0059 -0.4505 -1.1895
 6504SOL     OW30973   2.207   1.959   4.403  0.4988 -0.0541 -0.0157
 6504SOL    HW130974   2.238   2.013   4.475  4.2095 -0.9066 -0.9644
 6504SOL    HW230975   2.276   1.970   4.337  2.1470  0.3985  1.7809
 6505SOL     OW30976   3.816   2.037   4.960  0.4531 -0.0598  0.0073
 6505SOL    HW130977   3.763   2.009   5.035 -0.9835  1.9486 -0.2719
 6505SOL    HW230978   3.834   2.130   4.974 -0.4345  0.0899  0.1614
 6506SOL     OW30979   0.071   3.478   6.691 -0.4738  0.8866  0.0061
 6506SOL    HW130980   0.145   3.418   6.681  0.0117  1.5203 -0.1566
 6506SOL    HW230981   0.020   3.426   6.753  0.6143 -0.1946 -0.0007
 6507SOL     OW30982   0.737   2.022   3.055 -0.1158 -0.9326 -0.7627
 6507SOL    HW130983   0.673   2.081   3.094 -0.9406 -2.6488  0.4642
 6507SOL    HW230984   0.776   2.081   2.991 -0.8185  1.3083  0.8478
 6508SOL     OW30985   1.850   4.022   8.325  0.7767 -0.3527  0.3925
 6508SOL    HW130986   1.822   3.994   8.412 -2.0430  0.3407 -0.2853
 6508SOL    HW230987   1.945   4.015   8.331  0.9784  1.0210 -1.2863
 6509SOL     OW30988   0.589   2.025   6.673 -0.0903  0.1523 -0.1924
 6509SOL    HW130989   0.548   1.979   6.601  1.1884  2.9615 -2.7356
 6509SOL    HW230990   0.627   1.950   6.719 -1.2386 -1.1603 -1.4123
 6510SOL     OW30991   0.630   0.904  12.982  0.4672  0.3946 -0.0908
 6510SOL    HW130992   0.656   0.996  12.984  1.0574  0.2432 -0.9844
 6510SOL    HW230993   0.646   0.878  12.891 -0.4253 -3.2332  0.8101
 6511SOL     OW30994   3.879   1.360   5.273 -0.1081  0.5625 -0.2308
 6511SOL    HW130995   3.936   1.401   5.207  2.0468 -3.3329 -0.8071
 6511SOL    HW230996   3.796   1.407   5.268  1.4993  3.0156 -4.2431
 6512SOL     OW30997   3.197   0.117   5.946  0.6482  0.5626  0.3622
 6512SOL    HW130998   3.182   0.076   6.031 -1.7302  1.7878  0.5398
 6512SOL    HW230999   3.270   0.172   5.974  0.9729  0.1476  0.3275
 6513SOL     OW31000   1.044   4.533   5.380  0.1900  0.6198  0.6287
 6513SOL    HW131001   1.101   4.457   5.371  0.0121  0.6473 -0.7986
 6513SOL    HW231002   0.971   4.517   5.319  1.3046 -1.9643 -0.0449
 6514SOL     OW31003   2.953   4.495   4.740 -0.4936 -0.8971  0.3988
 6514SOL    HW131004   2.938   4.587   4.761  2.2208  0.1732 -2.3346
 6514SOL    HW231005   3.045   4.495   4.714 -0.8248  0.3070 -0.7736
 6515SOL     OW31006   2.263   4.017   1.403 -0.2423 -0.0301 -0.0147
 6515SOL    HW131007   2.241   4.035   1.494  2.1797  0.2544  0.5181
 6515SOL    HW231008   2.306   3.931   1.410 -0.4366 -0.3361 -2.5275
 6516SOL     OW31009   3.520   0.451   3.131  0.4026  0.2757  0.3387
 6516SOL    HW131010   3.501   0.540   3.103 -1.5849 -1.0924 -2.6644
 6516SOL    HW231011   3.471   0.398   3.068  0.5815  1.5300 -0.8385
 6517SOL     OW31012   3.607   2.211   0.534 -0.3781 -0.1469 -0.0038
 6517SOL    HW131013   3.599   2.280   0.599  0.3700 -0.2822  0.2322
 6517SOL    HW231014   3.700   2.187   0.538 -0.3726 -0.0214  0.6103
 6518SOL     OW31015   1.847   3.219   7.645  0.4222  0.1759  0.2097
 6518SOL    HW131016   1.793   3.170   7.707 -2.7673  1.4863 -1.5429
 6518SOL    HW231017   1.783   3.256   7.584 -1.0131 -0.9616  1.0433
 6519SOL     OW31018   2.521   1.315  13.534 -0.4083  0.8276 -0.3223
 6519SOL    HW131019   2.509   1.264  13.614  1.3476  1.7276  0.5067
 6519SOL    HW231020   2.451   1.284  13.476 -1.7932  0.1501  1.7140
 6520SOL     OW31021   1.653   4.318  16.778 -0.5794 -0.3502 -0.2375
 6520SOL    HW131022   1.632   4.284  16.865  2.0158  0.6807  0.7825
 6520SOL    HW231023   1.564   4.316  16.742 -0.3179  4.0180 -1.1761
 6521SOL     OW31024   1.123   1.451   6.932 -0.3081 -0.1997  0.0782
 6521SOL    HW131025   1.065   1.521   6.901 -0.5406  0.3322  1.7625
 6521SOL    HW231026   1.187   1.432   6.864 -0.8847  1.5999 -0.9748
 6522SOL     OW31027   3.046   1.587   8.983 -0.4863  0.3289  0.1921
 6522SOL    HW131028   3.125   1.556   8.937 -0.4791 -1.3824  1.3561
 6522SOL    HW231029   2.993   1.508   8.971  0.5506 -0.2852 -0.4280
 6523SOL     OW31030   3.946   1.896   7.343  0.1466  0.4712 -0.7672
 6523SOL    HW131031   3.883   1.839   7.386  1.1281  0.0202  0.0778
 6523SOL    HW231032   3.988   1.828   7.290 -1.8430 -0.1132 -1.5798
 6524SOL     OW31033   4.074   4.589  17.577 -0.0273 -0.4131  0.7460
 6524SOL    HW131034   4.060   4.653  17.647 -0.7156  1.5896 -1.2271
 6524SOL    HW231035   4.059   4.650  17.504  1.2265 -2.0089 -0.8581
 6525SOL     OW31036   0.599   0.654  16.697 -0.3611 -1.0389  0.5873
 6525SOL    HW131037   0.659   0.584  16.673  0.2722 -0.8362  1.5916
 6525SOL    HW231038   0.636   0.722  16.640 -1.2101 -0.7825  0.3448
 6526SOL     OW31039   3.519   2.253   8.932  0.1656  0.1315 -0.1626
 6526SOL    HW131040   3.499   2.344   8.952  0.9554 -0.2190  2.1571
 6526SOL    HW231041   3.447   2.203   8.969 -1.1296  1.1503 -1.3247
 6527SOL     OW31042   2.994   1.561  15.960 -0.4301  0.5362  0.0529
 6527SOL    HW131043   3.026   1.643  15.998 -1.7805  0.7473  0.7105
 6527SOL    HW231044   2.902   1.573  15.938 -0.3829 -0.2082 -0.5522
 6528SOL     OW31045   3.782   1.841   8.447  0.1890  0.0873 -0.3818
 6528SOL    HW131046   3.704   1.787   8.444  0.4732 -0.2537 -1.8555
 6528SOL    HW231047   3.854   1.779   8.453  0.9000  1.1133  1.7848
 6529SOL     OW31048   1.459   1.867  11.142  0.2810  0.6533 -0.3803
 6529SOL    HW131049   1.370   1.850  11.109 -0.0839 -1.2411  1.5398
 6529SOL    HW231050   1.516   1.802  11.100  0.2065 -0.4439  1.2032
 6530SOL     OW31051   0.564   2.907  13.419  0.2468  0.0795 -1.0061
 6530SOL    HW131052   0.546   2.986  13.368 -2.7221 -1.1201 -1.7898
 6530SOL    HW231053   0.660   2.904  13.419  0.2158 -0.6901 -0.6528
 6531SOL     OW31054   2.233   1.319   1.198  0.1407 -0.3830 -0.2116
 6531SOL    HW131055   2.150   1.364   1.214  0.3430  0.2142 -0.8534
 6531SOL    HW231056   2.202   1.237   1.237  2.8943 -1.6488 -0.6824
 6532SOL     OW31057   2.106   2.285  14.495  0.3724  0.4615 -0.2605
 6532SOL    HW131058   2.078   2.268  14.405 -0.6616 -0.8865  0.3135
 6532SOL    HW231059   2.036   2.338  14.532  2.3945  2.8062  0.2001
 6533SOL     OW31060   1.058   1.205   2.973 -0.0537  0.1579  0.0794
 6533SOL    HW131061   1.057   1.123   3.023  0.1131  0.7553  1.0618
 6533SOL    HW231062   1.146   1.206   2.936 -0.2708 -2.0131 -0.4780
 6534SOL     OW31063   3.753   1.769  10.839  0.4847  0.3649  0.2532
 6534SOL    HW131064   3.794   1.851  10.868  1.7178 -1.3110  3.2698
 6534SOL    HW231065   3.757   1.704  10.909  0.5043 -0.5297 -0.5893
 6535SOL     OW31066   1.326   1.516   5.382 -0.1285 -0.2717  0.5892
 6535SOL    HW131067   1.234   1.532   5.361  0.0939 -0.3517 -0.4299
 6535SOL    HW231068   1.358   1.487   5.297  2.1281  1.7731  0.7713
 6536SOL     OW31069   1.312   0.554  12.306  0.2675 -0.0832 -0.1222
 6536SOL    HW131070   1.280   0.627  12.358  0.0933 -0.1393 -0.1522
 6536SOL    HW231071   1.233   0.507  12.279 -1.0514  1.4985  1.0109
 6537SOL     OW31072   3.111   1.906   4.467 -0.0445  0.1457  0.0491
 6537SOL    HW131073   3.115   1.955   4.385  3.1504 -1.6396 -0.8925
 6537SOL    HW231074   3.206   1.906   4.484  0.0598  1.5402 -0.5930
 6538SOL     OW31075   1.316   0.986   8.816  0.3776 -0.1813  0.5644
 6538SOL    HW131076   1.336   1.023   8.730  0.1051  0.4155  0.7613
 6538SOL    HW231077   1.315   0.891   8.804 -1.6270  0.1381 -1.7408
 6539SOL     OW31078   1.220   0.884   7.714  0.4942  0.2352 -0.1223
 6539SOL    HW131079   1.172   0.820   7.768  0.4720 -0.4865 -0.9953
 6539SOL    HW231080   1.299   0.911   7.761  0.9684 -0.7308 -0.3581
 6540SOL     OW31081   3.732   1.225   5.509  0.3417 -0.7516  0.0967
 6540SOL    HW131082   3.685   1.187   5.583  1.2473  1.3089  1.7438
 6540SOL    HW231083   3.762   1.304   5.555 -2.6250  1.0822 -1.1218
 6541SOL     OW31084   0.308   1.856   1.828 -0.1298  0.4252  0.3077
 6541SOL    HW131085   0.231   1.816   1.787  1.6879 -1.9485 -0.8203
 6541SOL    HW231086   0.365   1.861   1.751  1.7716  1.2955  1.7710
 6542SOL     OW31087   3.568   3.473  13.790  0.7206 -0.0498  0.0469
 6542SOL    HW131088   3.654   3.458  13.751 -0.7107 -0.8071 -2.8179
 6542SOL    HW231089   3.599   3.506  13.874 -0.9548  2.9798 -0.5562
 6543SOL     OW31090   0.399   4.588   1.367  0.1339  0.0683  0.6599
 6543SOL    HW131091   0.356   4.516   1.320  2.3892 -0.5776 -0.4068
 6543SOL    HW231092   0.326   4.630   1.413  0.6942  2.2767 -0.4228
 6544SOL     OW31093   0.873   3.816   2.819 -0.3113  0.4696  0.2927
 6544SOL    HW131094   0.866   3.897   2.770 -0.2775 -0.6435 -1.5689
 6544SOL    HW231095   0.967   3.799   2.819 -0.3843  0.0763 -0.6513
 6545SOL     OW31096   3.534   2.623   4.587 -0.1960 -0.0162 -0.1902
 6545SOL    HW131097   3.558   2.622   4.495  0.6373  0.6427  0.0251
 6545SOL    HW231098   3.608   2.584   4.635 -1.3389 -0.1855  1.4443
 6546SOL     OW31099   4.595   2.904  17.023  0.2200 -0.0118  0.1583
 6546SOL    HW131100   4.573   2.973  16.960 -0.7016  0.2843  0.7982
 6546SOL    HW231101   4.627   2.831  16.969  3.8812  1.5448  0.2051
 6547SOL     OW31102   0.032   4.414  17.686 -1.0509 -0.6113 -0.0622
 6547SOL    HW131103   4.709   4.482  17.641  1.5302  1.9448  1.0129
 6547SOL    HW231104   4.699   4.340  17.671 -1.0206 -1.0900  2.1547
 6548SOL     OW31105   3.101   4.377  10.546 -0.0717  0.6951 -0.4331
 6548SOL    HW131106   3.179   4.340  10.506  0.6334  0.7096  0.9338
 6548SOL    HW231107   3.042   4.302  10.554 -0.6310  1.0476 -1.2617
 6549SOL     OW31108   1.341   2.049   4.743  0.2963  0.2905  0.5136
 6549SOL    HW131109   1.398   2.116   4.705 -0.9440  1.3663  0.5233
 6549SOL    HW231110   1.386   1.969   4.718 -0.2964 -0.3583  1.5407
 6550SOL     OW31111   3.492   1.614   8.999 -0.3816 -0.0262 -0.4176
 6550SOL    HW131112   3.547   1.619   8.921  0.6487  2.3460  0.4456
 6550SOL    HW231113   3.439   1.540   8.972  1.9390 -1.4775 -1.0267
 6551SOL     OW31114   3.229   3.612  15.246 -0.1083 -0.4456  0.3222
 6551SOL    HW131115   3.188   3.561  15.176 -1.9828 -1.2350  2.0102
 6551SOL    HW231116   3.161   3.598  15.311 -0.1049 -0.3183  0.3524
 6552SOL     OW31117   2.976   1.758   8.731 -0.1783 -0.4452  0.1439
 6552SOL    HW131118   2.975   1.772   8.826 -0.3607 -1.7437  0.3271
 6552SOL    HW231119   3.066   1.774   8.701 -0.0610 -0.2895  0.5756
 6553SOL     OW31120   2.227   0.094   8.506  0.0734  0.6912 -0.0519
 6553SOL    HW131121   2.297   0.133   8.452 -0.0330  0.6341 -0.2319
 6553SOL    HW231122   2.232   0.140   8.589  0.1576 -1.7758  1.3044
 6554SOL     OW31123   4.468   3.752  11.968  0.2106 -0.8134 -0.3927
 6554SOL    HW131124   4.476   3.744  11.873 -0.9166 -1.5225 -0.4218
 6554SOL    HW231125   4.441   3.661  11.985  1.5803 -0.7452  2.2874
 6555SOL     OW31126   2.511   4.253  13.828 -0.4234 -0.2842 -0.4296
 6555SOL    HW131127   2.471   4.249  13.914  0.2091  0.5348 -0.1008
 6555SOL    HW231128   2.579   4.186  13.838 -0.6862 -0.9104 -2.6851
 6556SOL     OW31129   2.066   1.688  15.068 -0.5503  0.5257  0.4673
 6556SOL    HW131130   2.079   1.781  15.087 -0.8437  0.3564  1.5268
 6556SOL    HW231131   1.992   1.705  15.010  1.0241 -1.3455 -2.0641
 6557SOL     OW31132   0.544   3.606   9.534  0.0375 -0.1599 -0.2532
 6557SOL    HW131133   0.630   3.645   9.516 -0.3557  1.9656  2.4190
 6557SOL    HW231134   0.567   3.513   9.529  1.0541  0.0403  0.6921
 6558SOL     OW31135   1.721   2.991   5.211  0.1711  0.6127  0.3347
 6558SOL    HW131136   1.743   2.909   5.256  1.2942  2.0419  2.3906
 6558SOL    HW231137   1.666   3.033   5.277  0.2270 -0.8563  1.3215
 6559SOL     OW31138   1.752   0.567  14.723 -0.2333  0.1338 -0.4337
 6559SOL    HW131139   1.737   0.505  14.794  1.9202  2.0537  1.6737
 6559SOL    HW231140   1.847   0.571  14.720 -0.1370 -2.5932 -1.5658
 6560SOL     OW31141   4.528   0.130   1.043 -0.2980 -0.2177 -0.1494
 6560SOL    HW131142   4.589   0.197   1.011 -0.9088  0.0287 -0.7940
 6560SOL    HW231143   4.578   0.049   1.043  0.7682  0.4388  2.4898
 6561SOL     OW31144   3.178   1.845   4.865  0.1834 -0.0479 -0.0092
 6561SOL    HW131145   3.262   1.878   4.833 -0.2521  0.8914 -0.1975
 6561SOL    HW231146   3.154   1.794   4.788  0.0053 -1.5931  1.0794
 6562SOL     OW31147   2.789   3.545   6.597 -0.3349 -0.0910  0.2217
 6562SOL    HW131148   2.763   3.542   6.505  0.3862  1.9696 -0.0574
 6562SOL    HW231149   2.885   3.546   6.591 -0.2627  1.4506  1.6576
 6563SOL     OW31150   1.815   3.475  14.977  0.3438 -0.4279 -1.0975
 6563SOL    HW131151   1.889   3.488  15.037 -0.0827 -1.9213 -0.2435
 6563SOL    HW231152   1.775   3.561  14.969 -0.7860 -0.8585  0.0617
 6564SOL     OW31153   2.381   4.511  15.279 -0.5003 -0.2809 -0.4209
 6564SOL    HW131154   2.462   4.541  15.322 -1.3353  0.5309  0.6041
 6564SOL    HW231155   2.327   4.589  15.289  1.2337  0.6515  1.9338
 6565SOL     OW31156   1.509   1.709   2.390  0.3568  0.0401 -0.0373
 6565SOL    HW131157   1.445   1.772   2.358 -1.3085 -0.0355  3.0954
 6565SOL    HW231158   1.554   1.676   2.313 -3.1956  0.0207 -2.1167
 6566SOL     OW31159   4.393   2.316   3.097 -0.0442 -0.0716  0.5427
 6566SOL    HW131160   4.304   2.336   3.066 -0.8422 -1.8010  1.7539
 6566SOL    HW231161   4.384   2.386   3.162  0.0190  1.1253 -0.7289
 6567SOL     OW31162   4.065   0.803   6.007  0.5208 -0.6936 -0.3538
 6567SOL    HW131163   4.140   0.758   5.970  0.4041  0.0148 -1.4455
 6567SOL    HW231164   4.009   0.795   5.930 -0.3756  0.6730  0.1398
 6568SOL     OW31165   3.439   2.233  13.788  0.3764  0.2948  0.5292
 6568SOL    HW131166   3.381   2.167  13.752  1.2325  0.9873 -2.1426
 6568SOL    HW231167   3.488   2.274  13.717 -3.4167  2.8711 -0.6343
 6569SOL     OW31168   3.564   4.545  11.317  0.3394 -0.1088 -0.2801
 6569SOL    HW131169   3.658   4.532  11.303  0.0911  1.2427 -3.0309
 6569SOL    HW231170   3.564   4.606  11.391  0.4249 -0.1304 -0.2620
 6570SOL     OW31171   1.741   0.564   3.946  0.3425 -0.1813  0.7242
 6570SOL    HW131172   1.711   0.653   3.929  0.7842 -0.8230 -3.2439
 6570SOL    HW231173   1.813   0.586   4.004  0.5929 -0.8165  0.6541
 6571SOL     OW31174   0.785   1.834  16.888 -0.0266  0.1476 -0.0821
 6571SOL    HW131175   0.785   1.928  16.871 -0.9650  0.0131 -0.7811
 6571SOL    HW231176   0.864   1.807  16.840  0.5007 -0.9914  1.4300
 6572SOL     OW31177   2.158   1.866  11.249 -0.4082 -0.3472  0.1558
 6572SOL    HW131178   2.240   1.843  11.292 -0.3936  1.7797  1.2345
 6572SOL    HW231179   2.191   1.860  11.159  0.6687  1.9692  0.4216
 6573SOL     OW31180   3.673   1.530   4.634  0.0994 -0.1501  0.1120
 6573SOL    HW131181   3.637   1.441   4.628 -0.0239 -0.0191 -1.1602
 6573SOL    HW231182   3.764   1.524   4.663  0.1372  0.2977  0.0855
 6574SOL     OW31183   1.657   1.008  13.601 -0.3219  0.1270 -0.3152
 6574SOL    HW131184   1.619   1.090  13.631  0.8006  0.2690  0.7165
 6574SOL    HW231185   1.693   0.975  13.683 -1.9938 -0.8289  0.0316
 6575SOL     OW31186   0.078   2.334  13.256 -0.2673  0.3071 -0.7546
 6575SOL    HW131187   0.077   2.239  13.242 -0.5238  0.3724 -1.1818
 6575SOL    HW231188   0.171   2.355  13.246 -0.9172  1.6856 -3.9655
 6576SOL     OW31189   4.612   1.430  16.695 -0.5608  0.5033  0.6219
 6576SOL    HW131190   4.645   1.507  16.649  2.4859 -0.3696  1.3648
 6576SOL    HW231191   4.662   1.436  16.776 -0.9307  1.1215  0.7999
 6577SOL     OW31192   3.446   1.126   8.311  0.2691 -1.3870 -0.0807
 6577SOL    HW131193   3.373   1.120   8.250 -1.5158  0.5745  1.8556
 6577SOL    HW231194   3.413   1.072   8.383  1.1142  0.2528  1.5609
 6578SOL     OW31195   0.393   1.521   2.554  0.1272  0.1563  0.0839
 6578SOL    HW131196   0.323   1.585   2.538  1.0765  1.9196  2.8227
 6578SOL    HW231197   0.360   1.452   2.497 -1.9354  0.3526  1.0144
 6579SOL     OW31198   0.807   1.376  17.382  0.0391  0.0736  0.1129
 6579SOL    HW131199   0.896   1.364  17.348  0.6035  0.8336  1.2913
 6579SOL    HW231200   0.760   1.332  17.311  0.8339  0.5401 -0.7058
 6580SOL     OW31201   0.635   2.202   5.921  0.4830  0.3895 -0.4180
 6580SOL    HW131202   0.712   2.146   5.914  0.6127  1.1524 -5.1296
 6580SOL    HW231203   0.613   2.212   5.828 -1.6415 -2.2807 -0.2182
 6581SOL     OW31204   4.588   3.417   5.244 -0.3200  0.5588 -0.2008
 6581SOL    HW131205   4.592   3.321   5.250  0.6647  0.6390  0.4857
 6581SOL    HW231206   4.494   3.434   5.244 -0.6098 -1.0474  0.4768
 6582SOL     OW31207   4.527   3.420   8.557  0.2783 -0.0580 -0.2899
 6582SOL    HW131208   4.524   3.420   8.461  0.0061 -0.2242 -0.2822
 6582SOL    HW231209   4.475   3.342   8.575 -1.1568  0.9717 -0.0093
 6583SOL     OW31210   1.966   1.464   4.321  0.5754  0.4489  0.1571
 6583SOL    HW131211   2.038   1.510   4.364  0.1284  0.6491  0.6877
 6583SOL    HW231212   1.890   1.493   4.371 -1.2409 -1.2011 -1.6334
 6584SOL     OW31213   2.833   2.750   8.440 -0.4692 -0.3512  0.2061
 6584SOL    HW131214   2.771   2.688   8.402  0.0785 -0.3022 -0.7720
 6584SOL    HW231215   2.916   2.706   8.420 -0.8612 -0.7497 -0.5440
 6585SOL     OW31216   3.219   0.595  15.114 -0.4116  0.1729 -0.3879
 6585SOL    HW131217   3.260   0.609  15.199 -1.3252  0.1229  0.0596
 6585SOL    HW231218   3.152   0.527  15.116  0.6180 -0.7819  1.2032
 6586SOL     OW31219   2.499   1.869  12.181  0.0116 -0.0718 -0.3912
 6586SOL    HW131220   2.515   1.963  12.167  0.1709  0.4680  3.5061
 6586SOL    HW231221   2.450   1.872  12.263 -0.0752  1.7335 -0.5062
 6587SOL     OW31222   4.099   0.677  14.378 -0.0609 -0.3409  0.3967
 6587SOL    HW131223   4.157   0.741  14.337  1.1981 -2.3270 -0.9258
 6587SOL    HW231224   4.025   0.734  14.400  1.0102  1.0128  0.5128
 6588SOL     OW31225   3.317   4.528   7.055  0.1786  0.2079 -0.8658
 6588SOL    HW131226   3.285   4.441   7.033  0.2308 -0.2556  0.8874
 6588SOL    HW231227   3.359   4.507   7.138  0.4021  1.1059 -0.7475
 6589SOL     OW31228   0.013   4.317   0.365  0.1211  0.1835  0.5249
 6589SOL    HW131229   0.069   4.287   0.436 -1.8180  1.2467  2.4932
 6589SOL    HW231230   4.655   4.298   0.406  0.7721 -0.1402  1.7116
 6590SOL     OW31231   3.943   3.002   5.856  0.0758  0.4811 -0.0958
 6590SOL    HW131232   4.034   3.018   5.831 -0.1186 -0.2864 -1.2944
 6590SOL    HW231233   3.901   2.987   5.771  2.7122 -0.0753 -1.3106
 6591SOL     OW31234   1.731   2.533   5.643  0.4104 -0.0799  0.0020
 6591SOL    HW131235   1.792   2.559   5.574 -1.8140  3.1083 -0.7431
 6591SOL    HW231236   1.791   2.527   5.717 -2.5534  1.1991  2.5268
 6592SOL     OW31237   0.799   1.886  16.432  0.0171  0.1500 -0.7644
 6592SOL    HW131238   0.761   1.798  16.437 -0.4651  0.4377  0.5522
 6592SOL    HW231239   0.744   1.909  16.357 -3.0153  0.9993  1.7233
 6593SOL     OW31240   3.200   1.875   7.194  0.0187 -0.7038  0.2721
 6593SOL    HW131241   3.281   1.823   7.187  0.1758 -0.2254 -1.4524
 6593SOL    HW231242   3.146   1.808   7.236 -0.2469 -0.3182  0.5498
 6594SOL     OW31243   1.578   2.624   1.077 -0.3078 -0.2236  0.3908
 6594SOL    HW131244   1.583   2.534   1.046  2.3386 -0.0530  0.3411
 6594SOL    HW231245   1.506   2.628   1.140  0.6362 -0.6732  1.4713
 6595SOL     OW31246   0.080   1.741   1.734 -0.2453  0.3190 -0.0437
 6595SOL    HW131247   0.016   1.790   1.683 -1.5389 -0.9921  0.3119
 6595SOL    HW231248   0.031   1.695   1.802  0.1525 -0.1725 -0.0860
 6596SOL     OW31249   0.422   3.023   6.550 -0.1893  0.1478 -0.0662
 6596SOL    HW131250   0.332   3.029   6.582 -0.9708 -0.1200 -2.1957
 6596SOL    HW231251   0.469   2.982   6.622 -0.4896  0.4702  0.3107
 6597SOL     OW31252   3.513   2.271   3.596  0.4229 -0.0151  0.4871
 6597SOL    HW131253   3.565   2.237   3.523 -0.6623  1.3139 -0.9016
 6597SOL    HW231254   3.551   2.217   3.665  4.2480 -1.1583 -2.4740
 6598SOL     OW31255   3.529   4.519   2.593 -0.1705  0.9381  0.3747
 6598SOL    HW131256   3.463   4.457   2.623 -0.6719  0.8408 -0.9621
 6598SOL    HW231257   3.522   4.522   2.498  0.1953 -0.4699  0.3063
 6599SOL     OW31258   4.238   2.538   8.851  0.0962  0.0761 -0.1432
 6599SOL    HW131259   4.175   2.586   8.797 -1.0453 -1.5096 -0.2407
 6599SOL    HW231260   4.249   2.606   8.918 -1.6970 -0.6406  0.8853
 6600SOL     OW31261   2.069   3.404   2.961  0.0293 -0.4008 -0.2732
 6600SOL    HW131262   2.004   3.360   2.906  3.2027 -1.5989 -3.0582
 6600SOL    HW231263   2.139   3.340   2.976 -0.5113 -0.8803  0.1826
 6601SOL     OW31264   4.285   3.967  11.022 -0.4850  0.2000  0.1183
 6601SOL    HW131265   4.283   3.927  11.109  0.1289 -3.1345 -1.3937
 6601SOL    HW231266   4.193   3.967  10.997  0.2700  1.6710 -2.5852
 6602SOL     OW31267   1.394   0.662   3.901  0.3886  0.2913  0.3413
 6602SOL    HW131268   1.357   0.705   3.978 -0.9969  0.5908 -0.4842
 6602SOL    HW231269   1.486   0.689   3.903  0.3622  0.4533 -0.8672
 6603SOL     OW31270   2.513   3.416   9.601  0.3726  0.0134  0.1670
 6603SOL    HW131271   2.581   3.432   9.667 -0.2764  0.2030  0.7961
 6603SOL    HW231272   2.579   3.407   9.532  0.3161 -2.5765  0.4528
 6604SOL     OW31273   3.876   3.238  11.093 -0.7168  0.3247 -0.4192
 6604SOL    HW131274   3.855   3.218  11.184 -1.8589 -0.9964 -0.9692
 6604SOL    HW231275   3.803   3.298  11.076 -0.1682  1.5168  1.4133
 6605SOL     OW31276   4.385   3.439   4.799  0.0732 -0.3979 -0.1966
 6605SOL    HW131277   4.464   3.418   4.849  0.8860  0.7242 -0.9909
 6605SOL    HW231278   4.411   3.386   4.724 -0.6856  0.2858 -0.9339
 6606SOL     OW31279   1.974   1.635  15.324 -0.3564 -0.2479  0.4093
 6606SOL    HW131280   1.890   1.598  15.301  0.6515 -1.2702 -1.5773
 6606SOL    HW231281   2.004   1.665  15.238  1.8754 -0.4119  1.1099
 6607SOL     OW31282   1.242   3.856   8.564  0.5371  0.3262 -0.5261
 6607SOL    HW131283   1.244   3.760   8.556  0.9734  0.3388 -0.5607
 6607SOL    HW231284   1.149   3.878   8.560  0.8618  1.5594 -1.2531
 6608SOL     OW31285   0.309   0.966   5.852 -0.3689  0.6317 -0.1952
 6608SOL    HW131286   0.241   1.031   5.870  0.7631  1.1995  1.9956
 6608SOL    HW231287   0.380   1.024   5.826 -0.1244  1.3266  2.0775
 6609SOL     OW31288   3.039   1.280   3.341  0.2722 -0.1301  0.4578
 6609SOL    HW131289   2.970   1.343   3.363  0.4104  0.3788 -0.5422
 6609SOL    HW231290   3.107   1.343   3.364  0.0284 -0.0031  0.8272
 6610SOL     OW31291   1.479   3.471  17.077 -0.2922  0.4139  0.4486
 6610SOL    HW131292   1.537   3.526  17.129 -0.5522 -0.6596  1.8745
 6610SOL    HW231293   1.472   3.405  17.146  4.0148 -1.7484 -1.2102
 6611SOL     OW31294   4.047   3.961  10.899 -0.2824 -0.0159 -0.2600
 6611SOL    HW131295   4.048   3.865  10.908 -1.9159 -0.0541 -0.5584
 6611SOL    HW231296   4.070   3.965  10.806  0.7031  1.2202  0.0325
 6612SOL     OW31297   1.021   1.913  12.243  0.5428  0.7756  0.1238
 6612SOL    HW131298   1.005   1.998  12.285 -2.4346  0.1061  0.3974
 6612SOL    HW231299   1.024   1.862  12.324 -0.4692 -2.0123 -1.5734
 6613SOL     OW31300   0.565   1.878   8.922 -0.1590  0.1326 -0.2904
 6613SOL    HW131301   0.624   1.811   8.957 -0.9940 -0.5165 -0.1296
 6613SOL    HW231302   0.620   1.931   8.864  2.5156 -0.3681  1.8209
 6614SOL     OW31303   0.182   1.469   4.610 -0.2545  0.3374 -0.1416
 6614SOL    HW131304   0.155   1.523   4.684 -1.0312  2.1098 -1.7069
 6614SOL    HW231305   0.276   1.464   4.622 -0.3725 -0.7168  0.3865
 6615SOL     OW31306   2.182   2.865  15.313  0.2621  0.1500 -0.1119
 6615SOL    HW131307   2.112   2.930  15.322  0.4125 -0.0187  2.3079
 6615SOL    HW231308   2.168   2.811  15.391  2.7555 -0.1973  0.0843
 6616SOL     OW31309   2.233   4.578   1.327 -0.7500  0.2591 -0.1923
 6616SOL    HW131310   2.146   4.540   1.317  0.0676 -1.0541 -2.4854
 6616SOL    HW231311   2.232   4.606   1.418 -1.0591 -0.8973  0.1669
 6617SOL     OW31312   2.578   2.364   3.886  0.5044 -0.4054  0.2623
 6617SOL    HW131313   2.603   2.447   3.847 -1.8243  0.6594  1.0268
 6617SOL    HW231314   2.538   2.399   3.966 -0.2997 -1.1294  0.1708
 6618SOL     OW31315   3.045   1.795   4.077 -0.1337  1.0920 -0.2016
 6618SOL    HW131316   3.104   1.850   4.128  0.4029 -0.6447  1.0281
 6618SOL    HW231317   3.047   1.845   3.995 -0.5144  1.9743  0.3194
 6619SOL     OW31318   0.409   2.342   9.161 -0.1517 -0.2012 -0.1710
 6619SOL    HW131319   0.471   2.399   9.206 -0.3910 -1.5665  1.8899
 6619SOL    HW231320   0.379   2.281   9.228  1.0878  1.6274  2.0322
 6620SOL     OW31321   2.796   0.537  11.842  0.5719 -0.4454 -0.1945
 6620SOL    HW131322   2.736   0.593  11.892  0.9087  1.1276 -1.6007
 6620SOL    HW231323   2.735   0.516  11.771  0.6381 -2.4976  0.3484
 6621SOL     OW31324   4.575   4.467  12.474 -0.0157 -0.1310 -0.4152
 6621SOL    HW131325   4.663   4.446  12.444  0.0705  2.0276 -1.6923
 6621SOL    HW231326   4.598   4.508  12.558  1.0701 -0.3510 -0.6106
 6622SOL     OW31327   1.713   1.284   8.769 -0.2174 -0.6388  0.0811
 6622SOL    HW131328   1.755   1.326   8.694  0.6134 -2.4027 -0.4267
 6622SOL    HW231329   1.635   1.336   8.789 -0.7050 -1.2857 -0.1308
 6623SOL     OW31330   0.447   0.939   7.323 -0.0709 -0.5901  0.0825
 6623SOL    HW131331   0.541   0.927   7.329 -0.0259 -0.9397 -1.2467
 6623SOL    HW231332   0.422   0.873   7.388 -0.0214 -2.6934 -2.0299
 6624SOL     OW31333   2.440   1.745  14.564  0.5615  0.2417  0.7729
 6624SOL    HW131334   2.357   1.776  14.528  0.1094 -1.9011 -0.0490
 6624SOL    HW231335   2.475   1.709  14.483  2.1501  2.4430  0.4799
 6625SOL     OW31336   0.638   3.996   8.960  0.3712  0.1938  0.0693
 6625SOL    HW131337   0.553   4.038   8.967 -0.6386 -1.8909  0.4136
 6625SOL    HW231338   0.639   3.942   9.039  2.7338  0.4035  0.2000
 6626SOL     OW31339   1.720   2.813  10.782 -0.1120  0.2163  0.1309
 6626SOL    HW131340   1.683   2.864  10.855  1.3140  1.2768  0.1255
 6626SOL    HW231341   1.798   2.771  10.817 -0.8578 -0.6898  0.6806
 6627SOL     OW31342   1.745   1.915   2.262 -0.8620 -0.2828 -0.0134
 6627SOL    HW131343   1.695   1.957   2.192 -1.9214  0.7850  1.3859
 6627SOL    HW231344   1.711   1.825   2.268  0.4949 -0.8042 -0.1442
 6628SOL     OW31345   1.708   1.969   1.973 -0.3578 -0.1846 -0.0186
 6628SOL    HW131346   1.754   2.048   1.943 -0.0761  0.7496  2.9143
 6628SOL    HW231347   1.745   1.901   1.916 -2.5020 -0.0756 -1.5593
 6629SOL     OW31348   2.558   0.103   7.478 -0.0184 -0.1332  0.2509
 6629SOL    HW131349   2.616   0.034   7.447  0.5206  0.6149 -0.4305
 6629SOL    HW231350   2.549   0.141   7.390  1.8271  1.6891  0.8539
 6630SOL     OW31351   0.036   1.037   0.928  0.7248 -0.0578 -0.4662
 6630SOL    HW131352   0.009   0.948   0.902 -1.4375  0.4906 -0.1242
 6630SOL    HW231353   0.117   1.043   0.877  0.0042  1.7719 -1.3747
 6631SOL     OW31354   0.237   2.035  17.607 -0.2840 -0.1615 -0.0836
 6631SOL    HW131355   0.262   2.103  17.545 -1.6849  0.2658 -0.1600
 6631SOL    HW231356   0.164   1.993  17.562 -2.3543  0.4664  2.6964
 6632SOL     OW31357   0.200   1.671   0.490  0.3037 -0.3135 -0.0838
 6632SOL    HW131358   0.249   1.726   0.429  1.1955 -2.3985 -1.2193
 6632SOL    HW231359   0.119   1.721   0.497 -0.4075 -1.4466 -0.2954
 6633SOL     OW31360   3.059   2.324  12.229  0.3335  0.4098  0.4893
 6633SOL    HW131361   2.980   2.270  12.227  0.3377  0.4559 -0.8456
 6633SOL    HW231362   3.033   2.409  12.191  1.0122 -1.0815 -3.2850
 6634SOL     OW31363   3.109   1.078  14.716 -0.1237 -0.3880 -0.0883
 6634SOL    HW131364   3.091   1.081  14.810  1.8292  0.6341  0.2445
 6634SOL    HW231365   3.188   1.025  14.713  0.8047  0.8716  2.1731
 6635SOL     OW31366   0.625   3.465   5.625 -0.0570 -0.4230  0.2255
 6635SOL    HW131367   0.601   3.439   5.537 -1.3039  1.9705 -0.1429
 6635SOL    HW231368   0.716   3.489   5.610 -0.1076 -0.5452 -0.2463
 6636SOL     OW31369   2.804   0.058   3.593  0.3549 -0.2404  0.2305
 6636SOL    HW131370   2.769   0.102   3.515  0.2453  1.2219  1.0980
 6636SOL    HW231371   2.824   0.142   3.634  0.6818  0.0251 -0.4647
 6637SOL     OW31372   0.401   2.319   5.422 -0.0284 -0.1598  0.3952
 6637SOL    HW131373   0.485   2.311   5.377  0.2563  2.9204  0.4085
 6637SOL    HW231374   0.344   2.264   5.368  0.6499 -1.2583  0.8048
 6638SOL     OW31375   1.902   0.330  14.388 -0.1326 -0.3144 -0.4692
 6638SOL    HW131376   1.994   0.351  14.370 -0.0724 -0.7842 -0.7157
 6638SOL    HW231377   1.870   0.414  14.421 -0.2322 -0.9857  1.1480
 6639SOL     OW31378   3.627   3.358  14.131  0.1676  0.2118  0.1442
 6639SOL    HW131379   3.719   3.340  14.150  0.4929  1.5894 -0.1749
 6639SOL    HW231380   3.629   3.446  14.095  1.1691 -0.7732 -2.2293
 6640SOL     OW31381   3.246   2.712   8.982  0.1398 -0.4113  0.7604
 6640SOL    HW131382   3.221   2.775   8.915  1.3357  3.0017  3.5391
 6640SOL    HW231383   3.165   2.675   9.019  0.1608  0.6631  1.8737
 6641SOL     OW31384   1.905   2.247   8.051  0.4722  0.5002 -0.3268
 6641SOL    HW131385   1.910   2.338   8.023  0.4052  0.9233  1.0114
 6641SOL    HW231386   1.908   2.192   7.973 -1.1184  1.8308 -1.3291
 6642SOL     OW31387   0.094   1.645  11.644  0.4866 -0.4322 -0.1231
 6642SOL    HW131388   0.137   1.672  11.726  0.2237 -0.0592 -0.1066
 6642SOL    HW231389   0.170   1.651  11.586 -1.7624  0.7736 -2.9191
 6643SOL     OW31390   0.355   0.488   6.358  0.3812 -0.1498  0.0563
 6643SOL    HW131391   0.339   0.405   6.314  0.5494 -0.3240  0.3242
 6643SOL    HW231392   0.341   0.460   6.448  1.1070 -0.9105 -0.0738
 6644SOL     OW31393   3.682   1.993  15.672 -0.2614 -0.3208 -0.4286
 6644SOL    HW131394   3.767   1.950  15.670 -0.0534  0.1470 -1.4284
 6644SOL    HW231395   3.697   2.033  15.758  1.6910  1.5490 -1.6566
 6645SOL     OW31396   1.573   1.433   7.366  0.6785  0.0560  0.1380
 6645SOL    HW131397   1.628   1.508   7.347  0.4709  0.0916 -0.3094
 6645SOL    HW231398   1.516   1.439   7.290  0.9636  0.0497 -0.0756
 6646SOL     OW31399   3.793   4.173  17.293 -0.0753 -0.3687  0.2804
 6646SOL    HW131400   3.790   4.150  17.386 -2.1356 -2.3183 -0.2841
 6646SOL    HW231401   3.739   4.252  17.301 -2.2867 -1.8311 -0.1481
 6647SOL     OW31402   3.116   2.924   5.558 -0.4563  0.1135 -0.9074
 6647SOL    HW131403   3.116   2.829   5.557  1.3233  0.0943 -0.1968
 6647SOL    HW231404   3.034   2.938   5.511 -0.4409 -1.5945 -1.4141
 6648SOL     OW31405   1.034   1.190   8.600  0.0886 -0.4559 -0.4230
 6648SOL    HW131406   1.120   1.225   8.575  1.1722 -1.1856  2.2563
 6648SOL    HW231407   0.980   1.220   8.527 -0.7841  0.3179  0.5452
 6649SOL     OW31408   0.312   4.567  12.976  0.1696 -0.7855 -0.2174
 6649SOL    HW131409   0.379   4.568  12.908 -0.4166 -0.6783 -0.7992
 6649SOL    HW231410   0.285   4.658  12.973  0.8709 -0.5842 -0.4684
 6650SOL     OW31411   0.727   1.463  11.738  0.0785  0.1553  0.0781
 6650SOL    HW131412   0.754   1.371  11.737 -0.3649  0.0282 -0.0109
 6650SOL    HW231413   0.807   1.507  11.768  0.0471  0.7876 -0.7624
 6651SOL     OW31414   0.203   4.207   2.815  0.0113  0.2407  0.1443
 6651SOL    HW131415   0.231   4.286   2.769 -0.2691 -1.2067 -2.5273
 6651SOL    HW231416   0.286   4.160   2.824 -1.0661 -2.1018 -1.9332
 6652SOL     OW31417   1.363   0.279  11.952  0.2321 -0.0619  0.0639
 6652SOL    HW131418   1.401   0.353  12.000 -0.0797 -0.4399  0.8940
 6652SOL    HW231419   1.281   0.309  11.913 -0.1418 -0.3073  0.6554
 6653SOL     OW31420   0.140   3.230   9.057 -0.8122 -0.4802  0.2139
 6653SOL    HW131421   0.235   3.237   9.050 -0.5329 -0.9493  3.6164
 6653SOL    HW231422   0.130   3.247   9.150 -1.4313 -1.9010  0.4103
 6654SOL     OW31423   1.715   3.763  13.122  0.2759 -0.3702 -0.2591
 6654SOL    HW131424   1.656   3.698  13.160 -0.9115 -0.1835 -1.7916
 6654SOL    HW231425   1.650   3.810  13.068 -1.3784 -2.1980  0.1306
 6655SOL     OW31426   1.017   3.518   4.399  0.1249  0.2706 -0.0677
 6655SOL    HW131427   1.097   3.491   4.444 -0.5918 -0.2588  0.9077
 6655SOL    HW231428   0.950   3.464   4.442  0.7216  1.0473  1.8414
 6656SOL     OW31429   4.329   3.499  10.331 -0.2211  0.2683 -0.2764
 6656SOL    HW131430   4.373   3.583  10.345  0.7050 -0.3519  0.5031
 6656SOL    HW231431   4.391   3.434  10.365  0.1388  0.7247 -0.0613
 6657SOL     OW31432   4.509   1.111  10.403  0.1973  0.2723 -0.1697
 6657SOL    HW131433   4.428   1.139  10.362 -1.0073 -1.9195  0.6988
 6657SOL    HW231434   4.575   1.162  10.357  1.5695 -3.0979 -1.9473
 6658SOL     OW31435   1.639   2.772   1.882  0.2467  0.1360 -0.6470
 6658SOL    HW131436   1.709   2.791   1.945 -0.3351 -0.3685  0.1566
 6658SOL    HW231437   1.571   2.829   1.919 -1.3570 -2.0794 -0.1432
 6659SOL     OW31438   1.526   1.425   9.372 -0.6311 -0.4660  0.5064
 6659SOL    HW131439   1.561   1.461   9.291 -2.8809  0.4715 -0.0595
 6659SOL    HW231440   1.500   1.336   9.350 -0.2366 -0.1669 -1.1344
 6660SOL     OW31441   0.332   1.108   0.224  0.3290 -0.1894 -0.7427
 6660SOL    HW131442   0.265   1.149   0.278  0.9040 -0.8123  0.4207
 6660SOL    HW231443   0.380   1.066   0.295 -1.4907  1.2839  1.3412
 6661SOL     OW31444   3.060   4.131   8.068  0.5336 -0.2432  0.8362
 6661SOL    HW131445   3.009   4.150   8.147 -0.6171  0.2576 -0.0215
 6661SOL    HW231446   3.067   4.216   8.026  1.0652 -0.2340  0.9480
 6662SOL     OW31447   0.897   2.266   8.735  0.6789 -0.5193 -0.2187
 6662SOL    HW131448   0.874   2.354   8.764 -0.2218 -0.6125 -0.6301
 6662SOL    HW231449   0.834   2.219   8.789  0.5358  1.4015  1.2682
 6663SOL     OW31450   3.846   4.576   8.104  0.0660  0.3773 -0.8392
 6663SOL    HW131451   3.859   4.501   8.162  1.8127  2.3066  1.2608
 6663SOL    HW231452   3.758   4.554   8.073 -0.3630 -1.7199  1.8498
 6664SOL     OW31453   0.543   4.332  11.816  0.1046 -0.4783  0.4502
 6664SOL    HW131454   0.476   4.376  11.869 -1.4158  0.9736 -2.6919
 6664SOL    HW231455   0.491   4.332  11.736 -0.0944 -1.3905  0.5839
 6665SOL     OW31456   4.217   1.470  10.285 -0.0226 -0.4039 -0.0572
 6665SOL    HW131457   4.300   1.511  10.309 -0.0265 -0.5759  0.2455
 6665SOL    HW231458   4.185   1.466  10.375 -0.4653 -0.8878 -0.2341
 6666SOL     OW31459   4.312   3.222   0.197 -0.2119  0.1779  0.1100
 6666SOL    HW131460   4.244   3.157   0.178 -0.8872  0.9750 -0.2151
 6666SOL    HW231461   4.351   3.225   0.109 -1.1467 -0.8778 -0.3351
 6667SOL     OW31462   3.749   1.392   7.134  0.2442 -0.1164 -0.3384
 6667SOL    HW131463   3.734   1.337   7.057 -2.7302 -0.2987  0.3702
 6667SOL    HW231464   3.657   1.404   7.157  0.4536  0.5696  0.1357
 6668SOL     OW31465   1.121   0.069   9.620 -0.2949 -0.3619  0.9010
 6668SOL    HW131466   1.209   0.043   9.592  0.3888 -0.0389  2.7104
 6668SOL    HW231467   1.074   0.086   9.538 -0.0776 -0.2613  0.7968
 6669SOL     OW31468   2.955   1.132   5.022  0.3789  0.2212  0.5550
 6669SOL    HW131469   2.988   1.047   4.994 -0.4514 -0.9351  3.1277
 6669SOL    HW231470   3.039   1.178   5.029  0.1402  0.9625 -1.2341
 6670SOL     OW31471   4.681   0.271   8.030 -0.0508  0.5124 -0.5108
 6670SOL    HW131472   4.650   0.260   7.940 -2.9613 -0.0870  0.5700
 6670SOL    HW231473   4.598   0.292   8.073 -0.5360  2.5763 -2.4050
 6671SOL     OW31474   2.997   2.026  16.370 -0.5564 -0.2637 -0.4068
 6671SOL    HW131475   2.956   2.113  16.369 -0.4184 -0.1796  0.7887
 6671SOL    HW231476   2.945   1.983  16.438  1.3397  0.9859  1.8648
 6672SOL     OW31477   1.021   3.430   4.101  0.2084 -0.2863  0.1214
 6672SOL    HW131478   1.039   3.511   4.148 -0.2370 -0.3918  0.4715
 6672SOL    HW231479   0.928   3.410   4.093 -0.1138  0.7041  1.3867
 6673SOL     OW31480   2.281   0.336   3.008  0.3553  0.5585  0.4819
 6673SOL    HW131481   2.309   0.321   2.917  2.0284  2.0691  0.7566
 6673SOL    HW231482   2.190   0.365   2.999  0.4218  1.0803  1.6060
 6674SOL     OW31483   1.598   1.378  10.488 -0.2902  0.1787 -0.4170
 6674SOL    HW131484   1.607   1.471  10.469  0.8884 -0.1590 -1.5633
 6674SOL    HW231485   1.658   1.345  10.421  0.3266  2.1278 -0.8195
 6675SOL     OW31486   0.037   2.312   9.588 -0.0934  0.5029 -1.0813
 6675SOL    HW131487   0.100   2.279   9.651 -2.4771 -2.0607 -0.0694
 6675SOL    HW231488   0.086   2.366   9.525  1.1246  0.3628 -0.2506
 6676SOL     OW31489   3.932   4.232  15.724 -0.0090  1.1731  0.3260
 6676SOL    HW131490   4.016   4.241  15.769 -0.2135 -1.6132  1.2460
 6676SOL    HW231491   3.894   4.152  15.761  2.3901 -0.7905 -1.4415
 6677SOL     OW31492   3.622   3.701   2.154  0.4930 -0.5169 -0.2682
 6677SOL    HW131493   3.680   3.648   2.209 -0.3877 -0.4255  0.7288
 6677SOL    HW231494   3.672   3.781   2.168 -0.0196 -0.0641 -1.0396
 6678SOL     OW31495   1.470   2.720  10.711  0.0310  0.0254 -0.2654
 6678SOL    HW131496   1.429   2.754  10.791  2.3648 -1.4503  1.5689
 6678SOL    HW231497   1.562   2.739  10.733 -0.3111  0.0543  1.1530
 6679SOL     OW31498   2.261   4.523  17.423  0.2613  0.7537 -0.5749
 6679SOL    HW131499   2.321   4.535  17.497  0.9964  1.3314 -1.2668
 6679SOL    HW231500   2.192   4.470  17.464  0.7859  0.8672  0.4529
 6680SOL     OW31501   1.028   1.248  16.466 -0.0819  0.2620 -0.7788
 6680SOL    HW131502   0.943   1.204  16.471  1.9721 -3.5645  0.5914
 6680SOL    HW231503   1.061   1.228  16.554  0.5991 -0.5286 -1.2227
 6681SOL     OW31504   3.834   1.223   6.497 -0.1130 -0.0396 -1.4237
 6681SOL    HW131505   3.798   1.304   6.534 -1.8442 -1.3962 -0.1773
 6681SOL    HW231506   3.926   1.244   6.477 -0.1294  2.2403  0.8585
 6682SOL     OW31507   0.687   1.836   2.002  0.0955  0.1292 -0.0237
 6682SOL    HW131508   0.723   1.881   1.926 -0.9738 -1.2607 -1.3383
 6682SOL    HW231509   0.739   1.756   2.008  0.4065  0.3073 -0.3673
 6683SOL     OW31510   2.903   1.478  11.403 -0.7522  0.3009 -0.2814
 6683SOL    HW131511   2.859   1.524  11.331 -0.4373  0.4962 -0.3500
 6683SOL    HW231512   2.861   1.394  11.383 -0.1592  0.2801 -1.4306
 6684SOL     OW31513   1.684   0.979   5.086 -0.4776 -0.0362  0.2980
 6684SOL    HW131514   1.682   1.015   4.998  2.1462 -1.3467 -0.2930
 6684SOL    HW231515   1.770   0.938   5.097 -0.1002  0.4792 -0.7467
 6685SOL     OW31516   3.625   0.605   1.549  0.2286 -0.1758 -0.0511
 6685SOL    HW131517   3.533   0.624   1.533 -0.3140 -1.7928  1.1456
 6685SOL    HW231518   3.617   0.524   1.600  0.9029 -0.5280 -0.4997
 6686SOL     OW31519   3.653   2.571   6.436 -0.0271  0.2215 -0.5588
 6686SOL    HW131520   3.624   2.577   6.527 -1.1562  3.7590 -1.1718
 6686SOL    HW231521   3.568   2.569   6.392 -0.7741  2.2932  0.8396
 6687SOL     OW31522   0.233   3.737   4.208  0.8476 -0.0132  0.7408
 6687SOL    HW131523   0.266   3.708   4.293  1.2778  2.2384  1.3357
 6687SOL    HW231524   0.165   3.673   4.189  0.4213  0.9838 -1.2069
 6688SOL     OW31525   0.065   1.706   8.128 -0.7049  1.0901  0.2433
 6688SOL    HW131526   0.152   1.695   8.088 -1.1041  1.0325 -0.6037
 6688SOL    HW231527   0.096   1.711   8.219 -1.2680 -1.2156  0.5562
 6689SOL     OW31528   3.202   0.729   9.037  0.8396  0.3092  0.0628
 6689SOL    HW131529   3.239   0.665   9.098 -1.3802 -0.7791  0.2586
 6689SOL    HW231530   3.201   0.802   9.100  0.3414 -0.8561  1.3855
 6690SOL     OW31531   3.930   0.122   1.615 -0.3457  0.5257 -0.2181
 6690SOL    HW131532   3.929   0.166   1.700  1.5151 -0.6678  0.4464
 6690SOL    HW231533   3.929   0.029   1.640  1.1152 -0.0761 -2.3697
 6691SOL     OW31534   2.305   0.282  10.705 -0.2737 -0.6473 -0.4729
 6691SOL    HW131535   2.335   0.317  10.789  1.7657 -1.9282 -0.6711
 6691SOL    HW231536   2.225   0.332  10.690 -0.2891 -0.7882 -0.8433
 6692SOL     OW31537   3.978   1.215   7.843  0.2144 -0.5962 -0.7047
 6692SOL    HW131538   4.027   1.172   7.773  1.5668  0.9901 -0.7309
 6692SOL    HW231539   4.028   1.294   7.863  2.7926 -2.1320 -1.0505
 6693SOL     OW31540   0.352   3.474   7.746  0.0823 -0.1843 -0.3425
 6693SOL    HW131541   0.269   3.446   7.785  1.2167 -1.0002  1.5050
 6693SOL    HW231542   0.388   3.517   7.823  0.4151 -0.5933 -0.2718
 6694SOL     OW31543   3.459   2.906   8.539 -0.3257 -0.3369 -0.0752
 6694SOL    HW131544   3.463   2.811   8.529 -1.4467 -0.5799  1.7541
 6694SOL    HW231545   3.544   2.934   8.505 -0.5144 -0.9697 -1.0702
 6695SOL     OW31546   2.124   2.955   8.957  0.3883 -0.0925 -0.2669
 6695SOL    HW131547   2.208   2.913   8.940  1.7590  1.8804  1.6726
 6695SOL    HW231548   2.162   3.008   9.028 -0.2327 -0.3540  0.2607
 6696SOL     OW31549   1.817   4.613  11.675  0.3218  0.1268  0.6282
 6696SOL    HW131550   1.903   4.570  11.670  1.8850  3.3759  0.0308
 6696SOL    HW231551   1.762   4.536  11.692  1.1539 -1.0563 -2.0298
 6697SOL     OW31552   3.843   1.302   1.417 -0.0084  0.7615 -0.9182
 6697SOL    HW131553   3.934   1.305   1.444  0.7190 -1.0044 -3.1856
 6697SOL    HW231554   3.797   1.291   1.500  0.8186 -2.2529 -0.8732
 6698SOL     OW31555   3.106   2.477   2.541  0.0678  0.7917 -0.1234
 6698SOL    HW131556   3.089   2.501   2.632  1.6659  2.4307 -0.2610
 6698SOL    HW231557   3.032   2.426   2.508 -0.1586  2.2361 -1.9041
 6699SOL     OW31558   4.219   3.828   9.006  0.5011  0.3212  0.2629
 6699SOL    HW131559   4.135   3.831   9.052 -0.0250  0.0507 -0.6911
 6699SOL    HW231560   4.267   3.793   9.082  0.7091 -0.5706 -0.2857
 6700SOL     OW31561   0.479   4.004  11.861 -0.1453  0.0473 -0.1920
 6700SOL    HW131562   0.546   4.071  11.846 -1.0312  1.4369  2.1429
 6700SOL    HW231563   0.533   3.954  11.923 -0.4212 -0.6063 -0.4886
 6701SOL     OW31564   3.708   2.387  15.855 -0.0375  0.1359  0.1935
 6701SOL    HW131565   3.648   2.411  15.784  0.0302 -0.0501  0.0732
 6701SOL    HW231566   3.666   2.301  15.863 -0.0725  0.0545 -0.9000
 6702SOL     OW31567   4.160   0.060  17.082  0.3193  0.0490  0.7386
 6702SOL    HW131568   4.087   0.119  17.100 -3.4183 -3.6422 -2.3244
 6702SOL    HW231569   4.118   4.717  17.031  0.8902  1.1413 -1.2486
 6703SOL     OW31570   1.063   2.633  14.725  0.3457  0.3716 -1.0038
 6703SOL    HW131571   0.969   2.635  14.744  0.6216  0.0271  0.3390
 6703SOL    HW231572   1.086   2.661  14.813  0.7473  1.4724 -1.4566
 6704SOL     OW31573   2.928   1.891   8.321 -0.7391  0.3734 -0.1603
 6704SOL    HW131574   2.907   1.800   8.344 -0.3003 -0.0609 -1.4678
 6704SOL    HW231575   2.844   1.922   8.286 -1.2331  0.8904  1.4840
 6705SOL     OW31576   2.573   4.639   5.885 -0.2279  0.1948  0.0005
 6705SOL    HW131577   2.594   4.691   5.963  2.4191 -1.1448  0.1669
 6705SOL    HW231578   2.633   4.566   5.897 -2.2434 -1.2228  1.4107
 6706SOL     OW31579   0.998   3.428   8.312  0.4733 -0.0390 -0.1768
 6706SOL    HW131580   0.961   3.352   8.268  0.4055 -1.2566  1.9444
 6706SOL    HW231581   0.935   3.462   8.376 -1.0469 -0.4674 -1.4493
 6707SOL     OW31582   2.126   4.503  11.100 -0.1197 -0.0678  0.1926
 6707SOL    HW131583   2.136   4.559  11.176  2.0759 -0.2683  0.0400
 6707SOL    HW231584   2.208   4.454  11.106 -0.1919 -0.2790 -0.4696
 6708SOL     OW31585   2.367   4.298   1.990 -0.0815 -0.3739  0.1959
 6708SOL    HW131586   2.329   4.325   2.074  0.3277  1.9886 -0.3715
 6708SOL    HW231587   2.331   4.362   1.930  0.3050  1.4718  1.9316
 6709SOL     OW31588   1.747   4.507   1.957 -0.0968 -0.4693 -0.0709
 6709SOL    HW131589   1.713   4.458   1.882  0.2564  0.0792 -0.5909
 6709SOL    HW231590   1.700   4.588   1.936  2.6017  0.3632 -2.9185
 6710SOL     OW31591   4.579   2.705   7.803 -0.3208 -0.1849 -0.4688
 6710SOL    HW131592   4.658   2.734   7.757  0.5568 -1.2219  0.3835
 6710SOL    HW231593   4.584   2.610   7.795  1.8660 -0.1554  0.6175
 6711SOL     OW31594   2.029   0.045   4.327  0.4136  0.1561  0.4778
 6711SOL    HW131595   1.988   0.127   4.300  1.2422  0.9198  1.5175
 6711SOL    HW231596   2.095   0.028   4.261 -0.3088  1.3015 -0.5325
 6712SOL     OW31597   1.611   0.674   6.417 -0.1837  0.1584  0.4245
 6712SOL    HW131598   1.642   0.726   6.343 -1.6327 -0.6580 -0.7570
 6712SOL    HW231599   1.519   0.696   6.402  0.4672  1.9393 -0.8973
 6713SOL     OW31600   1.607   0.326   3.978  0.0074  0.2508 -0.3084
 6713SOL    HW131601   1.664   0.263   3.933 -1.5784 -1.0517 -0.4730
 6713SOL    HW231602   1.644   0.413   3.962 -0.9063  0.8640  0.8712
 6714SOL     OW31603   1.796   3.682   1.957 -0.0214  0.7514  0.0377
 6714SOL    HW131604   1.760   3.728   1.881 -0.5274 -0.9190 -0.7320
 6714SOL    HW231605   1.719   3.636   1.989  0.8119 -0.7345 -0.1101
 6715SOL     OW31606   3.327   3.883   4.243 -0.5235  0.3096  0.7431
 6715SOL    HW131607   3.283   3.968   4.247 -1.6040 -0.3332  2.4444
 6715SOL    HW231608   3.311   3.844   4.329 -0.3030 -2.8188 -0.6463
 6716SOL     OW31609   3.328   2.691   6.787  0.0021 -0.0475 -0.6270
 6716SOL    HW131610   3.329   2.786   6.776 -0.8253  0.4223  3.4338
 6716SOL    HW231611   3.265   2.675   6.857  0.1852 -0.8769 -0.6550
 6717SOL     OW31612   3.948   1.810   5.552 -0.3811  0.1633  0.0363
 6717SOL    HW131613   3.890   1.735   5.568 -1.1017  0.1843 -2.5738
 6717SOL    HW231614   3.882   1.879   5.555 -1.2032 -0.5875 -0.7173
 6718SOL     OW31615   3.023   1.510   5.916  0.0728 -0.6442 -0.2883
 6718SOL    HW131616   3.051   1.419   5.925  0.5783 -0.3505  1.1381
 6718SOL    HW231617   2.955   1.515   5.849  0.0636 -0.7989 -0.2903
 6719SOL     OW31618   0.777   2.253   8.360 -0.1354  0.3140 -0.0043
 6719SOL    HW131619   0.843   2.321   8.375 -3.4021  3.8526 -1.5068
 6719SOL    HW231620   0.703   2.315   8.353  0.4634  0.8473 -1.7294
 6720SOL     OW31621   4.622   0.884   1.855 -0.0652 -0.0902  0.0116
 6720SOL    HW131622   4.638   0.921   1.768 -0.2487  0.2645  0.1289
 6720SOL    HW231623   4.529   0.905   1.864 -0.4545 -1.3626 -1.1441
 6721SOL     OW31624   3.019   1.463   6.307  0.8270 -0.0128  0.4038
 6721SOL    HW131625   3.048   1.548   6.338 -0.1999 -0.0683  1.4845
 6721SOL    HW231626   3.002   1.496   6.218  0.5183 -1.0367  0.0769
 6722SOL     OW31627   3.304   0.207  17.088  0.1823 -0.2003  0.0820
 6722SOL    HW131628   3.220   0.247  17.110 -0.4236 -2.0646  1.2036
 6722SOL    HW231629   3.280   0.114  17.087  1.2156 -0.4766  0.8206
 6723SOL     OW31630   2.259   0.203   6.962 -0.0095 -0.0069  0.0173
 6723SOL    HW131631   2.257   0.124   6.908 -0.3703  0.4137 -0.5830
 6723SOL    HW231632   2.328   0.173   7.021  0.6675  0.1328 -0.7121
 6724SOL     OW31633   3.954   2.448   3.523  0.0826 -0.5224  0.5546
 6724SOL    HW131634   3.931   2.387   3.593 -1.6098 -0.9228 -0.3349
 6724SOL    HW231635   3.969   2.396   3.444  1.4505 -0.9389  1.0961
 6725SOL     OW31636   3.905   4.331   4.252 -0.2535 -0.3088  0.1209
 6725SOL    HW131637   3.872   4.418   4.229 -0.2869 -0.9334 -2.1768
 6725SOL    HW231638   3.869   4.321   4.340 -1.6161 -0.8469 -0.5059
 6726SOL     OW31639   2.263   3.488   5.117  1.1426 -0.0423 -0.3595
 6726SOL    HW131640   2.282   3.403   5.157  0.4372  1.3320  2.8620
 6726SOL    HW231641   2.292   3.549   5.184 -1.1349 -1.5209  1.9733
 6727SOL     OW31642   3.629   0.357   2.177 -1.1317  0.4091 -0.4417
 6727SOL    HW131643   3.646   0.399   2.261 -5.2224 -2.0972  1.5988
 6727SOL    HW231644   3.722   0.349   2.153 -1.4863 -1.1444 -1.2840
 6728SOL     OW31645   2.368   4.626   5.178 -0.0369  0.0773  0.0797
 6728SOL    HW131646   2.395   4.695   5.238  1.1046 -1.1361  0.9675
 6728SOL    HW231647   2.446   4.618   5.123  0.8687  0.4255  1.3064
 6729SOL     OW31648   3.217   3.454   2.754  0.2893 -0.1696 -0.4149
 6729SOL    HW131649   3.311   3.464   2.764  0.1357  0.0533  0.7967
 6729SOL    HW231650   3.218   3.369   2.708  1.5498 -1.7940  2.6225
 6730SOL     OW31651   2.824   0.015   7.403  0.6046  0.2197  0.3085
 6730SOL    HW131652   2.897   4.693   7.442  0.1238 -0.8431 -0.0778
 6730SOL    HW231653   2.846   4.720   7.312  2.5023  0.8793  0.6272
 6731SOL     OW31654   3.253   0.467   0.636  0.1424 -0.0271 -0.3831
 6731SOL    HW131655   3.208   0.412   0.572  0.1555  0.4737 -0.8251
 6731SOL    HW231656   3.338   0.480   0.595  0.0757 -0.7303 -0.7460
 6732SOL     OW31657   2.299   1.416   4.516  0.0563 -0.0560  0.2260
 6732SOL    HW131658   2.363   1.474   4.558  1.7962 -2.6455  1.1598
 6732SOL    HW231659   2.279   1.455   4.431 -0.4151  0.5004  0.5995
 6733SOL     OW31660   4.698   4.132   8.094  0.0826 -0.3962  0.3352
 6733SOL    HW131661   0.039   4.126   8.026  2.6402 -2.9545  3.1366
 6733SOL    HW231662   4.653   4.212   8.065 -1.2095 -0.7764  1.2598
 6734SOL     OW31663   1.716   4.720   7.363 -0.4469 -0.5887 -0.4583
 6734SOL    HW131664   1.682   0.065   7.417  1.1121 -0.7109  0.6824
 6734SOL    HW231665   1.771   4.687   7.434  0.8190  0.5787 -0.9100
 6735SOL     OW31666   3.573   0.145   5.185  0.4566  0.2981 -0.1013
 6735SOL    HW131667   3.600   0.117   5.098  0.9762 -0.3311  0.2652
 6735SOL    HW231668   3.638   0.215   5.196  1.1870 -0.4839  0.5150
 6736SOL     OW31669   3.704   4.228   5.083  0.6963  0.6120  0.1303
 6736SOL    HW131670   3.788   4.260   5.117  1.2096 -2.0526  1.3604
 6736SOL    HW231671   3.674   4.174   5.156  1.5190 -0.5292 -0.3679
 6737SOL     OW31672   0.102   2.403   7.539  0.4454 -0.1562  0.0158
 6737SOL    HW131673   0.031   2.365   7.590 -0.3269  1.8529  0.4350
 6737SOL    HW231674   0.155   2.326   7.519  2.4428  1.2352 -0.1390
 6738SOL     OW31675   1.243   0.192   4.325 -0.6744 -0.1027  0.1865
 6738SOL    HW131676   1.243   0.106   4.282 -0.9523 -0.0593  0.1057
 6738SOL    HW231677   1.300   0.243   4.267 -0.1643 -0.1524  0.6378
 6739SOL     OW31678   1.006   0.466  12.777  0.2329  0.1648 -0.1690
 6739SOL    HW131679   0.997   0.556  12.807 -1.9500  0.9857 -3.3056
 6739SOL    HW231680   1.003   0.480  12.683  1.2530  1.2383 -0.0341
 6740SOL     OW31681   0.177   2.861   8.332 -0.7464  0.2405 -0.1048
 6740SOL    HW131682   0.238   2.932   8.352 -0.7100  0.6003 -1.4815
 6740SOL    HW231683   0.105   2.879   8.392 -1.0257  0.3160 -0.4611
 6741SOL     OW31684   1.636   4.037   1.959 -0.1759  0.1192 -0.1873
 6741SOL    HW131685   1.685   4.077   2.030 -1.1764 -0.0871  0.6148
 6741SOL    HW231686   1.673   4.085   1.885 -0.9939 -0.5816 -1.0599
 6742SOL     OW31687   2.992   3.719  15.824  0.1151 -0.1646 -0.2469
 6742SOL    HW131688   2.942   3.683  15.897  0.5356  1.0403  0.6380
 6742SOL    HW231689   2.991   3.645  15.763 -1.5079 -0.3347 -0.0071
 6743SOL     OW31690   2.211   3.880   4.717  0.0578  0.0361  0.0473
 6743SOL    HW131691   2.287   3.902   4.664 -0.6966  0.5801 -0.8083
 6743SOL    HW231692   2.249   3.812   4.772  1.6502  1.5276  0.8155
 6744SOL     OW31693   0.874   1.109   7.882  0.1706  0.7368 -0.4534
 6744SOL    HW131694   0.799   1.155   7.844 -0.2046  1.7989  1.6070
 6744SOL    HW231695   0.839   1.037   7.934  0.3501  0.2307 -1.0172
 6745SOL     OW31696   0.010   2.238   4.307 -0.3262 -0.0897  0.1922
 6745SOL    HW131697   4.723   2.288   4.227 -1.8946 -1.0163 -0.1371
 6745SOL    HW231698   0.089   2.187   4.293 -1.0956 -1.3256  0.2778
 6746SOL     OW31699   4.331   2.305   4.554  0.1396  0.4357 -0.1701
 6746SOL    HW131700   4.379   2.343   4.628 -2.1517 -0.6782  1.8829
 6746SOL    HW231701   4.390   2.237   4.521  1.1159  0.6527  1.1325
 6747SOL     OW31702   0.336   2.771   5.671  0.2652 -0.4425 -0.0310
 6747SOL    HW131703   0.262   2.744   5.616  0.8479 -1.6099 -0.2413
 6747SOL    HW231704   0.366   2.683   5.695  0.6851  0.4625  2.7398
 6748SOL     OW31705   4.689   4.450  16.707  0.2159 -0.2312 -0.2699
 6748SOL    HW131706   4.612   4.399  16.732  1.4363 -1.4795  0.9714
 6748SOL    HW231707   4.666   4.538  16.737  1.4716  0.2674 -0.7687
 6749SOL     OW31708   1.844   4.227  16.601 -0.0370  0.1875 -0.4171
 6749SOL    HW131709   1.832   4.264  16.688 -0.1099  2.2740 -1.3180
 6749SOL    HW231710   1.753   4.205  16.579 -0.0381 -0.8723  0.6457
 6750SOL     OW31711   2.080   3.384   4.665 -0.4518  0.3978  0.2337
 6750SOL    HW131712   2.033   3.445   4.722  2.2965  2.2217  0.5825
 6750SOL    HW231713   2.131   3.333   4.729  2.4286  2.6243 -0.2661
 6751SOL     OW31714   2.380   1.235  13.787 -0.1285  0.1274  0.4558
 6751SOL    HW131715   2.435   1.171  13.834 -0.4316 -0.4720 -0.0130
 6751SOL    HW231716   2.290   1.204  13.801 -0.6830  0.7197 -1.8088
 6752SOL     OW31717   0.869   1.973  11.092 -0.0507  0.0573 -0.4077
 6752SOL    HW131718   0.804   2.027  11.136  1.4690  0.9427  0.7348
 6752SOL    HW231719   0.904   2.022  11.018  0.1111 -0.0834 -0.4250
 6753SOL     OW31720   2.495   2.525   4.088 -0.1142 -0.4330 -0.3329
 6753SOL    HW131721   2.424   2.568   4.135  0.3949  0.8660 -0.7715
 6753SOL    HW231722   2.538   2.603   4.054 -1.8314  0.5594 -0.1970
 6754SOL     OW31723   4.315   1.957   2.861 -0.4145  0.7195 -0.1208
 6754SOL    HW131724   4.257   1.998   2.797  2.3290  0.9469 -2.4998
 6754SOL    HW231725   4.363   1.900   2.801 -1.3710 -0.6317  0.4139
 6755SOL     OW31726   0.416   1.471   8.139 -0.2041  0.0946 -0.1114
 6755SOL    HW131727   0.430   1.406   8.208 -0.4642  2.1371  1.8768
 6755SOL    HW231728   0.484   1.438   8.080 -0.0364  0.9807 -0.4128
 6756SOL     OW31729   2.065   0.775   7.470  0.3919 -0.3274  0.0092
 6756SOL    HW131730   1.993   0.837   7.454  1.2078  0.4594 -0.6232
 6756SOL    HW231731   2.079   0.747   7.380 -1.7364 -3.4837  0.6537
 6757SOL     OW31732   0.730   2.628   9.577 -0.1155 -0.2116  0.1049
 6757SOL    HW131733   0.736   2.550   9.633  1.0881 -0.7719 -0.7950
 6757SOL    HW231734   0.811   2.618   9.527  0.1459 -2.2000  0.9150
 6758SOL     OW31735   4.537   4.648   4.648  0.1378 -0.1666 -0.2329
 6758SOL    HW131736   4.469   4.679   4.588  1.2829  1.8220 -0.4742
 6758SOL    HW231737   4.620   4.671   4.607 -0.8147  0.6003 -1.7370
 6759SOL     OW31738   1.220   0.415   7.374 -0.0522  0.6818 -0.1876
 6759SOL    HW131739   1.188   0.333   7.410 -1.9487  0.9215 -1.3436
 6759SOL    HW231740   1.176   0.399   7.291 -0.5072  0.4382  0.0974
 6760SOL     OW31741   3.163   3.835  17.167  0.4753  0.5418 -0.0760
 6760SOL    HW131742   3.124   3.790  17.092  0.4306  0.4002  0.0306
 6760SOL    HW231743   3.228   3.888  17.121  2.9304 -4.1415 -2.0740
 6761SOL     OW31744   1.351   2.870   7.970 -0.5940 -0.7163 -0.7375
 6761SOL    HW131745   1.358   2.886   8.064  3.5710  1.0898 -1.3494
 6761SOL    HW231746   1.316   2.952   7.935  0.3756 -0.7011 -1.6877
 6762SOL     OW31747   2.245   0.838   8.593 -0.4801  0.0907  0.6605
 6762SOL    HW131748   2.154   0.809   8.582 -0.0746 -0.9415 -0.0182
 6762SOL    HW231749   2.282   0.822   8.506  0.7359 -1.2028  1.4150
 6763SOL     OW31750   2.533   2.043   8.191  0.4190  0.5952  0.4051
 6763SOL    HW131751   2.571   2.013   8.274 -0.3609 -0.3293  0.4308
 6763SOL    HW231752   2.453   2.087   8.219  1.4373  0.7536  3.0675
 6764SOL     OW31753   1.672   2.484   2.018 -0.2202  0.0251  0.2235
 6764SOL    HW131754   1.693   2.566   1.972 -1.8816  0.1798 -0.2320
 6764SOL    HW231755   1.580   2.472   1.998  0.4200 -2.2846 -1.3231
 6765SOL     OW31756   1.712   4.127   3.084 -0.2129  0.1315  0.3467
 6765SOL    HW131757   1.756   4.163   3.007  1.4691 -2.7458 -0.0173
 6765SOL    HW231758   1.649   4.065   3.047  1.0998 -1.4601  0.7676
 6766SOL     OW31759   4.225   2.786   2.545  0.0035 -0.3792 -0.0999
 6766SOL    HW131760   4.250   2.739   2.465 -0.1766 -1.0521  0.2438
 6766SOL    HW231761   4.133   2.811   2.540  0.1482 -0.1832 -1.9362
 6767SOL     OW31762   3.713   0.525   0.790  0.4925  0.0274  0.1261
 6767SOL    HW131763   3.720   0.449   0.848 -0.8082  0.5279  0.9504
 6767SOL    HW231764   3.774   0.592   0.819  0.6485 -1.3463  3.0449
 6768SOL     OW31765   4.532   0.860  10.303  0.3474  0.0072  0.2148
 6768SOL    HW131766   4.624   0.863  10.329  0.2932 -0.8022  0.4920
 6768SOL    HW231767   4.498   0.935  10.353  2.5530  1.3631 -0.3207
 6769SOL     OW31768   4.644   2.571   6.518  0.0295 -0.0397 -0.2143
 6769SOL    HW131769   4.570   2.622   6.551  0.2702 -0.5163  1.0743
 6769SOL    HW231770   4.675   2.543   6.604 -0.9595  2.8293  1.0553
 6770SOL     OW31771   4.545   1.725  16.098  0.3178 -0.4291  0.2375
 6770SOL    HW131772   4.613   1.777  16.142 -0.5834  1.4333 -0.5487
 6770SOL    HW231773   4.519   1.682  16.179 -0.9598 -0.4328 -0.1726
 6771SOL     OW31774   4.630   1.720   8.422  0.0673  0.0544 -0.5286
 6771SOL    HW131775   4.653   1.643   8.371 -0.2431  1.2518 -2.4457
 6771SOL    HW231776   4.662   1.696   8.509 -0.2249  0.2953 -0.3528
 6772SOL     OW31777   1.815   3.540   9.518  0.4346 -0.2077 -0.0596
 6772SOL    HW131778   1.893   3.542   9.574  0.3540  2.4540 -0.0590
 6772SOL    HW231779   1.752   3.504   9.581 -0.1954  0.7388 -0.1589
 6773SOL     OW31780   3.218   0.029   5.249 -1.0240 -0.0858  0.4875
 6773SOL    HW131781   3.223   0.097   5.181 -1.8873  0.8762  1.3820
 6773SOL    HW231782   3.130   0.056   5.277 -1.3823  0.5925 -1.2584
 6774SOL     OW31783   2.395   4.289  15.446  0.0677  0.6593  0.3909
 6774SOL    HW131784   2.300   4.275  15.444 -0.1199  2.0037 -0.3625
 6774SOL    HW231785   2.404   4.358  15.380 -1.7884  0.2070 -0.3376
 6775SOL     OW31786   0.430   4.105  16.995  0.0257 -0.4898 -0.5039
 6775SOL    HW131787   0.437   4.053  17.075  0.5417 -1.4905 -1.2067
 6775SOL    HW231788   0.484   4.055  16.934 -0.6600 -0.3881 -1.2003
 6776SOL     OW31789   3.584   1.476   9.590 -0.8092 -0.3418  0.3486
 6776SOL    HW131790   3.548   1.395   9.627 -1.6863 -0.9330 -1.7702
 6776SOL    HW231791   3.534   1.464   9.509  0.1322  2.8490 -0.6887
 6777SOL     OW31792   0.030   3.627   9.757 -0.3435 -0.3671  0.2901
 6777SOL    HW131793   0.115   3.584   9.768  0.0524 -0.7025 -4.1435
 6777SOL    HW231794   0.050   3.720   9.748 -0.3045 -0.7007 -2.9718
 6778SOL     OW31795   1.696   2.422  10.658 -0.4543  0.2051 -0.2821
 6778SOL    HW131796   1.685   2.495  10.719 -1.0080  0.6010 -0.8485
 6778SOL    HW231797   1.762   2.464  10.603  0.0980 -0.9497 -0.4799
 6779SOL     OW31798   0.010   1.296   5.298  0.2564 -0.4040  0.7327
 6779SOL    HW131799   0.048   1.254   5.221  2.2668  1.8613  0.4708
 6779SOL    HW231800   0.092   1.327   5.336 -0.9196  1.6132  1.6321
 6780SOL     OW31801   3.473   4.532   6.425 -0.2796 -0.0245  0.6114
 6780SOL    HW131802   3.457   4.448   6.468 -1.5320 -0.5433 -0.8917
 6780SOL    HW231803   3.556   4.509   6.383 -0.0967 -0.0835  1.0064
 6781SOL     OW31804   4.116   1.205   3.447  0.3783  0.0687  0.2351
 6781SOL    HW131805   4.044   1.218   3.509 -0.2081 -0.4675 -0.3342
 6781SOL    HW231806   4.071   1.163   3.374 -0.5221  1.3682  0.0537
 6782SOL     OW31807   1.414   1.252  13.132 -0.0689  0.7811  0.1847
 6782SOL    HW131808   1.381   1.162  13.129  0.9925  0.3401  1.4343
 6782SOL    HW231809   1.482   1.235  13.198  0.5657  3.7691  0.3132
 6783SOL     OW31810   4.677   1.366   6.391 -0.1980  0.1794  0.1990
 6783SOL    HW131811   4.649   1.360   6.483 -1.9990  0.5523 -0.3242
 6783SOL    HW231812   0.024   1.304   6.387  1.9016  2.6315  0.4625
 6784SOL     OW31813   3.564   1.101  13.511 -0.5698 -0.5650 -0.0388
 6784SOL    HW131814   3.516   1.018  13.514 -0.8980 -0.5201 -4.1124
 6784SOL    HW231815   3.491   1.161  13.497 -1.1963 -1.0727  1.0370
 6785SOL     OW31816   3.276   3.933  11.525 -0.1510 -0.3385  1.0342
 6785SOL    HW131817   3.362   3.893  11.540  1.5523  3.1795  0.6646
 6785SOL    HW231818   3.293   4.012  11.474  0.4232 -1.8235 -1.0495
 6786SOL     OW31819   0.189   0.734   4.971  0.7110 -0.3191  0.8507
 6786SOL    HW131820   0.223   0.690   5.048  1.3379 -0.5003  0.4706
 6786SOL    HW231821   0.205   0.827   4.988  1.0094 -0.6164  2.1564
 6787SOL     OW31822   2.605   2.122  12.646  0.0001  0.2196  0.4669
 6787SOL    HW131823   2.543   2.054  12.673  0.7111 -0.2687  0.8547
 6787SOL    HW231824   2.646   2.145  12.728  0.9220 -0.4394  0.1933
 6788SOL     OW31825   3.751   2.383  14.698 -0.3198 -0.3125  0.6842
 6788SOL    HW131826   3.796   2.467  14.711  1.7981 -1.3240 -0.1642
 6788SOL    HW231827   3.771   2.338  14.780  0.2363  1.2036  1.3769
 6789SOL     OW31828   4.574   1.936   8.958 -0.1101 -0.2494 -0.0847
 6789SOL    HW131829   4.587   1.970   8.869 -1.7521 -2.5326 -1.1917
 6789SOL    HW231830   4.525   1.860   8.928 -1.9675  1.1583 -0.6832
 6790SOL     OW31831   0.094   4.449   7.853  0.1915 -0.2395  0.0471
 6790SOL    HW131832   0.099   4.372   7.796 -2.8222 -1.5178  1.4801
 6790SOL    HW231833   0.063   4.518   7.795 -0.0367 -0.0829  0.3545
 6791SOL     OW31834   1.639   1.079  10.193  0.3941  0.4027 -0.3565
 6791SOL    HW131835   1.571   1.147  10.198  2.2444  2.1874  0.6092
 6791SOL    HW231836   1.719   1.132  10.192  0.2347  0.6896  1.4993
 6792SOL     OW31837   2.055   0.095   7.615 -0.3687  0.5000 -0.2333
 6792SOL    HW131838   1.977   0.040   7.614 -1.3154  1.8456 -0.6934
 6792SOL    HW231839   2.072   0.125   7.526 -0.7010  1.2525 -0.0432
 6793SOL     OW31840   0.251   3.581   7.129  0.2775  0.4024  0.4484
 6793SOL    HW131841   0.344   3.571   7.147  0.4507 -0.1975 -0.7916
 6793SOL    HW231842   0.231   3.598   7.037 -1.0476 -0.7738  0.5151
 6794SOL     OW31843   2.647   0.817  16.950  0.4017  0.0219 -0.0449
 6794SOL    HW131844   2.583   0.778  17.010  0.4389 -0.0011 -0.0204
 6794SOL    HW231845   2.593   0.868  16.889  0.7625 -0.6746 -0.9559
 6795SOL     OW31846   1.399   4.627   5.761 -0.1788  0.9806  0.0494
 6795SOL    HW131847   1.322   4.654   5.811 -1.0873  2.2786 -2.0630
 6795SOL    HW231848   1.462   4.686   5.804  1.8561 -0.0517 -1.4992
 6796SOL     OW31849   3.546   2.376   7.585  0.4644  0.0992  0.3566
 6796SOL    HW131850   3.456   2.410   7.584  0.2214 -0.5895 -0.7152
 6796SOL    HW231851   3.540   2.333   7.671  0.4719  1.7796  1.2011
 6797SOL     OW31852   1.515   0.789   8.062 -0.2585 -0.2319  0.2047
 6797SOL    HW131853   1.576   0.853   8.098 -0.8905 -0.0781  0.9988
 6797SOL    HW231854   1.467   0.856   8.013  1.4454  1.4630  0.8465
 6798SOL     OW31855   4.478   4.348   4.456  0.0192  0.2318  0.0378
 6798SOL    HW131856   4.403   4.401   4.428 -1.0696 -2.1474 -1.4772
 6798SOL    HW231857   4.515   4.331   4.370 -0.0818 -0.7106  0.1837
 6799SOL     OW31858   1.902   4.474   7.912  0.0923 -0.2747  0.4274
 6799SOL    HW131859   1.844   4.546   7.889  1.8435  1.4440  1.4003
 6799SOL    HW231860   1.845   4.408   7.952 -1.3988  0.2055 -0.9168
 6800SOL     OW31861   3.135   4.191   2.430  0.2106 -0.2276  0.4870
 6800SOL    HW131862   3.177   4.274   2.453 -0.9305  0.7986 -1.1655
 6800SOL    HW231863   3.209   4.130   2.426  1.1019  0.9034 -0.2027
 6801SOL     OW31864   4.602   1.653   2.476 -0.1357  0.2021  0.4592
 6801SOL    HW131865   4.677   1.596   2.457 -1.6408 -1.2614 -1.0779
 6801SOL    HW231866   4.537   1.585   2.457  0.2196 -0.2690  0.9444
 6802SOL     OW31867   1.864   1.976   7.416 -0.0421  0.3518 -0.4676
 6802SOL    HW131868   1.776   1.962   7.451 -0.3071  0.7652 -0.9637
 6802SOL    HW231869   1.858   1.954   7.323  0.5216 -1.5156 -0.0460
 6803SOL     OW31870   2.284   3.154   9.553 -1.1822 -0.1592  0.1285
 6803SOL    HW131871   2.294   3.229   9.612 -0.6901  0.0784 -0.2547
 6803SOL    HW231872   2.374   3.140   9.522  0.7866  2.3328  4.7144
 6804SOL     OW31873   0.610   2.618   7.401 -0.1748 -0.3382 -0.0865
 6804SOL    HW131874   0.628   2.702   7.443 -1.6634  0.4834 -1.0931
 6804SOL    HW231875   0.580   2.567   7.476  1.1741  0.1233  0.7791
 6805SOL     OW31876   3.449   4.390  15.927 -0.2015  0.3472  0.1805
 6805SOL    HW131877   3.448   4.431  15.840  2.2197  0.3619  0.1441
 6805SOL    HW231878   3.525   4.333  15.914  0.9650  2.1405 -0.9275
 6806SOL     OW31879   3.335   0.969   5.323  0.0360 -0.1057  0.7402
 6806SOL    HW131880   3.245   0.938   5.310 -0.5299  1.1483  1.6102
 6806SOL    HW231881   3.360   1.001   5.236 -1.1919 -0.5012  0.2499
 6807SOL     OW31882   3.126   3.822   3.513 -0.4293  0.0771 -0.5526
 6807SOL    HW131883   3.153   3.899   3.564  1.3218 -1.0926  0.2782
 6807SOL    HW231884   3.134   3.758   3.583 -0.4681  0.1437 -0.4871
 6808SOL     OW31885   2.187   1.889  13.370 -0.6840  0.2586 -0.8940
 6808SOL    HW131886   2.216   1.800  13.389  1.0679  0.5310 -2.3733
 6808SOL    HW231887   2.271   1.933  13.364  1.6085 -3.9501  0.6722
 6809SOL     OW31888   1.104   2.120  11.558  0.1393  0.4278 -0.4091
 6809SOL    HW131889   1.080   2.052  11.494  1.2117 -0.0327 -0.3136
 6809SOL    HW231890   1.019   2.162  11.574 -0.6693 -0.7102 -1.6688
 6810SOL     OW31891   0.146   1.442   5.022 -0.3327  0.1206 -0.1985
 6810SOL    HW131892   0.147   1.348   5.042 -2.0250  0.2140  0.3011
 6810SOL    HW231893   0.141   1.479   5.110 -0.9081 -0.1256 -0.1290
 6811SOL     OW31894   1.584   3.353   6.664 -0.5612 -0.0736  0.9591
 6811SOL    HW131895   1.660   3.408   6.646 -0.9615 -0.5823 -2.3245
 6811SOL    HW231896   1.616   3.268   6.693 -0.5691 -0.1524  0.7361
 6812SOL     OW31897   4.489   3.582   6.885  0.6859  0.2507  0.1255
 6812SOL    HW131898   4.472   3.490   6.869  0.3616  0.0953  1.3532
 6812SOL    HW231899   4.534   3.582   6.969 -0.3402 -1.4302  0.6720
 6813SOL     OW31900   3.306   4.420   0.292 -0.1675 -0.3858 -0.2184
 6813SOL    HW131901   3.214   4.446   0.288 -0.4636 -1.2604  0.9250
 6813SOL    HW231902   3.352   4.476   0.230  0.4406  0.4929  1.0097
 6814SOL     OW31903   3.301   4.328   2.676  0.3641  0.6315 -0.4390
 6814SOL    HW131904   3.270   4.269   2.608  1.8310 -0.0975 -0.4874
 6814SOL    HW231905   3.222   4.380   2.693 -0.3615 -1.0435  1.3506
 6815SOL     OW31906   4.649   1.744   2.149 -0.2532  0.7456  0.2577
 6815SOL    HW131907   4.720   1.689   2.182  0.9374  1.2265 -1.5198
 6815SOL    HW231908   4.622   1.786   2.231 -1.6838  0.7593 -0.2175
 6816SOL     OW31909   0.987   0.826   2.404  0.2149  0.4926 -0.2333
 6816SOL    HW131910   1.003   0.751   2.347  0.7891  1.8974 -1.9271
 6816SOL    HW231911   1.041   0.898   2.372 -0.9360  1.3984 -0.1342
 6817SOL     OW31912   0.772   3.942   4.051  0.0458  0.5294 -0.1569
 6817SOL    HW131913   0.736   3.868   4.100 -1.3718  0.6716 -0.9790
 6817SOL    HW231914   0.765   3.921   3.957  0.9235  0.6853 -0.2640
 6818SOL     OW31915   1.936   3.667   4.787 -0.6032  0.1542  0.0837
 6818SOL    HW131916   1.859   3.664   4.844 -2.3083  1.9187 -2.1608
 6818SOL    HW231917   2.003   3.634   4.847 -0.7332 -4.0058 -1.9981
 6819SOL     OW31918   0.001   2.546   0.024  0.4006 -0.3695  0.6888
 6819SOL    HW131919   4.656   2.489  17.699 -0.4278 -0.1123  2.1529
 6819SOL    HW231920   0.047   2.551  17.645  1.3881 -1.7826  1.1466
 6820SOL     OW31921   0.060   1.001   3.288  0.3282  0.1759 -0.8249
 6820SOL    HW131922   0.007   1.012   3.208 -0.4144 -2.7199 -0.7084
 6820SOL    HW231923   0.138   1.054   3.270  0.7327 -0.9047 -2.2821
 6821SOL     OW31924   3.829   3.886   3.910  0.1509  0.2454 -0.6570
 6821SOL    HW131925   3.882   3.954   3.952  0.3077 -0.1155 -0.2759
 6821SOL    HW231926   3.750   3.938   3.898  1.3500  2.6343  1.6487
 6822SOL     OW31927   1.659   1.766   2.851 -0.1794  0.3097  0.3940
 6822SOL    HW131928   1.701   1.847   2.880  1.5927 -1.6609  3.3147
 6822SOL    HW231929   1.667   1.709   2.928  0.1303  1.1268  0.9596
 6823SOL     OW31930   1.363   1.912  14.924 -0.1261 -0.4116 -0.0786
 6823SOL    HW131931   1.284   1.865  14.899  0.0541 -0.5321 -0.4240
 6823SOL    HW231932   1.339   1.942  15.012  1.5182  1.2029 -0.1771
 6824SOL     OW31933   1.020   1.664   8.127 -0.0471 -0.2024 -0.0108
 6824SOL    HW131934   1.111   1.694   8.126  0.3433 -1.3269  0.9580
 6824SOL    HW231935   0.971   1.729   8.078  0.0008 -0.0695  0.1170
 6825SOL     OW31936   1.435   4.368   4.297  0.1259 -0.2563 -0.5527
 6825SOL    HW131937   1.443   4.376   4.202 -1.9816  0.9856 -0.6186
 6825SOL    HW231938   1.496   4.441   4.312 -2.1970  0.6669  4.4483
 6826SOL     OW31939   2.279   2.788   2.118 -1.0084 -0.6973 -0.1196
 6826SOL    HW131940   2.347   2.794   2.050  1.4965  0.4646  2.4621
 6826SOL    HW231941   2.311   2.705   2.155  0.5465  0.2633  0.7116
 6827SOL     OW31942   4.723   4.323   6.203  0.2125 -0.7324 -0.0528
 6827SOL    HW131943   0.041   4.404   6.178  0.5136 -0.3159  1.8086
 6827SOL    HW231944   0.056   4.257   6.167  1.6373  0.8260 -0.5667
 6828SOL     OW31945   1.008   2.991   2.097  0.1657 -0.3618  0.0988
 6828SOL    HW131946   0.940   2.978   2.163  0.2717  0.5736  0.3856
 6828SOL    HW231947   0.961   3.005   2.015  0.4783  2.3811  0.3758
 6829SOL     OW31948   3.791   0.510   7.133 -0.6594  0.3649 -0.2101
 6829SOL    HW131949   3.727   0.514   7.205 -0.4313  0.5005 -0.0135
 6829SOL    HW231950   3.752   0.436   7.087 -4.6758  1.2320  1.8180
 6830SOL     OW31951   3.985   1.968   3.950  0.7535  0.4304  0.3577
 6830SOL    HW131952   4.013   2.046   3.903 -0.1171  1.1183  0.9700
 6830SOL    HW231953   3.918   1.930   3.894 -1.5621  0.8119  2.8583
 6831SOL     OW31954   4.177   2.365  14.496 -0.4257 -0.2034  0.4685
 6831SOL    HW131955   4.179   2.406  14.583  1.6277  2.0306 -0.6238
 6831SOL    HW231956   4.272   2.364  14.485 -0.5290 -0.0150 -0.4276
 6832SOL     OW31957   1.206   1.332   6.202  0.0202  0.1388 -0.5207
 6832SOL    HW131958   1.249   1.307   6.120 -0.4767  0.7032 -0.9520
 6832SOL    HW231959   1.208   1.246   6.246  0.8300 -0.5875 -1.9805
 6833SOL     OW31960   2.267   0.467  13.924  0.2959 -0.4143  0.1897
 6833SOL    HW131961   2.181   0.489  13.888  0.6350  1.1320  0.3369
 6833SOL    HW231962   2.238   0.402  13.989 -0.2985  2.2815  2.6315
 6834SOL     OW31963   0.049   4.518   6.984  0.2776 -0.1046  0.4097
 6834SOL    HW131964   0.045   4.606   7.021 -2.0450 -0.7550  1.7446
 6834SOL    HW231965   4.700   4.484   7.033  1.3990 -1.4141  1.2180
 6835SOL     OW31966   0.186   1.740  10.848  0.4048 -0.4863 -0.2741
 6835SOL    HW131967   0.118   1.807  10.840 -0.3041 -1.0761  0.7137
 6835SOL    HW231968   0.263   1.795  10.835 -0.0385  0.4671  1.1233
 6836SOL     OW31969   2.672   3.678   3.829 -0.6922  0.0613 -0.0032
 6836SOL    HW131970   2.702   3.589   3.812  1.1674  0.2711  2.0906
 6836SOL    HW231971   2.721   3.724   3.761 -0.3186  2.4249  1.8593
 6837SOL     OW31972   2.295   4.496   8.020  0.3704  0.0008  0.0180
 6837SOL    HW131973   2.304   4.576   8.071  0.3305 -0.3973  0.6574
 6837SOL    HW231974   2.386   4.475   7.998  0.2915 -0.9524  0.6011
 6838SOL     OW31975   0.197   0.811   3.749 -0.2511 -0.0403  0.3615
 6838SOL    HW131976   0.186   0.838   3.658 -0.9700 -1.1638  0.1129
 6838SOL    HW231977   0.166   0.721   3.746 -4.5618  1.3911  1.8055
 6839SOL     OW31978   3.310   3.382   6.367  0.3147  0.3515  0.1996
 6839SOL    HW131979   3.399   3.385   6.332 -0.1799  0.2582 -1.0881
 6839SOL    HW231980   3.305   3.289   6.387  0.9027  0.3541  0.3467
 6840SOL     OW31981   1.381   2.557   4.989 -0.1887  0.2872 -0.2207
 6840SOL    HW131982   1.465   2.510   4.988  0.0128  0.6138  1.2136
 6840SOL    HW231983   1.416   2.646   4.995 -1.1936  0.6153  0.7089
 6841SOL     OW31984   4.456   1.946   8.405 -0.3004 -0.5713 -0.1779
 6841SOL    HW131985   4.511   1.986   8.339  0.8942  0.4090  1.4208
 6841SOL    HW231986   4.510   1.868   8.418  0.1591 -0.5374 -1.9060
 6842SOL     OW31987   2.026   1.959   4.670 -0.3311 -0.5357  0.5320
 6842SOL    HW131988   1.985   2.037   4.633  0.3777 -0.6706 -0.5455
 6842SOL    HW231989   2.110   1.965   4.624 -0.4001 -2.0526  0.1996
 6843SOL     OW31990   0.059   0.086   6.279 -0.0780  0.3664 -0.2986
 6843SOL    HW131991   0.133   0.130   6.238  0.4716 -1.3429 -1.1260
 6843SOL    HW231992   0.001   0.137   6.223  0.3738  1.4441  0.2180
 6844SOL     OW31993   1.907   0.636   4.142  0.1528  0.3593 -0.0011
 6844SOL    HW131994   1.867   0.664   4.224 -0.1372 -2.8320  0.9597
 6844SOL    HW231995   1.995   0.625   4.179 -0.3345 -0.3620  0.9294
 6845SOL     OW31996   3.682   4.701  12.657  0.0603 -0.2764  0.3213
 6845SOL    HW131997   3.704   4.649  12.579  4.1479  1.2093  0.4568
 6845SOL    HW231998   3.654   0.053  12.609 -0.6618 -0.6151  0.1977
 6846SOL     OW31999   4.319   3.233   2.360  0.0752 -0.5536  0.4608
 6846SOL    HW132000   4.286   3.310   2.405 -0.0647  0.3327 -1.1615
 6846SOL    HW232001   4.335   3.164   2.425 -1.6791 -0.4578  0.9965
 6847SOL     OW32002   1.526   2.223   9.920  0.0656  0.2692 -0.1269
 6847SOL    HW132003   1.474   2.300   9.899 -0.1950  0.0729 -0.2008
 6847SOL    HW232004   1.565   2.252  10.002 -1.2309  2.0547 -0.1429
 6848SOL     OW32005   0.757   4.121   0.644  0.0911 -0.5151  0.0833
 6848SOL    HW132006   0.711   4.038   0.657 -0.2984  0.0814  2.4858
 6848SOL    HW232007   0.832   4.095   0.591 -1.0952 -2.8628 -0.4540
 6849SOL     OW32008   1.209   1.715  11.085  0.1072  0.4926 -0.1084
 6849SOL    HW132009   1.165   1.658  11.147  1.1964 -1.6126 -1.2580
 6849SOL    HW232010   1.150   1.715  11.009 -2.6907  1.8980  2.1023
 6850SOL     OW32011   1.737   1.109   3.404 -0.4320  0.1221  0.0775
 6850SOL    HW132012   1.651   1.078   3.432 -0.8036  1.1212  0.0217
 6850SOL    HW232013   1.724   1.106   3.309  2.2100 -0.3017 -0.2793
 6851SOL     OW32014   2.835   3.826  11.682  0.7395  0.5634  0.1509
 6851SOL    HW132015   2.764   3.768  11.654 -1.2647  3.5001 -0.8210
 6851SOL    HW232016   2.868   3.777  11.758  1.0813 -0.2422 -0.5209
 6852SOL     OW32017   3.186   3.807   6.069  0.0496  0.3306 -0.7651
 6852SOL    HW132018   3.244   3.745   6.024  2.0671  1.5276  0.1941
 6852SOL    HW232019   3.102   3.761   6.073  0.2889  0.0212  0.6258
 6853SOL     OW32020   2.654   3.877  13.566 -0.1891  0.2716 -0.8512
 6853SOL    HW132021   2.724   3.876  13.631  0.3174 -0.8695 -1.4045
 6853SOL    HW232022   2.581   3.888  13.626 -1.9872 -3.4390 -2.3072
 6854SOL     OW32023   0.777   3.815   0.516  0.3458 -0.2368 -0.4580
 6854SOL    HW132024   0.705   3.756   0.495  0.3744  0.5306 -2.6748
 6854SOL    HW232025   0.747   3.836   0.604  4.4916 -1.4235  1.2496
 6855SOL     OW32026   3.351   2.943   9.141  0.4659  0.0742 -0.1434
 6855SOL    HW132027   3.350   2.995   9.061 -1.4147  0.3367  0.0470
 6855SOL    HW232028   3.425   2.980   9.189 -0.2160  1.1804  0.0664
 6856SOL     OW32029   0.953   1.098  13.242  0.2878  0.1002 -0.3503
 6856SOL    HW132030   0.989   1.015  13.273  1.7509  1.1094  0.6755
 6856SOL    HW232031   0.973   1.153  13.318  0.3347 -0.5750  0.1294
 6857SOL     OW32032   0.496   2.611   6.919 -0.3097  0.4615 -0.2363
 6857SOL    HW132033   0.525   2.663   6.995  2.2780 -2.3806  0.7074
 6857SOL    HW232034   0.577   2.608   6.869  0.9969 -3.2238  2.1471
 6858SOL     OW32035   3.183   3.749   7.946 -0.0607  0.4950 -0.4731
 6858SOL    HW132036   3.199   3.709   7.860 -2.0816  1.5185 -1.3311
 6858SOL    HW232037   3.221   3.686   8.008  1.8733  0.3621 -1.7967
 6859SOL     OW32038   4.460   3.078   3.169  0.1517 -0.1168  0.0672
 6859SOL    HW132039   4.486   3.095   3.078  1.3568 -2.6916 -0.0676
 6859SOL    HW232040   4.410   3.000   3.145 -0.7145  0.1013  1.2089
 6860SOL     OW32041   4.241   2.370  16.759 -0.3771 -0.0579  0.7821
 6860SOL    HW132042   4.146   2.369  16.742 -0.1768  2.7520 -0.5248
 6860SOL    HW232043   4.268   2.445  16.706 -2.1339 -0.7336 -1.1192
 6861SOL     OW32044   0.802   0.053   5.906 -0.0179  0.4726  0.5319
 6861SOL    HW132045   0.813   4.684   5.896  2.4020  0.5836  2.2718
 6861SOL    HW232046   0.822   0.090   5.820  2.8130 -2.6359 -0.1391
 6862SOL     OW32047   3.659   1.545   3.923 -0.1527  0.5918 -0.6995
 6862SOL    HW132048   3.726   1.490   3.964  0.6363  0.5915 -1.9986
 6862SOL    HW232049   3.606   1.572   3.998 -0.5618 -1.3630 -0.2799
 6863SOL     OW32050   2.376   0.378  10.941  0.0756 -0.1939  0.1080
 6863SOL    HW132051   2.333   0.310  10.992  0.8188  0.1470  1.1791
 6863SOL    HW232052   2.386   0.446  11.007  1.3675 -1.3223  1.0590
 6864SOL     OW32053   1.565   3.967   0.747  0.4817  0.0110  0.3108
 6864SOL    HW132054   1.524   3.973   0.834 -0.2595  0.4387 -0.0654
 6864SOL    HW232055   1.489   3.986   0.692  0.4276 -0.4514  0.2192
 6865SOL     OW32056   2.842   0.897   9.084  0.4339  0.1538  0.3730
 6865SOL    HW132057   2.842   0.803   9.063 -0.2747  0.3434 -0.4597
 6865SOL    HW232058   2.875   0.906   9.174  0.3907  0.2461  0.3798
 6866SOL     OW32059   2.777   2.801   7.656 -0.3466 -0.3902  0.1526
 6866SOL    HW132060   2.734   2.740   7.596 -0.4916  1.5067 -1.6854
 6866SOL    HW232061   2.710   2.868   7.668 -0.8798 -0.5596 -1.7991
 6867SOL     OW32062   0.958   0.742  12.864  0.2472  0.1150  0.4266
 6867SOL    HW132063   0.928   0.762  12.952 -1.9030 -2.5693  0.3095
 6867SOL    HW232064   0.942   0.819  12.809  1.3346 -1.5227 -2.1672
 6868SOL     OW32065   1.319   0.251   3.877  0.1238  0.1500  0.0664
 6868SOL    HW132066   1.310   0.155   3.877 -0.2769  0.1873  1.3241
 6868SOL    HW232067   1.388   0.259   3.943 -0.5139  2.0678  0.4952
 6869SOL     OW32068   3.665   4.569   3.102  0.4985  0.4325  0.2384
 6869SOL    HW132069   3.633   4.479   3.102  1.4310  0.0993  2.6365
 6869SOL    HW232070   3.645   4.588   3.010  2.5821  2.0337  0.0979
 6870SOL     OW32071   3.186   2.906  11.616 -0.1095 -0.4927  0.0391
 6870SOL    HW132072   3.214   2.967  11.548  1.3497  1.1399  2.1203
 6870SOL    HW232073   3.110   2.868  11.571 -0.2854  0.2883 -0.3111
 6871SOL     OW32074   4.707   4.606  10.071  0.2425 -0.0690 -0.2292
 6871SOL    HW132075   4.683   4.687  10.026  0.8844  0.1756 -0.1428
 6871SOL    HW232076   4.673   4.542  10.009  0.2364  0.1367 -0.4398
 6872SOL     OW32077   1.242   1.294  12.691 -0.5129 -0.0225 -0.1594
 6872SOL    HW132078   1.161   1.342  12.678 -0.6009 -0.1452 -0.0593
 6872SOL    HW232079   1.215   1.204  12.672 -1.8658  0.6227 -1.2391
 6873SOL     OW32080   4.567   0.810   0.891  0.6447  0.3723  0.2484
 6873SOL    HW132081   4.562   0.738   0.953 -0.9155  0.0290 -0.2768
 6873SOL    HW232082   4.544   0.885   0.946  0.4110  2.2039 -2.3259
 6874SOL     OW32083   0.987   1.969   7.552 -0.7219 -0.0024  0.1110
 6874SOL    HW132084   1.058   2.032   7.537  2.2994 -2.5955  3.3304
 6874SOL    HW232085   0.986   1.957   7.647  2.2972  0.6856  0.2586
 6875SOL     OW32086   1.245   2.232   8.990  0.0843 -0.5226 -0.3089
 6875SOL    HW132087   1.199   2.241   8.906 -1.8606  1.7778  0.9783
 6875SOL    HW232088   1.194   2.292   9.044 -1.5778 -0.5423 -1.8693
 6876SOL     OW32089   3.715   0.864   5.222  1.1015 -0.0561  0.2803
 6876SOL    HW132090   3.638   0.811   5.200  0.3479  1.3659 -0.5089
 6876SOL    HW232091   3.759   0.861   5.137  0.5173  3.7615 -0.1425
 6877SOL     OW32092   2.071   1.423   5.529  0.7091  0.6317  0.2688
 6877SOL    HW132093   2.135   1.430   5.458  0.5933  2.9197  0.4063
 6877SOL    HW232094   2.031   1.510   5.528  0.3186  0.4366 -1.2020
 6878SOL     OW32095   2.223   1.667   3.228  0.1830 -0.0964 -0.1255
 6878SOL    HW132096   2.208   1.714   3.309 -1.3580 -1.9171  0.6347
 6878SOL    HW232097   2.142   1.686   3.181 -1.3680  0.2709  2.6957
 6879SOL     OW32098   0.213   1.668  17.491  0.2870  0.4400 -0.1905
 6879SOL    HW132099   0.187   1.759  17.473  1.0159  1.0923  1.9997
 6879SOL    HW232100   0.150   1.627  17.432 -0.1949 -0.5689  1.0353
 6880SOL     OW32101   4.694   0.303   5.366 -0.0584  0.2460  0.1495
 6880SOL    HW132102   4.657   0.246   5.298 -1.8575 -1.2271  2.3990
 6880SOL    HW232103   4.618   0.355   5.392  0.1155  0.4354  0.2751
 6881SOL     OW32104   2.693   3.912   7.605 -0.5373  0.1199 -0.2054
 6881SOL    HW132105   2.635   3.970   7.557 -0.6020 -0.3245 -0.6613
 6881SOL    HW232106   2.777   3.926   7.561 -1.6853 -1.1415 -2.8092
 6882SOL     OW32107   1.875   3.851   2.144 -0.3389  0.2311 -0.1299
 6882SOL    HW132108   1.947   3.903   2.109 -0.8103  2.1610  1.7241
 6882SOL    HW232109   1.868   3.790   2.071 -1.5008  2.5278 -1.9502
 6883SOL     OW32110   3.705   3.777   5.722  0.1660  0.3652 -0.5082
 6883SOL    HW132111   3.762   3.852   5.737  1.4904 -0.7565  0.1048
 6883SOL    HW232112   3.717   3.729   5.804 -2.5638  1.2314  0.3748
 6884SOL     OW32113   2.344   1.694  13.484 -0.0417 -0.8407  0.3143
 6884SOL    HW132114   2.433   1.661  13.471  0.4120 -0.2207  1.8617
 6884SOL    HW232115   2.295   1.619  13.515  0.8415 -2.3816 -2.0280
 6885SOL     OW32116   1.039   3.112  10.291 -0.4092  0.0787 -0.0260
 6885SOL    HW132117   1.084   3.138  10.211 -0.3738 -3.4606 -1.1989
 6885SOL    HW232118   1.099   3.040  10.310 -1.6867 -1.0651 -0.2590
 6886SOL     OW32119   3.110   2.412   8.756  0.7232 -0.0656 -0.1475
 6886SOL    HW132120   3.087   2.343   8.820 -1.7393  0.0392 -0.9017
 6886SOL    HW232121   3.103   2.492   8.808 -1.0543  0.9668 -1.9916
 6887SOL     OW32122   0.809   2.118  16.800 -0.3627  0.5435 -0.0262
 6887SOL    HW132123   0.890   2.161  16.827 -0.6600  1.4034 -0.5296
 6887SOL    HW232124   0.811   2.126  16.705  2.3514  1.5603  0.1147
 6888SOL     OW32125   1.928   1.006   8.369 -0.4892 -0.1689 -0.0821
 6888SOL    HW132126   1.914   0.929   8.425 -2.6635 -0.5126 -1.0964
 6888SOL    HW232127   1.971   1.059   8.436 -1.8048  0.0925  0.5525
 6889SOL     OW32128   2.019   4.180   1.296 -0.0760  0.9890 -0.1379
 6889SOL    HW132129   2.091   4.183   1.234  1.6034 -1.9717  1.6326
 6889SOL    HW232130   2.054   4.106   1.346  2.8345  0.8405 -2.4255
 6890SOL     OW32131   4.580   3.723   3.234  0.3504  0.1532  0.3455
 6890SOL    HW132132   4.540   3.666   3.299  0.3555 -0.1160  0.1144
 6890SOL    HW232133   4.560   3.677   3.152  3.2817  0.6304 -0.6433
 6891SOL     OW32134   0.409   2.183   7.579 -0.3412  0.1729 -0.1640
 6891SOL    HW132135   0.345   2.153   7.515  0.4751 -1.4508 -0.2204
 6891SOL    HW232136   0.358   2.210   7.656  1.6748  1.2532  0.7882
 6892SOL     OW32137   3.746   1.956   7.957  0.3936 -0.1923  0.2839
 6892SOL    HW132138   3.760   1.869   7.995 -3.1780 -0.9443 -0.1423
 6892SOL    HW232139   3.674   1.945   7.895 -1.0257  0.3642  1.8218
 6893SOL     OW32140   0.339   1.574   0.733  0.3225  0.1686 -1.0257
 6893SOL    HW132141   0.290   1.623   0.667 -0.7174  1.0532  0.3965
 6893SOL    HW232142   0.380   1.650   0.776  0.7134 -0.4992 -0.2293
 6894SOL     OW32143   2.066   3.670   5.894 -0.0927  0.3141  0.0725
 6894SOL    HW132144   2.057   3.732   5.967  3.5576 -2.1347  2.6152
 6894SOL    HW232145   2.095   3.589   5.936  0.3268  1.9805  3.0085
 6895SOL     OW32146   2.599   0.607  17.488 -0.3284 -0.2105 -0.2750
 6895SOL    HW132147   2.665   0.552  17.445  0.7336 -0.1166  1.2317
 6895SOL    HW232148   2.647   0.689  17.479  0.7845 -0.8000  0.2880
 6896SOL     OW32149   3.935   1.509   6.920  0.4841 -0.2505  0.1311
 6896SOL    HW132150   3.890   1.471   6.995 -0.0613  0.0605 -0.0381
 6896SOL    HW232151   3.926   1.447   6.848  1.4935  2.8741 -2.7194
 6897SOL     OW32152   1.469   0.222   5.600 -0.1678 -0.1204 -0.8369
 6897SOL    HW132153   1.413   0.222   5.521 -0.7583 -0.6487 -0.4197
 6897SOL    HW232154   1.533   0.157   5.572  0.1448  0.1660 -0.7922
 6898SOL     OW32155   1.041   3.756   7.484  0.0899  0.3210 -0.2709
 6898SOL    HW132156   1.075   3.845   7.477  0.0838  0.2372 -1.3833
 6898SOL    HW232157   0.959   3.756   7.436 -0.5655  1.1715  0.8546
 6899SOL     OW32158   2.534   0.581  14.076 -0.1506  0.4611  0.0885
 6899SOL    HW132159   2.459   0.567  14.018 -0.7996 -0.1110  1.0537
 6899SOL    HW232160   2.570   0.660  14.036 -0.0151  0.6543  0.5996
 6900SOL     OW32161   0.156   3.311   4.520 -0.1919 -0.1362 -0.5356
 6900SOL    HW132162   0.172   3.405   4.515 -2.3174  0.1198 -2.1196
 6900SOL    HW232163   0.241   3.287   4.557  0.7651  1.4379 -1.7137
 6901SOL     OW32164   2.279   3.383   8.505 -0.0899 -0.9365 -0.2251
 6901SOL    HW132165   2.267   3.478   8.510 -1.3566 -1.0167 -1.5275
 6901SOL    HW232166   2.278   3.359   8.597  0.6628  2.0886  0.5891
 6902SOL     OW32167   0.616   4.107   2.339  0.7353  0.1974  0.1398
 6902SOL    HW132168   0.559   4.182   2.357  1.3243  0.5547  0.5240
 6902SOL    HW232169   0.650   4.089   2.427 -0.9712 -1.3842  0.4783
 6903SOL     OW32170   2.020   2.658   4.551  0.1513 -0.3693 -0.2589
 6903SOL    HW132171   2.041   2.710   4.474  1.1561  1.2610  1.1233
 6903SOL    HW232172   1.963   2.714   4.603  0.0016 -1.5404  0.8635
 6904SOL     OW32173   3.744   2.510   4.728 -0.2989  0.3405 -0.1115
 6904SOL    HW132174   3.714   2.421   4.746 -0.0391 -0.2469 -2.5810
 6904SOL    HW232175   3.818   2.507   4.789 -1.8736 -0.8356  1.7133
 6905SOL     OW32176   4.066   4.569   5.075  0.3648  0.6362  0.4950
 6905SOL    HW132177   4.132   4.561   5.006 -0.3498 -0.1720 -0.0910
 6905SOL    HW232178   4.125   4.585   5.149  0.7693 -0.6742  0.4472
 6906SOL     OW32179   1.128   0.508   8.859  0.0471  0.1284 -0.0829
 6906SOL    HW132180   1.057   0.455   8.824 -0.3739 -0.4990  1.6981
 6906SOL    HW232181   1.078   0.590   8.864  0.0499 -0.0015  2.3152
 6907SOL     OW32182   2.435   3.545   6.108 -0.0995  0.0063 -0.1236
 6907SOL    HW132183   2.461   3.624   6.059  2.1334  0.0604  1.1325
 6907SOL    HW232184   2.376   3.581   6.175  1.1609  1.3622  0.2657
 6908SOL     OW32185   2.862   0.286   5.465  0.5273  0.1804 -0.6059
 6908SOL    HW132186   2.796   0.272   5.533  0.7993 -0.3164 -0.4461
 6908SOL    HW232187   2.888   0.377   5.484 -1.6359  0.8544 -0.8661
 6909SOL     OW32188   0.799   1.534   5.974 -0.3637 -0.0781 -0.0996
 6909SOL    HW132189   0.753   1.514   5.893  0.0937  0.8874 -0.5951
 6909SOL    HW232190   0.883   1.489   5.968  0.0435  0.4947  1.3082
 6910SOL     OW32191   2.442   3.576   7.922  0.1314  0.5964 -0.1683
 6910SOL    HW132192   2.349   3.555   7.930  0.3153 -0.1581 -0.0847
 6910SOL    HW232193   2.442   3.668   7.894  1.7311  0.6091 -0.1465
 6911SOL     OW32194   2.120   3.238   1.926  0.0315  0.1031 -0.2669
 6911SOL    HW132195   2.090   3.165   1.872  1.1783 -1.5282  1.3076
 6911SOL    HW232196   2.055   3.306   1.908  1.4262  2.2814  2.8642
 6912SOL     OW32197   1.696   0.082   4.483 -0.5761 -0.3371  0.7371
 6912SOL    HW132198   1.711   0.046   4.570  0.8326 -3.7568 -0.9381
 6912SOL    HW232199   1.782   0.103   4.444 -0.0465  0.1171  2.1509
 6913SOL     OW32200   4.245   0.809   2.641 -0.3591  0.3374 -0.5940
 6913SOL    HW132201   4.262   0.795   2.548  0.9565 -0.0283 -0.2907
 6913SOL    HW232202   4.164   0.758   2.643 -1.1514  1.6679  0.8710
 6914SOL     OW32203   1.005   2.753  14.982  0.2817  0.4170  0.3585
 6914SOL    HW132204   0.927   2.800  14.953  0.1348  0.8447  1.4452
 6914SOL    HW232205   0.982   2.718  15.068  0.8729 -0.8355  0.0112
 6915SOL     OW32206   1.261   4.664   6.973  0.0188  0.2350 -0.2269
 6915SOL    HW132207   1.272   4.708   6.889 -0.6232  2.8617  1.0777
 6915SOL    HW232208   1.316   4.587   6.962 -1.6229 -1.0427  0.4527
 6916SOL     OW32209   1.359   0.824   6.372  0.6224  0.5650 -0.2238
 6916SOL    HW132210   1.314   0.903   6.401  0.1754  1.2760 -2.8055
 6916SOL    HW232211   1.352   0.842   6.278 -0.8796  0.3059 -0.1650
 6917SOL     OW32212   1.578   0.060   5.875  0.3406 -0.4110  0.2877
 6917SOL    HW132213   1.626   0.124   5.823  0.1151 -0.2829  0.2387
 6917SOL    HW232214   1.551   0.111   5.951  0.3579 -0.4404  0.3136
 6918SOL     OW32215   2.500   0.846  13.943 -0.0433 -0.6519  0.2867
 6918SOL    HW132216   2.524   0.932  13.908 -2.8579 -0.9161 -2.2498
 6918SOL    HW232217   2.408   0.834  13.918 -0.6296  0.1144  2.0504
 6919SOL     OW32218   0.068   1.141   5.898 -0.1391 -0.4205 -0.0874
 6919SOL    HW132219   0.085   1.188   5.817  0.1734 -0.3914 -0.0050
 6919SOL    HW232220   4.699   1.153   5.891 -0.0072  0.4329 -0.3329
 6920SOL     OW32221   4.149   3.872  16.255  0.4833 -0.1089  0.4195
 6920SOL    HW132222   4.223   3.819  16.226  1.4907  0.2600  2.3042
 6920SOL    HW232223   4.143   3.841  16.346  0.9966  1.1201  0.8694
 6921SOL     OW32224   4.216   3.543   8.457  0.5100  0.1784  0.1154
 6921SOL    HW132225   4.208   3.484   8.533  1.2122 -1.0092 -0.7277
 6921SOL    HW232226   4.241   3.491   8.381 -1.1922 -0.2828 -0.1248
 6922SOL     OW32227   2.739   0.626   6.588 -0.0166  0.0645  0.4275
 6922SOL    HW132228   2.803   0.605   6.656  0.0894 -0.5295  0.1425
 6922SOL    HW232229   2.721   0.720   6.597  0.1764  0.2807 -1.5952
 6923SOL     OW32230   3.227   1.434   2.750  0.3644 -0.0164 -0.4278
 6923SOL    HW132231   3.279   1.401   2.677  1.7685  1.9966 -0.3480
 6923SOL    HW232232   3.141   1.445   2.711 -0.7084 -0.8412  1.6659
 6924SOL     OW32233   4.400   2.679   7.256 -0.0346 -0.2909 -0.1907
 6924SOL    HW132234   4.479   2.625   7.252  0.3167  0.0355  2.5828
 6924SOL    HW232235   4.407   2.710   7.346  1.1643 -0.2851 -0.2885
 6925SOL     OW32236   0.625   4.198  16.628 -0.4088 -0.5979 -0.0079
 6925SOL    HW132237   0.561   4.258  16.669 -0.2824 -1.0131  0.8053
 6925SOL    HW232238   0.693   4.209  16.695 -0.8865 -2.8167  0.8267
 6926SOL     OW32239   1.846   0.475   4.510  0.1152 -0.0541  0.2323
 6926SOL    HW132240   1.757   0.476   4.543 -0.4462 -5.4361 -1.2448
 6926SOL    HW232241   1.872   0.564   4.484 -0.2277  0.5954  2.1160
 6927SOL     OW32242   1.686   1.673   0.780  0.1410 -0.4725  0.5918
 6927SOL    HW132243   1.746   1.616   0.829  1.8273  0.4646 -0.3604
 6927SOL    HW232244   1.634   1.718   0.846 -0.6183 -3.2338  1.8753
 6928SOL     OW32245   2.068   1.519   4.600 -0.5431  0.0391 -0.5047
 6928SOL    HW132246   2.013   1.452   4.642 -0.7301  1.7604  1.9851
 6928SOL    HW232247   2.146   1.469   4.576 -2.2699 -2.4795 -0.9665
 6929SOL     OW32248   0.790   2.844   5.079  0.2767 -0.3311  0.0338
 6929SOL    HW132249   0.809   2.928   5.120  0.9998 -0.9782  1.0118
 6929SOL    HW232250   0.815   2.786   5.150  1.1639 -1.0943 -0.8899
 6930SOL     OW32251   0.504   2.651   6.040 -0.8997 -0.4039 -0.1144
 6930SOL    HW132252   0.539   2.657   6.129 -2.2187  2.1072  0.2115
 6930SOL    HW232253   0.470   2.737   6.017  1.0345  0.2557 -0.4928
 6931SOL     OW32254   1.440   2.395  16.336  0.7115  0.3063  0.0808
 6931SOL    HW132255   1.521   2.356  16.371 -0.2740 -0.7546  1.1733
 6931SOL    HW232256   1.461   2.486  16.314  0.0558  0.6176  0.7427
 6932SOL     OW32257   0.992   2.030  13.645  0.0820  0.0482 -0.1336
 6932SOL    HW132258   0.977   1.942  13.612  2.2960 -0.4901  0.2952
 6932SOL    HW232259   0.915   2.078  13.613 -0.0292  0.6870  1.1025
 6933SOL     OW32260   1.009   1.031   1.984  0.5352 -0.1021  0.2768
 6933SOL    HW132261   0.966   1.055   2.066 -1.1203 -1.3197 -0.2304
 6933SOL    HW232262   0.938   1.031   1.920  1.5403 -0.9170 -0.8398
 6934SOL     OW32263   3.447   2.875   4.759 -0.0619 -0.0643 -0.1366
 6934SOL    HW132264   3.463   2.821   4.682  2.7609 -0.2353  0.5744
 6934SOL    HW232265   3.534   2.884   4.799  0.4132  2.1450 -1.6841
 6935SOL     OW32266   2.406   1.991  16.206 -0.0017 -0.1425 -0.4165
 6935SOL    HW132267   2.357   1.950  16.135  0.7180  0.1066 -1.0529
 6935SOL    HW232268   2.495   1.966  16.182 -0.6465 -2.1581 -0.6999
 6936SOL     OW32269   3.144   0.896   4.354  0.3472  0.7652 -0.2564
 6936SOL    HW132270   3.191   0.860   4.428 -1.2825 -0.7885  0.0296
 6936SOL    HW232271   3.056   0.884   4.390  0.0209 -0.4390 -1.4395
 6937SOL     OW32272   0.003   4.143   2.318  0.2287 -0.0047  0.1652
 6937SOL    HW132273   4.682   4.175   2.395  0.7059  1.0749  0.0100
 6937SOL    HW232274   4.682   4.060   2.310  1.8398 -0.6439 -2.6634
 6938SOL     OW32275   2.055   4.250  13.710  0.2188 -0.0349 -0.4576
 6938SOL    HW132276   1.976   4.241  13.657 -0.6494 -1.6984  1.1029
 6938SOL    HW232277   2.086   4.337  13.684  0.2368 -0.0716 -0.5581
 6939SOL     OW32278   3.624   0.278   2.737  0.5026  0.0773 -0.6906
 6939SOL    HW132279   3.685   0.220   2.783  0.6115 -1.8760 -3.2377
 6939SOL    HW232280   3.584   0.219   2.673 -1.8821  1.2644 -0.2814
 6940SOL     OW32281   3.552   3.369   6.237 -0.1287 -0.1406  0.7104
 6940SOL    HW132282   3.615   3.298   6.230  0.1534  0.2575 -0.8174
 6940SOL    HW232283   3.616   3.439   6.250 -0.8936  0.8190 -0.6804
 6941SOL     OW32284   0.363   2.758   6.330  0.4462 -0.0146  0.5260
 6941SOL    HW132285   0.378   2.663   6.327 -1.1904 -0.1258 -3.2822
 6941SOL    HW232286   0.431   2.802   6.280  0.2910 -0.5490 -0.1595
 6942SOL     OW32287   3.788   0.996   0.625 -0.6105 -0.2676  0.2691
 6942SOL    HW132288   3.863   0.960   0.670  0.8599  1.0348 -1.1376
 6942SOL    HW232289   3.720   0.968   0.686  0.9219 -0.8713  1.6919
 6943SOL     OW32290   4.013   3.392   3.414 -0.0496 -0.2144  0.6040
 6943SOL    HW132291   4.016   3.450   3.490 -0.0395  2.0590 -1.1052
 6943SOL    HW232292   3.945   3.438   3.363 -1.6004 -3.5732 -0.3630
 6944SOL     OW32293   3.656   1.944   4.502  0.3808 -0.1894  0.5861
 6944SOL    HW132294   3.694   2.029   4.523  0.0296 -0.2770  1.5958
 6944SOL    HW232295   3.724   1.884   4.532  1.1236  0.4805  0.2314
 6945SOL     OW32296   1.274   4.156  11.549 -0.3087 -0.5300  0.4170
 6945SOL    HW132297   1.193   4.191  11.511  0.6588 -0.8931 -1.9790
 6945SOL    HW232298   1.268   4.064  11.526 -0.6500 -0.5550  0.6074
 6946SOL     OW32299   4.167   4.547   4.079  0.1411 -0.1376 -0.0762
 6946SOL    HW132300   4.105   4.585   4.017 -0.2699 -0.2725  0.2545
 6946SOL    HW232301   4.155   4.598   4.159  0.2283 -0.3356  0.0624
 6947SOL     OW32302   2.923   4.664   6.807  0.1870 -0.0636  0.1117
 6947SOL    HW132303   2.879   4.603   6.747 -1.6150  1.5129 -0.1939
 6947SOL    HW232304   2.949   4.601   6.875 -1.3171 -1.4668 -0.5896
 6948SOL     OW32305   4.338   4.551  17.554 -0.4720 -0.1862 -0.4593
 6948SOL    HW132306   4.343   4.550  17.459 -0.4386 -1.3046 -0.4520
 6948SOL    HW232307   4.244   4.568  17.560 -0.4365  0.3749 -1.6539
 6949SOL     OW32308   4.639   2.432   3.419  0.0421  0.0649  0.0040
 6949SOL    HW132309   4.656   2.350   3.373 -2.1851  0.9777 -2.3875
 6949SOL    HW232310   4.559   2.463   3.378 -0.3963  0.7881  1.4047
 6950SOL     OW32311   2.205   2.471   4.660  0.4060  0.3553  0.0007
 6950SOL    HW132312   2.121   2.503   4.625  0.0079 -0.0450  0.5970
 6950SOL    HW232313   2.256   2.505   4.586  1.1745 -1.0566 -0.1002
 6951SOL     OW32314   3.830   3.389  12.510  0.5274 -0.2219  0.5580
 6951SOL    HW132315   3.809   3.433  12.428 -2.6895  0.0893  1.5450
 6951SOL    HW232316   3.826   3.297  12.485  1.2813 -0.3291  0.8458
 6952SOL     OW32317   4.223   4.591   5.355 -0.3428 -0.1981  0.1278
 6952SOL    HW132318   4.291   4.556   5.298 -1.3615 -2.2478  0.1724
 6952SOL    HW232319   4.205   4.514   5.409 -2.0955 -0.5573 -0.9717
 6953SOL     OW32320   2.791   1.451   1.897  0.4552 -0.0156  0.5554
 6953SOL    HW132321   2.712   1.453   1.844  0.9339 -3.8205 -0.3108
 6953SOL    HW232322   2.812   1.544   1.896 -1.8673  0.4863 -1.1562
 6954SOL     OW32323   1.781   2.210   1.814 -0.2016  0.3520 -0.5131
 6954SOL    HW132324   1.771   2.281   1.752 -1.5547  0.5867 -0.0253
 6954SOL    HW232325   1.876   2.202   1.823 -0.0794  2.3190  0.0076
 6955SOL     OW32326   4.076   3.192   1.405  1.0576  0.0892 -0.0163
 6955SOL    HW132327   4.134   3.181   1.480  2.0773 -1.4852 -1.0426
 6955SOL    HW232328   4.112   3.273   1.368  1.2643 -0.0589 -0.1421
 6956SOL     OW32329   4.268   3.389   9.191 -0.8330 -0.0560 -0.0427
 6956SOL    HW132330   4.345   3.444   9.178 -1.4267 -0.2304 -4.4494
 6956SOL    HW232331   4.297   3.300   9.170 -2.2253 -0.3779 -0.5540
 6957SOL     OW32332   0.389   1.870  15.109  0.0012  0.0197 -0.1609
 6957SOL    HW132333   0.417   1.873  15.200 -0.3807  1.3136 -0.0798
 6957SOL    HW232334   0.349   1.783  15.108  1.3487 -0.6201  1.8525
 6958SOL     OW32335   1.189   4.232  12.717  0.0895  0.1971  0.7836
 6958SOL    HW132336   1.209   4.311  12.666 -0.0409 -0.3404 -0.1104
 6958SOL    HW232337   1.226   4.258  12.801  2.0553  0.4980 -0.1858
 6959SOL     OW32338   4.533   2.709   8.833  0.2280  0.8540  0.0292
 6959SOL    HW132339   4.472   2.704   8.906 -0.1762 -0.1250 -0.3843
 6959SOL    HW232340   4.624   2.712   8.864  0.5975 -1.0600 -0.8974
 6960SOL     OW32341   2.982   3.861   7.660  0.1473 -0.0182  0.2123
 6960SOL    HW132342   3.077   3.865   7.651 -0.0228  0.6218 -1.3340
 6960SOL    HW232343   2.965   3.777   7.619 -0.0292  0.0746  0.0926
 6961SOL     OW32344   4.565   0.172   1.802 -0.3009  0.0745 -0.5106
 6961SOL    HW132345   4.477   0.154   1.770 -1.2893 -1.2909  3.0054
 6961SOL    HW232346   4.548   0.162   1.895  2.0664 -2.3655 -0.3379
 6962SOL     OW32347   0.182   0.396   3.997 -0.2144  0.3972 -0.0218
 6962SOL    HW132348   0.247   0.446   3.948 -0.5940 -1.9546 -2.9689
 6962SOL    HW232349   0.198   0.307   3.963  1.3184  0.2777  0.9978
 6963SOL     OW32350   0.477   2.378  11.795  0.3509 -0.6370 -0.2139
 6963SOL    HW132351   0.541   2.412  11.858 -0.1741 -1.1783  0.6149
 6963SOL    HW232352   0.499   2.426  11.715 -0.1246 -0.3685 -0.1863
 6964SOL     OW32353   3.051   2.656   5.304  0.0855  0.5447 -0.3866
 6964SOL    HW132354   3.007   2.682   5.222  0.4098  0.1153 -0.6921
 6964SOL    HW232355   3.138   2.690   5.283 -0.4305  2.0568 -0.0956
 6965SOL     OW32356   4.396   1.176   8.245  0.5159  0.3430  0.1323
 6965SOL    HW132357   4.385   1.251   8.186  1.2681 -0.9806 -1.6671
 6965SOL    HW232358   4.488   1.190   8.266  0.3124 -0.8543  1.7723
 6966SOL     OW32359   2.404   0.752  14.409  0.5776  0.2208  0.3278
 6966SOL    HW132360   2.479   0.797  14.449  0.3790 -0.4225  1.4121
 6966SOL    HW232361   2.435   0.665  14.382 -1.4398 -0.1665 -0.7565
 6967SOL     OW32362   3.952   0.350   4.020 -0.5587  0.2208  0.5430
 6967SOL    HW132363   4.011   0.351   3.945 -1.8586  1.9458 -0.4510
 6967SOL    HW232364   3.871   0.314   3.982  0.3888 -2.1372  0.7865
 6968SOL     OW32365   3.088   0.637   1.042 -0.0456  0.0706 -0.6092
 6968SOL    HW132366   3.133   0.638   1.127 -1.1034  1.9637 -0.0873
 6968SOL    HW232367   2.994   0.645   1.055  0.4599  0.8786  2.6824
 6969SOL     OW32368   1.870   0.261   2.782  0.1571  0.3613  0.2512
 6969SOL    HW132369   1.787   0.237   2.741  1.0634  0.2678 -1.5378
 6969SOL    HW232370   1.837   0.314   2.854  0.3987 -0.1461  0.7391
 6970SOL     OW32371   4.597   4.657   5.583 -0.0436  0.0664 -0.7013
 6970SOL    HW132372   4.512   4.693   5.611 -0.0152 -0.8621  0.5973
 6970SOL    HW232373   4.561   4.612   5.507 -1.1506  0.4448 -0.4081
 6971SOL     OW32374   3.175   2.756  15.082 -0.9923 -0.2311 -0.0241
 6971SOL    HW132375   3.270   2.760  15.095 -0.7752  0.3027 -1.7118
 6971SOL    HW232376   3.184   2.684  15.021  0.3493 -1.7554  1.9906
 6972SOL     OW32377   0.836   1.843   2.326  0.2835 -0.0735 -0.0784
 6972SOL    HW132378   0.922   1.815   2.358  1.3803  1.2050 -1.8792
 6972SOL    HW232379   0.850   1.937   2.313 -1.5164  0.3286  0.7778
 6973SOL     OW32380   2.353   2.774   4.748  0.3428  0.3212  0.0522
 6973SOL    HW132381   2.276   2.745   4.796 -0.5893  0.5129 -1.3274
 6973SOL    HW232382   2.387   2.687   4.727  0.2510  0.2838  0.0624
 6974SOL     OW32383   1.514   3.186  11.539 -0.0024  0.2375 -0.7162
 6974SOL    HW132384   1.574   3.260  11.534  0.7175 -0.3209 -0.4680
 6974SOL    HW232385   1.533   3.163  11.448 -0.9672 -0.2396 -0.7962
 6975SOL     OW32386   3.106   2.373  13.257 -0.2823  0.0780 -0.3046
 6975SOL    HW132387   3.091   2.295  13.311  1.3909 -0.5233 -0.7140
 6975SOL    HW232388   3.030   2.425  13.282  0.3852  1.1129 -0.4507
 6976SOL     OW32389   0.058   1.939  17.411  0.1632 -0.1868 -0.2142
 6976SOL    HW132390   4.702   1.892  17.428  0.0086  0.2701  0.3081
 6976SOL    HW232391   0.055   1.950  17.316 -3.2444 -1.3884 -0.2708
 6977SOL     OW32392   1.850   1.074  10.565  0.7739 -0.3051  0.3938
 6977SOL    HW132393   1.845   0.999  10.505 -1.9659 -2.3588  3.2451
 6977SOL    HW232394   1.840   1.146  10.502 -1.5883 -1.7732 -0.9183
 6978SOL     OW32395   3.115   0.192   7.326 -0.1249  0.3671  0.5511
 6978SOL    HW132396   3.056   0.224   7.394 -1.1625  0.4476 -0.4033
 6978SOL    HW232397   3.109   0.256   7.255 -3.2349 -0.1923  0.3376
 6979SOL     OW32398   1.633   3.003  10.503  0.1092  0.6830 -0.8563
 6979SOL    HW132399   1.571   2.946  10.458  2.4067 -0.8968 -2.0093
 6979SOL    HW232400   1.620   2.974  10.594  1.1618 -1.8016 -1.5090
 6980SOL     OW32401   4.046   0.101   2.693  0.0995  0.2276 -0.3802
 6980SOL    HW132402   4.119   0.082   2.752 -0.3113  0.5095  0.2263
 6980SOL    HW232403   4.085   0.157   2.626 -1.2196 -1.8009 -2.8405
 6981SOL     OW32404   3.464   4.504   0.534 -0.2510 -0.2454  0.1943
 6981SOL    HW132405   3.523   4.558   0.481  0.7898 -0.2701  1.3218
 6981SOL    HW232406   3.401   4.469   0.471 -0.7317  3.3234 -1.3054
 6982SOL     OW32407   2.969   1.105  15.032 -1.1443 -0.2045  0.0020
 6982SOL    HW132408   3.049   1.157  15.038  0.5583 -2.7919 -0.6381
 6982SOL    HW232409   2.997   1.023  15.072  0.1717 -0.2228 -0.9514
 6983SOL     OW32410   1.720   4.373   5.191 -0.4876  0.6471  0.4843
 6983SOL    HW132411   1.760   4.326   5.118 -2.1676 -1.4832  0.9046
 6983SOL    HW232412   1.770   4.454   5.193 -0.4428  0.6201  0.4664
 6984SOL     OW32413   0.654   1.875  12.197 -0.0668 -0.3587  0.8591
 6984SOL    HW132414   0.723   1.851  12.135  0.0111 -0.9856  1.1890
 6984SOL    HW232415   0.598   1.923  12.137  0.0730 -1.1742  0.0827
 6985SOL     OW32416   3.344   0.307   3.352  0.1877 -0.2780 -0.4786
 6985SOL    HW132417   3.386   0.374   3.299 -0.3346 -0.6851 -1.4121
 6985SOL    HW232418   3.402   0.297   3.427  0.8023 -1.5203 -1.1131
 6986SOL     OW32419   0.591   0.665  13.126 -0.1410 -0.0749  0.0247
 6986SOL    HW132420   0.500   0.692  13.135 -0.0114  0.7678 -1.2115
 6986SOL    HW232421   0.626   0.747  13.092 -1.2118  0.0738 -0.6980
 6987SOL     OW32422   1.138   1.566   2.862 -0.0023 -0.3580  0.2108
 6987SOL    HW132423   1.091   1.622   2.801 -0.7951  0.0040  1.1599
 6987SOL    HW232424   1.230   1.579   2.839 -0.1123  0.1818  0.0714
 6988SOL     OW32425   4.716   1.300   0.276 -0.1245 -0.4562 -0.5370
 6988SOL    HW132426   4.714   1.395   0.273 -1.2341 -0.4282  1.3267
 6988SOL    HW232427   0.062   1.280   0.337 -1.0547 -1.7983  0.1117
 6989SOL     OW32428   2.371   2.585  16.840  0.6337  0.5022  0.1665
 6989SOL    HW132429   2.320   2.526  16.785  1.6326  0.4936 -0.7486
 6989SOL    HW232430   2.357   2.550  16.928  0.3246 -0.4990 -0.2881
 6990SOL     OW32431   2.607   2.498  12.446  0.0774  0.1044 -0.9804
 6990SOL    HW132432   2.543   2.562  12.478  1.5446  1.0730  0.0242
 6990SOL    HW232433   2.691   2.536  12.471 -1.0791  2.3821 -0.5466
 6991SOL     OW32434   3.938   2.435  15.946  0.1731 -0.1781 -0.1466
 6991SOL    HW132435   3.863   2.413  15.891 -0.0593 -2.6394  1.1360
 6991SOL    HW232436   3.895   2.451  16.030  0.0829  0.4413 -0.3106
 6992SOL     OW32437   2.538   1.279   4.318 -0.0209 -0.0493  0.8394
 6992SOL    HW132438   2.620   1.315   4.350  0.2174  0.2737 -0.1478
 6992SOL    HW232439   2.523   1.327   4.237 -0.3300 -1.2594  0.1651
 6993SOL     OW32440   2.940   3.513   9.104 -0.1533  0.1417 -0.4480
 6993SOL    HW132441   2.897   3.445   9.051 -0.9438  1.5390 -1.6258
 6993SOL    HW232442   2.864   3.570   9.118 -0.5588 -1.0630  2.1634
 6994SOL     OW32443   3.568   3.342   5.528  0.1449  0.3204  0.0517
 6994SOL    HW132444   3.647   3.336   5.474 -1.1783 -1.3608 -1.7298
 6994SOL    HW232445   3.603   3.350   5.616 -1.6906 -0.1851  0.8273
 6995SOL     OW32446   1.165   0.254  12.949 -0.0577  0.6725  0.4179
 6995SOL    HW132447   1.204   0.195  13.013 -1.4597  1.0433  1.6423
 6995SOL    HW232448   1.194   0.224  12.863 -0.7772 -1.8952  1.0799
 6996SOL     OW32449   2.975   2.635  10.149  0.1839  0.0391  0.0326
 6996SOL    HW132450   3.009   2.719  10.117 -0.5239  0.6498  0.8826
 6996SOL    HW232451   2.979   2.574  10.075  0.3012 -2.5134  2.1592
 6997SOL     OW32452   0.335   4.173   9.537 -0.6670  0.0565 -0.3529
 6997SOL    HW132453   0.372   4.251   9.578 -2.3136  0.2629  0.7339
 6997SOL    HW232454   0.332   4.110   9.609 -0.5608  3.2810  2.4681
 6998SOL     OW32455   2.024   3.064   6.517 -0.1915  0.2838  0.0370
 6998SOL    HW132456   2.107   3.108   6.539 -0.0378  1.3154 -2.5511
 6998SOL    HW232457   2.002   3.034   6.605 -0.7213  0.1929 -0.1302
 6999SOL     OW32458   1.010   4.693   0.918 -0.3308 -0.3786 -0.2710
 6999SOL    HW132459   1.024   0.005   1.005  1.3676 -4.0401  1.0574
 6999SOL    HW232460   1.042   0.045   0.871 -2.5438  0.0217 -1.0797
 7000SOL     OW32461   4.103   2.002   8.343  0.2225 -0.2125  0.0676
 7000SOL    HW132462   4.149   2.069   8.394  2.5212 -0.1785 -2.0995
 7000SOL    HW232463   4.103   2.041   8.256 -0.9036  1.1652  0.6656
 7001SOL     OW32464   2.878   2.728   5.036  0.1429  0.3455  0.1424
 7001SOL    HW132465   2.795   2.767   5.062  1.3257  1.0064  2.9194
 7001SOL    HW232466   2.888   2.762   4.947  1.6086  1.3017  0.6720
 7002SOL     OW32467   0.224   3.342   3.596  0.3107 -0.1713 -0.4228
 7002SOL    HW132468   0.157   3.376   3.537 -0.2252 -0.2863  0.1089
 7002SOL    HW232469   0.203   3.248   3.603  0.1366 -0.0203  1.1302
 7003SOL     OW32470   0.694   1.249   7.415 -0.5547 -0.2583 -0.0358
 7003SOL    HW132471   0.774   1.288   7.380  0.3678 -0.9287  1.3190
 7003SOL    HW232472   0.631   1.299   7.364  0.7055  0.7535 -0.5941
 7004SOL     OW32473   4.157   2.357   2.626 -0.1303 -0.5727  0.2280
 7004SOL    HW132474   4.131   2.338   2.535 -0.4286 -0.3979  0.2752
 7004SOL    HW232475   4.243   2.316   2.630  0.6065  1.0403  0.8057
 7005SOL     OW32476   3.471   3.969   4.622  0.0368  0.9264  0.3479
 7005SOL    HW132477   3.429   3.934   4.543  1.0474 -1.5160  0.8792
 7005SOL    HW232478   3.407   4.035   4.645 -2.8856 -2.1406  1.0037
 7006SOL     OW32479   2.071   4.231  11.796 -0.3322 -0.4009 -0.5509
 7006SOL    HW132480   2.100   4.162  11.735  0.2886 -0.8413  0.2466
 7006SOL    HW232481   1.983   4.207  11.826  0.0150 -0.0746  0.7243
 7007SOL     OW32482   2.657   1.011  15.587  0.0337  0.3784 -0.0047
 7007SOL    HW132483   2.635   0.991  15.496  3.1444 -2.2875 -0.2109
 7007SOL    HW232484   2.692   0.924  15.607  0.7172  1.0105  1.5427
 7008SOL     OW32485   2.746   0.671   3.370  0.5438  0.3403 -0.2644
 7008SOL    HW132486   2.724   0.762   3.352  2.4029  0.8030 -0.1714
 7008SOL    HW232487   2.731   0.673   3.465 -2.2262  0.7486 -0.7036
 7009SOL     OW32488   1.910   2.567   3.912  0.2740  0.4540 -0.2456
 7009SOL    HW132489   1.901   2.528   3.826  1.6515  1.5519 -0.8811
 7009SOL    HW232490   1.851   2.640   3.895 -2.3364 -1.6885 -0.3326
 7010SOL     OW32491   0.572   0.245  13.514 -0.5439  0.6243 -0.0155
 7010SOL    HW132492   0.640   0.310  13.498  0.1023  0.1552  0.8282
 7010SOL    HW232493   0.501   0.288  13.563  1.2186  1.2895  1.9670
 7011SOL     OW32494   3.301   3.455   4.304  0.1239 -0.2186  0.8939
 7011SOL    HW132495   3.222   3.503   4.328  1.4353  3.2840 -1.8552
 7011SOL    HW232496   3.276   3.410   4.224  2.2857 -1.9438  1.1830
 7012SOL     OW32497   0.033   3.559   8.728 -0.2049 -0.0481  0.3210
 7012SOL    HW132498   0.119   3.596   8.746  0.9599 -1.8088 -1.6044
 7012SOL    HW232499   4.724   3.600   8.649  0.4892  2.2537  1.2198
 7013SOL     OW32500   2.338   2.978  13.795  0.4009  0.4328  0.0760
 7013SOL    HW132501   2.279   2.940  13.860 -0.5944  1.7550 -0.0551
 7013SOL    HW232502   2.413   2.918  13.788 -0.5227 -0.6655 -0.2802
 7014SOL     OW32503   2.259   0.947   3.000  0.1502  0.5290 -0.3058
 7014SOL    HW132504   2.180   0.937   3.054  1.3649 -1.2146  1.1369
 7014SOL    HW232505   2.300   0.860   3.007  0.4983  0.6104 -1.3751
 7015SOL     OW32506   1.914   1.594   3.553  0.0373 -0.2485  0.0603
 7015SOL    HW132507   1.858   1.522   3.526  1.4498 -1.3580  0.0829
 7015SOL    HW232508   1.887   1.662   3.492  0.1914 -1.5883 -1.4975
 7016SOL     OW32509   3.255   4.333  16.098 -0.4689  0.3140 -0.0224
 7016SOL    HW132510   3.262   4.241  16.069 -3.0781 -0.3350  1.4094
 7016SOL    HW232511   3.313   4.379  16.037 -1.5990  2.0026  0.1998
 7017SOL     OW32512   4.214   3.665   5.272 -0.1224 -0.3705 -0.3391
 7017SOL    HW132513   4.212   3.711   5.356 -2.5539 -1.8692  0.4102
 7017SOL    HW232514   4.139   3.703   5.226 -0.5352  0.2222  0.8396
 7018SOL     OW32515   1.714   3.666   7.801 -0.1261  0.3263 -0.3770
 7018SOL    HW132516   1.702   3.755   7.834  0.5176  0.7891 -1.3963
 7018SOL    HW232517   1.750   3.691   7.716 -0.5538 -1.5144 -1.1034
 7019SOL     OW32518   0.811   4.054   7.753 -0.0847  0.0322  0.4618
 7019SOL    HW132519   0.903   4.078   7.743  0.0737 -1.5269 -1.7807
 7019SOL    HW232520   0.770   4.137   7.728 -0.6340 -0.2331  0.4856
 7020SOL     OW32521   0.076   1.669  17.217 -0.0355  0.4366 -0.4271
 7020SOL    HW132522   4.726   1.616  17.194 -1.1089  1.3349  1.0433
 7020SOL    HW232523   0.141   1.600  17.209 -0.2422  0.3052 -0.9503
 7021SOL     OW32524   3.762   2.047  11.441  0.2204 -0.5088  0.1741
 7021SOL    HW132525   3.702   1.979  11.409  1.7136 -1.4203 -0.7100
 7021SOL    HW232526   3.734   2.120  11.386  1.5157 -0.4712 -0.4300
 7022SOL     OW32527   2.087   2.794   4.304 -0.1468 -0.5911 -0.5535
 7022SOL    HW132528   2.150   2.817   4.372  0.5892 -2.3293 -0.6484
 7022SOL    HW232529   2.056   2.882   4.283 -1.8170 -0.6337  1.8241
 7023SOL     OW32530   3.212   4.069   6.164  0.0855 -0.2368  0.1025
 7023SOL    HW132531   3.196   4.000   6.100 -1.0315  0.0751  0.0535
 7023SOL    HW232532   3.306   4.050   6.160  0.3397  0.7151  1.6406
 7024SOL     OW32533   0.290   1.289   2.409 -0.0725  0.0458 -0.4189
 7024SOL    HW132534   0.326   1.202   2.390  1.9547  0.5485  1.1413
 7024SOL    HW232535   0.256   1.312   2.322 -3.2904 -0.3145  0.7484
 7025SOL     OW32536   1.754   0.453   3.647  0.0552 -0.0140 -0.0204
 7025SOL    HW132537   1.768   0.545   3.626 -0.6429  0.2576  0.7368
 7025SOL    HW232538   1.754   0.412   3.560 -1.1159 -0.7495  0.3319
 7026SOL     OW32539   1.778   1.682   9.065 -0.1955 -0.8341  0.1311
 7026SOL    HW132540   1.713   1.692   8.995  0.3063  1.7544  0.0431
 7026SOL    HW232541   1.817   1.598   9.042  4.5255  1.1500  1.0616
 7027SOL     OW32542   0.153   4.390   2.304 -0.4867 -0.1033 -0.7614
 7027SOL    HW132543   0.122   4.304   2.334  2.0560 -0.3989  1.0378
 7027SOL    HW232544   0.070   4.435   2.317  0.3164  1.2550 -0.3937
 7028SOL     OW32545   1.023   2.787  14.171  0.0154  0.7221  0.3189
 7028SOL    HW132546   0.956   2.775  14.104 -0.5656 -1.4058  1.2729
 7028SOL    HW232547   0.972   2.772  14.250 -1.7476 -0.2808 -1.0140
 7029SOL     OW32548   2.179   2.365   7.245  0.3408  0.2177  0.0872
 7029SOL    HW132549   2.120   2.290   7.254 -0.2530  0.8360  1.3516
 7029SOL    HW232550   2.251   2.351   7.306  0.1589 -1.7417 -0.1340
 7030SOL     OW32551   0.552   0.984   3.015 -0.5818  0.0723 -0.6414
 7030SOL    HW132552   0.522   1.038   2.942 -0.0806 -1.4231 -1.9584
 7030SOL    HW232553   0.643   0.986   2.986 -0.5658  1.2771 -0.5250
 7031SOL     OW32554   2.870   0.309  15.546 -0.3858 -0.1682 -0.9172
 7031SOL    HW132555   2.871   0.275  15.636 -0.9115 -0.3743 -0.9890
 7031SOL    HW232556   2.962   0.308  15.520 -1.1311  0.5439 -3.6111
 7032SOL     OW32557   1.435   3.776  13.346  0.3725 -0.2988 -0.1924
 7032SOL    HW132558   1.462   3.741  13.262  1.1150  1.7347 -0.8115
 7032SOL    HW232559   1.340   3.779  13.339  0.3221  0.0302  0.6363
 7033SOL     OW32560   3.290   0.437  13.159  0.6535  0.8440 -0.1686
 7033SOL    HW132561   3.198   0.463  13.151 -0.7617 -4.2000 -0.1250
 7033SOL    HW232562   3.306   0.385  13.081  2.4995 -0.6746  1.2414
 7034SOL     OW32563   2.171   4.696  16.125 -0.1586  0.0137  0.6121
 7034SOL    HW132564   2.099   4.699  16.062 -0.1883  1.1738  0.7063
 7034SOL    HW232565   2.140   4.629  16.186 -1.0085 -1.5799 -1.5843
 7035SOL     OW32566   1.053   0.486   8.438 -0.0630  0.4652  0.3421
 7035SOL    HW132567   0.962   0.508   8.418  0.4202  1.1643 -1.0704
 7035SOL    HW232568   1.038   0.397   8.471  1.0167  0.1996  0.1025
 7036SOL     OW32569   2.082   1.191  13.831 -0.2753  0.2738 -0.2147
 7036SOL    HW132570   2.056   1.283  13.822  0.6373  0.7855  2.2947
 7036SOL    HW232571   2.081   1.155  13.743 -0.2144  0.1852 -0.1794
 7037SOL     OW32572   2.895   2.266   7.542  0.1224  0.7882 -0.1450
 7037SOL    HW132573   2.955   2.311   7.602  0.2408  0.1245  0.2269
 7037SOL    HW232574   2.925   2.176   7.541 -1.0598  0.3892  0.3322
 7038SOL     OW32575   3.526   1.007   1.944  0.0645  0.1374 -0.3811
 7038SOL    HW132576   3.544   0.935   2.004 -0.8475  0.4233  0.2298
 7038SOL    HW232577   3.478   0.966   1.872  1.1415 -1.5550 -0.1510
 7039SOL     OW32578   0.677   1.803   4.304 -0.2774 -0.6367 -0.7785
 7039SOL    HW132579   0.656   1.822   4.212  1.4208 -2.8213 -1.6145
 7039SOL    HW232580   0.679   1.890   4.344 -4.3307  0.0744 -2.1048
 7040SOL     OW32581   4.046   4.134  13.668 -0.2983 -0.0792  0.4535
 7040SOL    HW132582   3.997   4.192  13.726  0.1661 -1.0612  1.8432
 7040SOL    HW232583   4.120   4.194  13.659 -0.8422  0.7653  1.5587
 7041SOL     OW32584   0.663   1.661   2.224  0.1410  0.2315  0.0595
 7041SOL    HW132585   0.741   1.605   2.229 -0.1502 -0.2274 -0.5820
 7041SOL    HW232586   0.705   1.744   2.246  1.4713 -0.8948  1.8369
 7042SOL     OW32587   4.139   0.218   2.192  0.1574 -0.4973  0.0818
 7042SOL    HW132588   4.166   0.156   2.261 -0.4660 -0.2944  0.5150
 7042SOL    HW232589   4.167   0.165   2.117  0.0775  0.1517 -0.4005
 7043SOL     OW32590   4.089   3.912  16.999  0.2107 -0.1435 -0.2337
 7043SOL    HW132591   4.137   3.995  16.998  1.0546 -0.6221  1.4193
 7043SOL    HW232592   4.005   3.942  17.035  0.3999  0.0662  0.0367
 7044SOL     OW32593   1.910   1.775  10.308 -0.1668 -0.1930 -0.8450
 7044SOL    HW132594   1.927   1.864  10.276 -2.7570  0.4586 -0.4311
 7044SOL    HW232595   1.892   1.794  10.400 -0.2163  0.4677 -0.9925
 7045SOL     OW32596   2.197   3.956   1.688 -0.1596  0.4436 -0.3447
 7045SOL    HW132597   2.238   4.040   1.707  0.1655  0.8362 -2.7464
 7045SOL    HW232598   2.105   3.981   1.674  0.0439  1.2079 -0.3133
 7046SOL     OW32599   1.067   0.170   7.354  0.1736  0.6067  0.4198
 7046SOL    HW132600   1.028   0.109   7.291 -1.7337 -0.4112  2.5708
 7046SOL    HW232601   0.992   0.221   7.383  0.8430  0.6934  1.9702
 7047SOL     OW32602   4.364   2.007   1.844  0.1105  0.1349 -0.6480
 7047SOL    HW132603   4.346   1.927   1.893 -0.8315 -0.8511 -2.6012
 7047SOL    HW232604   4.416   1.981   1.768  2.2252  2.7453 -0.1041
 7048SOL     OW32605   3.027   2.931   7.568  0.4305 -0.3534  0.8491
 7048SOL    HW132606   3.047   2.872   7.495 -1.6987 -0.9319  0.7269
 7048SOL    HW232607   2.952   2.883   7.604  0.2880 -1.3735 -0.7672
 7049SOL     OW32608   4.247   3.238   2.761  0.2909 -0.4002  0.7539
 7049SOL    HW132609   4.168   3.215   2.809  0.8375 -1.3700  1.1880
 7049SOL    HW232610   4.303   3.160   2.764 -0.6102 -1.0647  0.3735
 7050SOL     OW32611   3.573   4.382   4.274 -0.3319  0.6002 -0.5687
 7050SOL    HW132612   3.539   4.465   4.308 -1.6342 -0.5218  0.8735
 7050SOL    HW232613   3.653   4.415   4.234  0.1428 -0.1541 -0.2463
 7051SOL     OW32614   1.425   0.650   3.292 -0.3989 -0.4459  1.2542
 7051SOL    HW132615   1.451   0.621   3.379  0.7412  1.7185  1.6463
 7051SOL    HW232616   1.472   0.733   3.287  0.1865 -0.9222 -0.7550
 7052SOL     OW32617   4.300   0.485   6.338 -0.0776  0.4225 -0.1916
 7052SOL    HW132618   4.242   0.513   6.409  1.1114 -1.7504  1.6544
 7052SOL    HW232619   4.361   0.424   6.381 -1.5666  0.3159  1.7532
 7053SOL     OW32620   1.389   0.340   0.710  0.1784  0.1471 -0.2592
 7053SOL    HW132621   1.315   0.328   0.651 -0.1290  2.0045 -0.2474
 7053SOL    HW232622   1.458   0.376   0.655  1.5249  0.2589  1.5277
 7054SOL     OW32623   3.272   3.430   5.575 -0.4625 -0.0436 -0.4805
 7054SOL    HW132624   3.272   3.407   5.668  0.5381  1.2703 -0.1707
 7054SOL    HW232625   3.356   3.390   5.554 -3.6336 -3.9444 -5.7035
 7055SOL     OW32626   3.097   1.428   7.071 -0.7099 -0.5360  0.1058
 7055SOL    HW132627   3.143   1.397   6.993  0.1960  2.6198 -0.6178
 7055SOL    HW232628   3.053   1.508   7.042 -2.4918 -1.5222  0.1195
 7056SOL     OW32629   1.145   3.343   8.582 -0.0756 -0.3754 -0.0597
 7056SOL    HW132630   1.142   3.363   8.489  0.5173  0.9862  0.2155
 7056SOL    HW232631   1.056   3.318   8.609 -0.9180  2.1179 -0.5498
 7057SOL     OW32632   2.641   2.389   8.895  0.2315  0.3092 -0.6018
 7057SOL    HW132633   2.702   2.426   8.958 -3.2211  0.9725  2.3374
 7057SOL    HW232634   2.661   2.295   8.904  0.4113  0.4261  0.2785
 7058SOL     OW32635   2.196   2.618   8.427 -0.2749  0.1522  0.3556
 7058SOL    HW132636   2.108   2.582   8.417 -1.2375  1.7286  3.1607
 7058SOL    HW232637   2.229   2.628   8.338  2.7728 -0.1751  1.4736
 7059SOL     OW32638   0.384   2.022   0.999 -0.1991 -0.2766  0.3095
 7059SOL    HW132639   0.403   2.006   1.091 -0.0871 -0.8738  0.1823
 7059SOL    HW232640   0.326   2.098   1.002 -0.8401 -0.6152 -3.4305
 7060SOL     OW32641   4.724   3.642   6.472 -0.2922 -0.1936  0.5160
 7060SOL    HW132642   0.004   3.592   6.553 -1.1859  0.9477  1.2854
 7060SOL    HW232643   0.057   3.714   6.497  0.2784 -1.4718  2.8298
 7061SOL     OW32644   3.173   2.589   6.990 -0.1586 -0.1702  0.5303
 7061SOL    HW132645   3.099   2.547   7.034  0.9971 -1.1258  1.5733
 7061SOL    HW232646   3.214   2.511   6.954 -2.0010 -2.0121  2.4385
 7062SOL     OW32647   3.442   0.347  11.765  0.3594  0.3152 -0.0998
 7062SOL    HW132648   3.443   0.254  11.791 -0.5621  0.5896  0.9480
 7062SOL    HW232649   3.431   0.328  11.672 -1.6421 -1.8256  0.5781
 7063SOL     OW32650   4.394   0.656   2.109  0.1546 -0.3633 -0.7874
 7063SOL    HW132651   4.481   0.644   2.071 -0.0860  0.2398 -1.5228
 7063SOL    HW232652   4.370   0.563   2.113  0.9739 -0.5598 -0.4199
 7064SOL     OW32653   1.987   1.124  13.564  0.1856 -0.2258 -0.3968
 7064SOL    HW132654   1.902   1.081  13.573 -0.0253  0.2298 -0.2059
 7064SOL    HW232655   1.994   1.135  13.469 -1.6340  1.5275 -0.3206
 7065SOL     OW32656   2.520   1.868   5.280 -0.5614  0.2413 -0.3168
 7065SOL    HW132657   2.580   1.860   5.354  2.2649 -1.2055 -2.7684
 7065SOL    HW232658   2.518   1.777   5.249 -0.2646 -0.1075  0.6576
 7066SOL     OW32659   0.060   4.579   3.440 -1.4524 -0.1159 -0.6123
 7066SOL    HW132660   4.719   4.647   3.436 -1.9274 -0.5317  0.1701
 7066SOL    HW232661   0.018   4.509   3.491  1.0416 -0.4377  0.9748
 7067SOL     OW32662   1.630   4.006  11.364 -0.0318 -0.5129  0.4955
 7067SOL    HW132663   1.593   4.090  11.391 -1.5149 -0.5620 -1.3307
 7067SOL    HW232664   1.696   4.037  11.301  2.3531 -3.0191  1.7406
 7068SOL     OW32665   0.129   4.260  15.322  0.2476  0.4752 -0.0276
 7068SOL    HW132666   0.128   4.313  15.402 -0.7416 -0.1462  0.3663
 7068SOL    HW232667   0.107   4.175  15.360 -2.1781  0.9622 -0.3461
 7069SOL     OW32668   2.799   1.521   6.587  0.6103  0.3948 -0.6659
 7069SOL    HW132669   2.769   1.533   6.497 -1.0122 -1.8735 -0.4227
 7069SOL    HW232670   2.790   1.426   6.595  0.5432  0.3368 -1.4531
 7070SOL     OW32671   3.771   0.078   2.871 -0.4852 -0.2469  0.1014
 7070SOL    HW132672   3.843   0.086   2.809 -1.3326 -0.3639 -0.8899
 7070SOL    HW232673   3.751   4.711   2.869  2.0292 -0.8036  0.0745
 7071SOL     OW32674   0.235   0.661   5.259  0.3660 -0.0214 -0.3797
 7071SOL    HW132675   0.307   0.699   5.310 -0.8089 -0.8747  1.9032
 7071SOL    HW232676   0.242   0.566   5.273 -0.3975 -0.2236 -1.3462
 7072SOL     OW32677   0.434   0.225   3.316  0.0377 -0.0363 -0.0450
 7072SOL    HW132678   0.522   0.200   3.343  0.5898  0.7135 -1.1590
 7072SOL    HW232679   0.392   0.221   3.402 -0.8285  3.2356 -0.3199
 7073SOL     OW32680   1.473   3.482   4.365  0.4241  0.2506 -0.8018
 7073SOL    HW132681   1.538   3.550   4.380 -1.9676  2.6628 -1.2608
 7073SOL    HW232682   1.529   3.408   4.343 -0.5273  0.2008 -3.0944
 7074SOL     OW32683   1.258   2.140   5.004 -0.8501  0.1184 -0.3721
 7074SOL    HW132684   1.249   2.109   4.914 -1.4118 -0.0334 -0.2588
 7074SOL    HW232685   1.222   2.228   4.996  0.6249  0.6342 -1.3557
 7075SOL     OW32686   0.892   1.549  12.025 -0.2865 -0.0268 -0.4154
 7075SOL    HW132687   0.885   1.644  12.013  2.4578  0.2372  0.1355
 7075SOL    HW232688   0.931   1.525  11.941 -0.0558 -0.6116 -0.1374
 7076SOL     OW32689   4.713   1.530   4.110 -0.0244 -0.2345 -0.4768
 7076SOL    HW132690   0.069   1.563   4.147 -1.3067  1.8017  0.5715
 7076SOL    HW232691   4.650   1.573   4.169 -0.0358  1.1834 -1.5208
 7077SOL     OW32692   0.967   1.697   1.959 -0.2711 -0.9261 -0.4132
 7077SOL    HW132693   0.965   1.774   1.902 -0.2036  0.0970  0.9948
 7077SOL    HW232694   1.011   1.733   2.035  0.2984  2.6569 -2.4380
 7078SOL     OW32695   0.894   0.704  10.627 -0.0534  0.2911 -0.3201
 7078SOL    HW132696   0.816   0.655  10.598  0.8774 -1.6004  0.3389
 7078SOL    HW232697   0.964   0.642  10.606 -0.0610  0.3667 -0.5777
 7079SOL     OW32698   1.800   1.408  16.753 -0.1941 -0.1783  0.4501
 7079SOL    HW132699   1.893   1.390  16.770  0.1461  1.0575 -0.1207
 7079SOL    HW232700   1.810   1.476  16.687 -1.9868  1.1552  1.5736
 7080SOL     OW32701   3.162   0.603  10.269  0.0797 -0.1048  0.1096
 7080SOL    HW132702   3.184   0.644  10.185 -1.3260 -1.2159 -0.8035
 7080SOL    HW232703   3.128   0.519  10.237  0.5311  0.0598 -0.8017
 7081SOL     OW32704   2.300   2.566   1.460 -0.7201  0.0915 -0.2391
 7081SOL    HW132705   2.266   2.621   1.389 -2.4814  1.2384  1.5087
 7081SOL    HW232706   2.379   2.528   1.419 -0.2233 -0.1413  0.9413
 7082SOL     OW32707   1.225   2.028   2.475 -0.3591  0.3697 -0.1276
 7082SOL    HW132708   1.253   2.066   2.558  0.4958 -0.6661  0.0465
 7082SOL    HW232709   1.290   2.063   2.414 -0.3171  2.8923  1.3581
 7083SOL     OW32710   2.457   2.727   7.351  0.7942 -0.2390  0.5037
 7083SOL    HW132711   2.408   2.753   7.429  1.5603 -1.5920  1.4470
 7083SOL    HW232712   2.474   2.810   7.308 -0.7617  0.4164  1.1604
 7084SOL     OW32713   2.964   0.180   7.045 -0.3215  0.4302 -0.8877
 7084SOL    HW132714   3.049   0.139   7.029  1.1206  2.3656  1.9334
 7084SOL    HW232715   2.924   0.095   7.064 -1.6221  1.3040  0.2901
 7085SOL     OW32716   4.094   1.321   6.398  0.1652 -0.5127  0.0094
 7085SOL    HW132717   4.129   1.378   6.329 -1.9091  0.1026 -0.5223
 7085SOL    HW232718   4.173   1.279   6.434  1.0816  2.5290  1.5086
 7086SOL     OW32719   1.434   0.630  14.338  0.1297 -0.5874  0.7511
 7086SOL    HW132720   1.350   0.677  14.338  0.3441 -0.1962 -0.0278
 7086SOL    HW232721   1.486   0.683  14.398  1.5072 -0.0506 -0.9116
 7087SOL     OW32722   3.421   1.420   1.862 -0.4065 -0.2871 -0.2130
 7087SOL    HW132723   3.345   1.446   1.915  0.0159 -2.1510  1.3089
 7087SOL    HW232724   3.479   1.496   1.864 -0.2809 -0.4050  0.5780
 7088SOL     OW32725   2.975   3.642   6.128  0.0256  1.0681 -0.2531
 7088SOL    HW132726   2.975   3.609   6.038 -0.7556  0.6645 -0.1016
 7088SOL    HW232727   2.970   3.559   6.175 -0.4765  1.4215  0.3286
 7089SOL     OW32728   2.209   3.374  14.481  0.2173 -0.0994  0.5086
 7089SOL    HW132729   2.208   3.279  14.481 -0.0991 -0.0780 -1.5371
 7089SOL    HW232730   2.118   3.405  14.481  1.4506  3.6022 -1.5112
 7090SOL     OW32731   2.313   3.561   4.628 -0.1201 -0.0825 -0.2706
 7090SOL    HW132732   2.238   3.501   4.632 -1.4861  1.5117 -2.0776
 7090SOL    HW232733   2.307   3.594   4.717  0.8993 -1.9492  0.4748
 7091SOL     OW32734   0.281   2.909   3.969  0.1208 -0.7085  0.2051
 7091SOL    HW132735   0.365   2.935   4.006  0.4797 -1.4174 -0.1251
 7091SOL    HW232736   0.310   2.914   3.878 -0.1572 -1.6413  0.0675
 7092SOL     OW32737   4.136   3.549   0.420 -0.7933 -0.1906 -0.8749
 7092SOL    HW132738   4.069   3.578   0.482  1.1413  0.5923  0.8794
 7092SOL    HW232739   4.169   3.472   0.466 -0.7604  0.1161 -0.3850
 7093SOL     OW32740   2.987   3.954  15.524 -0.0100  0.0710  0.2249
 7093SOL    HW132741   3.060   3.987  15.576  0.6183 -0.3274 -0.4100
 7093SOL    HW232742   3.026   3.891  15.464 -1.6064 -1.1717  0.4997
 7094SOL     OW32743   1.761   3.280   9.353 -0.2543 -0.1067  0.3809
 7094SOL    HW132744   1.800   3.194   9.341 -1.4690 -0.3611 -1.6826
 7094SOL    HW232745   1.827   3.328   9.403 -0.9312  2.7782 -1.5166
 7095SOL     OW32746   3.834   1.446  13.026  0.3048  0.5957  0.1215
 7095SOL    HW132747   3.783   1.522  13.055 -1.8515 -0.2366 -1.5604
 7095SOL    HW232748   3.909   1.500  13.001  0.0093  0.2672 -1.4467
 7096SOL     OW32749   3.480   0.715   5.188 -0.2756 -0.2503 -0.1684
 7096SOL    HW132750   3.427   0.708   5.108 -0.9418  1.2226  0.1477
 7096SOL    HW232751   3.478   0.628   5.227  0.8928 -1.6058 -3.1220
 7097SOL     OW32752   2.923   0.259  10.415 -0.1161 -0.1729  0.2995
 7097SOL    HW132753   2.999   0.284  10.467 -0.4729  1.4356  0.0420
 7097SOL    HW232754   2.928   0.326  10.346 -1.8312 -0.9598 -0.6065
 7098SOL     OW32755   4.005   4.462   9.607  0.4044  0.1631 -0.1350
 7098SOL    HW132756   3.979   4.370   9.603 -2.6446  0.8992  2.4206
 7098SOL    HW232757   4.075   4.445   9.544  0.2483  1.2469 -0.5948
 7099SOL     OW32758   0.596   1.724   1.074  0.2272 -0.3070 -0.0960
 7099SOL    HW132759   0.668   1.681   1.121  0.7348 -0.4960 -1.0281
 7099SOL    HW232760   0.517   1.679   1.103  0.0580  0.3766  0.4935
 7100SOL     OW32761   0.082   3.166   1.015 -0.1263  0.1661  0.5009
 7100SOL    HW132762   0.130   3.087   0.992 -0.4568 -0.3432  1.5782
 7100SOL    HW232763   0.007   3.144   0.960 -1.0684  2.7195  0.7283
 7101SOL     OW32764   0.863   3.651   8.135  0.3509 -0.7349 -0.0956
 7101SOL    HW132765   0.874   3.561   8.105  0.0965 -0.9165  0.3639
 7101SOL    HW232766   0.789   3.640   8.195  0.9732  0.4697  0.9090
 7102SOL     OW32767   3.527   1.657  10.429  0.7371  0.3117  0.1146
 7102SOL    HW132768   3.432   1.651  10.435  0.4927  1.2660 -2.8685
 7102SOL    HW232769   3.547   1.582  10.374  2.8661  0.5821  0.5012
 7103SOL     OW32770   0.776   4.264  15.532  0.5858  0.0305  0.2584
 7103SOL    HW132771   0.721   4.330  15.488  1.7719 -0.0677 -1.3726
 7103SOL    HW232772   0.710   4.197  15.550  0.8434 -0.6928 -1.5192
 7104SOL     OW32773   1.705   4.533  12.139  0.8625  0.3049  0.1641
 7104SOL    HW132774   1.781   4.548  12.195 -0.5140 -1.5925  2.5657
 7104SOL    HW232775   1.743   4.468  12.081 -0.8792  0.2985 -0.9855
 7105SOL     OW32776   2.233   0.686   4.095 -0.1883 -0.4311  0.4614
 7105SOL    HW132777   2.215   0.663   4.186  0.3087 -1.7335  0.2205
 7105SOL    HW232778   2.326   0.706   4.108 -0.2757  1.0308 -1.1162
 7106SOL     OW32779   2.667   1.185   9.972 -0.3705 -0.5434  0.2295
 7106SOL    HW132780   2.577   1.215   9.969  0.4212  1.8007 -0.1619
 7106SOL    HW232781   2.659   1.119  10.041  2.4242 -0.0237  1.0401
 7107SOL     OW32782   1.311   3.309   6.594 -0.2054 -0.7891 -0.1030
 7107SOL    HW132783   1.261   3.368   6.650  1.9749  0.9009  0.0321
 7107SOL    HW232784   1.399   3.343   6.610 -0.2168  0.5027 -2.7549
 7108SOL     OW32785   0.278   2.544  13.134  0.6332 -0.2938 -0.0142
 7108SOL    HW132786   0.348   2.600  13.101  1.8663 -2.8541 -1.7376
 7108SOL    HW232787   0.270   2.492  13.054 -1.5664  0.5894 -0.3841
 7109SOL     OW32788   0.399   3.468  17.005  0.6938 -0.0643 -0.0369
 7109SOL    HW132789   0.472   3.424  17.048  0.2350  2.0328  2.8561
 7109SOL    HW232790   0.342   3.497  17.076 -1.6640  2.2074 -2.8283
 7110SOL     OW32791   2.798   4.058   3.847 -0.0061 -0.4285  0.3104
 7110SOL    HW132792   2.892   4.073   3.845 -0.4576  2.5512  2.2082
 7110SOL    HW232793   2.782   4.013   3.764 -1.1533  0.7905 -0.1288
 7111SOL     OW32794   0.164   3.218   9.695  0.4152 -0.6127  0.0317
 7111SOL    HW132795   0.144   3.231   9.788 -1.1760  0.2113 -0.4219
 7111SOL    HW232796   0.219   3.297   9.694  0.4594 -0.6493 -0.6117
 7112SOL     OW32797   1.112   1.299   1.576  0.7207 -0.4653 -0.1402
 7112SOL    HW132798   1.180   1.362   1.600  1.2657 -0.5675 -1.4372
 7112SOL    HW232799   1.158   1.226   1.534 -1.2094 -1.2315 -0.9028
 7113SOL     OW32800   1.360   0.875   5.852  0.0181  0.4241 -0.6447
 7113SOL    HW132801   1.430   0.831   5.803  0.4268 -0.7422  0.9812
 7113SOL    HW232802   1.401   0.952   5.891  1.1810 -0.8732  0.7202
 7114SOL     OW32803   4.143   2.623   4.140  0.1371  0.2298 -0.1779
 7114SOL    HW132804   4.232   2.659   4.139 -1.2201  3.5494  0.4328
 7114SOL    HW232805   4.109   2.645   4.054  0.9426 -0.5271 -0.6930
 7115SOL     OW32806   3.166   2.577   9.794  0.5036  0.0996 -0.5143
 7115SOL    HW132807   3.118   2.563   9.712  1.0520  0.7965 -0.9583
 7115SOL    HW232808   3.101   2.548   9.858 -0.8521  0.7551 -1.5894
 7116SOL     OW32809   0.535   3.630   6.807 -0.4060 -0.4871  0.9156
 7116SOL    HW132810   0.507   3.687   6.879  0.4105 -1.7532  2.2539
 7116SOL    HW232811   0.466   3.646   6.744  1.3126  2.9867 -0.0678
 7117SOL     OW32812   0.940   3.637   5.190  0.9541 -0.2650  0.0618
 7117SOL    HW132813   0.949   3.705   5.123 -2.4022  0.6064  0.4836
 7117SOL    HW232814   0.975   3.679   5.269  1.7780  0.5484 -0.7243
 7118SOL     OW32815   0.092   0.890   1.393  0.2258 -0.0402 -0.1917
 7118SOL    HW132816   0.054   0.817   1.343 -0.4036  1.0356 -1.2763
 7118SOL    HW232817   0.167   0.911   1.337  0.1075 -1.2850 -0.8380
 7119SOL     OW32818   2.737   0.584  14.416  0.1652  0.6545 -0.2994
 7119SOL    HW132819   2.789   0.661  14.440  0.5888 -0.0730  1.1536
 7119SOL    HW232820   2.737   0.520  14.488  0.0514 -0.1719 -1.0445
 7120SOL     OW32821   0.439   4.332   3.333  0.0039  0.0931 -0.0582
 7120SOL    HW132822   0.420   4.249   3.376  1.7909 -0.5660 -0.5549
 7120SOL    HW232823   0.397   4.315   3.248  2.1708 -1.8165 -0.7595
 7121SOL     OW32824   3.747   1.436  16.926 -0.1631 -0.7900  0.1822
 7121SOL    HW132825   3.752   1.341  16.932 -2.3386 -0.9703 -0.9404
 7121SOL    HW232826   3.776   1.459  16.838  1.0666 -0.4464  0.6663
 7122SOL     OW32827   4.138   2.699   1.312 -0.0554 -0.0507 -0.2478
 7122SOL    HW132828   4.107   2.774   1.363  1.8173  1.1569 -0.8700
 7122SOL    HW232829   4.066   2.637   1.311 -2.0110  2.2139  0.6716
 7123SOL     OW32830   0.187   4.626   2.741 -0.2473 -0.0566 -0.1794
 7123SOL    HW132831   0.131   4.565   2.692 -1.2444  0.6946  0.0321
 7123SOL    HW232832   0.136   4.705   2.725 -0.0821  0.4646  1.8441
 7124SOL     OW32833   3.601   4.229   1.115  0.2916 -0.2161 -0.2748
 7124SOL    HW132834   3.673   4.261   1.061  1.9533 -1.0982  1.4406
 7124SOL    HW232835   3.608   4.134   1.108 -0.5422 -0.5625  3.5772
 7125SOL     OW32836   0.064   0.206   6.536 -0.1745  0.1557  0.4650
 7125SOL    HW132837   0.035   0.170   6.453 -0.3337  0.9783  0.1710
 7125SOL    HW232838   0.140   0.148   6.545 -2.7623 -3.2219  0.3885
 7126SOL     OW32839   4.385   1.628   0.883 -0.0002  0.1092  0.1789
 7126SOL    HW132840   4.363   1.573   0.958 -2.6273  0.1165 -0.6075
 7126SOL    HW232841   4.331   1.706   0.892 -1.9222 -0.8436 -3.2129
 7127SOL     OW32842   4.346   1.063   4.641  0.4166  0.2918 -0.2431
 7127SOL    HW132843   4.306   1.029   4.722 -2.3502  0.6587 -1.4651
 7127SOL    HW232844   4.401   0.989   4.614 -0.7508 -1.1866  1.4102
 7128SOL     OW32845   4.461   1.824   3.051  0.0174  0.1753  0.1776
 7128SOL    HW132846   4.502   1.883   3.114 -2.2905  2.2742 -0.2605
 7128SOL    HW232847   4.442   1.873   2.971  2.5955 -1.4365 -1.4086
 7129SOL     OW32848   2.189   4.043   4.984  0.1522 -0.1188  0.1909
 7129SOL    HW132849   2.160   3.969   5.037 -0.3083  0.4377  0.7128
 7129SOL    HW232850   2.191   3.997   4.900 -0.0738 -0.5018  0.4003
 7130SOL     OW32851   2.987   3.727   9.475  0.0175 -0.2657 -0.0788
 7130SOL    HW132852   2.969   3.804   9.420  0.9852  0.3012  0.4021
 7130SOL    HW232853   2.905   3.708   9.521  0.2491  1.9791  1.2486
 7131SOL     OW32854   0.938   2.068  13.282  0.7194  0.5301  0.1804
 7131SOL    HW132855   1.027   2.035  13.295 -0.1071 -0.2240  3.8063
 7131SOL    HW232856   0.901   2.074  13.370 -2.2714 -0.9698 -0.9661
 7132SOL     OW32857   0.542   2.900   6.180 -0.7208 -0.3112 -0.2837
 7132SOL    HW132858   0.481   2.957   6.132 -1.0181 -0.6310 -0.2869
 7132SOL    HW232859   0.631   2.929   6.161 -1.2729 -0.6546 -3.3278
 7133SOL     OW32860   0.743   3.136  14.343  0.0189 -0.3429  0.1645
 7133SOL    HW132861   0.698   3.216  14.366 -0.2623 -1.0423  2.0934
 7133SOL    HW232862   0.827   3.149  14.389  1.1626 -0.0868 -2.0101
 7134SOL     OW32863   3.809   1.433   7.783 -0.8157 -0.2901 -0.3983
 7134SOL    HW132864   3.846   1.355   7.740  0.5468 -1.3576  2.6680
 7134SOL    HW232865   3.852   1.505   7.738  1.5674 -0.3310  1.7832
 7135SOL     OW32866   2.801   1.139   7.364  0.3847  0.7926  0.4229
 7135SOL    HW132867   2.829   1.204   7.300  2.2885  0.4729  0.9087
 7135SOL    HW232868   2.721   1.178   7.398  1.1770  3.0452 -0.2830
 7136SOL     OW32869   2.036   2.879   6.981  0.0124  0.4035  0.3571
 7136SOL    HW132870   2.096   2.806   6.966  1.1500  1.6303 -1.0887
 7136SOL    HW232871   2.081   2.905   7.061  0.5669  0.2937  0.0787
 7137SOL     OW32872   3.084   0.111   1.972 -0.0711 -0.1107 -0.3530
 7137SOL    HW132873   3.155   0.076   1.918  0.3669  0.2692 -0.0252
 7137SOL    HW232874   3.008   0.060   1.946  0.1842 -0.6669 -0.0125
 7138SOL     OW32875   0.338   2.958   7.774  0.3933 -0.2494 -0.5038
 7138SOL    HW132876   0.351   2.982   7.683  0.0747 -2.3412 -1.1037
 7138SOL    HW232877   0.412   2.900   7.792  0.0068 -0.3202  0.8782
 7139SOL     OW32878   2.188   2.392  16.749 -0.1863  0.1383 -0.4081
 7139SOL    HW132879   2.195   2.385  16.844  2.2996 -0.7944 -0.6641
 7139SOL    HW232880   2.099   2.356  16.740  0.4216 -1.2412 -0.9537
 7140SOL     OW32881   2.600   1.474   5.224  0.0162  0.0880 -0.4845
 7140SOL    HW132882   2.553   1.544   5.179  0.0926  0.6559  0.3215
 7140SOL    HW232883   2.655   1.439   5.154  0.9631  0.8548 -0.1345
 7141SOL     OW32884   3.509   1.167   8.679 -0.1215 -0.1292 -0.2496
 7141SOL    HW132885   3.489   1.097   8.616 -0.4430  0.3473 -0.6681
 7141SOL    HW232886   3.490   1.244   8.626 -3.5491  1.0165  2.6231
 7142SOL     OW32887   4.638   4.112  15.823 -0.0419  0.1135 -0.1713
 7142SOL    HW132888   4.653   4.184  15.762  0.9055  0.7370  0.7982
 7142SOL    HW232889   0.001   4.078  15.821  0.5275  1.5534  1.1063
 7143SOL     OW32890   4.014   3.946   8.308  0.4371 -0.4362  0.1284
 7143SOL    HW132891   4.107   3.946   8.333  0.3564  0.8565  0.4631
 7143SOL    HW232892   4.013   4.017   8.243 -0.4406  0.1679  0.8052
 7144SOL     OW32893   3.191   0.408   7.105 -0.1318  0.5041 -0.0751
 7144SOL    HW132894   3.260   0.439   7.164  2.7087 -0.5960 -2.8135
 7144SOL    HW232895   3.117   0.466   7.124  1.0319  2.6196 -1.9964
 7145SOL     OW32896   2.179   1.763   4.111  0.3182 -0.7797  0.5357
 7145SOL    HW132897   2.206   1.840   4.061 -1.2770  0.5583  1.7660
 7145SOL    HW232898   2.115   1.722   4.052 -0.3224 -2.0875  2.1366
 7146SOL     OW32899   1.214   2.873  11.559 -0.0299  0.0056 -0.8626
 7146SOL    HW132900   1.194   2.945  11.618 -2.6507 -1.7009  0.3355
 7146SOL    HW232901   1.286   2.831  11.605 -2.2084 -1.7835  0.9199
 7147SOL     OW32902   3.724   2.924   1.330  0.1306 -0.7794 -0.5084
 7147SOL    HW132903   3.659   2.977   1.284  1.8122  1.7431  0.0543
 7147SOL    HW232904   3.700   2.835   1.305  0.5962 -1.7867  2.5979
 7148SOL     OW32905   3.176   2.980  14.283 -0.1761 -0.2304 -0.0865
 7148SOL    HW132906   3.112   2.947  14.221 -1.1735 -0.7180  1.2141
 7148SOL    HW232907   3.127   3.047  14.330 -1.2969 -1.8827  1.1224
 7149SOL     OW32908   3.232   1.947  15.156  0.6178 -0.1319 -0.0918
 7149SOL    HW132909   3.140   1.922  15.146  0.8159 -0.5786 -0.8759
 7149SOL    HW232910   3.263   1.866  15.196 -0.4504 -1.7155 -2.4370
 7150SOL     OW32911   1.045   4.503   1.311  0.2504  0.8704  0.0945
 7150SOL    HW132912   1.017   4.539   1.395 -0.9275  2.3888 -0.9433
 7150SOL    HW232913   0.979   4.530   1.246 -1.2425 -2.1299  0.3651
 7151SOL     OW32914   4.489   0.405   9.988  0.4019 -0.3859  0.1951
 7151SOL    HW132915   4.436   0.480  10.014 -0.2217 -0.8476  0.2491
 7151SOL    HW232916   4.568   0.455   9.969 -2.0033  2.3003 -2.6831
 7152SOL     OW32917   4.095   4.134   7.043  0.0257  0.5782 -0.3240
 7152SOL    HW132918   4.100   4.190   7.122  0.0411 -0.8922  0.7143
 7152SOL    HW232919   4.185   4.126   7.011 -0.1670 -1.5666 -0.2809
 7153SOL     OW32920   2.310   1.007   2.300 -0.1341  0.1157 -0.4063
 7153SOL    HW132921   2.287   0.950   2.374 -1.5082 -0.3024 -1.1468
 7153SOL    HW232922   2.234   0.996   2.243 -1.3037  0.1735  1.1568
 7154SOL     OW32923   1.810   1.306   2.574 -0.4515  0.1582  0.5754
 7154SOL    HW132924   1.902   1.311   2.598 -0.4245  1.2868  0.2176
 7154SOL    HW232925   1.776   1.383   2.619  0.3785  0.7927  0.1202
 7155SOL     OW32926   3.085   1.309   4.452 -0.5001 -0.6386 -0.3980
 7155SOL    HW132927   3.105   1.395   4.416 -0.1943  0.3358  2.1693
 7155SOL    HW232928   3.109   1.253   4.378 -0.1418 -1.5802  0.4278
 7156SOL     OW32929   1.748   0.748  13.036  0.3758 -0.0665 -0.2565
 7156SOL    HW132930   1.838   0.768  13.012  0.1920  0.4373 -0.5285
 7156SOL    HW232931   1.759   0.676  13.097 -0.3336 -0.7694 -0.9469
 7157SOL     OW32932   1.023   1.316  11.038 -0.1074  0.1998 -0.2038
 7157SOL    HW132933   0.986   1.327  11.126 -0.9077  2.2888 -0.8142
 7157SOL    HW232934   0.939   1.296  10.996  0.6497  0.3597 -1.8000
 7158SOL     OW32935   4.511   0.563   3.853  0.2268  0.2998 -0.1364
 7158SOL    HW132936   4.509   0.587   3.946  0.5115  2.8679 -0.7856
 7158SOL    HW232937   4.600   0.593   3.831 -0.3987  3.3405  1.4622
 7159SOL     OW32938   0.254   1.572   3.580 -0.4155 -0.2057  0.7751
 7159SOL    HW132939   0.284   1.616   3.659 -0.9950  1.7978 -0.1071
 7159SOL    HW232940   0.287   1.616   3.501 -0.7862 -1.0237  0.1587
 7160SOL     OW32941   2.991   0.248   4.491 -0.1622 -0.0255 -0.3685
 7160SOL    HW132942   2.984   0.253   4.396  1.0165  2.2990 -0.3353
 7160SOL    HW232943   2.900   0.226   4.509 -1.0078  1.9488 -2.2916
 7161SOL     OW32944   4.264   0.654   1.154 -0.4363  0.0120  0.1924
 7161SOL    HW132945   4.318   0.701   1.217  0.8604 -0.6400 -0.4262
 7161SOL    HW232946   4.213   0.727   1.118 -1.9246 -0.9675  0.2975
 7162SOL     OW32947   2.133   2.317  14.148  0.3515  0.4901  0.3579
 7162SOL    HW132948   2.133   2.279  14.060  2.3598 -2.1291  1.5146
 7162SOL    HW232949   2.078   2.393  14.127  2.0571  1.9772  1.2881
 7163SOL     OW32950   4.235   1.997   2.449 -0.1192 -0.6233  0.5092
 7163SOL    HW132951   4.319   1.963   2.420 -1.2547 -2.7278 -0.2711
 7163SOL    HW232952   4.181   1.955   2.383  1.9917 -1.1071 -0.9069
 7164SOL     OW32953   0.285   0.361   0.886  0.5609  0.2813 -0.1827
 7164SOL    HW132954   0.252   0.401   0.806  2.4441  0.6637 -0.7688
 7164SOL    HW232955   0.228   0.391   0.958  1.0494 -1.3758  0.8830
 7165SOL     OW32956   0.905   4.154   4.192  0.0635  0.1400  0.6278
 7165SOL    HW132957   0.998   4.143   4.171  0.8103  3.8755  1.9625
 7165SOL    HW232958   0.864   4.083   4.143  1.3675 -0.4844  0.4221
 7166SOL     OW32959   1.707   3.899   5.560  0.1271  0.3761  0.6226
 7166SOL    HW132960   1.756   3.833   5.609 -1.8798 -1.4322  0.1947
 7166SOL    HW232961   1.782   3.955   5.539  1.0039 -0.7624  0.7560
 7167SOL     OW32962   3.830   4.235   8.682 -0.7989  0.0517 -0.3313
 7167SOL    HW132963   3.748   4.284   8.690  0.2105  1.3997  1.8002
 7167SOL    HW232964   3.790   4.166   8.630 -1.6974 -0.1546  0.6309
 7168SOL     OW32965   2.222   4.169   2.227 -0.1203  0.0218  0.6481
 7168SOL    HW132966   2.278   4.095   2.250 -1.8687 -1.8141 -1.0558
 7168SOL    HW232967   2.135   4.144   2.257 -0.0240 -0.9074  0.1383
 7169SOL     OW32968   1.200   4.414  14.101 -0.4985 -0.0042  0.3832
 7169SOL    HW132969   1.168   4.333  14.063  0.0153 -0.0932  0.1364
 7169SOL    HW232970   1.118   4.460  14.085 -0.8698 -0.8603 -0.1815
 7170SOL     OW32971   0.811   4.391   6.979  0.0416  0.3148 -0.1733
 7170SOL    HW132972   0.847   4.317   6.930 -2.0719 -0.5765 -0.3730
 7170SOL    HW232973   0.879   4.412   7.044  1.9722  0.1933 -2.1408
 7171SOL     OW32974   1.658   0.548   3.170  0.5439 -0.1158  0.2642
 7171SOL    HW132975   1.671   0.530   3.077  0.5025 -0.8100  0.3922
 7171SOL    HW232976   1.562   0.550   3.165  0.5591  1.8296  1.0476
 7172SOL     OW32977   1.846   2.184   7.114 -0.0822  0.3737 -0.3522
 7172SOL    HW132978   1.796   2.136   7.048 -0.2416  0.0216  0.0259
 7172SOL    HW232979   1.871   2.267   7.074  1.2337 -0.0717 -0.4565
 7173SOL     OW32980   3.928   4.578   6.259  0.3541  0.5149  0.6010
 7173SOL    HW132981   4.021   4.573   6.281  0.4281  0.6147  0.3083
 7173SOL    HW232982   3.931   4.619   6.172  2.1376 -0.0306  0.4011
 7174SOL     OW32983   0.417   1.296   8.947  0.1322  0.2081 -0.2833
 7174SOL    HW132984   0.473   1.365   8.982  0.3161  0.0551 -0.2807
 7174SOL    HW232985   0.394   1.243   9.024 -1.7090  0.9821 -0.2902
 7175SOL     OW32986   1.030   3.434   2.739  0.2750  0.2471 -0.2812
 7175SOL    HW132987   1.073   3.393   2.814  1.9130  2.1864 -0.1452
 7175SOL    HW232988   1.094   3.502   2.716  1.3103 -0.4453  0.5714
 7176SOL     OW32989   4.669   1.213   8.245 -0.0444  0.3539 -0.6329
 7176SOL    HW132990   4.682   1.123   8.215  0.8522 -0.1785  1.4161
 7176SOL    HW232991   0.023   1.253   8.209 -0.2881  1.2149 -0.2237
 7177SOL     OW32992   0.501   0.477  13.729 -0.0714  0.0669 -0.3719
 7177SOL    HW132993   0.501   0.532  13.808 -1.3145  0.5149 -0.6819
 7177SOL    HW232994   0.575   0.520  13.687  1.8657 -1.9246  0.9950
 7178SOL     OW32995   4.265   3.388   6.457  0.5561  0.1566  0.3464
 7178SOL    HW132996   4.234   3.321   6.396 -1.7011  0.7506  0.8582
 7178SOL    HW232997   4.347   3.348   6.487  0.5108  0.5503  1.0028
 7179SOL     OW32998   2.536   3.079   9.468 -0.8799  0.2401 -0.2527
 7179SOL    HW132999   2.554   2.989   9.497 -0.0599  0.1294 -1.1327
 7179SOL    HW233000   2.542   3.060   9.375 -1.8324  0.8536 -0.4415
 7180SOL     OW33001   1.580   3.166   7.032  0.1833 -0.1684 -0.5192
 7180SOL    HW133002   1.511   3.152   7.097  0.1487 -0.0844 -0.5373
 7180SOL    HW233003   1.543   3.252   7.009  0.3593  0.0842  0.1328
 7181SOL     OW33004   3.276   2.717   3.443 -0.2410  0.0775 -0.5179
 7181SOL    HW133005   3.202   2.656   3.452 -0.5332  0.9153  2.7208
 7181SOL    HW233006   3.329   2.672   3.377 -1.4795 -0.9790 -0.7885
 7182SOL     OW33007   4.112   2.470   9.996 -0.1550 -0.2079 -0.1085
 7182SOL    HW133008   4.085   2.380   9.976  1.3249  0.0548 -3.3139
 7182SOL    HW233009   4.111   2.495   9.904  1.2954  1.1928  0.2539
 7183SOL     OW33010   0.316   4.671   3.516  0.0420 -0.8285 -0.5752
 7183SOL    HW133011   0.234   4.641   3.476  0.5922  0.6067 -2.7781
 7183SOL    HW233012   0.316   4.621   3.597 -3.6003 -1.9424 -1.2584
 7184SOL     OW33013   2.977   0.776  14.841  0.1434 -0.0700 -0.8059
 7184SOL    HW133014   3.035   0.765  14.766  2.1373  0.2822  0.6826
 7184SOL    HW233015   3.038   0.815  14.904  0.3265 -0.7282 -0.5680
 7185SOL     OW33016   1.997   4.712  13.015 -0.1779 -0.3300 -0.1617
 7185SOL    HW133017   1.938   0.002  12.942  0.5054 -0.5728 -0.7628
 7185SOL    HW233018   1.995   0.072  13.058  0.7783 -0.1702 -0.4291
 7186SOL     OW33019   2.519   3.720  12.766  0.0028 -0.5002 -0.3328
 7186SOL    HW133020   2.564   3.715  12.682  0.8576 -0.0926  0.0981
 7186SOL    HW233021   2.452   3.786  12.747  0.2173  0.7059  3.1289
 7187SOL     OW33022   3.447   2.284   6.702  0.1410  0.0012  0.5691
 7187SOL    HW133023   3.511   2.213   6.697 -0.1551 -0.5371  4.4307
 7187SOL    HW233024   3.410   2.281   6.790 -0.3994 -0.2575  0.3308
 7188SOL     OW33025   3.455   2.088  11.303  1.0665  0.2138 -0.4543
 7188SOL    HW133026   3.428   2.116  11.390 -1.5336 -1.6388 -0.6540
 7188SOL    HW233027   3.383   2.029  11.282  0.5371  0.6339  0.1774
 7189SOL     OW33028   2.451   1.090   6.121 -0.5684 -0.4227  0.0679
 7189SOL    HW133029   2.406   1.007   6.133 -0.4909 -0.5982 -0.8258
 7189SOL    HW233030   2.373   1.142   6.140 -0.3650 -0.7640  1.8324
 7190SOL     OW33031   3.920   3.945   7.147 -0.1242  0.1809  0.4055
 7190SOL    HW133032   3.992   4.002   7.120  1.9932 -2.5549  0.3087
 7190SOL    HW233033   3.950   3.863   7.108 -1.1037 -0.1420  0.3473
 7191SOL     OW33034   1.893   1.795  16.779 -0.6404 -0.4767 -0.3624
 7191SOL    HW133035   1.955   1.835  16.719  0.4025  0.5133  1.3731
 7191SOL    HW233036   1.950   1.801  16.855 -0.0602 -0.3470 -0.8144
 7192SOL     OW33037   0.332   3.107   8.373 -0.7990 -0.2867  0.1916
 7192SOL    HW133038   0.413   3.148   8.403 -1.4882  1.0050  0.3121
 7192SOL    HW233039   0.270   3.148   8.434 -0.5190 -0.4167  0.5645
 7193SOL     OW33040   4.277   1.127   8.905  0.1640 -0.4323  0.5317
 7193SOL    HW133041   4.222   1.090   8.837 -1.4279  0.3288  1.4184
 7193SOL    HW233042   4.211   1.131   8.973  0.6394 -1.3394  1.0506
 7194SOL     OW33043   2.147   0.666   4.568  0.2078 -0.7191  0.2745
 7194SOL    HW133044   2.222   0.718   4.599  0.0868 -0.1351 -0.4179
 7194SOL    HW233045   2.077   0.723   4.598 -1.4150 -1.7979 -1.4202
 7195SOL     OW33046   0.870   0.352   7.444  0.1625 -0.2136  0.4569
 7195SOL    HW133047   0.904   0.381   7.529  2.1761  0.4218 -0.5819
 7195SOL    HW233048   0.784   0.317   7.470 -0.0158  1.0930  1.6566
 7196SOL     OW33049   2.386   1.488   5.890  0.4643 -0.0468  0.4372
 7196SOL    HW133050   2.364   1.566   5.941 -1.6509  0.2026 -0.8796
 7196SOL    HW233051   2.302   1.461   5.854  0.8534 -1.3525  0.5180
 7197SOL     OW33052   2.747   4.577   6.254  0.1060 -0.7690  0.4361
 7197SOL    HW133053   2.841   4.561   6.257  0.0237 -1.6101 -1.9174
 7197SOL    HW233054   2.742   4.631   6.333 -1.2875 -0.5497  0.2143
 7198SOL     OW33055   3.162   1.765   5.517 -0.0085  0.1206 -0.0220
 7198SOL    HW133056   3.156   1.673   5.492  0.6803 -0.1216  0.6988
 7198SOL    HW233057   3.105   1.804   5.450 -1.2135 -0.5113  0.6283
 7199SOL     OW33058   4.231   3.729   8.779  0.2283 -0.0387  0.0114
 7199SOL    HW133059   4.321   3.701   8.790  0.7536  1.7465  0.1934
 7199SOL    HW233060   4.216   3.766   8.866 -1.4565  1.2461 -0.8133
 7200SOL     OW33061   3.377   3.274   3.375 -0.2111 -0.5796 -0.2965
 7200SOL    HW133062   3.389   3.189   3.417 -3.2195 -0.5983  0.4611
 7200SOL    HW233063   3.349   3.325   3.450 -1.0222  1.6874 -2.1378
 7201SOL     OW33064   2.476   2.488   8.024  0.3638 -0.4798 -0.2406
 7201SOL    HW133065   2.425   2.559   8.063  1.8807  1.0344 -1.0006
 7201SOL    HW233066   2.558   2.508   8.068 -0.6020 -1.9937  2.2209
 7202SOL     OW33067   0.958   1.672   9.920  0.0079 -0.6748  0.0015
 7202SOL    HW133068   1.026   1.732   9.951 -0.6520  0.0988 -0.0332
 7202SOL    HW233069   1.013   1.598   9.897  0.0399 -0.1305 -1.6673
 7203SOL     OW33070   3.443   0.281   2.942 -0.3198  0.6612  0.0073
 7203SOL    HW133071   3.400   0.196   2.952 -1.4185  1.4127  1.5925
 7203SOL    HW233072   3.488   0.270   2.858 -2.6416  1.9501 -1.4102
 7204SOL     OW33073   2.190   1.063   9.806 -0.1886  0.3551 -0.2651
 7204SOL    HW133074   2.241   1.081   9.885  1.2263 -0.6112 -0.9637
 7204SOL    HW233075   2.106   1.037   9.845  0.1710 -1.6089 -0.8020
 7205SOL     OW33076   3.216   0.324   0.957  0.0818 -0.0270  0.3749
 7205SOL    HW133077   3.298   0.290   0.920  0.7463  0.2193  1.6082
 7205SOL    HW233078   3.221   0.289   1.046  1.2294 -0.7517  0.0356
 7206SOL     OW33079   0.454   4.260  15.368 -0.1252 -0.2048  0.2507
 7206SOL    HW133080   0.526   4.323  15.378 -1.4074  1.6869 -2.2605
 7206SOL    HW233081   0.495   4.207  15.299  0.5283 -0.2500  0.6754
 7207SOL     OW33082   1.112   3.209   1.388  0.4370  0.2118 -0.4502
 7207SOL    HW133083   1.184   3.200   1.451  1.2614  0.2601 -1.3844
 7207SOL    HW233084   1.074   3.121   1.387  0.6230  0.1177  0.4159
 7208SOL     OW33085   3.038   2.067   8.488 -0.2839 -0.4627 -0.0000
 7208SOL    HW133086   2.983   2.020   8.427  0.9786 -0.1808 -1.3497
 7208SOL    HW233087   2.968   2.101   8.543 -0.7066 -3.0342  1.0694
 7209SOL     OW33088   2.461   4.190   3.111 -0.3115 -0.3212 -0.4283
 7209SOL    HW133089   2.387   4.173   3.169 -0.2590  0.5616 -0.1057
 7209SOL    HW233090   2.438   4.277   3.077 -1.6388  0.3543  2.2410
 7210SOL     OW33091   1.698   2.607   6.567  0.0979  0.2745 -0.9823
 7210SOL    HW133092   1.698   2.675   6.500 -1.9618  0.0648 -1.1676
 7210SOL    HW233093   1.604   2.606   6.582  0.6447 -0.6502  2.4407
 7211SOL     OW33094   1.344   0.706   8.769  0.6456 -0.4821  0.3600
 7211SOL    HW133095   1.338   0.616   8.801 -1.1188 -0.8587 -1.0064
 7211SOL    HW233096   1.350   0.691   8.675  0.1238  0.6977  0.1350
 7212SOL     OW33097   3.869   4.062   4.135  0.0279  0.1609  0.3857
 7212SOL    HW133098   3.878   4.155   4.154  0.8558  0.3336 -0.8574
 7212SOL    HW233099   3.953   4.032   4.170  0.3087  2.2998  1.5439
 7213SOL     OW33100   0.358   0.174   4.759 -0.2544  0.0447 -0.0513
 7213SOL    HW133101   0.345   0.109   4.690  1.5237 -1.1700  0.7716
 7213SOL    HW233102   0.396   0.242   4.702  0.4836 -1.0869 -0.9087
 7214SOL     OW33103   2.551   1.115   9.088  0.2835 -0.6606  0.0402
 7214SOL    HW133104   2.618   1.100   9.155 -0.8150  0.2378  1.3241
 7214SOL    HW233105   2.596   1.188   9.044  1.3544 -1.2306  0.1852
 7215SOL     OW33106   0.838   1.738   7.861 -0.3307 -0.1391  0.0294
 7215SOL    HW133107   0.772   1.800   7.829 -1.5186 -1.2338  0.3776
 7215SOL    HW233108   0.784   1.676   7.910  0.6023 -0.2671  0.9093
 7216SOL     OW33109   2.445   1.863   6.696  0.5496 -0.3055 -0.3530
 7216SOL    HW133110   2.376   1.838   6.636 -0.1504  1.1845 -0.1716
 7216SOL    HW233111   2.457   1.779   6.741  1.4411 -1.2298 -2.3357
 7217SOL     OW33112   1.318   3.865   9.237  0.3605 -0.1942 -0.0468
 7217SOL    HW133113   1.387   3.801   9.216  1.3749  1.0222 -0.3948
 7217SOL    HW233114   1.325   3.928   9.165  0.9242 -0.7671 -0.5069
 7218SOL     OW33115   4.031   3.613  12.428  0.1835  0.1929 -0.0226
 7218SOL    HW133116   3.948   3.648  12.395  0.7031 -0.4126 -1.9793
 7218SOL    HW233117   4.049   3.562  12.350 -1.3498 -1.7370  0.8863
 7219SOL     OW33118   4.695   1.012   8.496 -0.1177 -0.2185  0.2358
 7219SOL    HW133119   4.723   1.096   8.459  0.6545 -0.3904  0.4190
 7219SOL    HW233120   4.660   0.972   8.417 -2.1103 -1.3775  1.7192
 7220SOL     OW33121   0.031   2.338   8.921  0.0894 -0.5666 -0.2488
 7220SOL    HW133122   0.122   2.326   8.892  0.0270 -1.7874  0.0389
 7220SOL    HW233123   4.715   2.294   8.847  0.8519 -1.2196 -0.2956
 7221SOL     OW33124   0.800   0.437   3.873  0.0026  0.1537  0.2188
 7221SOL    HW133125   0.759   0.453   3.958  1.9392  3.6139  0.5231
 7221SOL    HW233126   0.865   0.370   3.893 -0.6332 -0.1553  1.2529
 7222SOL     OW33127   2.388   0.721   3.097  0.3547 -0.0655 -0.9169
 7222SOL    HW133128   2.371   0.678   3.181  1.6686  2.7220  0.7735
 7222SOL    HW233129   2.471   0.762   3.121 -0.1766  1.2145 -1.2923
 7223SOL     OW33130   2.963   0.398  10.179 -0.8857  0.2948  0.2207
 7223SOL    HW133131   2.961   0.364  10.089 -0.8437  0.0880  0.2983
 7223SOL    HW233132   2.869   0.410  10.186 -0.9925 -0.9959  0.8355
 7224SOL     OW33133   2.615   3.171   6.461  0.6434  0.4063  0.0889
 7224SOL    HW133134   2.585   3.242   6.404 -1.0886  0.8028  1.5250
 7224SOL    HW233135   2.617   3.099   6.397  1.3481 -0.2735  0.8846
 7225SOL     OW33136   0.243   2.313  17.468 -0.0650  0.2823 -0.3054
 7225SOL    HW133137   0.338   2.324  17.472  0.0856 -1.0955 -0.0857
 7225SOL    HW233138   0.221   2.356  17.385  2.1413  0.0969 -0.9740
 7226SOL     OW33139   1.918   2.224   2.881  0.7896 -0.1364 -0.0297
 7226SOL    HW133140   1.888   2.282   2.811 -2.3660 -0.2002  1.2637
 7226SOL    HW233141   2.007   2.205   2.850  0.4487 -0.6288 -0.7198
 7227SOL     OW33142   2.284   0.463   5.158  0.5560  0.1229 -0.0087
 7227SOL    HW133143   2.331   0.534   5.202 -0.8452  1.4083 -0.5947
 7227SOL    HW233144   2.355   0.414   5.117  0.0298  1.8995 -3.1066
 7228SOL     OW33145   3.443   3.700   5.322  0.2264  0.1638 -0.0032
 7228SOL    HW133146   3.456   3.613   5.285  0.2538  0.2495 -0.1961
 7228SOL    HW233147   3.461   3.673   5.412  1.6459 -0.2837 -0.4258
 7229SOL     OW33148   0.222   0.782   6.085  0.5813  0.4502 -0.4027
 7229SOL    HW133149   0.273   0.834   6.023  1.2625  0.8392  0.4785
 7229SOL    HW233150   0.282   0.774   6.159 -1.1620 -1.3402  0.8171
 7230SOL     OW33151   3.113   2.638   8.491  0.2907 -0.0955 -0.3271
 7230SOL    HW133152   3.183   2.623   8.427 -0.5362 -1.0914 -0.9893
 7230SOL    HW233153   3.072   2.552   8.485  0.2496 -0.2772  2.5792
 7231SOL     OW33154   2.733   4.616   4.010  0.7658 -0.3509 -0.5553
 7231SOL    HW133155   2.665   4.673   4.046  2.6327  0.8270  1.1190
 7231SOL    HW233156   2.672   4.567   3.955 -1.1009 -0.5964  1.7063
 7232SOL     OW33157   4.056   2.928   4.688  0.3140  0.1479 -0.0777
 7232SOL    HW133158   4.011   2.854   4.647 -1.5773  0.1972  1.8903
 7232SOL    HW233159   4.061   2.908   4.781 -0.3560  1.4022  0.2282
 7233SOL     OW33160   3.480   3.970  15.369 -0.1376 -0.0563 -0.5647
 7233SOL    HW133161   3.481   3.935  15.280 -0.6098 -0.6070 -0.3527
 7233SOL    HW233162   3.516   3.893  15.412  1.1370  0.5224 -0.6161
 7234SOL     OW33163   3.555   0.176   0.537 -0.2507  0.1250  0.5362
 7234SOL    HW133164   3.633   0.214   0.577  2.1117 -2.0493 -1.9927
 7234SOL    HW233165   3.545   0.236   0.463  1.3797  1.5507  1.4640
 7235SOL     OW33166   2.497   2.208   1.870  0.2929  0.3781  0.0830
 7235SOL    HW133167   2.500   2.179   1.779 -0.5989  1.5008 -0.3031
 7235SOL    HW233168   2.585   2.212   1.907  0.4308 -1.3197 -0.0277
 7236SOL     OW33169   4.627   2.956   6.511  0.5326  0.9369 -0.0903
 7236SOL    HW133170   4.682   2.882   6.538  0.3073  0.7274 -0.2076
 7236SOL    HW233171   4.555   2.903   6.477 -0.0722  1.7272 -0.0458
 7237SOL     OW33172   2.488   3.684   9.101 -0.2476  0.1430  0.2126
 7237SOL    HW133173   2.442   3.737   9.037 -1.2737  2.1219  2.5682
 7237SOL    HW233174   2.420   3.662   9.165 -1.3306 -0.2552 -1.0813
 7238SOL     OW33175   0.821   0.193   4.457  0.6820  0.1370 -0.7039
 7238SOL    HW133176   0.731   0.213   4.433  0.1370 -2.5542 -1.0006
 7238SOL    HW233177   0.814   0.187   4.553  0.7854 -0.1625 -0.7147
 7239SOL     OW33178   2.437   3.853   5.016  0.5305  0.1334  0.8079
 7239SOL    HW133179   2.417   3.806   5.097  1.9968  0.8661  1.5871
 7239SOL    HW233180   2.531   3.866   5.022  0.9086 -2.6005  1.1764
 7240SOL     OW33181   0.686   3.133   8.345 -0.1205 -0.2380 -0.7300
 7240SOL    HW133182   0.645   3.170   8.267  1.8744  0.6155 -1.3817
 7240SOL    HW233183   0.739   3.061   8.312  1.4702  0.0176  1.3045
 7241SOL     OW33184   2.845   1.093  14.616  0.2337 -0.0814  0.3313
 7241SOL    HW133185   2.912   1.111  14.682 -0.6832  2.5003  0.5985
 7241SOL    HW233186   2.764   1.118  14.662  0.9818  0.3621  1.4167
 7242SOL     OW33187   0.089   2.186  13.943 -0.2761 -0.1021  0.4319
 7242SOL    HW133188   0.067   2.185  14.036 -0.2551  1.8882  0.4753
 7242SOL    HW233189   0.135   2.103  13.936  0.7430  0.1280  4.6706
 7243SOL     OW33190   1.400   3.989   4.058 -0.0132 -0.5009  0.1241
 7243SOL    HW133191   1.417   3.895   4.060  0.5270 -0.4207 -0.6278
 7243SOL    HW233192   1.481   4.023   4.019  0.6315 -1.0151  0.9923
 7244SOL     OW33193   1.128   3.781   2.697  0.2409  0.1867  0.4119
 7244SOL    HW133194   1.162   3.832   2.624 -0.6715  2.1791  1.3886
 7244SOL    HW233195   1.172   3.697   2.683  0.3121  0.2490  0.2618
 7245SOL     OW33196   2.827   4.596  17.648  0.7603 -0.2445  0.4696
 7245SOL    HW133197   2.867   4.682  17.640  0.8526 -0.3296  0.0342
 7245SOL    HW233198   2.759   4.617   0.008 -1.0508  0.8632 -1.8336
 7246SOL     OW33199   3.360   4.281   2.131  0.3414 -1.1759  0.0607
 7246SOL    HW133200   3.308   4.230   2.068 -0.1596  0.1411 -0.5897
 7246SOL    HW233201   3.292   4.346   2.152  1.5351  0.0565  0.0692
 7247SOL     OW33202   3.594   1.552  17.627  0.2620  0.2878  0.1695
 7247SOL    HW133203   3.577   1.604   0.001  0.4458  1.3961 -0.5152
 7247SOL    HW233204   3.519   1.574  17.571  0.1901  1.1917  0.6174
 7248SOL     OW33205   4.698   1.965   7.316  0.7503  0.0419  0.1957
 7248SOL    HW133206   4.674   1.883   7.357  2.6226  0.5041  2.2203
 7248SOL    HW233207   0.052   1.947   7.265 -0.1082 -2.4876 -0.2237
 7249SOL     OW33208   1.192   3.955   8.194  0.6433  0.1236  0.3129
 7249SOL    HW133209   1.189   4.002   8.277 -0.5049 -1.0964  0.9566
 7249SOL    HW233210   1.285   3.973   8.178  1.1017 -1.2594  1.5120
 7250SOL     OW33211   4.485   3.568  16.289  0.3412 -0.5370 -0.1322
 7250SOL    HW133212   4.516   3.612  16.368  1.6100 -2.1626  0.2686
 7250SOL    HW233213   4.423   3.506  16.329  2.4992 -1.8453  1.1724
 7251SOL     OW33214   2.514   1.468   8.301  0.4671  0.4400 -0.0570
 7251SOL    HW133215   2.490   1.462   8.209  3.5716 -1.0444 -0.7822
 7251SOL    HW233216   2.426   1.480   8.338  0.9960  0.3090  1.2401
 7252SOL     OW33217   4.381   2.995   8.694 -0.0951  0.1476  0.3238
 7252SOL    HW133218   4.367   2.900   8.704  2.5318 -0.3014 -0.3898
 7252SOL    HW233219   4.455   3.015   8.751  0.6284  0.4732 -0.7400
 7253SOL     OW33220   4.364   1.211   6.875 -0.3871 -0.1085  0.3215
 7253SOL    HW133221   4.348   1.137   6.817  2.0082  0.1897 -0.7038
 7253SOL    HW233222   4.282   1.206   6.924 -1.7964 -2.4359 -2.2522
 7254SOL     OW33223   0.578   4.187   9.773  0.6082 -0.2560 -0.6421
 7254SOL    HW133224   0.624   4.250   9.829  0.8666  0.6819 -1.9311
 7254SOL    HW233225   0.569   4.244   9.697  0.1339  0.3261 -0.1512
 7255SOL     OW33226   0.879   0.402   6.019  0.5662  0.3267 -0.2664
 7255SOL    HW133227   0.924   0.419   6.101  2.6262  1.7708 -1.6893
 7255SOL    HW233228   0.836   0.318   6.032  1.4245  0.3733  2.6946
 7256SOL     OW33229   0.991   2.668   3.702 -0.2169 -0.2658  0.0912
 7256SOL    HW133230   0.992   2.581   3.742  3.1973 -0.5091 -0.5633
 7256SOL    HW233231   1.042   2.663   3.621  1.4770 -0.7223  1.1810
 7257SOL     OW33232   2.102   0.532   3.266 -0.2094  0.4673 -0.3924
 7257SOL    HW133233   2.104   0.505   3.174  1.0385 -1.8767  0.3082
 7257SOL    HW233234   2.029   0.594   3.261 -0.4727  0.0897 -1.3497
 7258SOL     OW33235   0.735   1.016   6.037  0.2995 -0.2164 -0.5876
 7258SOL    HW133236   0.673   1.088   6.044 -1.8821 -2.2364  0.8328
 7258SOL    HW233237   0.735   0.998   5.943 -0.3024  2.8583 -1.2011
 7259SOL     OW33238   0.556   0.882   4.899 -0.4201  0.7673  0.2305
 7259SOL    HW133239   0.606   0.871   4.818 -1.1771  0.5971 -0.2032
 7259SOL    HW233240   0.606   0.955   4.936 -2.4941  1.9978  0.5960
 7260SOL     OW33241   0.041   0.590   7.468 -0.2182 -1.0591 -0.1766
 7260SOL    HW133242   0.099   0.556   7.536  0.8247  1.5865  0.2626
 7260SOL    HW233243   4.682   0.603   7.510  0.3592 -3.9194  1.8942
 7261SOL     OW33244   1.123   2.602   5.674 -0.3530 -0.1061 -0.4473
 7261SOL    HW133245   1.174   2.528   5.640  0.5111  0.2540  0.0601
 7261SOL    HW233246   1.196   2.650   5.712 -0.5865 -0.1938  0.1249
 7262SOL     OW33247   4.022   4.483  12.950  0.3781  0.6038  0.6506
 7262SOL    HW133248   3.939   4.520  12.921  0.6807 -0.1978 -1.2366
 7262SOL    HW233249   4.046   4.528  13.031  2.6057 -0.0467  0.3608
 7263SOL     OW33250   2.410   2.023   3.026  0.2614 -0.1059 -0.0248
 7263SOL    HW133251   2.479   1.959   3.006  0.1952 -0.3794  0.6164
 7263SOL    HW233252   2.338   1.962   3.008 -2.3375  2.0764  2.9353
 7264SOL     OW33253   2.647   4.549   2.800  0.5544  0.2259 -0.0641
 7264SOL    HW133254   2.569   4.574   2.848 -0.0489 -0.8074 -0.4987
 7264SOL    HW233255   2.652   4.614   2.730 -0.7282 -0.0055 -0.3670
 7265SOL     OW33256   3.015   4.679   7.723 -0.1822  0.3054 -0.0936
 7265SOL    HW133257   3.099   4.649   7.758 -0.6371 -0.8649 -0.0135
 7265SOL    HW233258   3.044   0.043   7.703  2.3676 -0.3693  0.6133
 7266SOL     OW33259   0.859   4.644   2.417 -0.1972 -0.2865  0.4958
 7266SOL    HW133260   0.819   4.682   2.495 -1.3462  0.4974 -0.4671
 7266SOL    HW233261   0.914   4.574   2.451 -0.7275 -1.4012 -0.9073
 7267SOL     OW33262   2.621   1.389   5.860  0.4805  0.6148  0.5263
 7267SOL    HW133263   2.620   1.294   5.851  2.8586  0.8425 -2.2701
 7267SOL    HW233264   2.530   1.418   5.867 -0.1022 -1.3137  0.9256
 7268SOL     OW33265   3.405   2.497   9.666  0.5041  0.4226  0.0350
 7268SOL    HW133266   3.426   2.571   9.722  2.0533  1.3372 -1.7537
 7268SOL    HW233267   3.321   2.474   9.706  0.2759  4.0611  1.6087
 7269SOL     OW33268   3.450   3.183   6.643  0.2237 -0.2174 -0.0592
 7269SOL    HW133269   3.540   3.153   6.653  0.1550 -0.4078 -0.0038
 7269SOL    HW233270   3.452   3.276   6.621 -0.7954 -0.0420  0.5528
 7270SOL     OW33271   1.155   0.544  15.949 -0.7764  0.3335 -0.5540
 7270SOL    HW133272   1.089   0.567  16.014 -2.0447  0.2179 -1.8122
 7270SOL    HW233273   1.128   0.602  15.878 -1.2798  1.0395  0.2220
 7271SOL     OW33274   2.227   1.136   7.748 -0.0923 -0.3026  0.1548
 7271SOL    HW133275   2.279   1.117   7.669 -0.9416  1.1553 -0.7384
 7271SOL    HW233276   2.183   1.056   7.776  1.4855 -1.4253 -0.5492
 7272SOL     OW33277   1.000   2.165   3.295  0.6374  0.2407  0.8324
 7272SOL    HW133278   1.004   2.191   3.203 -1.9425  2.9889  1.5112
 7272SOL    HW233279   0.912   2.130   3.295  0.7403 -0.0241 -2.9522
 7273SOL     OW33280   0.682   2.258   7.997 -0.6039  0.3873 -0.2730
 7273SOL    HW133281   0.595   2.251   8.036 -1.4056  1.9524 -1.8169
 7273SOL    HW233282   0.659   2.259   7.904 -0.2980  0.0712 -0.3540
 7274SOL     OW33283   2.360   4.165   5.649 -0.1354  0.0472 -0.4211
 7274SOL    HW133284   2.266   4.170   5.668 -0.7061 -1.0652 -2.9605
 7274SOL    HW233285   2.360   4.150   5.555  0.6179  1.1380 -0.6001
 7275SOL     OW33286   4.107   3.948  15.618 -0.0090  0.3426  0.3633
 7275SOL    HW133287   4.199   3.964  15.598  0.1105  0.8696  1.3743
 7275SOL    HW233288   4.080   3.902  15.539 -1.3184  0.0754  0.9731
 7276SOL     OW33289   3.437   4.621   3.764 -0.4695 -0.0639  0.1711
 7276SOL    HW133290   3.483   4.608   3.680  0.1281  0.4290  0.4265
 7276SOL    HW233291   3.470   4.546   3.814 -1.8365  0.7627  2.2895
 7277SOL     OW33292   3.647   4.187   5.931  0.1109  0.4623  0.3418
 7277SOL    HW133293   3.713   4.120   5.949  0.6469  0.5020 -1.4428
 7277SOL    HW233294   3.683   4.276   5.928  0.6655  0.2172 -0.2170
 7278SOL     OW33295   2.316   0.612  17.487 -0.4254  0.9495  0.6961
 7278SOL    HW133296   2.292   0.591  17.397  0.0554 -0.3687  0.8679
 7278SOL    HW233297   2.406   0.643  17.479 -0.2449 -0.5676 -2.8429
 7279SOL     OW33298   3.351   0.704   1.483  0.0436 -0.2234 -0.3359
 7279SOL    HW133299   3.268   0.752   1.485  0.9623  1.3754 -0.2774
 7279SOL    HW233300   3.331   0.638   1.549  1.5716  0.2021  0.5532
 7280SOL     OW33301   2.925   3.475   3.118  0.3477 -0.1601  0.1012
 7280SOL    HW133302   3.015   3.442   3.119  0.6879  0.7939  0.3735
 7280SOL    HW233303   2.907   3.480   3.024 -0.0713  0.3551  0.2122
 7281SOL     OW33304   2.334   3.297  14.868  0.1649 -0.7746  1.0407
 7281SOL    HW133305   2.385   3.326  14.792  0.8943 -1.6194  1.2055
 7281SOL    HW233306   2.254   3.348  14.858 -1.2222 -3.3992 -1.3619
 7282SOL     OW33307   1.205   0.520   3.189 -0.2652 -0.9199 -0.0987
 7282SOL    HW133308   1.193   0.535   3.095 -1.4487 -0.8477  0.0634
 7282SOL    HW233309   1.284   0.572   3.202 -1.8257  0.9325  1.8564
 7283SOL     OW33310   0.202   3.643   6.857 -0.1352 -0.0543  0.0277
 7283SOL    HW133311   0.160   3.572   6.808  2.5075 -0.1733 -2.0696
 7283SOL    HW233312   0.121   3.685   6.887  0.1691  1.9297 -1.8664
 7284SOL     OW33313   1.618   4.252  12.604  0.1554 -0.0026 -0.1463
 7284SOL    HW133314   1.653   4.188  12.666  1.0854  0.8048  0.1510
 7284SOL    HW233315   1.666   4.330  12.632  0.2029  0.7305 -2.2947
 7285SOL     OW33316   4.120   3.627  13.925 -0.1042 -0.1833  0.6021
 7285SOL    HW133317   4.174   3.648  13.848 -1.6488 -0.1298 -0.4694
 7285SOL    HW233318   4.187   3.624  13.993  2.2168 -1.4332 -1.6918
 7286SOL     OW33319   3.329   4.384  11.882 -0.2655  0.2333 -0.5387
 7286SOL    HW133320   3.267   4.320  11.847 -0.6245  1.1269 -1.5526
 7286SOL    HW233321   3.261   4.444  11.914  0.4373  1.0233 -0.5437
 7287SOL     OW33322   2.302   1.629   7.784 -0.1976 -0.4431  0.1006
 7287SOL    HW133323   2.273   1.540   7.806 -2.8556  0.2317 -0.7515
 7287SOL    HW233324   2.278   1.684   7.858  0.8572  1.0024 -0.6433
 7288SOL     OW33325   4.680   0.288  17.042  0.0746 -0.3878  0.2570
 7288SOL    HW133326   0.035   0.334  17.064  0.7542 -1.2620 -0.4287
 7288SOL    HW233327   4.702   0.197  17.063 -2.4251 -0.9154  0.5461
 7289SOL     OW33328   2.783   4.331   1.468  0.2076  0.1220  0.3695
 7289SOL    HW133329   2.720   4.260   1.455 -1.1569  1.2026  1.0789
 7289SOL    HW233330   2.754   4.386   1.395  0.8855  0.5599  0.4315
 7290SOL     OW33331   4.647   3.995  10.346  0.2506 -0.0994 -0.5355
 7290SOL    HW133332   4.558   4.027  10.360 -0.2834 -0.8187 -2.2482
 7290SOL    HW233333   4.676   3.991  10.437 -1.6337 -0.6618  0.0368
 7291SOL     OW33334   3.645   4.355   9.550  0.9808 -0.0108 -0.2935
 7291SOL    HW133335   3.670   4.373   9.640 -1.2112 -0.0956  0.3428
 7291SOL    HW233336   3.683   4.268   9.537 -1.0479 -1.0124  0.4831
 7292SOL     OW33337   2.165   2.141   7.587 -0.4079 -0.4939 -0.2661
 7292SOL    HW133338   2.234   2.076   7.579  0.2668  0.3074 -0.9788
 7292SOL    HW233339   2.107   2.099   7.524 -1.0482 -1.9906  1.3347
 7293SOL     OW33340   0.435   2.372   9.740 -0.0565 -0.1618  0.4516
 7293SOL    HW133341   0.375   2.299   9.756  0.0770 -0.7203 -1.6772
 7293SOL    HW233342   0.475   2.331   9.664  1.2618 -0.2830  1.2007
 7294SOL     OW33343   2.923   0.092   3.987  0.0964  0.0994 -0.4660
 7294SOL    HW133344   2.890   0.146   3.915  1.3081 -1.8547 -2.4997
 7294SOL    HW233345   2.857   0.022   3.985 -0.0220  0.1840  0.8082
 7295SOL     OW33346   3.508   0.752  15.633  0.3584 -0.5078 -0.3344
 7295SOL    HW133347   3.456   0.702  15.571 -0.1300 -1.9068  1.1949
 7295SOL    HW233348   3.516   0.697  15.711  2.1911 -0.7733 -0.7138
 7296SOL     OW33349   1.111   2.282   4.376  0.5479  0.6415 -0.5331
 7296SOL    HW133350   1.176   2.252   4.439  1.0346  0.2211 -1.2342
 7296SOL    HW233351   1.080   2.352   4.432 -0.6813 -0.2223 -0.1469
 7297SOL     OW33352   2.660   3.568   7.336 -0.6154  0.6273 -0.2239
 7297SOL    HW133353   2.591   3.525   7.286  0.8351  1.3623 -2.8982
 7297SOL    HW233354   2.606   3.594   7.410 -0.5708 -0.6699  0.2660
 7298SOL     OW33355   4.448   3.154   9.223  0.1048 -0.3110 -0.2568
 7298SOL    HW133356   4.438   3.123   9.313  0.0049  0.8703  0.1253
 7298SOL    HW233357   4.512   3.086   9.199 -0.1915 -0.5562 -0.3663
 7299SOL     OW33358   3.025   0.914   4.876 -0.1188 -0.0881 -0.3461
 7299SOL    HW133359   2.951   0.873   4.832  0.5950  0.1142 -1.7095
 7299SOL    HW233360   3.069   0.951   4.799 -1.1072  0.9314 -0.4095
 7300SOL     OW33361   0.238   4.455   7.433 -0.2884  0.3383  0.0315
 7300SOL    HW133362   0.237   4.386   7.367  0.5420 -0.1040  0.4905
 7300SOL    HW233363   0.256   4.531   7.378 -1.9264 -0.4292 -1.5498
 7301SOL     OW33364   3.072   3.107   9.074  0.5247 -0.1370  0.5284
 7301SOL    HW133365   3.155   3.095   9.027 -0.3691  0.2570 -1.1542
 7301SOL    HW233366   3.019   3.157   9.013  0.9202 -0.2867  0.0607
 7302SOL     OW33367   1.984   1.798   2.428 -0.2022  0.4798 -0.7144
 7302SOL    HW133368   1.962   1.704   2.431  0.0208  0.4223 -0.8389
 7302SOL    HW233369   1.900   1.838   2.407 -1.2153 -1.3094 -0.1175
 7303SOL     OW33370   1.233   2.380   9.407  0.4343 -0.3872 -0.1033
 7303SOL    HW133371   1.302   2.445   9.390  0.8380 -0.4757  1.1578
 7303SOL    HW233372   1.268   2.314   9.347 -1.0951 -1.4625  0.1934
 7304SOL     OW33373   0.605   3.311   3.233  0.7594  0.1226 -0.2787
 7304SOL    HW133374   0.598   3.338   3.141 -0.3188 -1.6336 -0.6912
 7304SOL    HW233375   0.537   3.245   3.245  1.5507 -1.0967 -2.4292
 7305SOL     OW33376   1.948   1.680   5.251  0.3647 -0.2519  0.1442
 7305SOL    HW133377   1.931   1.774   5.244 -2.8725 -0.7542  1.1207
 7305SOL    HW233378   2.041   1.676   5.270  0.4097  0.4057  0.0496
 7306SOL     OW33379   4.507   4.646  12.241 -0.4145 -0.2050 -0.2830
 7306SOL    HW133380   4.414   4.632  12.256 -0.6068 -0.7529 -1.8914
 7306SOL    HW233381   4.535   4.581  12.305 -1.2061 -1.1569 -0.8932
 7307SOL     OW33382   0.879   1.129   0.108 -0.0214  0.0042 -0.0400
 7307SOL    HW133383   0.848   1.219   0.099 -1.2375 -0.1792  2.4030
 7307SOL    HW233384   0.839   1.082   0.034 -0.7041 -2.0637  1.6604
 7308SOL     OW33385   0.255   4.045   5.432 -0.1094  0.1571 -0.8270
 7308SOL    HW133386   0.225   3.955   5.421 -2.1958  0.4796  2.4233
 7308SOL    HW233387   0.195   4.078   5.365  0.2631  0.7850 -0.8521
 7309SOL     OW33388   3.375   1.495   1.322 -0.0154 -0.0259  0.0725
 7309SOL    HW133389   3.408   1.473   1.409  0.8645  0.7057 -0.0711
 7309SOL    HW233390   3.292   1.538   1.340 -0.7377 -1.2361 -0.3727
 7310SOL     OW33391   2.741   3.665   5.547  0.3809  0.2967 -0.2515
 7310SOL    HW133392   2.832   3.638   5.555  0.0691 -1.0206 -1.2754
 7310SOL    HW233393   2.714   3.691   5.636  0.9606 -0.1383  0.0449
 7311SOL     OW33394   1.112   3.830   9.867  0.5986 -0.1316  0.8182
 7311SOL    HW133395   1.182   3.842   9.803  1.7646 -0.8975  1.9563
 7311SOL    HW233396   1.052   3.902   9.850 -1.3066 -2.2565 -1.4117
 7312SOL     OW33397   3.927   2.194   2.900 -0.0494 -0.1719 -0.4245
 7312SOL    HW133398   3.942   2.173   2.807 -1.2522 -1.8727 -0.2398
 7312SOL    HW233399   3.932   2.290   2.900 -1.4534 -0.0922 -1.6822
 7313SOL     OW33400   0.981   4.573  12.641 -0.0399  0.1794 -1.1423
 7313SOL    HW133401   1.050   4.513  12.611 -1.0331 -1.5698  0.1396
 7313SOL    HW233402   1.033   4.650  12.663 -1.5203  0.1337  2.3914
 7314SOL     OW33403   2.928   0.638   2.766  0.0370 -0.5038  0.4248
 7314SOL    HW133404   2.915   0.656   2.859  1.0343  0.3222  0.4043
 7314SOL    HW233405   2.945   0.544   2.770 -1.2399 -0.7466  0.0722
 7315SOL     OW33406   3.591   2.380   9.344  0.2150 -0.2359 -0.1398
 7315SOL    HW133407   3.642   2.441   9.397  0.1984 -0.1434 -0.2289
 7315SOL    HW233408   3.624   2.292   9.362 -1.9117 -0.3450  3.1702
 7316SOL     OW33409   1.868   3.321  11.214  0.4320 -0.6049  0.1444
 7316SOL    HW133410   1.831   3.260  11.150 -1.2885  0.2619  0.3082
 7316SOL    HW233411   1.960   3.298  11.209  0.1863 -1.7964  1.1278
 7317SOL     OW33412   1.805   2.236  12.753 -0.3308  0.0042 -0.1113
 7317SOL    HW133413   1.800   2.266  12.844 -2.3370 -0.0760 -0.1834
 7317SOL    HW233414   1.711   2.227  12.734  0.3210 -0.5733 -3.0927
 7318SOL     OW33415   0.224   1.477  10.747 -0.4650  0.3217 -0.1345
 7318SOL    HW133416   0.186   1.562  10.769 -0.1146  0.3684  0.3162
 7318SOL    HW233417   0.313   1.502  10.722  0.6438 -1.8219  1.6173
 7319SOL     OW33418   0.506   3.247  10.449  0.1821 -0.2176  0.0054
 7319SOL    HW133419   0.493   3.189  10.374  0.2747  2.1996 -1.8709
 7319SOL    HW233420   0.456   3.197  10.514 -0.9991  0.8825 -0.0622
 7320SOL     OW33421   2.046   2.146   7.285 -0.5041 -0.1806 -0.3398
 7320SOL    HW133422   1.971   2.145   7.227  0.7775 -0.9476 -1.9771
 7320SOL    HW233423   2.018   2.085   7.354 -0.6574 -0.6828 -0.8419
 7321SOL     OW33424   0.545   3.481   4.933  0.1257  0.4039 -0.7183
 7321SOL    HW133425   0.465   3.472   4.984  0.3692 -0.8567 -0.5577
 7321SOL    HW233426   0.604   3.500   5.005  0.8738 -0.3992 -1.1180
 7322SOL     OW33427   4.095   1.132   8.092 -0.5345 -0.0013  0.4507
 7322SOL    HW133428   4.168   1.193   8.090 -1.1311  0.7793  2.1212
 7322SOL    HW233429   4.038   1.157   8.018  1.0854 -0.6716 -1.0239
 7323SOL     OW33430   0.995   0.448   6.771 -0.4304  0.2006  0.2169
 7323SOL    HW133431   0.916   0.495   6.744 -0.0845  0.1068 -0.9598
 7323SOL    HW233432   1.053   0.443   6.695 -0.1486  0.5665  0.4054
 7324SOL     OW33433   4.312   3.701   4.586  0.2842  0.3031 -0.3686
 7324SOL    HW133434   4.406   3.720   4.593  0.4869 -0.1376 -1.8797
 7324SOL    HW233435   4.293   3.771   4.525  0.6884 -0.5747 -1.5056
 7325SOL     OW33436   2.654   0.853   4.567  0.5614 -0.0508 -0.2148
 7325SOL    HW133437   2.571   0.840   4.612  0.0199 -0.3338 -1.3021
 7325SOL    HW233438   2.677   0.943   4.589 -0.5900  0.2183 -0.1649
 7326SOL     OW33439   4.488   1.225   9.746  0.0681  0.6688 -0.3966
 7326SOL    HW133440   4.471   1.308   9.701  0.3217  1.3894  0.8164
 7326SOL    HW233441   4.575   1.209   9.711 -1.3782 -2.9584 -2.3366
 7327SOL     OW33442   0.942   2.806   1.314  0.2414 -0.6169  0.1776
 7327SOL    HW133443   0.864   2.857   1.338  0.7839  1.2263 -1.9617
 7327SOL    HW233444   1.008   2.858   1.360 -0.8733  0.0405  1.0270
 7328SOL     OW33445   1.439   3.575   6.385 -0.0936 -0.1560  0.4136
 7328SOL    HW133446   1.375   3.636   6.347  1.2427  1.6478  1.0717
 7328SOL    HW233447   1.500   3.581   6.312 -0.4102 -1.9451  0.0118
 7329SOL     OW33448   1.485   2.505   7.855  0.2232  0.4282  1.0147
 7329SOL    HW133449   1.427   2.525   7.782 -2.3006  1.9643  3.4193
 7329SOL    HW233450   1.419   2.489   7.922  1.0151 -1.0921  1.4312
 7330SOL     OW33451   2.673   3.525   6.838 -0.2854 -0.2051  0.0904
 7330SOL    HW133452   2.598   3.509   6.780  1.7412 -2.0934 -2.0387
 7330SOL    HW233453   2.744   3.482   6.789 -0.4430 -1.5181  0.9887
 7331SOL     OW33454   2.705   1.904   0.819  0.0646  0.3389  0.4025
 7331SOL    HW133455   2.776   1.956   0.855 -0.5577  1.2804  0.2647
 7331SOL    HW233456   2.637   1.971   0.822 -0.0176  0.1666  1.9950
 7332SOL     OW33457   3.401   1.386  11.090  0.2550  0.2938 -0.1644
 7332SOL    HW133458   3.466   1.429  11.035 -0.4079  1.0653 -0.3410
 7332SOL    HW233459   3.429   1.294  11.088 -2.6867 -0.5963 -0.4572
 7333SOL     OW33460   0.307   2.390   0.483 -0.4763  0.5546  0.6110
 7333SOL    HW133461   0.266   2.457   0.537 -0.5826 -0.9178  2.3390
 7333SOL    HW233462   0.383   2.358   0.532  1.2156  0.5588 -1.9925
 7334SOL     OW33463   2.228   1.641   3.522  0.1053 -0.4952 -0.0965
 7334SOL    HW133464   2.233   1.674   3.612  1.6197 -0.5219 -0.1672
 7334SOL    HW233465   2.150   1.585   3.526  0.2883 -0.7096  0.4040
 7335SOL     OW33466   1.758   3.767   5.164 -0.2607 -0.2343 -0.8920
 7335SOL    HW133467   1.804   3.687   5.189 -1.8504 -0.0888  2.4818
 7335SOL    HW233468   1.718   3.789   5.248 -0.4629 -2.2701 -0.4555
 7336SOL     OW33469   3.572   2.792  12.267 -0.3173  0.1228  0.4065
 7336SOL    HW133470   3.540   2.869  12.219  0.0099  0.8757  1.3894
 7336SOL    HW233471   3.559   2.723  12.203  2.6729 -0.7687  0.7485
 7337SOL     OW33472   1.271   4.464  16.197  0.4913  0.3159 -0.4332
 7337SOL    HW133473   1.249   4.555  16.217 -0.2929 -0.2861  1.4500
 7337SOL    HW233474   1.190   4.424  16.229 -0.1370  2.1642  0.2714
 7338SOL     OW33475   0.207   1.529   1.215  0.6386 -0.4335 -0.3886
 7338SOL    HW133476   0.165   1.535   1.129  1.3322  1.6494 -0.5878
 7338SOL    HW233477   0.170   1.444   1.238  0.9605  0.4977  3.5843
 7339SOL     OW33478   2.264   3.652   6.287  0.3448  0.1031  0.0114
 7339SOL    HW133479   2.291   3.617   6.373 -1.1308  1.1020  0.8776
 7339SOL    HW233480   2.252   3.743   6.314  1.4840  0.2123  0.1249
 7340SOL     OW33481   0.904   3.615  14.071 -0.0261 -0.2356 -0.3149
 7340SOL    HW133482   0.988   3.615  14.116  0.0363  0.7049 -0.4130
 7340SOL    HW233483   0.883   3.709  14.065  0.6700 -0.1309 -1.0598
 7341SOL     OW33484   4.521   2.103  15.156 -0.0146  0.4468  0.0791
 7341SOL    HW133485   4.559   2.053  15.228  0.4413  0.8491  0.1183
 7341SOL    HW233486   4.551   2.057  15.078 -1.0982  0.7129 -0.4958
 7342SOL     OW33487   2.994   1.752  12.116  0.1554 -0.5688  0.3563
 7342SOL    HW133488   3.011   1.846  12.122 -0.3917 -0.5406  1.4856
 7342SOL    HW233489   2.905   1.756  12.083  0.4344 -2.3906 -0.5882
 7343SOL     OW33490   2.804   1.963   9.129 -0.6737  0.2326 -0.4647
 7343SOL    HW133491   2.793   1.885   9.183 -0.6222  1.0004  0.6472
 7343SOL    HW233492   2.886   1.939   9.086 -0.3885 -1.3308  0.9836
 7344SOL     OW33493   2.484   2.881  15.933 -0.1359 -0.6783 -0.6754
 7344SOL    HW133494   2.574   2.849  15.935  0.5863  1.3974  0.3121
 7344SOL    HW233495   2.442   2.823  15.997  0.7717 -0.7495 -0.1502
 7345SOL     OW33496   2.607   4.547   7.024 -0.6785  0.3543 -0.0198
 7345SOL    HW133497   2.595   4.480   6.956  2.2093 -0.6670  0.4701
 7345SOL    HW233498   2.603   4.489   7.100 -2.3273  1.1551  0.4989
 7346SOL     OW33499   0.490   3.254   7.608 -0.6050  1.1844  0.6742
 7346SOL    HW133500   0.421   3.282   7.668 -1.4291  1.9607 -0.6479
 7346SOL    HW233501   0.528   3.336   7.579  0.3487  0.1430 -1.0110
 7347SOL     OW33502   1.311   3.019   6.438  0.2002  0.2274 -0.4542
 7347SOL    HW133503   1.399   3.033   6.473 -1.5598  0.6802  3.7334
 7347SOL    HW233504   1.295   2.925   6.450  0.7041  0.3991  1.5324
 7348SOL     OW33505   2.384   1.296   9.278 -0.7706 -0.2758 -0.0692
 7348SOL    HW133506   2.415   1.261   9.361  1.8816  1.4686 -0.3228
 7348SOL    HW233507   2.469   1.292   9.235 -0.5541 -0.7379  0.4086
 7349SOL     OW33508   3.876   2.888   3.928 -0.7396 -0.0362  0.4494
 7349SOL    HW133509   3.845   2.798   3.917  0.6992 -0.6759  1.5546
 7349SOL    HW233510   3.970   2.870   3.934  0.2487  5.7842  2.5657
 7350SOL     OW33511   3.938   1.107  17.378 -0.0271  0.1651 -0.0940
 7350SOL    HW133512   4.025   1.078  17.407  0.1882  0.7186 -0.1889
 7350SOL    HW233513   3.912   1.029  17.329  0.5311 -0.7549  1.0502
 7351SOL     OW33514   3.888   0.916   1.029 -0.1886 -0.2012 -0.2128
 7351SOL    HW133515   3.894   0.959   1.114 -1.9001  0.7231 -0.5457
 7351SOL    HW233516   3.975   0.939   0.996 -1.8636  1.3505 -3.5778
 7352SOL     OW33517   1.691   2.300   5.152 -0.0543  0.1270  0.1170
 7352SOL    HW133518   1.601   2.278   5.176  0.4383 -0.4126  1.4794
 7352SOL    HW233519   1.735   2.316   5.236 -0.8143  0.8302  0.3748
 7353SOL     OW33520   1.337   4.243   3.641  0.0697 -0.5109 -0.6038
 7353SOL    HW133521   1.355   4.157   3.603  0.3085 -0.9116  0.4070
 7353SOL    HW233522   1.393   4.302   3.590  1.9181 -1.3516  0.4402
 7354SOL     OW33523   4.228   3.259  11.248  0.0687 -0.2616 -0.0290
 7354SOL    HW133524   4.322   3.271  11.233 -0.1743 -0.5611 -1.8368
 7354SOL    HW233525   4.203   3.350  11.263  1.6343  0.2501 -0.4113
 7355SOL     OW33526   2.757   2.634   5.381  0.2436  0.0544 -0.4809
 7355SOL    HW133527   2.818   2.561   5.392  1.1688  0.8598 -0.3009
 7355SOL    HW233528   2.709   2.603   5.304 -0.5241 -1.7879  0.7479
 7356SOL     OW33529   0.488   2.452   7.600  0.3696 -0.2894 -0.2308
 7356SOL    HW133530   0.480   2.365   7.559 -1.0308  0.0711 -0.7068
 7356SOL    HW233531   0.432   2.429   7.674  0.4682 -0.0222 -0.0765
 7357SOL     OW33532   4.548   2.220   0.950 -1.2700 -0.0906 -0.2527
 7357SOL    HW133533   4.545   2.239   0.856  0.3133 -2.0071 -0.7012
 7357SOL    HW233534   4.643   2.222   0.960 -1.5113  1.6048  1.5693
 7358SOL     OW33535   3.564   2.196   2.878  0.1436 -0.0391 -0.1341
 7358SOL    HW133536   3.628   2.256   2.839 -0.9323  1.0243 -0.2806
 7358SOL    HW233537   3.504   2.185   2.805  1.6063  1.0391 -1.5102
 7359SOL     OW33538   1.114   3.238   4.280 -0.3708  0.1298 -0.1667
 7359SOL    HW133539   1.088   3.299   4.211 -1.0080  0.3176  0.2345
 7359SOL    HW233540   1.022   3.224   4.304  0.1759  1.2936  2.6681
 7360SOL     OW33541   1.701   0.166  17.138  0.7035  0.3715 -0.6965
 7360SOL    HW133542   1.738   0.196  17.221  1.7795  1.0446 -1.4130
 7360SOL    HW233543   1.619   0.216  17.138  0.4507 -0.0686 -5.1283
 7361SOL     OW33544   2.971   3.116   4.458 -0.3774 -0.2939  0.1839
 7361SOL    HW133545   3.024   3.192   4.482 -1.6111  1.1529 -1.6907
 7361SOL    HW233546   3.039   3.048   4.459 -1.7506 -1.6998 -0.6711
 7362SOL     OW33547   3.661   2.944  10.380 -0.0834  0.2232  0.1547
 7362SOL    HW133548   3.750   2.919  10.353  0.2744  2.4579 -0.7447
 7362SOL    HW233549   3.670   3.029  10.422  0.4685  0.8631 -1.2552
 7363SOL     OW33550   3.396   3.469   6.655 -0.3007 -0.3612  0.7031
 7363SOL    HW133551   3.471   3.528   6.655 -0.8587  0.3478  2.0653
 7363SOL    HW233552   3.340   3.509   6.588  2.1053  0.3186 -0.8829
 7364SOL     OW33553   2.323   1.929   7.536  0.3058  0.0192 -0.2946
 7364SOL    HW133554   2.392   1.909   7.473 -1.6746  0.6996 -2.7015
 7364SOL    HW233555   2.243   1.896   7.494  0.4656  0.1880 -0.7373
 7365SOL     OW33556   2.907   4.047   6.202 -0.3945  0.0471 -0.9130
 7365SOL    HW133557   2.997   4.024   6.179 -0.6236  0.8708 -2.5831
 7365SOL    HW233558   2.863   4.034   6.119 -2.8571 -0.1988  0.4411
 7366SOL     OW33559   3.564   3.852   8.990  0.2129  0.2431 -0.0759
 7366SOL    HW133560   3.491   3.800   8.959  0.9367  0.6465 -2.4655
 7366SOL    HW233561   3.572   3.899   8.907  2.4625 -1.6639 -0.9130
 7367SOL     OW33562   0.940   4.089   5.266 -0.2230 -0.5574  0.2789
 7367SOL    HW133563   0.968   4.043   5.187  0.1762  2.5736 -1.4075
 7367SOL    HW233564   0.887   4.158   5.226  2.6886  0.3520 -2.0433
 7368SOL     OW33565   1.994   3.018   7.964  0.4418 -0.1849  0.3121
 7368SOL    HW133566   1.988   3.103   8.009  1.0069 -0.1864  0.3822
 7368SOL    HW233567   1.927   2.976   8.018  1.5720  0.1627  1.9888
 7369SOL     OW33568   2.225   0.286  14.141 -0.0927  0.2836  0.2105
 7369SOL    HW133569   2.299   0.259  14.087  2.1449 -0.4577  3.6683
 7369SOL    HW233570   2.169   0.211  14.118  2.7724 -1.7262 -0.1980
 7370SOL     OW33571   0.282   2.595   5.449  0.3256  0.0648 -0.0735
 7370SOL    HW133572   0.336   2.520   5.424 -3.4415 -2.7434  0.1213
 7370SOL    HW233573   0.223   2.559   5.516  4.1326 -0.2570  3.1009
 7371SOL     OW33574   0.708   3.811   5.383 -0.6295  0.3029 -0.9545
 7371SOL    HW133575   0.710   3.877   5.453  0.2210 -0.1608 -0.5369
 7371SOL    HW233576   0.674   3.855   5.305  1.1067  0.0803 -1.8418
 7372SOL     OW33577   4.397   4.026   1.735  0.4167  0.3600 -0.7671
 7372SOL    HW133578   4.401   4.039   1.830  2.6175 -1.2799 -0.6301
 7372SOL    HW233579   4.436   3.939   1.727 -0.6894 -0.2163  0.1246
 7373SOL     OW33580   4.096   2.172  10.062 -0.1560 -0.0425 -0.7472
 7373SOL    HW133581   4.092   2.079  10.043  0.7655 -0.2011 -0.1074
 7373SOL    HW233582   4.006   2.187  10.092  1.1501  0.3772  2.9311
 7374SOL     OW33583   2.039   2.303   5.685 -0.5675  0.3849 -0.1435
 7374SOL    HW133584   2.031   2.250   5.605 -1.8391  3.4668 -2.0670
 7374SOL    HW233585   1.985   2.251   5.744 -0.7089 -0.5636 -1.1129
 7375SOL     OW33586   1.693   4.682   3.800 -0.2875  0.2719 -0.4184
 7375SOL    HW133587   1.634   4.651   3.733  1.0597 -1.1156 -0.9719
 7375SOL    HW233588   1.713   0.043   3.764  0.3679 -0.0931 -0.9328
 7376SOL     OW33589   0.779   2.907  14.988  0.3215 -0.1613  0.4385
 7376SOL    HW133590   0.778   2.987  15.041  0.2366  0.6048 -0.7273
 7376SOL    HW233591   0.696   2.868  15.016 -0.0472 -1.5316 -2.6286
 7377SOL     OW33592   1.418   4.082  13.835  0.0273  0.4052  0.2604
 7377SOL    HW133593   1.495   4.138  13.837 -0.6000  1.3234 -1.2838
 7377SOL    HW233594   1.420   4.047  13.746 -2.9605 -0.1098  0.3740
 7378SOL     OW33595   3.188   3.420  11.159 -0.5567 -0.3267 -0.3503
 7378SOL    HW133596   3.133   3.361  11.107  1.4153 -0.5411 -2.2089
 7378SOL    HW233597   3.129   3.465  11.219 -0.2883  0.6441 -0.8090
 7379SOL     OW33598   2.374   0.004   2.235  0.2168 -0.4970 -0.0642
 7379SOL    HW133599   2.409   4.725   2.324 -0.5511  1.1581  0.3451
 7379SOL    HW233600   2.447   4.703   2.179  0.0159 -0.7076 -0.2274
 7380SOL     OW33601   0.662   1.278   9.306  0.4806  0.0826 -0.3715
 7380SOL    HW133602   0.712   1.355   9.332  0.0787  1.4581 -3.6521
 7380SOL    HW233603   0.642   1.241   9.391 -1.2083  1.5473 -0.1403
 7381SOL     OW33604   1.449   4.539   7.610 -0.0688 -0.0417  0.7355
 7381SOL    HW133605   1.361   4.516   7.579 -0.9217  0.0279  3.1335
 7381SOL    HW233606   1.433   4.597   7.684  2.7346  0.0696  1.2487
 7382SOL     OW33607   1.820   3.685   0.467 -0.1987 -0.1361 -0.1422
 7382SOL    HW133608   1.744   3.634   0.441  0.3066 -0.8930 -0.1369
 7382SOL    HW233609   1.839   3.731   0.385  5.0158 -1.0802  0.5144
 7383SOL     OW33610   0.836   2.179   2.828 -0.1730 -0.0678  0.0262
 7383SOL    HW133611   0.798   2.247   2.772  0.4155  3.0183  3.3541
 7383SOL    HW233612   0.908   2.230   2.863  0.9109 -1.3986 -0.2739
 7384SOL     OW33613   0.071   0.599   0.576  0.2453  0.2402  0.0899
 7384SOL    HW133614   0.009   0.671   0.590 -0.7941 -0.3985 -1.2863
 7384SOL    HW233615   0.115   0.639   0.500  0.9852  1.1717  0.9971
 7385SOL     OW33616   3.146   3.320   6.986  0.2801  0.0774 -0.3000
 7385SOL    HW133617   3.137   3.240   7.038  2.8056  1.0780  1.6750
 7385SOL    HW233618   3.062   3.330   6.941  0.0629 -1.9616 -0.3402
 7386SOL     OW33619   3.302   3.637   8.216 -0.3210 -0.1701  0.0950
 7386SOL    HW133620   3.350   3.573   8.164  0.0396 -0.0985  0.3331
 7386SOL    HW233621   3.339   3.717   8.177 -2.1922  1.7861  2.2827
 7387SOL     OW33622   0.466   0.597   4.548 -0.1472  0.0452 -0.4492
 7387SOL    HW133623   0.393   0.659   4.542 -0.1382  0.0598 -0.4037
 7387SOL    HW233624   0.474   0.596   4.643 -1.1816  1.8987 -0.3475
 7388SOL     OW33625   3.182   0.287   0.457  0.1848 -0.3577 -0.1462
 7388SOL    HW133626   3.205   0.203   0.419  0.5021 -0.4704  0.3023
 7388SOL    HW233627   3.109   0.258   0.513  0.1525  0.6897  0.3621
 7389SOL     OW33628   3.405   1.367  13.694 -0.1884 -0.1637 -0.1077
 7389SOL    HW133629   3.430   1.345  13.784 -0.1039 -1.6384 -0.4939
 7389SOL    HW233630   3.466   1.439  13.678  1.1291 -0.9728  1.2360
 7390SOL     OW33631   2.809   1.857   5.100 -0.6203  0.1868  0.9132
 7390SOL    HW133632   2.814   1.927   5.166  1.2449 -1.0788  2.1208
 7390SOL    HW233633   2.880   1.896   5.048 -0.7394  0.6271  1.0743
 7391SOL     OW33634   2.506   4.387   5.666  0.2962 -0.1331  0.2705
 7391SOL    HW133635   2.447   4.312   5.658 -0.7458  0.4768  2.0281
 7391SOL    HW233636   2.553   4.383   5.583 -0.2425 -0.1347 -0.0331
 7392SOL     OW33637   2.097   0.147   7.880 -0.5381  0.1129  0.3647
 7392SOL    HW133638   2.100   0.119   7.788  0.0409  2.0953 -0.2305
 7392SOL    HW233639   2.009   0.127   7.909 -0.6687  0.9194  0.5240
 7393SOL     OW33640   2.357   3.702   5.287 -0.0277 -0.5909 -0.3092
 7393SOL    HW133641   2.316   3.669   5.367  0.8775  0.6665  0.6719
 7393SOL    HW233642   2.433   3.752   5.318  1.5131 -1.9472 -1.9453
 7394SOL     OW33643   1.055   4.248   6.732  0.5351  0.5233 -0.1981
 7394SOL    HW133644   1.016   4.208   6.655 -0.3718  1.5359 -0.2645
 7394SOL    HW233645   0.997   4.207   6.797  0.5532  3.0821  1.4164
 7395SOL     OW33646   2.832   0.883   2.531 -0.1231  0.2328 -0.0392
 7395SOL    HW133647   2.744   0.849   2.515  0.1505 -0.7884  0.5711
 7395SOL    HW233648   2.847   0.864   2.624  1.5323  1.6812 -0.0057
 7396SOL     OW33649   4.147   2.070  16.703 -0.1043 -0.5403  0.1279
 7396SOL    HW133650   4.180   2.137  16.762 -0.6912 -0.1478  0.0110
 7396SOL    HW233651   4.098   2.121  16.639  2.3640 -1.2148 -2.3337
 7397SOL     OW33652   4.358   3.992  11.272  0.1893 -0.2331 -0.7663
 7397SOL    HW133653   4.394   4.035  11.349  0.6770  0.7594 -1.5425
 7397SOL    HW233654   4.429   3.937  11.238  0.9933  1.6813 -2.2097
 7398SOL     OW33655   4.414   4.409   6.990  0.0951 -0.0663  0.1056
 7398SOL    HW133656   4.389   4.333   6.937  1.3727  0.2540 -0.9466
 7398SOL    HW233657   4.491   4.372   7.034 -0.7717 -2.4952 -0.3774
 7399SOL     OW33658   3.770   4.177   6.846 -0.5721 -0.2919  0.5015
 7399SOL    HW133659   3.753   4.198   6.754 -0.5350 -1.0137  0.3309
 7399SOL    HW233660   3.841   4.239   6.863 -0.8029 -0.0773  0.6850
 7400SOL     OW33661   0.678   4.248   0.934  0.4604 -0.3008  0.6225
 7400SOL    HW133662   0.591   4.208   0.933  0.6482 -0.6525 -1.0458
 7400SOL    HW233663   0.652   4.339   0.926  2.2683  0.2215  0.7466
 7401SOL     OW33664   4.416   2.123  12.085 -0.6400  0.1923 -0.0200
 7401SOL    HW133665   4.471   2.053  12.050  0.7948  0.2177  2.1554
 7401SOL    HW233666   4.361   2.074  12.145 -0.5929 -0.6651 -0.6892
 7402SOL     OW33667   4.542   4.143  15.469 -0.3308 -0.3678  0.9979
 7402SOL    HW133668   4.569   4.210  15.532 -0.7099  1.2034 -0.5203
 7402SOL    HW233669   4.457   4.108  15.496  0.0244 -1.2798  0.9712
 7403SOL     OW33670   3.423   1.983   4.819 -0.0374  0.6632  0.2292
 7403SOL    HW133671   3.469   1.899   4.823 -0.0569  0.6678  0.6069
 7403SOL    HW233672   3.464   2.025   4.744 -1.4729  1.0243 -0.3359
 7404SOL     OW33673   3.796   2.928   0.020  0.3512 -0.4262 -0.2446
 7404SOL    HW133674   3.842   2.913  17.642  0.6127 -3.4494  0.4652
 7404SOL    HW233675   3.815   3.021   0.030  0.0210 -0.1173 -2.3404
 7405SOL     OW33676   1.505   3.267   9.416  0.2404  0.0504 -0.4066
 7405SOL    HW133677   1.597   3.274   9.390  0.6732 -1.4129  0.7499
 7405SOL    HW233678   1.509   3.214   9.495 -3.0146 -0.1162 -0.3789
 7406SOL     OW33679   2.977   4.650   5.812 -0.7957 -0.6234 -0.3663
 7406SOL    HW133680   2.947   4.719   5.753  1.0065  0.3228 -0.1720
 7406SOL    HW233681   3.009   4.712   5.878 -0.2975 -0.8706 -0.3760
 7407SOL     OW33682   3.541   0.422   8.315  0.2214 -0.5544  0.0467
 7407SOL    HW133683   3.571   0.335   8.340  0.2308 -0.5245  0.1397
 7407SOL    HW233684   3.457   0.438   8.359  0.3533 -1.6704  0.7072
 7408SOL     OW33685   3.728   3.794   6.928 -0.2265  0.6215  0.3647
 7408SOL    HW133686   3.782   3.813   7.005 -0.2718 -1.0757  0.8136
 7408SOL    HW233687   3.645   3.771   6.970 -0.7080  1.6755 -0.0063
 7409SOL     OW33688   0.310   2.612   7.937 -0.4940  0.1396 -0.0301
 7409SOL    HW133689   0.399   2.620   7.971  0.1266 -1.2876 -1.3020
 7409SOL    HW233690   0.266   2.584   8.017  1.6697 -1.1512  0.6949
 7410SOL     OW33691   3.757   2.483  11.514 -0.3120 -0.0968 -0.5798
 7410SOL    HW133692   3.719   2.414  11.567 -1.7098  2.7114  2.0789
 7410SOL    HW233693   3.683   2.504  11.457 -0.2545 -0.8489 -0.9257
 7411SOL     OW33694   2.942   4.079   8.644 -0.0431 -0.1802  0.2852
 7411SOL    HW133695   2.855   4.061   8.677 -0.2201  1.2532  0.6314
 7411SOL    HW233696   2.946   3.998   8.593 -0.3781  0.4567 -0.7601
 7412SOL     OW33697   4.335   1.317   8.552  0.5586  0.1090 -0.2854
 7412SOL    HW133698   4.279   1.394   8.543  0.5039  0.1653  0.5385
 7412SOL    HW233699   4.414   1.357   8.589 -0.2243  0.5720  0.9069
 7413SOL     OW33700   0.080   2.586   4.298 -0.0329  0.0843  0.0994
 7413SOL    HW133701   4.724   2.536   4.298 -0.6841  1.1654 -0.8476
 7413SOL    HW233702   0.139   2.524   4.342  2.9516  2.3643 -0.6436
 7414SOL     OW33703   0.648   3.838  13.901  0.8519  0.6006 -0.0194
 7414SOL    HW133704   0.726   3.841  13.955  0.4032  0.7479  0.6216
 7414SOL    HW233705   0.656   3.757  13.850 -1.3495  0.0659  0.4551
 7415SOL     OW33706   4.585   1.486   7.454 -0.1763  0.1015  0.8503
 7415SOL    HW133707   4.513   1.512   7.397 -1.0885 -1.1415  1.4502
 7415SOL    HW233708   4.545   1.503   7.539 -4.6402 -2.1328 -0.8423
 7416SOL     OW33709   0.048   4.283   6.682  0.0959 -0.5387 -0.7129
 7416SOL    HW133710   4.710   4.353   6.697 -0.5034 -1.1499 -0.4348
 7416SOL    HW233711   0.131   4.328   6.665  0.5722 -1.0790  0.1587
 7417SOL     OW33712   0.672   0.845   4.663 -0.1622 -0.4671  0.0849
 7417SOL    HW133713   0.614   0.865   4.589 -0.8690  0.7246  0.9818
 7417SOL    HW233714   0.728   0.782   4.618 -1.1134 -2.2996  1.4384
 7418SOL     OW33715   3.206   0.720  10.008  0.1391  0.1469 -0.6028
 7418SOL    HW133716   3.231   0.812  10.006 -2.2169  0.8025 -0.2390
 7418SOL    HW233717   3.290   0.675   9.998 -1.5358 -3.8220  3.1954
 7419SOL     OW33718   2.560   1.528  13.377 -0.2493  0.3423  0.7589
 7419SOL    HW133719   2.560   1.449  13.431  0.4693  0.8184  1.4736
 7419SOL    HW233720   2.520   1.506  13.293  0.2190 -2.4035  1.2819
 7420SOL     OW33721   3.157   3.898   4.820 -0.0606  0.3315 -0.0208
 7420SOL    HW133722   3.134   3.946   4.900 -2.2958 -1.7806  0.6302
 7420SOL    HW233723   3.072   3.861   4.798 -0.1369  0.0917  0.6864
 7421SOL     OW33724   3.928   2.039   4.573  0.1531 -0.7117  0.3755
 7421SOL    HW133725   4.012   2.003   4.546  1.1590  1.9286 -0.0516
 7421SOL    HW233726   3.953   2.131   4.576  0.5471 -0.8425  1.2857
 7422SOL     OW33727   4.300   2.025  14.391 -0.0917 -0.0510  0.0740
 7422SOL    HW133728   4.383   1.979  14.399  0.7316  1.2375 -0.9439
 7422SOL    HW233729   4.283   2.031  14.485  2.2157  0.2693  0.4678
 7423SOL     OW33730   3.213   2.207   4.392 -0.4172 -0.3095  0.5027
 7423SOL    HW133731   3.183   2.226   4.481 -0.3247 -0.4105  0.5558
 7423SOL    HW233732   3.195   2.286   4.342 -1.9556 -0.6404  0.5499
 7424SOL     OW33733   1.576   1.683   8.843  0.2949 -0.2302  0.1356
 7424SOL    HW133734   1.551   1.593   8.826  0.7266 -0.2704 -0.2895
 7424SOL    HW233735   1.521   1.725   8.778 -0.4282 -0.3443  0.6797
 7425SOL     OW33736   1.224   1.342  17.009  0.1148 -0.0276  0.0288
 7425SOL    HW133737   1.311   1.368  17.040  0.3981 -0.2862 -0.5522
 7425SOL    HW233738   1.172   1.370  17.084  2.7585 -0.5464  2.0828
 7426SOL     OW33739   0.173   1.321   8.131 -0.1057 -0.1132  0.0220
 7426SOL    HW133740   0.103   1.334   8.066 -0.2481 -0.0216  0.1907
 7426SOL    HW233741   0.241   1.388   8.120 -0.9823  0.3334 -2.8052
 7427SOL     OW33742   3.225   0.182  13.627  0.1962 -0.1436  0.1515
 7427SOL    HW133743   3.174   0.261  13.610 -3.9033 -2.2519  2.5062
 7427SOL    HW233744   3.276   0.228  13.694 -0.7607  0.4071  0.5051
 7428SOL     OW33745   1.370   4.121  13.163 -0.7816  0.4778  0.5698
 7428SOL    HW133746   1.342   4.093  13.250 -0.3843  0.4351  0.6799
 7428SOL    HW233747   1.415   4.043  13.131  0.4406  0.0807  3.3066
 7429SOL     OW33748   1.788   2.538   6.812 -0.3969 -0.5515  0.0313
 7429SOL    HW133749   1.717   2.601   6.821  0.3700  0.4091 -0.7260
 7429SOL    HW233750   1.797   2.543   6.717  0.2667 -0.8827  0.0803
 7430SOL     OW33751   4.353   0.682   7.726  0.4323 -0.2700 -0.2536
 7430SOL    HW133752   4.438   0.645   7.703  0.5037  0.2783 -0.8668
 7430SOL    HW233753   4.376   0.760   7.776 -1.2163  0.3826 -0.4911
 7431SOL     OW33754   4.662   0.020   2.488 -1.2123 -0.3865  0.0367
 7431SOL    HW133755   4.626   0.098   2.447 -0.9435 -0.8705 -1.1346
 7431SOL    HW233756   4.701   0.061   2.565 -0.3988 -1.4802  0.2107
 7432SOL     OW33757   4.365   3.365  12.249 -0.9870  0.6410  0.1236
 7432SOL    HW133758   4.345   3.315  12.328  1.0865 -0.9033 -0.3435
 7432SOL    HW233759   4.322   3.450  12.265  0.9984  1.5743  0.4602
 7433SOL     OW33760   3.494   0.181   1.977  0.1288  0.4759  0.1380
 7433SOL    HW133761   3.582   0.156   2.006  1.0991  2.2797 -1.2529
 7433SOL    HW233762   3.462   0.098   1.942  2.0703  0.0859 -0.7383
 7434SOL     OW33763   1.874   0.293  13.039  0.2724  0.1262  0.1326
 7434SOL    HW133764   1.966   0.312  13.023 -0.2322  3.5155  1.3139
 7434SOL    HW233765   1.828   0.330  12.964  0.9839 -1.2776 -0.9914
 7435SOL     OW33766   3.479   0.224   1.091 -0.4581  0.4628 -0.5203
 7435SOL    HW133767   3.524   0.150   1.132  1.1600  0.7516 -1.7824
 7435SOL    HW233768   3.493   0.207   0.997 -0.6109  0.6499 -0.5756
 7436SOL     OW33769   3.189   4.119   4.655 -0.3951  0.5148  0.2007
 7436SOL    HW133770   3.099   4.147   4.636 -0.8390 -0.5039  0.8127
 7436SOL    HW233771   3.165   4.039   4.702 -0.6416  0.5498  0.1335
 7437SOL     OW33772   0.861   3.543   7.063  0.3644  0.1003  0.1152
 7437SOL    HW133773   0.873   3.520   7.155 -0.7585 -2.0018 -0.2535
 7437SOL    HW233774   0.894   3.632   7.051 -0.8302  0.4153 -0.8735
 7438SOL     OW33775   1.939   1.891   7.682 -0.0987 -0.1954 -0.5721
 7438SOL    HW133776   1.930   1.906   7.588 -0.2451 -0.4981 -0.6072
 7438SOL    HW233777   1.918   1.798   7.693 -0.6923  0.2257  1.7940
 7439SOL     OW33778   4.327   0.128   2.800  0.2564  0.1515  0.1369
 7439SOL    HW133779   4.359   0.185   2.870  1.6685 -2.4863  1.6139
 7439SOL    HW233780   4.381   0.049   2.808  1.2480  0.8515  0.4100
 7440SOL     OW33781   0.370   1.548   1.641 -0.3216  0.5254  0.1999
 7440SOL    HW133782   0.297   1.596   1.681 -0.8560  0.0596 -0.2068
 7440SOL    HW233783   0.361   1.578   1.551 -0.6322  2.3775  0.8382
 7441SOL     OW33784   3.528   0.966  11.865 -0.2036 -0.1629  0.0192
 7441SOL    HW133785   3.467   0.899  11.833 -0.9418  0.9574 -0.8889
 7441SOL    HW233786   3.580   0.998  11.791  1.0265 -2.1858 -0.0103
 7442SOL     OW33787   4.207   3.456   2.462 -0.3904  0.3127  0.4347
 7442SOL    HW133788   4.114   3.479   2.459 -0.7328 -1.5770 -2.9606
 7442SOL    HW233789   4.248   3.540   2.442  2.1684 -0.5557  2.0383
 7443SOL     OW33790   0.478   1.852  11.787  0.1048 -0.4883 -0.0986
 7443SOL    HW133791   0.541   1.923  11.781  0.4736 -0.9479 -1.5270
 7443SOL    HW233792   0.453   1.851  11.695  1.1654  0.1776 -0.3844
 7444SOL     OW33793   3.371   3.225  12.233 -0.4782 -0.5028  0.6705
 7444SOL    HW133794   3.285   3.187  12.251 -0.7817 -0.5645 -0.8713
 7444SOL    HW233795   3.399   3.235  12.324 -0.6090  0.5928  0.5837
 7445SOL     OW33796   0.039   1.625   6.442 -0.1111  0.2825  0.9181
 7445SOL    HW133797   4.716   1.704   6.463 -1.4182 -0.7690  1.8294
 7445SOL    HW233798   4.698   1.575   6.395 -0.8746  0.4267  1.8633
 7446SOL     OW33799   2.010   1.608   7.248  0.2238 -0.0386 -0.3741
 7446SOL    HW133800   2.051   1.523   7.238  3.4695  1.5128 -0.2333
 7446SOL    HW233801   1.958   1.609   7.168  2.8785 -0.0412 -2.1045
 7447SOL     OW33802   0.881   0.053   2.179 -0.1298  0.4064 -0.0088
 7447SOL    HW133803   0.843   4.704   2.132 -1.4593  1.7319 -1.0361
 7447SOL    HW233804   0.895   0.014   2.265  0.7336  1.8706  0.5195
 7448SOL     OW33805   1.852   1.040   6.184 -0.0974  0.5660  0.1967
 7448SOL    HW133806   1.907   1.057   6.108 -0.9663 -0.1904 -0.5982
 7448SOL    HW233807   1.907   0.986   6.241 -0.1845  1.3260  1.0123
 7449SOL     OW33808   1.032   2.720  17.314 -0.0980 -0.9040 -0.3568
 7449SOL    HW133809   1.000   2.648  17.370  1.4365 -0.9504  0.4677
 7449SOL    HW233810   1.121   2.694  17.289  0.3121  0.3404 -0.1674
 7450SOL     OW33811   0.772   0.446  13.464 -0.0345  0.3400  0.0983
 7450SOL    HW133812   0.760   0.534  13.428  0.0954  0.1080 -0.5115
 7450SOL    HW233813   0.867   0.446  13.450  0.1658 -0.2280  1.3772
 7451SOL     OW33814   1.525   3.743   2.774 -0.7453  0.5547  0.5859
 7451SOL    HW133815   1.488   3.813   2.721 -1.1443  0.9792  1.4200
 7451SOL    HW233816   1.607   3.731   2.726 -2.2384 -0.3072 -1.7024
 7452SOL     OW33817   3.440   0.663   0.191  0.5182 -0.7291  0.0271
 7452SOL    HW133818   3.484   0.745   0.214 -1.5802  0.3636  0.1567
 7452SOL    HW233819   3.382   0.642   0.265  1.6164  0.3971  1.2166
 7453SOL     OW33820   4.390   3.953   7.805  0.2364 -0.1872 -0.1973
 7453SOL    HW133821   4.480   3.948   7.837 -0.1380  0.5815  0.9840
 7453SOL    HW233822   4.364   4.024   7.863 -2.4621  0.8436 -2.6379
 7454SOL     OW33823   3.744   4.546   4.140 -0.4803  0.0139  0.2900
 7454SOL    HW133824   3.695   4.617   4.181  0.4351  0.6059  0.3609
 7454SOL    HW233825   3.752   4.587   4.054  0.1947 -2.8424 -1.0052
 7455SOL     OW33826   1.670   1.114   3.947 -0.1747 -0.1263 -0.2279
 7455SOL    HW133827   1.690   1.175   3.875 -0.4919 -0.4654 -0.6086
 7455SOL    HW233828   1.578   1.128   3.971 -0.6138 -1.1402 -1.3063
 7456SOL     OW33829   0.748   2.520   1.429 -0.4725 -0.0547 -0.3595
 7456SOL    HW133830   0.777   2.468   1.354  0.4227 -0.1431  0.0547
 7456SOL    HW233831   0.824   2.511   1.487 -1.3955  0.2454  0.8867
 7457SOL     OW33832   3.304   1.432   7.614 -0.4451 -0.0583 -0.2070
 7457SOL    HW133833   3.305   1.494   7.687  1.4747  1.2571 -1.3521
 7457SOL    HW233834   3.395   1.406   7.601 -0.4347  0.5060 -1.2913
 7458SOL     OW33835   2.988   2.473   9.946 -0.3253  0.2158  0.1403
 7458SOL    HW133836   2.909   2.515   9.909 -0.8310 -0.2239  0.7294
 7458SOL    HW233837   2.994   2.385   9.908 -0.2951  0.0389  0.5586
 7459SOL     OW33838   3.841   4.135  16.031  0.1501  0.4996  0.4765
 7459SOL    HW133839   3.885   4.195  16.092 -1.6924  1.1325  1.1705
 7459SOL    HW233840   3.870   4.055  16.075 -0.2772 -0.0872 -0.3173
 7460SOL     OW33841   1.592   4.539   4.875  0.5706 -0.0139  0.1389
 7460SOL    HW133842   1.683   4.509   4.874  0.6135  0.0940  1.0252
 7460SOL    HW233843   1.599   4.611   4.938 -0.1826 -0.0515  0.2619
 7461SOL     OW33844   3.163   2.587   0.313  0.7664  0.0029  0.1329
 7461SOL    HW133845   3.134   2.502   0.345  1.0436  0.4175  1.4937
 7461SOL    HW233846   3.228   2.613   0.378  0.0385  3.9609 -0.7440
 7462SOL     OW33847   3.652   0.780   8.545 -0.5170 -0.2107  0.3095
 7462SOL    HW133848   3.725   0.733   8.505  1.0440  1.7405  0.8410
 7462SOL    HW233849   3.700   0.857   8.576 -1.3927  0.0407  1.0294
 7463SOL     OW33850   4.375   0.569   4.390  0.3313  0.0210 -0.1988
 7463SOL    HW133851   4.309   0.620   4.341  0.5784  0.3216 -0.2145
 7463SOL    HW233852   4.424   0.538   4.314  1.7831  1.0387  0.3169
 7464SOL     OW33853   0.792   2.424   2.704  0.0669  0.1761 -0.3032
 7464SOL    HW133854   0.851   2.480   2.654 -1.0933  0.3804 -1.4660
 7464SOL    HW233855   0.727   2.401   2.638  1.7485 -2.4454 -1.0374
 7465SOL     OW33856   0.751   1.955   9.168  0.0897 -0.5449 -0.4651
 7465SOL    HW133857   0.668   1.906   9.173 -1.5911  2.3932  0.2782
 7465SOL    HW233858   0.802   1.889   9.121  0.8838  1.5757 -2.5498
 7466SOL     OW33859   3.574   4.404   3.949  0.1517 -0.3086  0.1517
 7466SOL    HW133860   3.602   4.321   3.909 -0.7913 -0.1534 -0.8349
 7466SOL    HW233861   3.515   4.365   4.014 -0.8738 -0.7917 -1.0738
 7467SOL     OW33862   1.041   1.540  16.374  0.0642 -0.6460 -0.5824
 7467SOL    HW133863   1.135   1.528  16.359 -0.0722 -2.9249  0.4538
 7467SOL    HW233864   1.027   1.454  16.413  1.3525  0.0016  1.2730
 7468SOL     OW33865   3.272   2.826   7.082  0.9185 -0.0634 -0.3587
 7468SOL    HW133866   3.333   2.804   7.152  0.4324 -1.3310 -0.3340
 7468SOL    HW233867   3.248   2.735   7.062  0.3681 -0.3745  1.6875
 7469SOL     OW33868   4.194   0.116   9.225  0.0627 -0.3881 -0.2455
 7469SOL    HW133869   4.222   0.159   9.144 -0.3188 -2.9877 -1.7506
 7469SOL    HW233870   4.216   0.023   9.217 -0.4544 -0.6214  1.0681
 7470SOL     OW33871   4.363   3.691   6.376 -0.2864  0.1307  0.5437
 7470SOL    HW133872   4.453   3.683   6.345 -0.2161  0.7207  0.5982
 7470SOL    HW233873   4.341   3.612   6.426  0.3678  0.3470  1.1791
 7471SOL     OW33874   4.472   4.411   1.155  0.0073 -0.2425 -0.5015
 7471SOL    HW133875   4.548   4.403   1.098 -0.2878  1.5039 -1.1650
 7471SOL    HW233876   4.414   4.463   1.099 -0.3705  0.0536  0.1683
 7472SOL     OW33877   2.375   2.888   8.895  0.1598 -0.3478  0.0786
 7472SOL    HW133878   2.342   2.805   8.858  1.7970 -1.1063  0.3086
 7472SOL    HW233879   2.462   2.861   8.926 -0.0021  0.3930  1.1684
 7473SOL     OW33880   4.256   2.315   3.475 -0.6083 -0.6859 -0.1022
 7473SOL    HW133881   4.296   2.231   3.453 -0.0601 -0.6865  0.9128
 7473SOL    HW233882   4.184   2.323   3.412 -0.8668 -0.2044  0.2478
 7474SOL     OW33883   3.799   2.989   5.610  0.2116  0.2343  0.9133
 7474SOL    HW133884   3.717   2.986   5.658 -1.8857 -1.3426 -2.8191
 7474SOL    HW233885   3.763   3.034   5.534 -0.7836  0.0895  1.3090
 7475SOL     OW33886   0.879   0.827  13.634 -0.6568 -0.2440  0.0927
 7475SOL    HW133887   0.821   0.776  13.577 -1.0788  1.6963 -1.1974
 7475SOL    HW233888   0.811   0.878  13.676 -0.0155  0.0948  0.7091
 7476SOL     OW33889   3.862   1.992  10.918 -0.6143 -0.2632  0.5758
 7476SOL    HW133890   3.822   2.053  10.980 -0.3643  1.4842 -1.0007
 7476SOL    HW233891   3.903   2.050  10.855 -1.6223  0.9044  0.9915
 7477SOL     OW33892   4.354   0.261  17.201  0.3115  0.0343 -0.0811
 7477SOL    HW133893   4.416   0.189  17.210 -0.3487 -0.5901 -0.5775
 7477SOL    HW233894   4.276   0.215  17.172  0.4537  0.0560 -0.4951
 7478SOL     OW33895   4.241   4.392   6.290  0.7963 -0.6289 -0.2289
 7478SOL    HW133896   4.327   4.371   6.327  1.0378  0.3040 -0.2607
 7478SOL    HW233897   4.265   4.365   6.201  0.7039 -0.8154 -0.1966
 7479SOL     OW33898   4.563   0.172   7.423 -0.3123 -0.0693  0.7617
 7479SOL    HW133899   4.525   0.248   7.379 -1.2532 -0.7270  0.4398
 7479SOL    HW233900   4.486   0.120   7.443 -0.6028 -0.4175 -1.2019
 7480SOL     OW33901   2.207   0.784   6.722 -0.7154 -0.0557 -0.5649
 7480SOL    HW133902   2.129   0.839   6.731 -1.0910  0.2673 -5.5470
 7480SOL    HW233903   2.164   0.699   6.731  1.5219 -0.9330  1.8834
 7481SOL     OW33904   4.432   3.896   2.652 -0.2043 -0.1779  0.2427
 7481SOL    HW133905   4.483   3.865   2.726  0.9375  1.4261  0.1296
 7481SOL    HW233906   4.356   3.931   2.699 -1.0647 -0.2372 -1.0771
 7482SOL     OW33907   2.081   3.266  13.740  0.2887 -0.3607  0.6436
 7482SOL    HW133908   2.018   3.263  13.668  2.1711 -1.4839 -0.9414
 7482SOL    HW233909   2.043   3.207  13.805 -1.0764  0.7552  0.8649
 7483SOL     OW33910   3.574   0.136   9.999  0.2396 -0.2630  0.1142
 7483SOL    HW133911   3.589   0.133  10.094  0.1308  1.7513  0.1923
 7483SOL    HW233912   3.517   0.213   9.989 -0.6419 -1.0176 -0.6912
 7484SOL     OW33913   2.298   3.692  11.745  0.0187  0.0491 -0.0082
 7484SOL    HW133914   2.331   3.777  11.774  0.5868  0.8624 -3.0463
 7484SOL    HW233915   2.357   3.628  11.787  0.6142 -0.1152 -1.0896
 7485SOL     OW33916   1.178   1.996   3.768  0.1340 -0.1159  0.3749
 7485SOL    HW133917   1.167   2.092   3.764 -0.0334 -0.1643 -0.4397
 7485SOL    HW233918   1.121   1.952   3.704 -0.1467 -0.3484  0.7860
 7486SOL     OW33919   1.023   0.412  10.762 -0.5657  0.7459  0.6776
 7486SOL    HW133920   1.070   0.469  10.823 -0.3212  0.8535  0.3839
 7486SOL    HW233921   1.050   0.434  10.674  0.6904 -0.9074  0.6509
 7487SOL     OW33922   0.464   1.904  10.911  0.2722 -0.5393  0.4836
 7487SOL    HW133923   0.497   1.902  10.821  0.9822 -1.1985  0.7599
 7487SOL    HW233924   0.482   1.817  10.946 -2.0068 -0.7910  1.0073
 7488SOL     OW33925   2.115   1.711  12.147  0.1597  0.0113 -0.0028
 7488SOL    HW133926   2.203   1.747  12.136 -0.0269  0.1156 -1.1942
 7488SOL    HW233927   2.142   1.660  12.223 -0.1423  0.5640  0.4688
 7489SOL     OW33928   4.598   1.810   6.607 -0.2134 -0.1080  0.3382
 7489SOL    HW133929   4.585   1.773   6.694  0.5991 -2.7938 -0.6606
 7489SOL    HW233930   4.666   1.876   6.622 -0.0687  0.0576 -1.0443
 7490SOL     OW33931   4.259   2.419  16.208 -0.1154 -0.1387 -0.0920
 7490SOL    HW133932   4.310   2.469  16.272 -0.2371 -1.2577  0.8757
 7490SOL    HW233933   4.173   2.440  16.244  0.0166 -1.3875  0.9431
 7491SOL     OW33934   2.975   4.472  14.996 -0.4671 -0.3892 -0.4168
 7491SOL    HW133935   2.965   4.385  14.956  0.5805 -0.2229 -1.0437
 7491SOL    HW233936   3.070   4.478  15.001 -0.3772 -2.6541  0.7170
 7492SOL     OW33937   4.517   3.307  10.422  0.0221 -0.0020  0.1539
 7492SOL    HW133938   4.586   3.361  10.383 -0.1299 -0.2870 -0.5138
 7492SOL    HW233939   4.552   3.217  10.419  1.1147  0.4194  0.1553
 7493SOL     OW33940   0.171   1.247   0.493 -0.4627  0.0656 -0.5162
 7493SOL    HW133941   0.121   1.290   0.563 -2.9232  0.8365 -2.7270
 7493SOL    HW233942   0.244   1.308   0.493  1.0025 -1.6785  2.4946
 7494SOL     OW33943   4.153   3.604   2.999  0.4764 -0.2154  0.1852
 7494SOL    HW133944   4.177   3.682   3.048  1.5478 -1.5211  1.7457
 7494SOL    HW233945   4.233   3.594   2.948 -1.2199 -0.7359 -2.4061
 7495SOL     OW33946   3.589   3.518   4.811 -0.0714  0.1338 -0.3995
 7495SOL    HW133947   3.548   3.547   4.893  0.4448 -1.2244  0.3323
 7495SOL    HW233948   3.614   3.599   4.766  0.3863  1.2696  1.8658
 7496SOL     OW33949   3.422   1.451  16.596  0.1398 -0.5030 -0.1249
 7496SOL    HW133950   3.359   1.392  16.554 -0.7561  1.3292 -1.3571
 7496SOL    HW233951   3.458   1.490  16.516 -0.9400 -1.5784 -1.1433
 7497SOL     OW33952   0.036   1.979  11.734 -0.3304 -0.0814 -0.0214
 7497SOL    HW133953   4.692   1.952  11.674 -1.0449  1.7819 -0.0326
 7497SOL    HW233954   0.110   1.994  11.675  1.2355 -1.6666  1.5511
 7498SOL     OW33955   1.680   1.262  17.289 -0.2245  0.7717  0.1179
 7498SOL    HW133956   1.693   1.218  17.373  0.7898  1.7667  0.4792
 7498SOL    HW233957   1.771   1.258  17.262 -0.5784  0.7006 -1.0638
 7499SOL     OW33958   2.125   3.534   8.928 -0.1832  0.1357 -0.3814
 7499SOL    HW133959   2.167   3.619   8.913 -0.5429  0.0512 -1.8883
 7499SOL    HW233960   2.057   3.535   8.860  0.6327  0.8974 -1.1957
 7500SOL     OW33961   2.785   2.469  15.826 -0.5422  0.2021 -0.1492
 7500SOL    HW133962   2.739   2.450  15.908  0.3601  0.6440  0.4561
 7500SOL    HW233963   2.872   2.434  15.842  0.1433  1.5139 -1.0580
 7501SOL     OW33964   1.706   1.672   3.228 -0.3270 -0.5042  0.3540
 7501SOL    HW133965   1.684   1.686   3.321  1.2746  3.3850  0.1362
 7501SOL    HW233966   1.724   1.578   3.231 -1.0663 -0.6783 -1.0082
 7502SOL     OW33967   3.392   3.677   3.022 -0.4039 -0.2855 -0.0207
 7502SOL    HW133968   3.429   3.754   3.066  0.9831 -1.2866  0.5524
 7502SOL    HW233969   3.313   3.655   3.070 -0.9536  1.8355  0.0683
 7503SOL     OW33970   0.791   1.621   1.284 -0.1521  0.1479  0.0856
 7503SOL    HW133971   0.816   1.580   1.367 -0.5565 -1.6332 -0.6731
 7503SOL    HW233972   0.847   1.569   1.227  1.2602  1.2704  0.4414
 7504SOL     OW33973   0.615   2.223   3.396  0.0658 -0.0492 -0.0101
 7504SOL    HW133974   0.646   2.132   3.393  2.2757  0.6962  0.2916
 7504SOL    HW233975   0.617   2.249   3.304  0.7926  2.0058  0.5897
 7505SOL     OW33976   0.081   3.337   7.467 -0.1517 -0.0949  0.2944
 7505SOL    HW133977   0.134   3.328   7.388 -0.0200 -1.2950  0.5129
 7505SOL    HW233978   0.081   3.255   7.516 -0.6339  0.0861  0.5968
 7506SOL     OW33979   0.572   0.734   3.981 -0.0133 -0.4520 -0.1137
 7506SOL    HW133980   0.631   0.736   3.905 -1.5143 -0.2971 -1.2823
 7506SOL    HW233981   0.505   0.789   3.940  0.0388 -0.9244 -0.8432
 7507SOL     OW33982   1.491   4.275   0.809  0.4711 -0.0590 -0.3967
 7507SOL    HW133983   1.402   4.263   0.775  0.2180 -0.9473  0.5732
 7507SOL    HW233984   1.476   4.233   0.894 -0.0024 -3.0120 -1.9348
 7508SOL     OW33985   0.402   0.690   9.203  0.8362 -0.0825 -0.1095
 7508SOL    HW133986   0.356   0.684   9.287  0.7238 -2.2997 -0.3364
 7508SOL    HW233987   0.491   0.691   9.240  1.1237 -0.7014 -0.7897
 7509SOL     OW33988   3.146   1.819  15.857  0.4202 -0.3838  0.0281
 7509SOL    HW133989   3.188   1.763  15.922  0.1713  2.0335  2.2691
 7509SOL    HW233990   3.219   1.861  15.813 -0.4543  1.9505  0.8332
 7510SOL     OW33991   0.569   3.128   4.321 -0.7949  0.1679 -0.0536
 7510SOL    HW133992   0.552   3.046   4.274  0.6960  0.1081 -0.4751
 7510SOL    HW233993   0.518   3.196   4.278 -0.3104  1.3259  1.2099
 7511SOL     OW33994   0.854   0.203  17.488  0.2068 -0.4192 -0.4289
 7511SOL    HW133995   0.920   0.234  17.549  1.5362 -2.8054 -0.6738
 7511SOL    HW233996   0.796   0.162  17.552 -0.4445 -0.9366 -1.3498
 7512SOL     OW33997   1.482   4.407   3.420 -0.8192 -0.1578 -0.5252
 7512SOL    HW133998   1.423   4.361   3.361  0.9257 -0.1291 -2.3173
 7512SOL    HW233999   1.554   4.346   3.405 -0.1766  0.7977 -1.4101
 7513SOL     OW34000   2.190   1.589   0.349 -0.0639  0.1979  0.6768
 7513SOL    HW134001   2.096   1.582   0.368 -0.0513  0.0084  0.6685
 7513SOL    HW234002   2.207   1.501   0.316  0.8200  0.3990  0.6028
 7514SOL     OW34003   1.774   2.175   4.260  0.5214 -0.1115 -0.6199
 7514SOL    HW134004   1.713   2.141   4.195 -0.9437 -0.5898  0.9916
 7514SOL    HW234005   1.722   2.244   4.299 -0.4127 -1.1466 -0.0399
 7515SOL     OW34006   3.055   1.281   3.067 -0.1988  0.0202  0.2595
 7515SOL    HW134007   3.065   1.366   3.025 -2.7070  0.8358  1.3211
 7515SOL    HW234008   3.037   1.300   3.159  1.2962  1.2018  0.3012
 7516SOL     OW34009   1.299   1.506   6.687  0.4839  0.1730  0.2419
 7516SOL    HW134010   1.267   1.579   6.634 -0.1954  0.1011  0.5559
 7516SOL    HW234011   1.273   1.430   6.636  1.4274 -0.4205  0.6531
 7517SOL     OW34012   2.230   3.531   9.910 -0.4638  0.0746 -0.3952
 7517SOL    HW134013   2.297   3.599   9.916 -0.4459  0.1394 -1.4291
 7517SOL    HW234014   2.185   3.550   9.993  0.0688 -0.6324  0.0581
 7518SOL     OW34015   4.531   2.130   9.487 -0.4370  0.1191 -0.5276
 7518SOL    HW134016   4.536   2.146   9.393  0.6702 -0.4589 -0.5657
 7518SOL    HW234017   4.590   2.197   9.522 -1.8083  1.6420 -1.1454
 7519SOL     OW34018   2.032   2.428   4.410  0.1731 -0.5760  0.2889
 7519SOL    HW134019   1.954   2.393   4.454  0.4899  1.5620  2.5429
 7519SOL    HW234020   2.026   2.520   4.435 -1.1216 -0.1820 -1.4587
 7520SOL     OW34021   2.988   0.015   1.368 -0.1357  0.1310  0.5601
 7520SOL    HW134022   3.080   0.037   1.360 -0.3975  1.0612  0.0480
 7520SOL    HW234023   2.986   4.654   1.409 -2.3311  0.4583  1.1504
 7521SOL     OW34024   1.548   1.528   6.146 -0.2024 -0.1676 -0.0161
 7521SOL    HW134025   1.515   1.501   6.232 -1.0279 -0.2096 -0.3386
 7521SOL    HW234026   1.624   1.580   6.170 -2.1082  0.9413  3.6045
 7522SOL     OW34027   0.789   2.872   3.301 -0.7307  0.3063 -0.1928
 7522SOL    HW134028   0.781   2.792   3.249  1.2677  0.4049 -0.6330
 7522SOL    HW234029   0.791   2.934   3.227  0.4155 -0.3116 -0.6760
 7523SOL     OW34030   4.577   4.261  10.525  0.1961  0.4454  1.2791
 7523SOL    HW134031   4.672   4.253  10.532  0.4475  0.4232 -1.8509
 7523SOL    HW234032   4.575   4.294  10.435 -1.4771  1.2148  1.6120
 7524SOL     OW34033   3.321   0.378   4.566 -0.0674 -0.0576 -0.0761
 7524SOL    HW134034   3.300   0.356   4.475 -0.4737  1.8977 -0.4561
 7524SOL    HW234035   3.391   0.315   4.583 -2.0761 -2.0428  0.7917
 7525SOL     OW34036   0.095   2.562   5.637 -0.2397 -0.0882 -0.2521
 7525SOL    HW134037   0.033   2.576   5.566 -1.1802 -2.0707  0.1952
 7525SOL    HW234038   0.050   2.525   5.713  1.9655  0.5379  1.3553
 7526SOL     OW34039   4.203   3.275   3.743 -0.3111  0.9080  0.1848
 7526SOL    HW134040   4.212   3.354   3.797  1.4092  1.9318 -1.6097
 7526SOL    HW234041   4.201   3.321   3.659  1.1921  0.5273 -0.0620
 7527SOL     OW34042   3.760   3.377   6.656  0.3297  0.2637 -1.0705
 7527SOL    HW134043   3.828   3.423   6.705 -0.8127  1.1593 -0.3213
 7527SOL    HW234044   3.699   3.449   6.641  0.4964  0.4910 -0.6539
 7528SOL     OW34045   1.669   3.964   6.546  0.2690 -0.8100  0.1909
 7528SOL    HW134046   1.587   3.916   6.555  0.0775 -0.3071  1.1215
 7528SOL    HW234047   1.704   3.923   6.467  0.5939  0.4373 -0.3118
 7529SOL     OW34048   2.254   4.222   4.270  0.3123 -0.6217  0.4464
 7529SOL    HW134049   2.245   4.156   4.339 -4.8328  3.0397  3.2844
 7529SOL    HW234050   2.194   4.178   4.210 -0.7716 -0.2336  1.2554
 7530SOL     OW34051   1.482   1.923   4.258  0.6821  0.1353 -0.2005
 7530SOL    HW134052   1.563   1.887   4.294  1.6023  0.9538 -1.4575
 7530SOL    HW234053   1.519   1.968   4.182 -0.3409 -0.1727 -0.8902
 7531SOL     OW34054   3.679   1.292   6.256  0.2614  0.3252  0.4453
 7531SOL    HW134055   3.750   1.323   6.200  0.5426 -1.0387  0.0577
 7531SOL    HW234056   3.729   1.258   6.330  2.5200  0.5100 -1.0163
 7532SOL     OW34057   3.679   2.603   7.505  0.0504  0.6928 -0.0016
 7532SOL    HW134058   3.635   2.519   7.518  1.5855  0.0943  1.2250
 7532SOL    HW234059   3.653   2.656   7.580  2.6981 -1.0877  2.1540
 7533SOL     OW34060   0.054   0.267   3.453  0.3539 -0.2296  0.3475
 7533SOL    HW134061   0.007   0.312   3.383  0.1869 -0.9370  0.0152
 7533SOL    HW234062   0.044   0.176   3.426  0.4193  0.5778 -2.3747
 7534SOL     OW34063   1.133   0.240   9.042 -0.1000 -0.4095  0.2377
 7534SOL    HW134064   1.106   0.326   9.075 -1.1721 -0.8243  0.4391
 7534SOL    HW234065   1.097   0.237   8.953  1.3251 -1.7676 -0.3038
 7535SOL     OW34066   1.918   2.555   2.158 -0.4623 -0.3668  0.3612
 7535SOL    HW134067   1.860   2.489   2.118 -1.3706  0.2885  0.6094
 7535SOL    HW234068   1.879   2.642   2.149  0.0079 -0.2819 -0.8532
 7536SOL     OW34069   0.004   1.976   9.623 -0.0474  0.7811  0.1299
 7536SOL    HW134070   4.693   2.032   9.691 -1.6062 -2.1503  1.7397
 7536SOL    HW234071   4.676   2.001   9.549  4.5387 -0.3730 -3.5741
 7537SOL     OW34072   2.386   1.860   4.726 -0.7682 -0.2855  0.1979
 7537SOL    HW134073   2.452   1.839   4.793 -1.0763 -2.2369 -0.1171
 7537SOL    HW234074   2.312   1.801   4.737 -0.1613 -1.2859 -1.0118
 7538SOL     OW34075   2.715   1.965  15.820  0.0437 -0.3871  0.4451
 7538SOL    HW134076   2.774   1.893  15.796  0.4076  0.1124 -0.1663
 7538SOL    HW234077   2.636   1.946  15.769  0.4998 -0.1730 -0.3550
 7539SOL     OW34078   0.839   0.748   8.362 -0.8724 -0.4221  0.6317
 7539SOL    HW134079   0.817   0.719   8.274 -0.4982  0.5813  0.2032
 7539SOL    HW234080   0.858   0.840   8.344 -1.9281 -0.3618 -0.1489
 7540SOL     OW34081   2.891   0.740   4.434 -0.3398 -0.6859 -0.3469
 7540SOL    HW134082   2.806   0.774   4.462 -0.0076  0.6576 -0.9270
 7540SOL    HW234083   2.871   0.655   4.394  0.0532 -1.1519  0.4630
 7541SOL     OW34084   2.620   1.062   8.335  0.0507 -0.0838  0.2637
 7541SOL    HW134085   2.603   1.041   8.426  0.2309 -1.6467 -0.0744
 7541SOL    HW234086   2.671   1.141   8.357 -0.0291 -0.5122  1.9180
 7542SOL     OW34087   0.617   3.206   2.337  0.0096 -0.0059  0.1389
 7542SOL    HW134088   0.683   3.256   2.290  0.0691  0.2780  0.5230
 7542SOL    HW234089   0.534   3.223   2.292  0.1542  1.9166  0.6205
 7543SOL     OW34090   0.129   3.354   7.946 -1.0588 -0.0108 -0.1522
 7543SOL    HW134091   0.039   3.369   7.918 -0.9087  2.4270  0.6122
 7543SOL    HW234092   0.140   3.268   7.907  2.7011 -0.6576  2.3789
 7544SOL     OW34093   2.186   3.455  16.286  0.1366 -0.7921  0.1868
 7544SOL    HW134094   2.249   3.386  16.266 -0.4597 -1.4714  0.6083
 7544SOL    HW234095   2.099   3.427  16.257 -0.3816  0.2119  0.7847
 7545SOL     OW34096   4.487   2.252   5.291 -0.5047  0.1439  0.1309
 7545SOL    HW134097   4.434   2.262   5.370 -1.5515 -0.5743 -0.4864
 7545SOL    HW234098   4.419   2.213   5.236 -0.4806 -0.9055  0.8361
 7546SOL     OW34099   3.252   4.595   9.514  0.1938  0.5494 -0.2480
 7546SOL    HW134100   3.290   4.512   9.484 -0.4483  0.2504 -0.2336
 7546SOL    HW234101   3.316   4.617   9.582 -3.7409  1.2587  3.2305
 7547SOL     OW34102   2.193   1.149  14.615 -0.5849 -0.0635  0.0700
 7547SOL    HW134103   2.187   1.171  14.521  0.2358  0.3746  0.1261
 7547SOL    HW234104   2.221   1.234  14.649 -1.9505  0.7391 -0.7484
 7548SOL     OW34105   1.393   0.448   8.877 -0.1047  0.6212  0.1500
 7548SOL    HW134106   1.398   0.424   8.969  0.2297 -1.4110 -0.3926
 7548SOL    HW234107   1.298   0.446   8.861  0.1000  0.5217 -1.0570
 7549SOL     OW34108   1.628   0.149   2.720 -0.0353  0.0233 -0.2166
 7549SOL    HW134109   1.546   0.138   2.768  0.4667 -0.5228  0.5035
 7549SOL    HW234110   1.607   0.211   2.650 -1.3288  1.9936  1.9143
 7550SOL     OW34111   0.575   4.355   7.116  0.0983 -0.9626 -0.0041
 7550SOL    HW134112   0.669   4.351   7.132  0.6197 -0.0572 -2.8568
 7550SOL    HW234113   0.557   4.435   7.066  1.6779 -0.1936  0.6544
 7551SOL     OW34114   0.828   1.025   8.317 -0.1965 -0.1895 -0.0445
 7551SOL    HW134115   0.757   1.024   8.381  0.0358 -2.9706  0.1900
 7551SOL    HW234116   0.857   1.113   8.339 -1.3159  0.1945 -0.0685
 7552SOL     OW34117   2.285   4.636   3.433 -0.0407 -0.3017 -0.4973
 7552SOL    HW134118   2.318   4.552   3.401 -1.9308 -1.2468  0.0409
 7552SOL    HW234119   2.192   4.617   3.446  0.0350  0.4907  1.2540
 7553SOL     OW34120   0.712   3.995  16.472  0.3575  0.1691 -0.4223
 7553SOL    HW134121   0.802   4.013  16.447  0.0293  0.3643 -1.4561
 7553SOL    HW234122   0.688   4.080  16.509 -1.7011 -0.6063  0.0427
 7554SOL     OW34123   0.055   1.594  12.906 -0.1197 -0.0010  0.2052
 7554SOL    HW134124   0.080   1.503  12.896 -0.6394 -0.1193 -0.0570
 7554SOL    HW234125   0.042   1.601  13.000  0.2528  1.0504  0.1848
 7555SOL     OW34126   2.053   1.088   4.580 -0.1002 -0.0006  0.4907
 7555SOL    HW134127   2.020   1.119   4.496 -0.7734  2.1468  1.5392
 7555SOL    HW234128   2.048   0.994   4.561 -2.8145  0.2801 -0.3122
 7556SOL     OW34129   3.992   3.038   5.259 -0.3628  0.1502 -0.1458
 7556SOL    HW134130   3.897   3.030   5.268 -0.6435  1.7168 -1.8559
 7556SOL    HW234131   4.020   2.962   5.310 -1.5436 -1.3069 -1.6563
 7557SOL     OW34132   3.796   2.349   6.396 -0.4282  0.1531 -0.1566
 7557SOL    HW134133   3.781   2.443   6.410  1.2156  0.6815 -1.9191
 7557SOL    HW234134   3.722   2.331   6.338 -0.5682  0.2581 -0.0118
 7558SOL     OW34135   4.293   3.451  16.439 -0.5956  0.0509  0.6073
 7558SOL    HW134136   4.214   3.416  16.398 -0.4716 -1.2533  1.4878
 7558SOL    HW234137   4.303   3.374  16.496  1.5164 -0.3595 -0.3009
 7559SOL     OW34138   0.259   3.553   7.489  1.0171 -0.2270  0.4982
 7559SOL    HW134139   0.289   3.541   7.579 -0.6529 -0.2922  1.0279
 7559SOL    HW234140   0.189   3.488   7.487  0.0572  0.7823  1.4026
 7560SOL     OW34141   1.643   2.205   3.541 -0.1969 -0.4411  0.2348
 7560SOL    HW134142   1.705   2.134   3.554  2.2522  1.7602  0.7015
 7560SOL    HW234143   1.695   2.285   3.548  1.5101 -1.5866  0.6801
 7561SOL     OW34144   0.297   0.084   0.717  0.4822  0.8414  0.6223
 7561SOL    HW134145   0.263   0.168   0.686 -1.6524  0.1483  1.1219
 7561SOL    HW234146   0.245   0.021   0.667  1.1636  2.5522 -2.2306
 7562SOL     OW34147   1.954   2.475   6.471  0.0504  0.3105  0.4400
 7562SOL    HW134148   1.937   2.382   6.487  0.6296 -0.3301 -2.7336
 7562SOL    HW234149   1.861   2.495   6.455  0.4708 -0.3229 -2.9309
 7563SOL     OW34150   3.772   4.018   1.352 -0.7005  0.0749 -0.1577
 7563SOL    HW134151   3.749   4.101   1.393 -0.9741 -0.2800  0.4206
 7563SOL    HW234152   3.690   3.981   1.319 -0.4476  1.1395 -1.9926
 7564SOL     OW34153   4.201   0.110   6.542  0.2649 -0.2123 -0.4455
 7564SOL    HW134154   4.162   0.024   6.526 -2.6020  1.0814 -0.2568
 7564SOL    HW234155   4.250   0.092   6.623  0.4145 -1.2408 -0.7694
 7565SOL     OW34156   0.897   4.531   7.448  0.1567 -0.0914 -0.2556
 7565SOL    HW134157   0.899   4.618   7.408 -1.6876 -0.0276 -0.2165
 7565SOL    HW234158   0.804   4.520   7.470 -0.4042  2.0394 -1.5313
 7566SOL     OW34159   0.009   4.147   4.921  0.3114 -0.2368 -0.0735
 7566SOL    HW134160   4.652   4.107   4.896  0.5859  0.1161 -1.5734
 7566SOL    HW234161   4.714   4.241   4.927  1.1397 -0.1040  0.7885
 7567SOL     OW34162   2.407   4.035   7.498  0.2079  0.1402 -0.2689
 7567SOL    HW134163   2.428   3.997   7.412 -0.6838 -1.1451  0.0810
 7567SOL    HW234164   2.462   4.113   7.498  0.5902 -0.1234 -1.2544
 7568SOL     OW34165   0.017   3.086   7.580  0.4815 -0.4302  0.2216
 7568SOL    HW134166   0.029   3.010   7.523 -1.4806  0.6883 -1.6562
 7568SOL    HW234167   4.648   3.093   7.591  0.2185 -2.7003 -0.6396
 7569SOL     OW34168   0.911   2.181  13.051  0.2685 -0.0644 -0.2411
 7569SOL    HW134169   0.952   2.129  13.120  1.1902  0.9100 -0.0650
 7569SOL    HW234170   0.877   2.241  13.118 -0.7764 -0.4078 -0.4645
 7570SOL     OW34171   3.875   0.665   5.396 -0.2479  1.1405  0.5919
 7570SOL    HW134172   3.815   0.605   5.440 -1.0509  1.2386 -0.3816
 7570SOL    HW234173   3.838   0.752   5.411 -0.5381  1.0230  0.5624
 7571SOL     OW34174   4.725   3.905   5.573  0.1820  0.7173  0.0062
 7571SOL    HW134175   4.704   3.851   5.649 -2.9753  1.8087 -0.1164
 7571SOL    HW234176   0.086   3.870   5.556 -0.1096 -0.6676  1.3771
 7572SOL     OW34177   0.332   2.829  13.336 -0.0511 -0.1404  0.0037
 7572SOL    HW134178   0.333   2.876  13.252  1.6773 -2.5360 -1.3404
 7572SOL    HW234179   0.421   2.845  13.366 -0.2468  0.5558  0.2136
 7573SOL     OW34180   1.591   0.422   8.659  0.7558  0.1488 -0.2533
 7573SOL    HW134181   1.560   0.459   8.742  0.6004 -0.1090 -0.1948
 7573SOL    HW234182   1.555   0.483   8.596 -1.7634  0.2258  1.2791
 7574SOL     OW34183   0.087   2.018   6.645 -0.2502 -0.1576  0.2114
 7574SOL    HW134184   0.103   2.110   6.627 -1.3421 -0.5318 -2.5619
 7574SOL    HW234185   0.176   1.991   6.668 -0.7238 -1.9484 -0.0510
 7575SOL     OW34186   0.207   4.588   4.692 -0.1353 -0.2450 -0.2096
 7575SOL    HW134187   0.257   4.634   4.625 -0.9239  1.2822  0.2484
 7575SOL    HW234188   0.130   4.645   4.696 -1.5820 -2.2055  0.3792
 7576SOL     OW34189   2.379   3.001  12.689  0.0957  0.3259 -0.2680
 7576SOL    HW134190   2.390   3.096  12.691 -1.4809  0.5625 -2.7734
 7576SOL    HW234191   2.418   2.965  12.609 -1.7796  1.2486 -1.5846
 7577SOL     OW34192   0.020   2.679   5.028 -0.1206  0.0438  0.4895
 7577SOL    HW134193   0.047   2.649   4.941  0.1820 -0.9066  0.9171
 7577SOL    HW234194   4.704   2.605   5.071 -0.3814  0.0918  0.3156
 7578SOL     OW34195   4.142   2.067   2.691 -0.3095 -0.0689  0.7619
 7578SOL    HW134196   4.152   2.162   2.701  2.2760 -0.0543 -1.9532
 7578SOL    HW234197   4.181   2.050   2.605 -0.0870  0.5815  0.7328
 7579SOL     OW34198   0.719   1.735  12.980 -0.4943  1.0005 -0.1207
 7579SOL    HW134199   0.629   1.716  12.954  0.4995 -1.4198 -1.8620
 7579SOL    HW234200   0.715   1.823  13.017 -0.7793 -0.6564  3.7954
 7580SOL     OW34201   4.328   0.064   1.676 -0.2424  0.5105  0.2355
 7580SOL    HW134202   4.253   0.080   1.618  1.3026 -2.0548 -2.5009
 7580SOL    HW234203   4.323   4.695   1.669  0.4073  0.3828  1.6428
 7581SOL     OW34204   2.013   2.594   3.393  0.0790 -0.2087  0.0761
 7581SOL    HW134205   2.101   2.619   3.365  0.3245 -0.9494  0.1911
 7581SOL    HW234206   1.964   2.589   3.311  0.4241  2.1932 -0.2686
 7582SOL     OW34207   4.138   2.398  17.555  0.2400 -0.2873 -0.5794
 7582SOL    HW134208   4.138   2.482  17.601  0.0969 -0.3693 -0.4307
 7582SOL    HW234209   4.188   2.402  17.473  0.6091 -1.9033 -0.4417
 7583SOL     OW34210   3.476   1.949  16.072 -0.9473 -0.5438  0.8909
 7583SOL    HW134211   3.430   1.966  15.990  1.4477  1.8459  0.0783
 7583SOL    HW234212   3.565   1.974  16.049 -0.7956 -1.6966  0.1980
 7584SOL     OW34213   0.078   2.875   9.835  0.1810 -0.5770 -0.0673
 7584SOL    HW134214   0.016   2.857   9.764 -2.7278 -0.1256  2.3737
 7584SOL    HW234215   0.024   2.872   9.913  1.5332  1.5381  0.9495
 7585SOL     OW34216   2.071   3.678   3.854  0.4066  0.5096 -0.3265
 7585SOL    HW134217   2.050   3.622   3.929 -1.8806 -0.1164 -1.4361
 7585SOL    HW234218   2.037   3.763   3.881  1.8545  0.3098  2.1191
 7586SOL     OW34219   4.079   0.662   3.495  0.3465 -0.4003  0.1200
 7586SOL    HW134220   4.160   0.665   3.547 -0.1162  0.4963  0.7801
 7586SOL    HW234221   4.065   0.567   3.486 -2.5437  0.2054 -1.5604
 7587SOL     OW34222   0.359   1.785   2.799  0.0451  0.3814 -0.7073
 7587SOL    HW134223   0.423   1.817   2.735  0.9837  0.1548  0.1304
 7587SOL    HW234224   0.402   1.705   2.829 -1.2137  0.4155  1.1665
 7588SOL     OW34225   1.584   1.201   6.982 -0.1910 -0.5153  0.0588
 7588SOL    HW134226   1.520   1.168   7.045 -1.7139  0.6000 -0.9100
 7588SOL    HW234227   1.662   1.213   7.035  0.7067 -0.1655 -1.3454
 7589SOL     OW34228   0.800   3.008   7.273 -0.0705  0.7175  0.2557
 7589SOL    HW134229   0.863   3.057   7.220 -0.7626 -0.4230 -1.6255
 7589SOL    HW234230   0.750   3.075   7.321 -0.7057 -0.2739  0.9667
 7590SOL     OW34231   0.666   2.641   5.597 -0.2437  0.1709 -0.2191
 7590SOL    HW134232   0.654   2.735   5.610 -0.8473 -0.1165  1.2440
 7590SOL    HW234233   0.710   2.622   5.679 -2.1083 -1.2191  0.4520
 7591SOL     OW34234   0.439   0.934   3.776  0.2291 -0.4678  0.4624
 7591SOL    HW134235   0.345   0.921   3.760  0.1967 -1.5702  1.5189
 7591SOL    HW234236   0.444   1.025   3.747 -2.5580 -0.4248  0.1121
 7592SOL     OW34237   2.459   2.616  14.811 -0.0002  0.1571 -0.0335
 7592SOL    HW134238   2.421   2.578  14.731 -0.1976 -2.2006  1.1887
 7592SOL    HW234239   2.552   2.602  14.794  0.3758  0.5412  1.6992
 7593SOL     OW34240   0.670   2.057   0.864 -0.6283 -0.5503  0.4515
 7593SOL    HW134241   0.609   1.983   0.861 -3.1887  1.6346 -0.3705
 7593SOL    HW234242   0.756   2.037   0.825 -0.5058  1.3312 -0.2181
 7594SOL     OW34243   3.457   4.190  14.274  0.0303  0.2609 -0.4190
 7594SOL    HW134244   3.380   4.163  14.324  0.6344  1.3012  1.0750
 7594SOL    HW234245   3.474   4.098  14.253  2.3677  0.2929  1.2264
 7595SOL     OW34246   2.769   1.282   7.673  0.0890 -0.4953  0.0060
 7595SOL    HW134247   2.838   1.344   7.651 -3.2039  1.6955 -4.1558
 7595SOL    HW234248   2.802   1.238   7.752 -0.1339 -0.1400  0.2987
 7596SOL     OW34249   0.621   2.442   7.178  0.3377  0.5656  0.3046
 7596SOL    HW134250   0.679   2.506   7.138 -3.0388  3.1061 -0.5818
 7596SOL    HW234251   0.619   2.473   7.269  0.7614  1.3459  0.0513
 7597SOL     OW34252   1.396   2.058   7.704  0.3100  0.0282 -0.2986
 7597SOL    HW134253   1.416   1.976   7.750  0.0148  0.9767  1.5007
 7597SOL    HW234254   1.471   2.111   7.732 -0.3333  0.0863  1.2762
 7598SOL     OW34255   2.463   3.967   8.327 -0.6975 -0.2233 -0.0455
 7598SOL    HW134256   2.431   4.037   8.271 -1.5437 -1.1978 -0.7900
 7598SOL    HW234257   2.427   3.981   8.415 -0.6160  1.5911 -0.3030
 7599SOL     OW34258   3.241   1.763   8.742 -0.1424  0.6478 -0.1248
 7599SOL    HW134259   3.286   1.678   8.736 -1.7335 -0.2193  0.1692
 7599SOL    HW234260   3.294   1.810   8.806 -2.4673  2.0322  0.7705
 7600SOL     OW34261   1.858   4.092  11.825  0.0243  0.0515  0.2681
 7600SOL    HW134262   1.807   4.084  11.905 -1.4968 -1.4915 -0.8383
 7600SOL    HW234263   1.856   4.004  11.786 -0.5987  0.1139  0.1715
 7601SOL     OW34264   0.865   2.266   9.556  1.1602  0.0011  0.4939
 7601SOL    HW134265   0.854   2.201   9.487  0.2533  0.7030 -0.0341
 7601SOL    HW234266   0.907   2.340   9.512  1.5021  0.1164  1.0102
 7602SOL     OW34267   1.717   0.704   5.980 -0.2994  0.1040 -0.1007
 7602SOL    HW134268   1.700   0.616   5.947  0.4561 -0.5637  1.3099
 7602SOL    HW234269   1.812   0.702   5.977 -0.2865  0.5976 -0.0855
 7603SOL     OW34270   4.395   2.624   3.582  0.1565 -0.9970 -0.3800
 7603SOL    HW134271   4.441   2.705   3.604  0.0895 -0.5950 -1.7119
 7603SOL    HW234272   4.309   2.648   3.548  1.4826  1.7325 -1.8983
 7604SOL     OW34273   2.797   1.432   4.340 -0.5138 -0.3652  0.0303
 7604SOL    HW134274   2.817   1.521   4.311 -2.2089 -0.1277 -0.4327
 7604SOL    HW234275   2.848   1.382   4.276 -0.9195  0.8338 -1.2319
 7605SOL     OW34276   2.051   4.192   8.877  0.1209  0.5010 -0.8077
 7605SOL    HW134277   2.000   4.197   8.796 -0.7565 -1.8997 -0.4028
 7605SOL    HW234278   1.999   4.249   8.934  0.4491  1.2722 -1.2724
 7606SOL     OW34279   0.486   0.918   3.273  0.2387  0.0931  0.4817
 7606SOL    HW134280   0.505   0.937   3.182 -0.6687 -1.2084  0.0126
 7606SOL    HW234281   0.416   0.855   3.254  1.1002 -0.7464  0.0649
 7607SOL     OW34282   1.703   3.047   2.193  0.0612 -0.5957 -0.2162
 7607SOL    HW134283   1.617   3.035   2.153 -0.2769  0.5990  0.1561
 7607SOL    HW234284   1.731   3.117   2.134  2.2878  0.4078  2.0214
 7608SOL     OW34285   4.040   0.370   6.674 -0.8982  0.1990  0.4402
 7608SOL    HW134286   4.121   0.319   6.664 -0.7729  0.6946 -1.2463
 7608SOL    HW234287   4.001   0.316   6.742 -0.0045 -1.9328 -0.7530
 7609SOL     OW34288   0.817   1.495   1.532  0.1298 -1.1752 -0.3873
 7609SOL    HW134289   0.807   1.416   1.479  0.7145 -0.4455 -1.5800
 7609SOL    HW234290   0.882   1.465   1.596  2.2752  1.1219 -1.4621
 7610SOL     OW34291   2.516   3.382  15.042  0.2271 -0.4164 -0.4190
 7610SOL    HW134292   2.460   3.340  14.976  0.0840 -0.4286 -0.2918
 7610SOL    HW234293   2.528   3.470  15.006 -1.0732 -0.3258 -0.6336
 7611SOL     OW34294   4.628   3.324   3.183  0.2520 -0.7011  0.0483
 7611SOL    HW134295   4.684   3.335   3.106  1.2074  1.4102  1.0442
 7611SOL    HW234296   4.580   3.249   3.148 -1.0676  1.0386 -1.7872
 7612SOL     OW34297   3.004   4.347   6.385  0.1788  0.8381  0.3735
 7612SOL    HW134298   3.057   4.379   6.457  1.5330 -2.1690  0.7359
 7612SOL    HW234299   3.020   4.406   6.311  1.0428 -0.5365 -0.5496
 7613SOL     OW34300   4.373   1.865   4.237  0.1800 -0.0409  0.1978
 7613SOL    HW134301   4.319   1.800   4.192 -1.5014  0.3818  1.6159
 7613SOL    HW234302   4.329   1.947   4.211  0.0105  0.0305  0.7050
 7614SOL     OW34303   2.186   2.645   6.962  0.1309 -0.4898  0.2198
 7614SOL    HW134304   2.267   2.629   7.009 -0.0472 -0.0864  0.6641
 7614SOL    HW234305   2.187   2.566   6.908  2.7911 -0.3711  0.1376
 7615SOL     OW34306   3.977   1.909   7.721 -0.0110  0.3546  0.4761
 7615SOL    HW134307   3.947   1.868   7.640 -1.0664  1.0742  0.5115
 7615SOL    HW234308   3.891   1.932   7.756 -0.2693  1.2147 -0.7098
 7616SOL     OW34309   2.264   0.555   0.046  0.1364  0.8632  0.6122
 7616SOL    HW134310   2.249   0.460   0.041 -2.5009  1.1773  2.6545
 7616SOL    HW234311   2.278   0.584  17.660 -0.2863 -1.4497 -0.1988
 7617SOL     OW34312   0.723   0.816  14.692 -0.3470 -0.7758  0.2294
 7617SOL    HW134313   0.713   0.753  14.764  0.3908 -1.6360 -0.4343
 7617SOL    HW234314   0.634   0.823  14.657  0.6063  2.2206 -1.5604
 7618SOL     OW34315   1.226   2.530   2.172 -0.3586 -0.6428  0.2687
 7618SOL    HW134316   1.310   2.499   2.138  0.0150  1.6780 -0.8927
 7618SOL    HW234317   1.178   2.447   2.164 -1.1236  0.0175 -1.9601
 7619SOL     OW34318   0.439   0.822   2.438  0.8745 -0.1567 -0.3281
 7619SOL    HW134319   0.388   0.742   2.447 -1.5688  1.5992  1.6974
 7619SOL    HW234320   0.471   0.826   2.528 -0.5133  2.0890  0.0855
 7620SOL     OW34321   2.764   2.097  10.932  0.1375  0.6334  0.2205
 7620SOL    HW134322   2.795   2.184  10.957 -1.2403  0.3501  2.8978
 7620SOL    HW234323   2.681   2.127  10.895  1.2489  3.0520 -0.2848
 7621SOL     OW34324   2.682   0.993   3.314 -0.2106  0.2863  0.1492
 7621SOL    HW134325   2.622   0.975   3.387 -1.0820  0.9678 -0.3893
 7621SOL    HW234326   2.675   1.087   3.296 -1.8761  0.6864  2.7997
 7622SOL     OW34327   2.043   0.804   8.904  0.0965 -0.0510  0.1443
 7622SOL    HW134328   2.004   0.838   8.984 -0.8165  0.5336 -0.5601
 7622SOL    HW234329   1.998   0.720   8.895  0.4451 -0.1990 -0.2217
 7623SOL     OW34330   4.452   1.787  15.123 -0.3880 -0.7124  0.2160
 7623SOL    HW134331   4.396   1.712  15.143  1.5110 -2.2173 -0.1600
 7623SOL    HW234332   4.453   1.836  15.205  0.5584 -0.4615  0.0533
 7624SOL     OW34333   2.379   2.529   4.446 -0.4909  0.0202 -0.2281
 7624SOL    HW134334   2.467   2.510   4.479 -0.1731  0.2489 -0.9302
 7624SOL    HW234335   2.392   2.597   4.381 -2.5520 -0.3921 -1.0625
 7625SOL     OW34336   0.274   2.446   8.149  0.1573 -0.0872  0.4648
 7625SOL    HW134337   0.183   2.433   8.177 -0.1514 -0.2693 -0.6246
 7625SOL    HW234338   0.288   2.495   8.231  0.7228  2.7429 -1.3179
 7626SOL     OW34339   3.419   0.717   8.323  0.5581 -0.0350 -0.4921
 7626SOL    HW134340   3.381   0.649   8.377 -0.8490  1.9176  0.9617
 7626SOL    HW234341   3.470   0.768   8.386 -0.7769 -1.5271  1.7650
 7627SOL     OW34342   0.845   0.519  15.889 -0.0664  0.2117  0.2859
 7627SOL    HW134343   0.873   0.478  15.807  2.0061 -4.0704  3.1573
 7627SOL    HW234344   0.770   0.461  15.899  0.4355 -0.5215 -0.1985
 7628SOL     OW34345   2.336   4.386   4.801 -0.0623 -0.4123 -0.0224
 7628SOL    HW134346   2.416   4.370   4.751  0.1807 -1.2503  0.6387
 7628SOL    HW234347   2.269   4.392   4.733 -2.1921 -0.7321  2.0210
 7629SOL     OW34348   3.446   2.708  15.132 -0.3806  0.6257  0.6583
 7629SOL    HW134349   3.535   2.689  15.104 -0.8980  0.5419 -0.9088
 7629SOL    HW234350   3.434   2.632  15.188  0.5903  0.8302  1.1353
 7630SOL     OW34351   2.249   1.797   5.518  0.2542  0.6831 -0.3478
 7630SOL    HW134352   2.312   1.736   5.557  0.7633  1.2828 -0.2242
 7630SOL    HW234353   2.172   1.741   5.523 -1.0694  2.6453  1.3901
 7631SOL     OW34354   1.518   4.602   6.813 -0.1528 -0.1557 -0.3405
 7631SOL    HW134355   1.502   4.508   6.823 -2.4112  0.4865  2.1116
 7631SOL    HW234356   1.459   4.618   6.739 -1.1561  1.5186  0.8273
 7632SOL     OW34357   4.623   2.357   8.093 -0.4187 -0.0461 -0.9356
 7632SOL    HW134358   4.578   2.420   8.150  0.9494  2.8505 -3.0417
 7632SOL    HW234359   4.678   2.310   8.156  0.7142  1.4348 -0.8228
 7633SOL     OW34360   1.427   2.998   5.549 -0.0639 -0.0289 -0.4115
 7633SOL    HW134361   1.334   2.989   5.565 -0.0135  0.9852  0.4423
 7633SOL    HW234362   1.451   2.913   5.512  1.0980  0.6784 -1.2730
 7634SOL     OW34363   0.724   1.358   1.981 -0.0337  0.4393  0.3628
 7634SOL    HW134364   0.688   1.438   1.944  0.6167  0.5340 -0.0641
 7634SOL    HW234365   0.791   1.351   1.913 -0.5195  0.4738 -0.1211
 7635SOL     OW34366   0.489   0.754   8.426 -0.8848 -0.4364  0.7189
 7635SOL    HW134367   0.515   0.669   8.463 -1.7717  0.7468  4.0372
 7635SOL    HW234368   0.397   0.742   8.403 -0.7496  0.2643 -0.2125
 7636SOL     OW34369   2.862   3.886   1.987  0.1157  0.0314  0.1084
 7636SOL    HW134370   2.952   3.863   2.011 -0.4530 -1.5553  0.7006
 7636SOL    HW234371   2.826   3.808   2.030  0.3072 -0.2050 -0.1558
 7637SOL     OW34372   4.111   1.766   2.589 -0.1321 -0.3045 -0.8290
 7637SOL    HW134373   4.147   1.772   2.677  0.3128 -1.9789 -0.8808
 7637SOL    HW234374   4.095   1.859   2.579 -2.7332 -0.5809  0.9289
 7638SOL     OW34375   0.216   3.609   3.173 -0.3415  0.1461  0.0490
 7638SOL    HW134376   0.272   3.594   3.097  1.4525  1.8722  1.0058
 7638SOL    HW234377   0.247   3.697   3.194  0.0904 -0.4375  1.8202
 7639SOL     OW34378   4.264   0.967  15.212 -0.2295  0.2367  0.6898
 7639SOL    HW134379   4.246   0.877  15.239  1.4092  0.3859  2.2939
 7639SOL    HW234380   4.231   1.031  15.275  0.2947 -0.0467  1.2519
 7640SOL     OW34381   3.426   1.195   7.946  0.1364 -0.2068  0.1409
 7640SOL    HW134382   3.337   1.163   7.937 -0.2007  0.7095  0.1972
 7640SOL    HW234383   3.395   1.274   7.990  1.4534  0.7872 -0.7073
 7641SOL     OW34384   3.684   1.655  11.084 -0.1968 -0.4975  0.0053
 7641SOL    HW134385   3.642   1.733  11.120  1.4097  0.7650 -0.8875
 7641SOL    HW234386   3.608   1.620  11.036 -0.1951  0.3619 -0.6234
 7642SOL     OW34387   3.908   1.299   0.396 -0.3578 -0.4964 -0.0116
 7642SOL    HW134388   3.912   1.251   0.313 -1.0926 -2.5050  1.1048
 7642SOL    HW234389   3.885   1.387   0.366 -1.8566  0.0749  2.7992
 7643SOL     OW34390   1.198   0.769  12.394 -0.4267  0.2189  0.0580
 7643SOL    HW134391   1.103   0.769  12.395 -0.4360 -0.7992 -0.7212
 7643SOL    HW234392   1.214   0.851  12.347 -0.8487  0.9675  1.2380
 7644SOL     OW34393   2.558   1.715   2.018 -0.0281 -0.3474 -0.2182
 7644SOL    HW134394   2.566   1.735   2.111 -0.1027 -0.9221 -0.0886
 7644SOL    HW234395   2.642   1.671   2.003 -0.2801 -0.9228  0.0629
 7645SOL     OW34396   2.924   1.771  15.698  0.2648  0.6646  0.3020
 7645SOL    HW134397   3.012   1.755  15.734  0.5156  2.2175  0.3720
 7645SOL    HW234398   2.902   1.695  15.644 -0.8300 -1.9681  4.3829
 7646SOL     OW34399   2.424   3.900   5.763  0.0592 -0.3222  0.0164
 7646SOL    HW134400   2.389   3.985   5.734  0.8291  0.0754  0.2703
 7646SOL    HW234401   2.362   3.844   5.716  1.5953 -1.8341 -0.1824
 7647SOL     OW34402   0.304   4.111   8.761 -0.2232  0.4387 -0.5878
 7647SOL    HW134403   0.222   4.087   8.716 -1.1250 -1.4154  2.0147
 7647SOL    HW234404   0.366   4.068   8.703  0.0135 -0.3466  0.2442
 7648SOL     OW34405   4.706   4.506   2.628 -0.4023 -0.3202  0.8240
 7648SOL    HW134406   4.682   4.571   2.561 -0.8517 -1.3191  0.0276
 7648SOL    HW234407   4.665   4.428   2.592 -0.8803  0.1777  0.2829
 7649SOL     OW34408   0.585   2.263   3.138  0.6911  0.6951 -0.0035
 7649SOL    HW134409   0.626   2.339   3.096  0.1947  1.1635  0.3541
 7649SOL    HW234410   0.502   2.249   3.093  0.3338 -0.0718  0.8899
 7650SOL     OW34411   3.928   3.724  14.079  0.0659  0.2533 -0.0035
 7650SOL    HW134412   3.987   3.697  14.009 -2.8450  0.3168 -2.4796
 7650SOL    HW234413   4.002   3.763  14.126 -0.9815  1.0873  0.9514
 7651SOL     OW34414   4.168   0.864   1.714 -0.1238 -0.0434 -0.0645
 7651SOL    HW134415   4.109   0.939   1.713  0.6199  0.4985 -1.6354
 7651SOL    HW234416   4.220   0.889   1.638 -3.0632  1.9435 -1.4171
 7652SOL     OW34417   4.401   3.788   5.849 -0.1517 -0.4864 -0.2579
 7652SOL    HW134418   4.392   3.695   5.828 -2.8520 -0.6596  1.6958
 7652SOL    HW234419   4.343   3.824   5.781 -2.2998  1.4060  2.5572
 7653SOL     OW34420   1.046   1.686   0.388  0.4512 -0.4497  0.6748
 7653SOL    HW134421   1.029   1.748   0.317 -0.2399 -1.2465  0.1404
 7653SOL    HW234422   1.119   1.732   0.429  0.2978  0.2736  0.1326
 7654SOL     OW34423   4.046   4.252  16.826 -0.1399  0.3665 -0.2048
 7654SOL    HW134424   4.121   4.248  16.767 -1.5952  1.9438 -2.1471
 7654SOL    HW234425   3.987   4.283  16.757  0.2680  0.5736 -0.4561
 7655SOL     OW34426   4.450   1.174  12.650  0.3393 -0.4838 -0.0318
 7655SOL    HW134427   4.525   1.166  12.710  0.8841 -0.5318 -0.7149
 7655SOL    HW234428   4.387   1.115  12.690 -0.0902 -1.6663 -2.4760
 7656SOL     OW34429   0.453   4.298   6.317 -0.4920  0.1490  0.0353
 7656SOL    HW134430   0.441   4.373   6.374  0.5559 -0.2246  0.7559
 7656SOL    HW234431   0.362   4.288   6.289 -0.6688 -1.3531  1.0945
 7657SOL     OW34432   0.290   4.548   5.251 -0.0934  0.1393 -0.1327
 7657SOL    HW134433   0.316   4.590   5.333 -1.0454  1.6391 -0.5933
 7657SOL    HW234434   0.317   4.603   5.178  0.4281  0.7582  0.5236
 7658SOL     OW34435   4.689   2.280  14.662 -0.1828  0.5317 -0.0590
 7658SOL    HW134436   0.020   2.289  14.739  0.9488 -0.5378 -0.7805
 7658SOL    HW234437   0.024   2.303  14.592  0.4262  0.0488  0.3194
 7659SOL     OW34438   1.133   1.863   4.987  0.5146  0.1319 -0.0139
 7659SOL    HW134439   1.206   1.811   5.021 -0.1162 -0.1642  0.9121
 7659SOL    HW234440   1.170   1.950   4.996 -1.3872  1.0010 -0.5990
 7660SOL     OW34441   3.481   4.599  16.159  0.0382 -0.2566 -0.1295
 7660SOL    HW134442   3.401   4.635  16.120 -2.1386 -2.7691  2.0468
 7660SOL    HW234443   3.556   4.618  16.103  1.1238 -0.4182  1.2668
 7661SOL     OW34444   3.840   0.517  17.621  0.2175 -0.2036 -0.4399
 7661SOL    HW134445   3.808   0.548   0.001 -2.1666  1.8484 -2.0720
 7661SOL    HW234446   3.771   0.549  17.562  0.3964 -1.4165 -1.3070
 7662SOL     OW34447   3.118   0.800   0.324  0.1437 -0.4515  0.6244
 7662SOL    HW134448   3.183   0.786   0.393  0.0600 -2.1799  0.3706
 7662SOL    HW234449   3.167   0.854   0.263  0.7757  1.0317  2.4519
 7663SOL     OW34450   0.956   3.920   2.174  0.2447 -0.1658 -0.1804
 7663SOL    HW134451   1.045   3.943   2.148  0.2869 -0.6784 -0.4901
 7663SOL    HW234452   0.939   3.858   2.102  1.5774  1.4319 -1.8601
 7664SOL     OW34453   0.934   1.417   1.843  0.2044 -0.0014 -0.0398
 7664SOL    HW134454   0.961   1.486   1.903 -0.0759  1.5168 -1.6839
 7664SOL    HW234455   1.007   1.413   1.781  0.0505 -0.1395 -0.2122
 7665SOL     OW34456   3.428   2.409  14.832  0.0817 -1.0251  0.2839
 7665SOL    HW134457   3.403   2.380  14.744 -2.3621  0.6660  0.4241
 7665SOL    HW234458   3.473   2.491  14.815 -2.9153  0.6139  0.1875
 7666SOL     OW34459   1.061   1.469   5.927 -0.4430 -0.0552 -0.2251
 7666SOL    HW134460   1.080   1.384   5.888 -0.2411 -0.1164  0.0089
 7666SOL    HW234461   1.117   1.523   5.870 -0.0802 -1.5102 -1.2405
 7667SOL     OW34462   0.862   1.883   5.388  0.0260 -0.2461  0.3134
 7667SOL    HW134463   0.866   1.870   5.293  2.4913 -2.3526  0.6908
 7667SOL    HW234464   0.938   1.940   5.393 -0.3056  0.0418  2.0839
 7668SOL     OW34465   0.815   2.419  13.179  0.2455 -0.0356 -0.3229
 7668SOL    HW134466   0.720   2.422  13.165 -0.2469 -0.6525  2.8761
 7668SOL    HW234467   0.838   2.509  13.153 -0.4374  0.3426  0.3755
 7669SOL     OW34468   3.944   3.472  11.352 -0.1643 -0.4890 -0.1274
 7669SOL    HW134469   3.881   3.525  11.401 -0.4792 -1.4007  0.4450
 7669SOL    HW234470   3.921   3.486  11.260  0.9285 -0.6203 -0.4214
 7670SOL     OW34471   3.994   3.078   8.037 -0.1234  0.3141 -0.6112
 7670SOL    HW134472   3.920   3.100   8.095 -1.5563 -1.2812 -1.8243
 7670SOL    HW234473   3.978   2.984   8.025 -0.6490 -0.0421  2.7125
 7671SOL     OW34474   4.133   3.243   0.408 -0.5395 -0.3326  0.0196
 7671SOL    HW134475   4.196   3.239   0.337  0.0269 -0.2160  0.5169
 7671SOL    HW234476   4.183   3.269   0.485 -0.4965 -2.5673  0.7558
 7672SOL     OW34477   1.865   1.716   6.965 -0.0472  0.2045  0.0763
 7672SOL    HW134478   1.878   1.621   6.972  2.2282  0.4028 -1.3557
 7672SOL    HW234479   1.934   1.740   6.903 -0.4942  3.0949  0.7060
 7673SOL     OW34480   1.422   0.602   7.372 -0.4117 -0.2807 -0.2291
 7673SOL    HW134481   1.504   0.553   7.377  0.6962  1.8257  1.9410
 7673SOL    HW234482   1.359   0.530   7.362 -1.5475  0.3411  2.6172
 7674SOL     OW34483   1.360   1.521   3.185 -0.8435  0.0785  0.1887
 7674SOL    HW134484   1.315   1.572   3.253 -0.6933  2.0176 -1.1713
 7674SOL    HW234485   1.403   1.452   3.236 -1.1522  0.4028  0.8844
 7675SOL     OW34486   2.570   4.182   1.410  0.1326  0.3443 -0.1457
 7675SOL    HW134487   2.533   4.232   1.483  1.6995 -0.4183  1.1809
 7675SOL    HW234488   2.499   4.124   1.385  1.0640 -0.0093 -1.9685
 7676SOL     OW34489   3.913   2.028   1.794  0.5953  0.1997 -0.1347
 7676SOL    HW134490   3.937   2.028   1.702 -1.9759 -0.6228 -0.8031
 7676SOL    HW234491   3.818   2.022   1.795  0.7490 -2.3053  0.2117
 7677SOL     OW34492   1.661   0.163   0.432 -0.6156  0.0615 -0.1194
 7677SOL    HW134493   1.679   0.130   0.344 -2.5334 -1.3743  0.0262
 7677SOL    HW234494   1.647   0.083   0.482  0.2398 -0.2984 -0.4394
 7678SOL     OW34495   3.900   1.236  13.244 -0.2408  0.7963 -0.2523
 7678SOL    HW134496   3.876   1.290  13.169 -2.6505  1.0772  0.7287
 7678SOL    HW234497   3.840   1.163  13.228  1.6356 -0.3453 -2.0364
 7679SOL     OW34498   1.122   2.760  15.385  0.1807 -0.5055  0.8432
 7679SOL    HW134499   1.067   2.790  15.458 -2.8797 -0.8569 -1.3217
 7679SOL    HW234500   1.053   2.734  15.323  0.3362  0.7920  0.1263
 7680SOL     OW34501   0.641   2.449   2.934 -0.9672 -0.4593  0.0070
 7680SOL    HW134502   0.685   2.440   2.850 -0.1398  1.4850  0.2335
 7680SOL    HW234503   0.550   2.440   2.905 -0.4223 -0.7390 -1.5986
 7681SOL     OW34504   0.448   2.247   8.130  0.1696 -0.1833  0.5112
 7681SOL    HW134505   0.462   2.246   8.225 -0.4316  1.3225  0.6186
 7681SOL    HW234506   0.381   2.316   8.125  1.1038  0.5489 -1.8075
 7682SOL     OW34507   0.713   2.109   5.613  0.3990  0.4547  0.0641
 7682SOL    HW134508   0.649   2.176   5.639  0.5567  0.3582  0.6986
 7682SOL    HW234509   0.794   2.159   5.618  0.2431  0.5333  1.8827
 7683SOL     OW34510   0.727   2.346   3.608  0.2263  0.0826  0.4261
 7683SOL    HW134511   0.803   2.347   3.550  0.0783  0.7691  0.2480
 7683SOL    HW234512   0.660   2.313   3.549 -1.3176  0.3531  2.0428
 7684SOL     OW34513   0.844   0.131   8.242 -0.7961  0.7522  0.3630
 7684SOL    HW134514   0.926   0.153   8.198 -0.9443  0.5766  0.0025
 7684SOL    HW234515   0.875   0.058   8.295  1.1644  1.6424  0.4304
 7685SOL     OW34516   2.318   1.194   8.298 -0.3484 -0.2588 -0.0055
 7685SOL    HW134517   2.275   1.161   8.220  0.4203  1.0320 -0.9868
 7685SOL    HW234518   2.373   1.123   8.333 -1.3242 -0.9719  0.0718
 7686SOL     OW34519   1.332   4.303  12.950  0.0248 -0.2311  0.4921
 7686SOL    HW134520   1.427   4.301  12.967  0.1547 -1.7148 -0.4377
 7686SOL    HW234521   1.298   4.245  13.018 -2.5573 -0.1690 -0.7629
 7687SOL     OW34522   1.739   2.978   9.508 -0.1925 -0.5693 -0.3450
 7687SOL    HW134523   1.681   2.920   9.458 -0.3630 -2.7210  2.3176
 7687SOL    HW234524   1.809   2.915   9.525 -0.5668 -0.8742  0.0877
 7688SOL     OW34525   4.618   1.252   2.772 -0.2033  0.2845  0.4926
 7688SOL    HW134526   4.670   1.234   2.693 -1.1413  1.3174 -0.3566
 7688SOL    HW234527   4.648   1.181   2.830 -0.2876  1.2308  1.6867
 7689SOL     OW34528   0.988   2.503   8.449  0.0480  0.3436  0.1605
 7689SOL    HW134529   1.029   2.419   8.427  1.8578  1.6614 -1.4028
 7689SOL    HW234530   1.068   2.553   8.439 -0.5184  1.8514  3.0317
 7690SOL     OW34531   2.481   4.631   1.219  0.0228 -0.3640 -0.1087
 7690SOL    HW134532   2.421   4.608   1.289  1.2989 -1.3443  0.6597
 7690SOL    HW234533   2.488   4.725   1.239  1.5811  0.0559 -2.5844
 7691SOL     OW34534   3.578   4.494   8.070  0.0695  0.0476  0.2187
 7691SOL    HW134535   3.563   4.400   8.062 -1.8678  0.3327  0.5883
 7691SOL    HW234536   3.486   4.519   8.067 -0.3908 -1.9569 -2.4801
 7692SOL     OW34537   4.618   4.137   3.324 -0.0161  0.1168  0.3318
 7692SOL    HW134538   4.677   4.062   3.321 -3.6715 -2.7716  1.9942
 7692SOL    HW234539   4.689   4.200   3.340  0.8358 -1.4698  2.7181
 7693SOL     OW34540   0.397   4.559   2.095 -0.7730 -0.3380 -0.0206
 7693SOL    HW134541   0.451   4.583   2.020 -3.1897  1.4168 -1.1813
 7693SOL    HW234542   0.456   4.571   2.169 -0.1854 -0.4440 -0.4685
 7694SOL     OW34543   1.983   1.467  12.875  0.1835 -0.3472 -0.2302
 7694SOL    HW134544   2.058   1.415  12.903  0.0352 -0.2739  0.3090
 7694SOL    HW234545   2.027   1.552  12.875 -0.4341 -0.0579 -3.8912
 7695SOL     OW34546   3.086   3.950   8.971 -0.4509 -0.2960  0.1602
 7695SOL    HW134547   3.110   3.897   8.895  1.9673  1.4927 -0.3212
 7695SOL    HW234548   3.044   4.027   8.932 -0.2332  0.1742  0.8447
 7696SOL     OW34549   4.041   2.764   8.928 -0.4063 -0.2139  0.4246
 7696SOL    HW134550   4.066   2.772   8.836  1.8082 -0.8621  0.9524
 7696SOL    HW234551   3.947   2.782   8.931 -0.2572  0.3340  1.5811
 7697SOL     OW34552   1.260   1.768   8.174 -0.5912  0.3487  0.0180
 7697SOL    HW134553   1.350   1.793   8.197 -0.4450  0.7729 -1.0148
 7697SOL    HW234554   1.218   1.846   8.211  0.0744 -0.3774  2.3092
 7698SOL     OW34555   3.477   0.464   1.192  0.1901  0.0758  0.6422
 7698SOL    HW134556   3.470   0.383   1.142  0.5890 -0.3908  1.3394
 7698SOL    HW234557   3.566   0.446   1.224  0.3924 -0.3838 -0.1697
 7699SOL     OW34558   2.074   3.457   7.404 -0.1875  0.3022 -0.2639
 7699SOL    HW134559   2.139   3.527   7.411 -0.6635  0.7115  0.0806
 7699SOL    HW234560   2.087   3.417   7.490 -0.3197  2.8200  0.9204
 7700SOL     OW34561   2.701   3.137   3.552  0.2563  0.0311 -0.1516
 7700SOL    HW134562   2.759   3.140   3.476  1.9516 -0.0431  1.1247
 7700SOL    HW234563   2.699   3.229   3.578  0.0547  0.3739 -1.4114
 7701SOL     OW34564   4.117   1.189   2.994 -0.2569  0.1148 -0.1668
 7701SOL    HW134565   4.047   1.235   2.949  0.5160  1.4480  0.0021
 7701SOL    HW234566   4.144   1.129   2.925  0.1449 -0.0526  0.1314
 7702SOL     OW34567   3.576   2.309   5.889  0.8560 -0.3565 -0.3903
 7702SOL    HW134568   3.495   2.329   5.842 -0.3482 -1.2635  1.2990
 7702SOL    HW234569   3.586   2.231   5.835  0.9910 -0.6065 -0.0024
 7703SOL     OW34570   2.019   4.634   5.674 -0.0814 -0.6393 -0.3847
 7703SOL    HW134571   2.014   4.561   5.612 -0.4916  0.0341 -1.1476
 7703SOL    HW234572   2.089   4.680   5.629 -0.9841  0.4945 -0.6197
 7704SOL     OW34573   4.063   4.377  17.401  0.3718 -0.4445 -0.3388
 7704SOL    HW134574   4.079   4.419  17.486 -2.8546  0.2664 -0.0638
 7704SOL    HW234575   4.090   4.286  17.416 -0.2931 -0.8377 -1.5488
 7705SOL     OW34576   2.985   1.660   1.106 -0.6768  0.3455 -0.0395
 7705SOL    HW134577   3.001   1.601   1.179 -3.2132  0.1774  0.3739
 7705SOL    HW234578   2.892   1.648   1.083 -0.2533  0.5339 -1.8723
 7706SOL     OW34579   1.394   4.046   4.333 -0.1774 -0.1236 -0.3773
 7706SOL    HW134580   1.410   4.039   4.239 -0.4679  2.0803 -0.5808
 7706SOL    HW234581   1.464   4.092   4.380 -0.6804  0.8338 -0.5772
 7707SOL     OW34582   2.217   2.987   9.326  0.0162 -0.4282 -0.5278
 7707SOL    HW134583   2.233   3.052   9.395  1.4287 -0.5785 -0.7074
 7707SOL    HW234584   2.230   3.047   9.252 -0.7538 -2.4809 -2.3216
 7708SOL     OW34585   1.226   2.361   5.586 -0.0484 -0.4856 -0.0173
 7708SOL    HW134586   1.305   2.345   5.534 -1.1011  0.2888 -1.8711
 7708SOL    HW234587   1.245   2.331   5.675 -0.0748 -0.9007 -0.1527
 7709SOL     OW34588   3.132   3.970  14.806 -0.2289 -0.1913  0.4461
 7709SOL    HW134589   3.194   3.928  14.747 -1.4902 -0.6864 -0.5355
 7709SOL    HW234590   3.133   4.060  14.774  0.2701  0.4663  2.2755
 7710SOL     OW34591   2.185   4.355   5.241  0.2092  0.1210  0.0828
 7710SOL    HW134592   2.110   4.364   5.182  0.2388 -2.3987 -0.3381
 7710SOL    HW234593   2.246   4.412   5.194 -2.0273  2.9110  0.6387
 7711SOL     OW34594   1.306   0.373   5.769 -0.1249  0.5993  0.5254
 7711SOL    HW134595   1.375   0.328   5.721 -0.9550  0.0997 -0.2108
 7711SOL    HW234596   1.264   0.305   5.822 -1.7514  3.1511  2.5174
 7712SOL     OW34597   1.631   4.331   5.763  0.5874  0.5934  0.1131
 7712SOL    HW134598   1.600   4.242   5.751 -2.4828  2.0527 -2.6271
 7712SOL    HW234599   1.672   4.351   5.679  0.7178  2.0761  0.5219
 7713SOL     OW34600   2.305   2.584  17.110  0.3247 -0.3239  0.2984
 7713SOL    HW134601   2.278   2.493  17.096  2.7406 -0.8750 -0.7264
 7713SOL    HW234602   2.298   2.601  17.204  0.0262 -0.7711  0.3625
 7714SOL     OW34603   2.488   1.435  10.310 -0.1115  0.1285  0.9471
 7714SOL    HW134604   2.526   1.483  10.384 -1.1172 -0.1952  1.6731
 7714SOL    HW234605   2.423   1.498  10.279  4.5612  2.2482 -4.6540
 7715SOL     OW34606   3.249   1.909  16.576  0.4530  0.5764  0.6601
 7715SOL    HW134607   3.262   1.866  16.660  0.1220  2.0392  1.4622
 7715SOL    HW234608   3.314   1.865  16.522 -0.8478  1.7817 -1.8836
 7716SOL     OW34609   2.837   1.233   5.554  0.4700 -0.0354  0.3936
 7716SOL    HW134610   2.837   1.186   5.637  2.8603 -1.4926 -0.4284
 7716SOL    HW234611   2.926   1.268   5.553  0.0869  0.9607  0.3138
 7717SOL     OW34612   1.390   1.765   2.810  0.2086  0.5319  0.4280
 7717SOL    HW134613   1.474   1.795   2.845  0.0388  0.2293  1.1013
 7717SOL    HW234614   1.342   1.844   2.831 -0.8781  0.3358 -1.3495
 7718SOL     OW34615   4.322   3.543   4.319 -0.4035  0.7766 -0.1199
 7718SOL    HW134616   4.414   3.516   4.318 -1.2648 -2.1560 -0.0949
 7718SOL    HW234617   4.274   3.500   4.248  2.5989  0.2156 -1.8341
 7719SOL     OW34618   0.101   1.833   2.887 -0.3095  0.0480  0.0208
 7719SOL    HW134619   0.191   1.802   2.874  0.7510  2.5476  1.2518
 7719SOL    HW234620   0.107   1.922   2.852  1.7151 -0.0206  0.1500
 7720SOL     OW34621   4.309   3.823   4.302  0.1079  0.4460 -0.0793
 7720SOL    HW134622   4.309   3.729   4.289 -0.5498  0.3402  0.6352
 7720SOL    HW234623   4.385   3.847   4.249  0.5140 -1.5117 -0.3680
 7721SOL     OW34624   3.519   3.240   4.071  0.5241 -1.0043 -0.0672
 7721SOL    HW134625   3.550   3.331   4.067  0.4250 -0.9039  1.2648
 7721SOL    HW234626   3.570   3.197   4.003  1.4291  0.9659 -0.6447
 7722SOL     OW34627   2.759   3.981   4.436  0.4285  0.6905 -0.4839
 7722SOL    HW134628   2.683   3.951   4.387  0.5565 -1.8007  0.8692
 7722SOL    HW234629   2.810   4.002   4.357  2.3687 -2.5333 -0.1077
 7723SOL     OW34630   2.054   1.165   2.680 -0.3733  0.1349  0.3169
 7723SOL    HW134631   2.125   1.143   2.620  0.9630  0.6348  1.7284
 7723SOL    HW234632   2.079   1.257   2.678  2.4543 -0.6800 -1.4644
 7724SOL     OW34633   2.001   3.475   4.065 -0.3618  0.3055 -0.2680
 7724SOL    HW134634   2.031   3.397   4.110  0.7001 -0.3181 -2.0711
 7724SOL    HW234635   1.990   3.523   4.147 -2.5410 -1.8871  0.7269
 7725SOL     OW34636   3.060   2.278  16.186  0.2865 -0.3027 -0.1290
 7725SOL    HW134637   2.976   2.288  16.232  0.9960  2.6377  0.5450
 7725SOL    HW234638   3.085   2.189  16.208 -1.7697 -1.2277 -1.6145
 7726SOL     OW34639   0.320   1.479  13.145  0.3673  0.2325  0.5410
 7726SOL    HW134640   0.358   1.404  13.100  2.0562  0.0913  2.2248
 7726SOL    HW234641   0.377   1.484  13.222  1.7847  0.7243 -0.5395
 7727SOL     OW34642   1.125   3.451   6.789 -0.3419 -0.1619  0.1272
 7727SOL    HW134643   1.030   3.435   6.786  0.2149 -3.4541  0.2347
 7727SOL    HW234644   1.163   3.388   6.851 -0.5649 -1.0802 -0.6643
 7728SOL     OW34645   1.977   3.666  12.998 -0.0021  0.4111 -0.0325
 7728SOL    HW134646   1.895   3.710  12.976 -0.7039  0.3711  2.4194
 7728SOL    HW234647   1.968   3.586  12.945  1.0760 -1.4107  2.4929
 7729SOL     OW34648   0.044   2.877   5.867 -0.2371  0.0615  0.0742
 7729SOL    HW134649   0.048   2.813   5.939  0.8011  0.8209  0.6772
 7729SOL    HW234650   0.011   2.821   5.797 -1.2136  0.8802 -0.1169
 7730SOL     OW34651   0.578   2.894   4.890 -0.4561  0.2525  0.4941
 7730SOL    HW134652   0.659   2.893   4.940  0.0010 -1.4064 -0.2931
 7730SOL    HW234653   0.535   2.963   4.942 -1.6852  0.4368 -0.7625
 7731SOL     OW34654   2.476   2.580   8.553  0.3053  0.4831  0.4305
 7731SOL    HW134655   2.412   2.634   8.505  0.7013  0.9297  0.4069
 7731SOL    HW234656   2.415   2.528   8.604 -0.2812  1.8003  1.0890
 7732SOL     OW34657   4.433   1.176  15.390 -0.2567  0.1833  0.0031
 7732SOL    HW134658   4.474   1.252  15.349  0.2172 -0.2887 -0.3911
 7732SOL    HW234659   4.346   1.175  15.352  0.1543  1.6361 -0.9622
 7733SOL     OW34660   0.709   2.326   4.355 -0.0092 -0.2510  0.0949
 7733SOL    HW134661   0.641   2.269   4.319 -0.1341  0.6202 -1.0401
 7733SOL    HW234662   0.756   2.356   4.277 -0.5330 -1.3525 -0.6523
 7734SOL     OW34663   3.724   0.148   6.961 -0.4630 -0.7374  0.4914
 7734SOL    HW134664   3.704   0.088   7.032  0.1314 -0.3241  0.9993
 7734SOL    HW234665   3.686   0.226   7.001 -0.5594 -0.2070 -0.6387
 7735SOL     OW34666   2.141   3.943  12.365 -0.0791 -0.2253 -0.0136
 7735SOL    HW134667   2.115   4.034  12.354 -1.1181 -0.6876 -1.3893
 7735SOL    HW234668   2.235   3.957  12.374  0.1233 -1.3829 -0.3385
 7736SOL     OW34669   2.031   0.189   5.331  0.5636  0.3992  0.1022
 7736SOL    HW134670   2.077   0.139   5.399 -0.4081 -0.0674  0.4160
 7736SOL    HW234671   1.940   0.158   5.330  0.4475  0.7178  0.5510
 7737SOL     OW34672   4.544   0.919   7.607  0.4657  0.3673 -0.0555
 7737SOL    HW134673   4.507   0.846   7.558 -2.4305  0.8086  1.4736
 7737SOL    HW234674   4.509   0.887   7.690 -0.3098  0.9335 -0.1601
 7738SOL     OW34675   0.194   1.481   7.760  0.2931  0.3818  0.1609
 7738SOL    HW134676   0.278   1.458   7.721  0.2477  0.5189 -0.0177
 7738SOL    HW234677   0.153   1.395   7.764 -0.5996  0.7597 -0.7161
 7739SOL     OW34678   3.693   1.612  16.461  0.1357 -0.2028  0.2508
 7739SOL    HW134679   3.762   1.616  16.395 -1.2156  1.4892 -1.0770
 7739SOL    HW234680   3.718   1.530  16.505  1.6949 -0.0521 -0.3655
 7740SOL     OW34681   1.989   3.991  13.464  0.3181 -0.2682  0.1198
 7740SOL    HW134682   1.897   3.967  13.455  0.5272 -1.4297  1.0810
 7740SOL    HW234683   2.032   3.923  13.413  1.0172  1.1248 -1.1527
 7741SOL     OW34684   1.696   3.252  15.519  0.6387  0.1263 -0.3442
 7741SOL    HW134685   1.642   3.257  15.440 -0.8208 -0.5943  0.6017
 7741SOL    HW234686   1.711   3.346  15.523 -2.4340  0.5811  0.4000
 7742SOL     OW34687   3.436   0.773   8.889  0.1272 -0.0409 -0.0878
 7742SOL    HW134688   3.454   0.760   8.982  0.7326 -0.3737 -0.2509
 7742SOL    HW234689   3.342   0.787   8.902 -0.3195  1.0779 -4.3517
 7743SOL     OW34690   2.233   1.049   8.083  0.0782  0.0416 -0.1736
 7743SOL    HW134691   2.150   1.083   8.051  0.8176  1.8483 -0.1672
 7743SOL    HW234692   2.216   0.970   8.134 -1.7754  1.1792  0.9819
 7744SOL     OW34693   0.520   0.331   6.067 -0.0110 -0.4925 -0.3550
 7744SOL    HW134694   0.605   0.316   6.107 -0.4209  0.1559  0.7798
 7744SOL    HW234695   0.533   0.407   6.011 -1.1945 -0.6799 -0.8981
 7745SOL     OW34696   2.247   2.256   4.817 -0.5609 -0.3720  0.1694
 7745SOL    HW134697   2.183   2.315   4.778 -0.4461  0.2534  0.9199
 7745SOL    HW234698   2.275   2.210   4.738 -1.1676 -1.2794  0.4836
 7746SOL     OW34699   3.867   3.949  11.457  0.2278 -0.3631 -0.0648
 7746SOL    HW134700   3.854   4.023  11.516  0.5124  0.2888 -0.8124
 7746SOL    HW234701   3.960   3.951  11.434 -0.8006  0.7403 -4.1605
 7747SOL     OW34702   2.494   0.004   2.477 -0.0697  0.2913 -0.0176
 7747SOL    HW134703   2.544   0.009   2.558 -0.7477  0.9882  0.3639
 7747SOL    HW234704   2.568   0.016   2.417  1.4064 -1.1801  1.5334
 7748SOL     OW34705   2.140   1.087   5.381  1.2433 -0.2263 -0.4077
 7748SOL    HW134706   2.060   1.055   5.424  0.3771  3.3745  0.7388
 7748SOL    HW234707   2.206   1.050   5.439 -0.3102  0.8515  2.0680
 7749SOL     OW34708   4.527   0.892   8.679  0.2056 -0.5577  0.4304
 7749SOL    HW134709   4.529   0.947   8.757 -0.3618 -0.4318  0.3554
 7749SOL    HW234710   4.599   0.922   8.623 -0.6557  1.5689  0.4435
 7750SOL     OW34711   2.717   3.781   4.714  0.0096 -0.1732  0.0370
 7750SOL    HW134712   2.697   3.689   4.727 -1.2083  0.1915  0.7280
 7750SOL    HW234713   2.758   3.806   4.797  0.4373  0.3635 -0.3351
 7751SOL     OW34714   1.567   2.921   3.188  0.3151  0.1927  0.7498
 7751SOL    HW134715   1.548   2.832   3.161  1.0088  0.2532  0.0673
 7751SOL    HW234716   1.574   2.968   3.105 -1.8333 -0.6075  0.1407
 7752SOL     OW34717   2.897   2.696   7.897  0.3206  0.8409  0.0694
 7752SOL    HW134718   2.839   2.626   7.926 -1.6489  2.7856  0.8748
 7752SOL    HW234719   2.857   2.718   7.813 -0.7889 -1.9947 -0.1325
 7753SOL     OW34720   0.038   2.079  12.223  0.2145  0.2410  0.2542
 7753SOL    HW134721   0.082   2.047  12.144  1.2481 -0.8037  1.2727
 7753SOL    HW234722   0.008   2.162  12.186 -1.3049  0.1643  1.2986
 7754SOL     OW34723   0.869   0.698   6.695 -0.1262  0.2681 -0.0095
 7754SOL    HW134724   0.898   0.699   6.604  0.2413 -2.7655  0.0615
 7754SOL    HW234725   0.921   0.769   6.732  0.5639  0.4681 -1.3738
 7755SOL     OW34726   3.466   2.278   4.625 -0.1835  0.5383  0.2154
 7755SOL    HW134727   3.471   2.318   4.538 -0.3104  2.6241  1.1606
 7755SOL    HW234728   3.558   2.266   4.648  0.0879 -0.9934 -1.6720
 7756SOL     OW34729   4.035   3.847   2.718  0.3781  0.0372 -0.5818
 7756SOL    HW134730   3.985   3.863   2.798 -0.2809  0.0885 -1.0076
 7756SOL    HW234731   4.127   3.874   2.725  0.0996  0.9241 -0.3367
 7757SOL     OW34732   3.268   1.238  10.035  0.2473  0.0032  0.2235
 7757SOL    HW134733   3.201   1.299  10.065 -0.5399 -1.1362  0.7602
 7757SOL    HW234734   3.224   1.169   9.986 -3.5698  0.9347  2.3215
 7758SOL     OW34735   2.779   0.775   4.140 -0.4444  0.0998 -0.1715
 7758SOL    HW134736   2.868   0.757   4.170  0.2226  1.1699 -1.5067
 7758SOL    HW234737   2.725   0.748   4.215 -0.5012  0.7475  0.0264
 7759SOL     OW34738   3.643   3.150  10.562  0.0748 -0.5308 -0.0905
 7759SOL    HW134739   3.637   3.105  10.646 -2.0316 -1.2061 -0.5875
 7759SOL    HW234740   3.720   3.205  10.575 -0.4169  0.0848  0.2100
 7760SOL     OW34741   3.168   1.057   4.675  0.1482  0.2038 -0.0901
 7760SOL    HW134742   3.220   1.125   4.717 -0.7483  0.6500  0.3115
 7760SOL    HW234743   3.102   1.115   4.637  0.2901  0.7375  0.4838
 7761SOL     OW34744   0.929   4.215   2.885 -0.4449 -0.3042  0.1887
 7761SOL    HW134745   0.943   4.154   2.813  1.9037 -0.7363  1.0064
 7761SOL    HW234746   0.836   4.234   2.871 -0.2686  0.1230 -0.3732
 7762SOL     OW34747   4.002   1.811  14.972  0.4267 -0.1920  0.1965
 7762SOL    HW134748   4.065   1.877  14.942 -1.2332  0.3891 -1.9423
 7762SOL    HW234749   4.028   1.736  14.919 -2.1711 -1.1662  0.2833
 7763SOL     OW34750   4.679   4.070   8.363 -0.4819 -0.1161  0.0716
 7763SOL    HW134751   4.600   4.120   8.380  0.8792  2.2988 -0.5978
 7763SOL    HW234752   4.696   4.075   8.269 -1.1148  1.0627  0.0199
 7764SOL     OW34753   4.603   2.492  13.097 -0.3250 -0.7259  0.3967
 7764SOL    HW134754   4.682   2.441  13.117  0.8108  1.2072  0.7944
 7764SOL    HW234755   4.581   2.517  13.187  1.8798  2.8035 -0.0990
 7765SOL     OW34756   4.666   2.663   6.935  0.4657  0.3196 -0.1191
 7765SOL    HW134757   4.655   2.588   6.876  0.4871  0.1091  0.1478
 7765SOL    HW234758   0.025   2.657   6.979  0.2648  0.7682  0.3308
 7766SOL     OW34759   0.799   2.736  13.138  0.7228  0.3486  0.0796
 7766SOL    HW134760   0.741   2.810  13.159  0.6860 -0.0196  1.2363
 7766SOL    HW234761   0.885   2.767  13.164  2.0825 -2.1323 -1.5741
 7767SOL     OW34762   3.145   3.403   7.865 -0.1441 -0.2439 -0.3802
 7767SOL    HW134763   3.235   3.425   7.890  0.1108 -0.9155 -0.6958
 7767SOL    HW234764   3.153   3.401   7.770 -4.0574 -2.0766 -0.6778
 7768SOL     OW34765   3.953   1.578   8.504  0.3214 -0.4682  0.0937
 7768SOL    HW134766   3.911   1.502   8.545 -0.2532  0.7854  1.8122
 7768SOL    HW234767   3.929   1.647   8.566 -3.9872 -1.3286 -0.6016
 7769SOL     OW34768   1.508   0.588   3.618  0.3514 -0.3212 -0.0128
 7769SOL    HW134769   1.464   0.595   3.702  0.0753  1.0571 -0.2776
 7769SOL    HW234770   1.543   0.499   3.620  0.3970 -0.2713  1.4567
 7770SOL     OW34771   0.597   2.884   6.713  0.2249  0.0990  0.2298
 7770SOL    HW134772   0.601   2.867   6.807  1.3438 -0.4384  0.0724
 7770SOL    HW234773   0.681   2.928   6.701 -0.5424  1.8522  1.1761
 7771SOL     OW34774   3.919   4.264  11.857  0.3814 -0.2522  0.9353
 7771SOL    HW134775   3.897   4.210  11.932 -0.6173 -1.4267 -0.1858
 7771SOL    HW234776   3.829   4.296  11.847  0.6969  0.7398  1.2801
 7772SOL     OW34777   0.741   2.007   9.658 -0.0799 -0.6416  0.2104
 7772SOL    HW134778   0.772   2.056   9.582  0.0060  0.5468  1.0122
 7772SOL    HW234779   0.792   1.929   9.637 -0.7306 -0.7194 -1.0505
 7773SOL     OW34780   0.718   4.246  15.242  0.3040 -0.6255 -0.0322
 7773SOL    HW134781   0.686   4.319  15.295  0.5567  0.1312 -0.9162
 7773SOL    HW234782   0.809   4.236  15.269  0.1483 -1.7392  0.0869
 7774SOL     OW34783   4.617   2.122  12.894 -0.2848  0.3012  0.8253
 7774SOL    HW134784   4.598   2.156  12.807 -1.3991 -1.0090  0.5483
 7774SOL    HW234785   4.597   2.028  12.886  1.2518 -0.2049  2.9377
 7775SOL     OW34786   3.249   2.834   8.069  0.4213  0.1940 -0.2653
 7775SOL    HW134787   3.310   2.762   8.086  2.2359  1.7644 -0.1816
 7775SOL    HW234788   3.257   2.862   7.978 -0.3526 -0.6383 -0.5877
 7776SOL     OW34789   4.350   2.189  17.497  0.1104  0.3585  0.9575
 7776SOL    HW134790   4.387   2.123  17.439  2.0547 -0.1004  2.7105
 7776SOL    HW234791   4.331   2.274  17.457  0.9939 -0.0426 -0.3240
 7777SOL     OW34792   2.721   0.305   5.974  0.1829  0.2797 -0.0817
 7777SOL    HW134793   2.799   0.272   5.929 -0.2503 -1.8803  0.7807
 7777SOL    HW234794   2.687   0.226   6.016  2.5966 -1.0554 -0.5781
 7778SOL     OW34795   1.251   0.938   3.893  0.2437 -0.1573  0.6023
 7778SOL    HW134796   1.337   0.930   3.850  0.3464  3.4994  0.0619
 7778SOL    HW234797   1.194   0.917   3.820  1.9691 -0.5734 -0.6288
 7779SOL     OW34798   0.632   0.809   5.459 -0.1503  0.0501  0.1890
 7779SOL    HW134799   0.718   0.851   5.460 -0.5537  0.8798  0.0089
 7779SOL    HW234800   0.654   0.720   5.430  1.0464 -0.0242  1.3683
 7780SOL     OW34801   4.328   1.798   1.998 -0.8007 -0.0055  0.3017
 7780SOL    HW134802   4.234   1.791   1.983 -0.5659  0.3818 -1.3006
 7780SOL    HW234803   4.354   1.708   2.019  0.8283  0.2211 -0.7580
 7781SOL     OW34804   0.193   3.340   1.190  0.0460 -0.5168  0.4257
 7781SOL    HW134805   0.147   3.274   1.137 -1.4654  1.8499 -1.2475
 7781SOL    HW234806   0.159   3.416   1.141 -0.1652 -1.4150 -0.8198
 7782SOL     OW34807   1.483   1.125   4.645  0.0986 -0.4695  0.0716
 7782SOL    HW134808   1.503   1.169   4.563 -0.5297 -0.1655  0.0851
 7782SOL    HW234809   1.557   1.151   4.699  0.5516 -1.1787 -0.2124
 7783SOL     OW34810   3.945   3.722   8.687  0.1118  0.7704  0.0274
 7783SOL    HW134811   4.037   3.742   8.705 -0.7270  4.1959  0.4016
 7783SOL    HW234812   3.933   3.668   8.765  0.2287  1.0119  0.2124
 7784SOL     OW34813   3.756   2.408   7.233 -0.2750  0.1879  0.1537
 7784SOL    HW134814   3.752   2.495   7.274 -1.0703 -0.2054  0.9241
 7784SOL    HW234815   3.700   2.422   7.156  1.2779 -1.0851 -1.2013
 7785SOL     OW34816   2.503   2.367   8.342 -0.8458  0.1581 -0.3525
 7785SOL    HW134817   2.452   2.292   8.374 -0.6532  0.0980 -0.1895
 7785SOL    HW234818   2.451   2.372   8.262  0.0185 -0.7242 -0.9707
 7786SOL     OW34819   4.142   2.157   1.889 -0.6961  0.3763  0.1732
 7786SOL    HW134820   4.073   2.093   1.868 -1.6199  1.5447 -0.3446
 7786SOL    HW234821   4.218   2.104   1.863 -2.0568 -0.6358 -1.7662
 7787SOL     OW34822   4.618   2.708   1.476 -0.0481  0.2853  0.1530
 7787SOL    HW134823   4.542   2.665   1.435 -1.0837  1.7532  0.5441
 7787SOL    HW234824   4.602   2.719   1.570 -0.7126  0.1898  0.0499
 7788SOL     OW34825   3.862   2.744  16.400 -0.3515 -0.2441  0.0953
 7788SOL    HW134826   3.904   2.719  16.482 -1.5997 -0.3041  0.7235
 7788SOL    HW234827   3.935   2.778  16.348  0.6783 -0.7667  1.2228
 7789SOL     OW34828   1.194   1.053  11.883  0.3480 -0.2321  0.0041
 7789SOL    HW134829   1.183   0.980  11.944  3.3801 -1.2654 -0.6482
 7789SOL    HW234830   1.272   1.026  11.833  0.4555 -2.0361  1.1291
 7790SOL     OW34831   2.816   0.907   0.783  0.0753 -0.2022  0.1272
 7790SOL    HW134832   2.791   0.997   0.762  0.2500 -0.3895 -0.8838
 7790SOL    HW234833   2.774   0.852   0.717  1.7537 -1.3775  0.0358
 7791SOL     OW34834   2.965   0.367  11.965 -0.3238  0.1965 -0.0437
 7791SOL    HW134835   2.885   0.338  12.009 -0.9162  1.6263 -0.1734
 7791SOL    HW234836   2.926   0.442  11.919  0.5424 -0.1717 -1.3746
 7792SOL     OW34837   3.140   1.571   3.068  0.0943 -0.2998 -0.2817
 7792SOL    HW134838   3.188   1.543   3.146 -1.3697  0.4241  0.8866
 7792SOL    HW234839   3.209   1.619   3.021  1.3720  0.0864  1.9838
 7793SOL     OW34840   4.632   2.261   5.684 -0.6081  0.7934  0.3513
 7793SOL    HW134841   4.605   2.169   5.693 -0.7453  0.6119 -1.8788
 7793SOL    HW234842   4.556   2.301   5.725 -1.3683 -1.3889  1.1081
 7794SOL     OW34843   4.196   2.627   1.035  0.4287  0.2448  0.4927
 7794SOL    HW134844   4.161   2.684   1.104  2.1884  0.1738  1.4389
 7794SOL    HW234845   4.234   2.551   1.080  0.0682 -0.9020 -1.1350
 7795SOL     OW34846   0.582   2.054   8.299 -0.4808 -0.5192  0.4167
 7795SOL    HW134847   0.654   2.113   8.319 -1.6566  1.1808 -0.3747
 7795SOL    HW234848   0.544   2.042   8.386 -1.6376 -0.1806 -0.0436
 7796SOL     OW34849   2.517   3.692   7.611  0.0886 -0.2598  1.0409
 7796SOL    HW134850   2.457   3.722   7.679  0.7163  0.5210  1.2495
 7796SOL    HW234851   2.584   3.760   7.617 -0.4938  0.4126 -0.0778
 7797SOL     OW34852   4.457   2.600  12.386 -0.0603  0.0891  0.1573
 7797SOL    HW134853   4.457   2.559  12.472 -1.8999 -0.1399  0.0521
 7797SOL    HW234854   4.459   2.522  12.331  0.2256 -0.8421  1.4900
 7798SOL     OW34855   0.833   0.356  17.232  0.3741 -0.2553  0.2361
 7798SOL    HW134856   0.744   0.391  17.226 -0.1498 -1.6839 -0.3251
 7798SOL    HW234857   0.848   0.346  17.326  1.5600  1.2938  0.2079
 7799SOL     OW34858   0.308   1.251  13.491  0.0123 -0.2940 -0.6571
 7799SOL    HW134859   0.302   1.332  13.441 -0.3861 -0.4864 -0.9167
 7799SOL    HW234860   0.230   1.241  13.546 -1.3259  1.3336 -2.2896
 7800SOL     OW34861   3.714   0.592   0.145  0.1986 -0.2628 -0.0996
 7800SOL    HW134862   3.785   0.651   0.170  0.9167 -2.5088  3.2146
 7800SOL    HW234863   3.635   0.629   0.184  0.1982 -0.8635  0.4735
 7801SOL     OW34864   3.493   0.769   4.792  0.2498  0.7329 -0.4230
 7801SOL    HW134865   3.547   0.737   4.719  3.4888  1.6699  1.5533
 7801SOL    HW234866   3.505   0.688   4.841 -0.7755  0.4332 -0.6703
 7802SOL     OW34867   2.329   2.933   2.705  0.4899 -0.1578 -0.2144
 7802SOL    HW134868   2.389   3.000   2.739  1.0642 -0.3536 -0.8374
 7802SOL    HW234869   2.379   2.891   2.635 -1.7449 -1.4335 -1.0186
 7803SOL     OW34870   0.453   1.969   9.425 -0.3064 -0.0647  0.3818
 7803SOL    HW134871   0.465   1.897   9.486  0.7298  0.8731  1.2893
 7803SOL    HW234872   0.452   1.940   9.334  0.0309 -0.3283  0.4621
 7804SOL     OW34873   3.957   2.137   7.913 -0.0812  0.1522  0.4718
 7804SOL    HW134874   3.908   2.200   7.861  0.8744 -0.9407 -1.7620
 7804SOL    HW234875   3.891   2.068   7.928 -0.8205  0.5946 -0.7880
 7805SOL     OW34876   2.405   3.949  12.410  0.3753 -0.0308 -0.2016
 7805SOL    HW134877   2.442   4.037  12.420 -0.1736  0.1723  0.0220
 7805SOL    HW234878   2.448   3.924  12.329  0.9467  0.2947  0.0022
 7806SOL     OW34879   4.038   2.300   4.560  0.2523 -0.3097 -0.3024
 7806SOL    HW134880   4.022   2.370   4.498 -1.2525 -0.8909 -0.5694
 7806SOL    HW234881   4.133   2.297   4.571  0.2884  0.3178 -0.4574
 7807SOL     OW34882   0.429   4.145   0.955  0.5505 -0.0085  0.6964
 7807SOL    HW134883   0.370   4.210   0.916  0.9780 -0.3896 -0.5894
 7807SOL    HW234884   0.413   4.071   0.897  0.2145  2.2185 -2.0691
 7808SOL     OW34885   0.557   0.950   8.923 -0.4762 -0.4874 -0.3324
 7808SOL    HW134886   0.564   1.003   9.003  0.9290 -2.0435  0.6090
 7808SOL    HW234887   0.583   1.018   8.861 -0.8709 -1.2044 -1.2732
 7809SOL     OW34888   3.157   2.614   3.103  0.5562 -0.1618  0.7009
 7809SOL    HW134889   3.246   2.624   3.137  0.2710  0.9668  1.1332
 7809SOL    HW234890   3.164   2.688   3.042  0.2039  0.1523  1.0409
 7810SOL     OW34891   0.475   0.408  17.423 -0.1378  0.5875 -0.4583
 7810SOL    HW134892   0.517   0.467  17.361 -1.0442  2.1040  0.3861
 7810SOL    HW234893   0.491   0.320  17.388  0.1962  0.3784  0.2174
 7811SOL     OW34894   3.102   4.002  12.161 -0.3210 -0.1374 -0.4718
 7811SOL    HW134895   3.177   3.996  12.101 -2.4746 -0.0640 -3.1504
 7811SOL    HW234896   3.099   4.097  12.150  4.5323  0.4400  3.0043
 7812SOL     OW34897   2.342   2.234   7.921  0.2797  0.6379  0.5075
 7812SOL    HW134898   2.385   2.312   7.956 -1.9020  1.7592  0.6966
 7812SOL    HW234899   2.418   2.199   7.874 -1.3701 -0.1551 -1.5669
 7813SOL     OW34900   3.101   4.011   5.066 -0.6063 -0.0264 -0.0482
 7813SOL    HW134901   3.072   3.958   5.140 -0.3583  1.2615  0.9499
 7813SOL    HW234902   3.026   4.070   5.060  0.1536  0.9734  0.3281
 7814SOL     OW34903   4.179   3.670   6.822  0.2655 -0.1060  0.3892
 7814SOL    HW134904   4.258   3.631   6.860  2.0953  3.0781 -0.1825
 7814SOL    HW234905   4.140   3.596   6.776 -0.6611  0.6883 -0.0831
 7815SOL     OW34906   0.847   1.961   5.835  0.7454 -0.4797 -0.1817
 7815SOL    HW134907   0.929   1.919   5.808  0.0760 -1.9477  0.0781
 7815SOL    HW234908   0.777   1.928   5.778 -0.0178 -0.6244  0.8443
 7816SOL     OW34909   3.342   4.147   3.878  0.6265 -0.8515 -0.2120
 7816SOL    HW134910   3.322   4.222   3.933  0.7422 -1.1003  0.1711
 7816SOL    HW234911   3.362   4.076   3.939 -1.2279 -0.2470  1.0689
 7817SOL     OW34912   2.656   0.624   1.530  0.1401 -0.0452  0.1622
 7817SOL    HW134913   2.692   0.667   1.608 -0.9810  0.3100  0.4784
 7817SOL    HW234914   2.738   0.582   1.502  0.7727 -0.4468  2.5557
 7818SOL     OW34915   1.237   3.498  10.923  0.1319  0.1298  0.2254
 7818SOL    HW134916   1.177   3.447  10.868 -0.8719  0.3372  1.1394
 7818SOL    HW234917   1.282   3.541  10.850 -3.3114  2.7363 -0.3852
 7819SOL     OW34918   4.229   2.426   9.432 -0.0266 -0.4475 -0.4097
 7819SOL    HW134919   4.143   2.386   9.436  0.3696 -1.3641 -0.9258
 7819SOL    HW234920   4.266   2.367   9.366  0.2429 -0.2264 -0.4588
 7820SOL     OW34921   2.295   1.288   5.618  0.1582  0.4700  0.3654
 7820SOL    HW134922   2.326   1.329   5.537  1.8486  0.0157  0.7881
 7820SOL    HW234923   2.209   1.331   5.617  0.7827  1.6524 -1.5834
 7821SOL     OW34924   0.877   3.467  16.799 -0.3970  0.6047 -0.3781
 7821SOL    HW134925   0.967   3.492  16.779 -0.7121 -0.4044 -3.0792
 7821SOL    HW234926   0.849   3.510  16.880 -0.2142  0.4384 -0.2259
 7822SOL     OW34927   1.679   2.639   4.165  0.0529  0.0984 -0.2473
 7822SOL    HW134928   1.751   2.575   4.160 -0.3075 -0.2193 -1.4092
 7822SOL    HW234929   1.727   2.708   4.211  0.3833 -0.7089  0.6230
 7823SOL     OW34930   4.452   1.527   5.640 -0.2541  0.3254  0.1743
 7823SOL    HW134931   4.485   1.500   5.726  0.9210  0.4038 -0.2636
 7823SOL    HW234932   4.365   1.563   5.660 -0.7939 -0.5643 -0.5654
 7824SOL     OW34933   2.432   3.686   8.341  0.1250  0.0189  0.0972
 7824SOL    HW134934   2.357   3.676   8.400  0.6259 -0.8077  0.6075
 7824SOL    HW234935   2.432   3.780   8.321  0.9322  0.4433  2.0946
 7825SOL     OW34936   0.500   0.143   5.832  0.4050 -0.3328 -0.3981
 7825SOL    HW134937   0.555   0.203   5.782 -1.5939 -0.6411 -2.9995
 7825SOL    HW234938   0.527   0.170   5.920  1.3291  0.7658 -1.0219
 7826SOL     OW34939   1.586   0.715  14.545 -0.0672  0.2823  0.4301
 7826SOL    HW134940   1.540   0.743  14.624 -2.8100 -0.4689 -0.8753
 7826SOL    HW234941   1.659   0.677  14.594  1.3182  0.7031 -1.3045
 7827SOL     OW34942   1.040   2.808   3.468 -0.4796 -0.7162  0.0132
 7827SOL    HW134943   1.074   2.856   3.543  0.3521 -0.7079 -0.3606
 7827SOL    HW234944   0.983   2.871   3.423 -0.0116 -0.8994 -0.8478
 7828SOL     OW34945   2.500   0.316   5.097 -0.2199  0.4544  0.2819
 7828SOL    HW134946   2.488   0.313   5.002 -0.2518  0.1027  0.2983
 7828SOL    HW234947   2.579   0.264   5.105 -1.2375 -0.8910  1.5130
 7829SOL     OW34948   0.311   1.964  13.976  0.6289  0.1845 -0.0703
 7829SOL    HW134949   0.338   2.037  14.031  1.4981  0.2579 -0.5806
 7829SOL    HW234950   0.300   1.894  14.040  1.0780 -1.1135 -1.3889
 7830SOL     OW34951   4.550   3.919   5.174  0.2504  0.1773  0.6635
 7830SOL    HW134952   4.640   3.952   5.171  0.4129 -0.1856  1.5900
 7830SOL    HW234953   4.554   3.871   5.257  0.1482 -0.4647  0.2996
 7831SOL     OW34954   3.113   2.846   0.536  0.1915 -0.0144  0.2927
 7831SOL    HW134955   3.160   2.875   0.458  0.0204 -1.3094 -0.2994
 7831SOL    HW234956   3.031   2.838   0.488  0.0734 -1.7703  0.7579
 7832SOL     OW34957   3.963   0.646   5.770  0.2080  0.6473  0.6926
 7832SOL    HW134958   4.043   0.606   5.804  0.2087  0.9713  1.0668
 7832SOL    HW234959   3.933   0.593   5.696 -0.3290  2.1599 -0.1865
 7833SOL     OW34960   1.858   2.397  14.573  0.1211 -0.6883  0.5451
 7833SOL    HW134961   1.770   2.433  14.564 -0.1424 -1.6017 -0.4907
 7833SOL    HW234962   1.898   2.435  14.651  2.2942 -0.9611 -0.4368
 7834SOL     OW34963   1.456   2.607  11.284 -0.5983  0.7987 -0.0584
 7834SOL    HW134964   1.415   2.689  11.312 -0.4611  1.2891 -1.2952
 7834SOL    HW234965   1.393   2.541  11.314  1.1292 -1.2074 -0.8824
 7835SOL     OW34966   0.067   3.459   3.405  0.3144 -0.4484 -0.3912
 7835SOL    HW134967   0.057   3.400   3.330 -2.3259 -0.7658  0.2424
 7835SOL    HW234968   0.129   3.522   3.368 -0.6309  1.4522  1.2573
 7836SOL     OW34969   0.281   4.720  17.240 -0.2245 -0.5183  0.0691
 7836SOL    HW134970   0.297   4.639  17.288 -0.2045 -0.4629  0.1551
 7836SOL    HW234971   0.367   0.017  17.204 -0.4824  0.7652  0.2488
 7837SOL     OW34972   3.091   3.502   5.912  0.2277 -0.2219 -0.4771
 7837SOL    HW134973   3.058   3.422   5.952 -0.4806 -0.1052 -0.8155
 7837SOL    HW234974   3.185   3.496   5.928  0.3090  3.1074  0.3008
 7838SOL     OW34975   0.230   4.296   6.987  0.2720  0.0406  0.9953
 7838SOL    HW134976   0.158   4.238   7.013  0.8769 -2.6805 -3.5408
 7838SOL    HW234977   0.180   4.376   6.971 -1.2776 -1.3141 -0.9379
 7839SOL     OW34978   0.440   1.601   1.312  0.6899  0.4109  0.4794
 7839SOL    HW134979   0.473   1.521   1.353  1.4901 -0.2379 -1.4733
 7839SOL    HW234980   0.350   1.576   1.288  0.0051  3.5156 -0.1549
 7840SOL     OW34981   1.718   2.833  15.557  0.3478 -0.7087  0.3892
 7840SOL    HW134982   1.786   2.875  15.610 -1.1801  0.0854  1.6972
 7840SOL    HW234983   1.747   2.861  15.470 -1.7633  0.6561  0.1285
 7841SOL     OW34984   4.300   1.952   7.903 -0.2274 -0.0680 -0.1350
 7841SOL    HW134985   4.238   1.997   7.961 -0.8024  0.3590 -1.0730
 7841SOL    HW234986   4.378   2.002   7.925 -0.4622  1.0263 -1.8067
 7842SOL     OW34987   4.683   3.001  14.367  0.0105  0.3428  0.0669
 7842SOL    HW134988   4.722   3.018  14.282 -0.1974  0.8835  0.0811
 7842SOL    HW234989   4.593   3.017  14.339  0.1474 -0.6350 -0.9245
 7843SOL     OW34990   1.236   3.754   5.897 -0.2088  0.3831 -0.3766
 7843SOL    HW134991   1.279   3.674   5.926 -1.4843 -0.5171 -0.9994
 7843SOL    HW234992   1.160   3.757   5.956  0.6663 -1.5198  0.8287
 7844SOL     OW34993   3.523   0.602   8.699  0.0100  0.2668  0.2238
 7844SOL    HW134994   3.502   0.664   8.769  0.3639 -0.2358  0.7676
 7844SOL    HW234995   3.576   0.654   8.638  0.1364 -0.5067 -0.3230
 7845SOL     OW34996   1.180   0.152   9.302  0.2147  0.2504 -0.2127
 7845SOL    HW134997   1.090   0.127   9.322  0.7580  0.4015  2.4965
 7845SOL    HW234998   1.174   0.179   9.210 -1.4937 -1.8685 -0.7055
 7846SOL     OW34999   1.472   2.394   3.440  0.4883 -0.2556 -0.0155
 7846SOL    HW135000   1.556   2.428   3.410  0.4520  0.6335  0.8702
 7846SOL    HW235001   1.503   2.304   3.451 -1.2352 -0.5659  2.4021
 7847SOL     OW35002   1.279   0.462   1.629 -0.3769  0.3015  0.2086
 7847SOL    HW135003   1.362   0.478   1.674 -0.3773  0.0716  0.2919
 7847SOL    HW235004   1.296   0.376   1.590  1.0746  1.1475 -1.0519
 7848SOL     OW35005   0.846   2.385   9.241  0.0917  0.3123 -0.3737
 7848SOL    HW135006   0.860   2.451   9.309  0.0670 -1.1584  1.0529
 7848SOL    HW235007   0.929   2.373   9.196  1.1098  4.1956  0.4367
 7849SOL     OW35008   3.394   2.882  13.178  0.2958 -0.5943  0.4874
 7849SOL    HW135009   3.400   2.787  13.165 -2.5289 -0.5626 -0.8871
 7849SOL    HW235010   3.327   2.915  13.119  0.3474  0.7554  1.1742
 7850SOL     OW35011   0.133   3.094   6.548  0.2106 -0.3163 -0.1834
 7850SOL    HW135012   0.162   3.010   6.514  0.2074 -0.2135 -0.4425
 7850SOL    HW235013   0.039   3.079   6.544  0.0141  0.1528  2.9868
 7851SOL     OW35014   0.367   0.011   4.538 -0.0345  0.2999  0.3121
 7851SOL    HW135015   0.459   4.710   4.540 -0.5388 -1.2985  1.9874
 7851SOL    HW235016   0.366   0.058   4.455  2.0198 -3.2354 -1.7141
 7852SOL     OW35017   4.218   0.885  14.241 -0.4432  0.5343  0.6558
 7852SOL    HW135018   4.274   0.867  14.165 -1.4067  0.1986  0.0208
 7852SOL    HW235019   4.216   0.979  14.261 -1.5147  0.2992  1.6528
 7853SOL     OW35020   0.411   3.547  15.386 -0.2964  0.0984 -0.6771
 7853SOL    HW135021   0.360   3.542  15.305 -0.9888 -0.8656 -0.1893
 7853SOL    HW235022   0.432   3.455  15.402 -2.2161 -0.5020 -1.5446
 7854SOL     OW35023   3.304   3.626   3.438 -0.0480 -0.7551  0.5748
 7854SOL    HW135024   3.242   3.699   3.441 -3.0388 -3.2851  0.2529
 7854SOL    HW235025   3.267   3.588   3.518  0.1848 -0.8888  0.6160
 7855SOL     OW35026   3.811   3.459  12.236  0.0973  0.2083  0.2758
 7855SOL    HW135027   3.783   3.376  12.199  1.9116 -0.4218  0.3403
 7855SOL    HW235028   3.754   3.514  12.181  0.9421  0.1876 -0.6119
 7856SOL     OW35029   1.264   3.004  10.116 -0.2690 -0.5283  0.0518
 7856SOL    HW135030   1.329   3.066  10.149  0.7356 -0.8884 -1.2502
 7856SOL    HW235031   1.318   2.925  10.113  0.0572 -0.3102  0.1330
 7857SOL     OW35032   0.562   2.370   8.643  0.7047 -0.2222 -0.5681
 7857SOL    HW135033   0.498   2.416   8.697  0.0867 -1.9793  0.2116
 7857SOL    HW235034   0.646   2.408   8.666  0.0602  1.2065 -0.5788
 7858SOL     OW35035   0.783   1.314   7.733  0.5986 -0.6449  0.2616
 7858SOL    HW135036   0.832   1.392   7.705 -0.2689 -0.5110 -0.8642
 7858SOL    HW235037   0.776   1.273   7.646 -2.4269 -1.6598  0.9970
 7859SOL     OW35038   1.052   3.821   9.262 -0.6456 -0.3501  0.3870
 7859SOL    HW135039   1.030   3.913   9.245 -0.5258 -0.5091 -0.6705
 7859SOL    HW235040   1.147   3.827   9.266 -0.5677 -0.3655 -1.2645
 7860SOL     OW35041   0.855   3.240   8.702 -0.2333  0.2229  0.0346
 7860SOL    HW135042   0.880   3.268   8.789  0.2531 -1.1464  0.3379
 7860SOL    HW235043   0.826   3.149   8.709 -0.1879  0.2465  0.5086
 7861SOL     OW35044   2.810   2.048   4.713 -0.4216 -0.2653 -0.0516
 7861SOL    HW135045   2.750   1.982   4.678 -2.1845  0.7654  1.1050
 7861SOL    HW235046   2.753   2.121   4.733 -0.9996 -1.3005  2.0932
 7862SOL     OW35047   0.947   1.266   5.747 -0.0815 -0.1628  0.3493
 7862SOL    HW135048   0.856   1.268   5.777  0.2515 -0.0224  1.3734
 7862SOL    HW235049   0.932   1.299   5.659 -0.5541  0.5392  0.6943
 7863SOL     OW35050   2.705   4.469   1.251 -0.1696 -0.1054 -0.0781
 7863SOL    HW135051   2.731   4.499   1.164  0.0089 -0.8920 -0.2997
 7863SOL    HW235052   2.615   4.501   1.253 -1.0149 -2.5091  0.8266
 7864SOL     OW35053   3.392   3.140   5.518 -0.3632  0.7833  0.3120
 7864SOL    HW135054   3.465   3.078   5.518 -0.4978  0.6479 -2.7499
 7864SOL    HW235055   3.440   3.224   5.519 -0.1445  0.6553  0.8161
 7865SOL     OW35056   1.633   1.705   8.435 -0.2783  0.7963  0.0919
 7865SOL    HW135057   1.725   1.708   8.409  0.5957  0.8714  3.2193
 7865SOL    HW235058   1.623   1.783   8.489  0.5923  1.1561 -0.2687
 7866SOL     OW35059   2.915   3.307   6.822 -0.6845  0.0105  0.1910
 7866SOL    HW135060   2.846   3.249   6.791  0.9154 -1.9463  0.2421
 7866SOL    HW235061   2.982   3.305   6.753 -1.8862  0.3034 -0.9820
 7867SOL     OW35062   4.477   2.800   8.022 -0.0268  0.2280  0.3102
 7867SOL    HW135063   4.506   2.749   7.946 -0.2410 -2.0738  1.7570
 7867SOL    HW235064   4.538   2.873   8.025 -0.7331  0.8559 -0.7418
 7868SOL     OW35065   4.236   0.239   2.563  0.4108  0.0219  0.4533
 7868SOL    HW135066   4.233   0.334   2.574 -0.8658  0.1891 -1.4769
 7868SOL    HW235067   4.285   0.214   2.642 -2.2408  2.1990  2.7830
 7869SOL     OW35068   2.184   3.685   1.841 -0.5670 -0.3917 -0.6298
 7869SOL    HW135069   2.177   3.765   1.788  1.4281 -0.5453 -1.1415
 7869SOL    HW235070   2.175   3.725   1.927  0.1577 -2.2160  0.2823
 7870SOL     OW35071   1.711   4.398   2.612 -0.4030 -0.3272 -0.0230
 7870SOL    HW135072   1.659   4.472   2.642 -2.2882 -1.8695  0.5587
 7870SOL    HW235073   1.801   4.429   2.607 -0.5565 -0.0233 -0.8508
 7871SOL     OW35074   4.309   1.340   1.658  0.2598 -0.1420  0.3564
 7871SOL    HW135075   4.370   1.401   1.700  2.1500  0.2739 -2.9307
 7871SOL    HW235076   4.229   1.383   1.688  0.7914  1.1460 -0.0417
 7872SOL     OW35077   2.729   3.866   4.038  0.2980 -0.3301 -0.9034
 7872SOL    HW135078   2.738   3.928   3.966  2.1495  0.9167  0.4063
 7872SOL    HW235079   2.710   3.790   3.983  2.1820 -0.0055 -1.9825
 7873SOL     OW35080   2.940   3.388   3.594  0.1817 -0.0273  0.6413
 7873SOL    HW135081   2.969   3.311   3.545 -0.8523  0.3265 -0.5564
 7873SOL    HW235082   3.021   3.423   3.630  1.6413 -1.3812 -1.3300
 7874SOL     OW35083   1.127   4.374   2.985 -0.6731  0.6588 -0.0128
 7874SOL    HW135084   1.064   4.328   2.930  0.4542  0.5691 -1.2157
 7874SOL    HW235085   1.173   4.296   3.015  0.1583  1.0261 -0.3366
 7875SOL     OW35086   2.638   0.070   6.115  0.4818 -0.3817  0.1102
 7875SOL    HW135087   2.640   4.708   6.153 -1.4739 -0.1855  0.6648
 7875SOL    HW235088   2.722   0.107   6.145  0.2166  1.1602 -1.0484
 7876SOL     OW35089   4.186   2.410   8.105 -0.3200 -0.0114  0.1202
 7876SOL    HW135090   4.192   2.416   8.010 -1.9579  1.0909  0.0963
 7876SOL    HW235091   4.113   2.468   8.129  0.8187  1.7869 -0.7885
 7877SOL     OW35092   2.937   0.219   2.563 -0.4329 -0.1270 -0.8088
 7877SOL    HW135093   3.030   0.205   2.579 -0.1456 -0.1195 -2.4861
 7877SOL    HW235094   2.935   0.223   2.467  0.5236  0.1218 -0.8234
 7878SOL     OW35095   1.683   2.726  13.076  0.3011  0.4954 -0.5815
 7878SOL    HW135096   1.675   2.638  13.039  0.8289  0.1753  0.0854
 7878SOL    HW235097   1.593   2.758  13.061  0.1182  0.5409  0.6411
 7879SOL     OW35098   0.540   1.832  11.476  0.2005  0.0645  0.3271
 7879SOL    HW135099   0.587   1.853  11.395  1.6119  0.6855  1.2995
 7879SOL    HW235100   0.618   1.809  11.527 -0.4643  1.8678  2.1371
 7880SOL     OW35101   1.706   3.736  10.556 -0.2774  0.0458 -0.1116
 7880SOL    HW135102   1.760   3.657  10.556  0.5239  0.6161  2.4910
 7880SOL    HW235103   1.672   3.718  10.643  0.3052 -1.0085 -0.0879
 7881SOL     OW35104   4.045   2.733   3.010 -0.0992 -0.4440 -0.2541
 7881SOL    HW135105   4.016   2.668   2.946 -1.3927 -1.2172  1.1139
 7881SOL    HW235106   4.100   2.783   2.950 -0.4310  0.5998  0.2992
 7882SOL     OW35107   1.583   3.248   2.801  0.5952 -0.1707  0.1288
 7882SOL    HW135108   1.654   3.306   2.772 -0.2437  0.9044  0.2121
 7882SOL    HW235109   1.508   3.273   2.747  0.8984  1.9382  0.6805
 7883SOL     OW35110   1.904   3.409   0.165 -0.6199 -0.5554 -0.1528
 7883SOL    HW135111   1.909   3.424   0.259  1.3346  0.2818 -0.3944
 7883SOL    HW235112   1.811   3.391   0.150 -0.8453 -0.0446  0.6073
 7884SOL     OW35113   2.670   2.017   9.484  0.7277  0.1351  0.1800
 7884SOL    HW135114   2.620   2.001   9.404  0.1575 -3.8508  1.3278
 7884SOL    HW235115   2.680   1.928   9.519  1.0648  1.5422  3.6567
 7885SOL     OW35116   1.587   2.901   2.394 -0.0029  0.2396 -0.1938
 7885SOL    HW135117   1.642   2.928   2.467 -3.0388  2.7303  1.1732
 7885SOL    HW235118   1.603   2.966   2.325  0.0656  1.7491  1.2431
 7886SOL     OW35119   3.656   2.199   8.134 -0.1976 -0.1012 -0.3776
 7886SOL    HW135120   3.689   2.136   8.070 -2.2769 -0.9775 -0.6086
 7886SOL    HW235121   3.730   2.207   8.194 -0.5686  0.8460 -0.0465
 7887SOL     OW35122   3.404   0.967   8.522 -0.3531 -0.3183  0.1979
 7887SOL    HW135123   3.471   0.907   8.555  0.4625  0.7137  0.4161
 7887SOL    HW235124   3.323   0.915   8.522 -0.4843 -0.1103  0.7777
 7888SOL     OW35125   3.590   1.988   5.170 -0.3217  0.0241 -0.3674
 7888SOL    HW135126   3.496   1.980   5.155 -0.5439  2.4015 -0.3315
 7888SOL    HW235127   3.598   1.907   5.220  1.4357  0.9082  0.8050
 7889SOL     OW35128   4.145   4.228  15.508 -0.3487  0.2162 -0.1863
 7889SOL    HW135129   4.067   4.239  15.562 -0.3528 -0.7219 -0.0044
 7889SOL    HW235130   4.216   4.234  15.572 -1.4564 -1.3940  1.1841
 7890SOL     OW35131   3.530   2.163  13.496 -1.1096  0.0626 -0.2275
 7890SOL    HW135132   3.519   2.256  13.516 -0.3489 -0.0949  0.9793
 7890SOL    HW235133   3.619   2.153  13.462  0.1065  1.1104  2.6297
 7891SOL     OW35134   1.283   2.445   3.614 -0.3519 -0.1024  0.4871
 7891SOL    HW135135   1.330   2.431   3.532  0.4670  0.8331  0.7986
 7891SOL    HW235136   1.344   2.503   3.660 -0.7369 -0.2389  1.1642
 7892SOL     OW35137   3.319   4.570   6.756  0.3737 -0.3027 -0.2489
 7892SOL    HW135138   3.328   4.566   6.851 -2.6047  2.8250  0.1670
 7892SOL    HW235139   3.362   4.655   6.746  0.3342 -0.0985  1.3657
 7893SOL     OW35140   4.552   1.093   0.299  0.1528  0.2679 -0.1781
 7893SOL    HW135141   4.620   1.157   0.277  2.4016 -2.2061 -0.3893
 7893SOL    HW235142   4.511   1.137   0.373  2.0028  1.6969  0.0061
 7894SOL     OW35143   0.923   1.609  15.738 -0.4679  0.1274  0.5786
 7894SOL    HW135144   0.845   1.654  15.769 -1.5514 -1.2227 -0.1550
 7894SOL    HW235145   0.996   1.665  15.767 -0.7765  0.0778  1.4502
 7895SOL     OW35146   3.802   0.950   5.470 -0.0175 -0.1166 -0.1621
 7895SOL    HW135147   3.775   0.923   5.382  0.6052 -2.3581  0.3189
 7895SOL    HW235148   3.716   0.974   5.504  0.0036  2.0061 -1.6252
 7896SOL     OW35149   1.399   0.194   6.947 -0.1161 -0.4895 -0.3303
 7896SOL    HW135150   1.488   0.202   6.982 -0.2434  1.3293 -0.4378
 7896SOL    HW235151   1.370   0.126   7.008 -1.3728 -2.3296 -2.9786
 7897SOL     OW35152   2.562   3.180   7.500  0.0861  0.1972  0.5554
 7897SOL    HW135153   2.646   3.220   7.523  0.1426  1.0982 -1.2450
 7897SOL    HW235154   2.512   3.259   7.480  0.5284 -0.3739 -2.7220
 7898SOL     OW35155   4.243   0.354   8.039  0.4404  0.6830  0.6016
 7898SOL    HW135156   4.198   0.423   8.089 -2.3214 -1.1753  0.6713
 7898SOL    HW235157   4.288   0.296   8.100  3.0399  0.6517 -1.3529
 7899SOL     OW35158   3.680   2.183   7.464 -0.6711 -0.4822 -0.2260
 7899SOL    HW135159   3.639   2.255   7.510  0.4565  1.2376 -1.9133
 7899SOL    HW235160   3.716   2.230   7.388  0.8130 -2.1740 -0.6009
 7900SOL     OW35161   4.243   0.479   0.894  0.1531  0.3063 -0.2209
 7900SOL    HW135162   4.247   0.390   0.929 -2.5746  0.3340  0.1891
 7900SOL    HW235163   4.300   0.523   0.957 -0.4364  0.9659 -0.1440
 7901SOL     OW35164   3.395   1.221   4.786  0.4314 -0.3985 -0.2499
 7901SOL    HW135165   3.440   1.219   4.701  1.5939  0.1277  0.3415
 7901SOL    HW235166   3.417   1.304   4.829 -3.2817  1.4831 -1.9867
 7902SOL     OW35167   2.948   0.237   5.848  0.6390 -0.5448  0.2786
 7902SOL    HW135168   3.019   0.195   5.897 -2.8889 -4.6276  1.9318
 7902SOL    HW235169   3.007   0.293   5.799  0.0613 -0.8277 -0.7358
 7903SOL     OW35170   4.270   1.600   2.826 -0.2619  0.4787  0.1458
 7903SOL    HW135171   4.351   1.644   2.802  0.7578  0.5324  3.7404
 7903SOL    HW235172   4.309   1.516   2.852 -1.1091 -0.6073 -2.0051
 7904SOL     OW35173   2.117   3.614   7.850  0.2717 -0.7176 -0.3297
 7904SOL    HW135174   2.102   3.529   7.806  0.8965 -1.1905  0.3731
 7904SOL    HW235175   2.157   3.664   7.779  0.7932 -2.1706 -1.0591
 7905SOL     OW35176   1.089   0.360  17.263 -0.3130  1.0107 -0.0189
 7905SOL    HW135177   0.994   0.367  17.263 -0.3142  0.9892 -0.8275
 7905SOL    HW235178   1.115   0.448  17.237  3.0175  0.1554  0.4352
 7906SOL     OW35179   4.087   4.315  14.704  0.5345  0.3579  0.2865
 7906SOL    HW135180   4.000   4.348  14.727  1.0321  1.2454  0.9023
 7906SOL    HW235181   4.138   4.331  14.783 -1.4309  0.1634  1.5835
 7907SOL     OW35182   0.203   0.528   3.403  0.1776 -0.4475  0.0967
 7907SOL    HW135183   0.128   0.505   3.348  1.3071 -1.4588 -1.0321
 7907SOL    HW235184   0.270   0.468   3.371  1.6948  1.9909 -1.3017
 7908SOL     OW35185   1.320   0.279  11.625 -1.0672  0.7668  0.3043
 7908SOL    HW135186   1.384   0.238  11.683 -2.0467 -1.0732  0.0906
 7908SOL    HW235187   1.271   0.203  11.593  1.8174 -0.5236 -1.0851
 7909SOL     OW35188   0.676   4.184   5.158  0.5612  0.6773 -0.4723
 7909SOL    HW135189   0.626   4.207   5.236  0.1362 -0.2025 -0.4747
 7909SOL    HW235190   0.659   4.090   5.164 -1.2841  1.1636  2.0475
 7910SOL     OW35191   0.498   1.865   1.628 -0.0058 -0.1285 -0.2401
 7910SOL    HW135192   0.590   1.889   1.630 -1.0071  3.6802 -1.2506
 7910SOL    HW235193   0.496   1.827   1.540 -0.9720 -2.6663  0.8595
 7911SOL     OW35194   2.211   2.482   9.275  0.3277 -0.4269  0.4274
 7911SOL    HW135195   2.262   2.408   9.241 -0.6499 -0.5650 -0.7522
 7911SOL    HW235196   2.218   2.465   9.369 -0.5557  1.0329  0.7746
 7912SOL     OW35197   2.549   1.466  16.291 -0.3043 -0.2762 -0.4556
 7912SOL    HW135198   2.512   1.423  16.213  1.5392  1.6871 -2.4299
 7912SOL    HW235199   2.640   1.462  16.261 -0.1386 -0.8971  0.1139
 7913SOL     OW35200   1.453   2.484  12.436  0.1058 -0.0179  0.1922
 7913SOL    HW135201   1.517   2.413  12.448 -1.5808 -1.5739 -0.0925
 7913SOL    HW235202   1.519   2.552  12.420 -0.4090  0.1137 -1.3653
 7914SOL     OW35203   2.847   0.678   7.884 -0.1026 -0.2754  0.2480
 7914SOL    HW135204   2.869   0.648   7.796  1.7549  2.6433 -0.2760
 7914SOL    HW235205   2.751   0.677   7.886 -0.1084 -3.3979 -1.8239
 7915SOL     OW35206   0.386   3.353   8.531 -0.0380  0.1854  0.0165
 7915SOL    HW135207   0.308   3.375   8.480 -1.2329 -0.5244  1.5310
 7915SOL    HW235208   0.446   3.390   8.467  0.8139 -0.7028  0.2956
 7916SOL     OW35209   2.748   0.825  17.516  0.2008  0.0604 -0.3300
 7916SOL    HW135210   2.840   0.842  17.498  0.0539 -0.7376 -1.8180
 7916SOL    HW235211   2.723   0.897  17.574 -0.0831  0.4634 -0.9516
 7917SOL     OW35212   3.957   3.441  14.603 -0.2448  0.4618  0.4287
 7917SOL    HW135213   4.036   3.447  14.550 -0.6941  0.5880 -0.2263
 7917SOL    HW235214   3.886   3.432  14.539  1.8096  1.9221 -2.0292
 7918SOL     OW35215   1.056   0.231   0.844 -0.1388  0.4013  0.8540
 7918SOL    HW135216   1.131   0.247   0.900  1.0958 -0.3830 -0.5718
 7918SOL    HW235217   1.070   0.298   0.777 -3.1609 -0.8390 -1.0376
 7919SOL     OW35218   4.068   0.042   9.628 -0.1798 -0.0678 -0.0773
 7919SOL    HW135219   4.155   0.003   9.617 -0.4598 -0.6365 -0.2990
 7919SOL    HW235220   4.018   4.690   9.603 -0.3863 -0.0292  0.2093
 7920SOL     OW35221   4.126   1.012   2.438 -0.4306 -0.3213 -0.1951
 7920SOL    HW135222   4.174   1.093   2.455  1.0407 -0.9761 -1.2671
 7920SOL    HW235223   4.194   0.961   2.394  0.2902 -1.7246  2.5256
 7921SOL     OW35224   0.477   3.110  14.869 -0.7098  0.7150  0.3113
 7921SOL    HW135225   0.421   3.079  14.798  0.0187  0.8724 -0.3355
 7921SOL    HW235226   0.539   3.157  14.813  0.5420 -2.0794 -0.6085
 7922SOL     OW35227   2.611   4.236   0.844 -0.2430  0.3867  0.8155
 7922SOL    HW135228   2.585   4.218   0.753 -0.4092  1.4680  0.6456
 7922SOL    HW235229   2.698   4.197   0.852 -1.4545 -2.3298  0.8009
 7923SOL     OW35230   3.271   0.275  15.644  0.3962  0.0465  0.1129
 7923SOL    HW135231   3.201   0.315  15.592 -0.0012 -0.4645  0.2524
 7923SOL    HW235232   3.305   0.203  15.591  2.8200  0.7508  0.7079
 7924SOL     OW35233   2.004   0.501   8.647 -0.5368  0.3136 -0.4687
 7924SOL    HW135234   2.055   0.442   8.703  1.1390  2.6612  0.5313
 7924SOL    HW235235   1.934   0.444   8.617 -0.2448 -0.5966  0.5613
 7925SOL     OW35236   0.411   0.666  10.555  0.1586  0.1069 -0.3381
 7925SOL    HW135237   0.420   0.755  10.590 -0.0544  0.2117 -0.5482
 7925SOL    HW235238   0.500   0.631  10.549 -0.5442 -1.8476  0.9053
 7926SOL     OW35239   3.457   4.289   6.092  0.1779 -0.1582 -0.0538
 7926SOL    HW135240   3.469   4.222   6.159  0.9821  0.6368  0.5945
 7926SOL    HW235241   3.515   4.259   6.023  2.2063  0.6038  1.3396
 7927SOL     OW35242   2.598   0.516   4.595  0.5661  0.1283 -0.3190
 7927SOL    HW135243   2.582   0.577   4.522 -0.5174  0.7468  0.4439
 7927SOL    HW235244   2.558   0.560   4.669  1.1959 -1.1866  0.8042
 7928SOL     OW35245   2.756   4.548  15.146  0.1351 -0.0094  0.6357
 7928SOL    HW135246   2.841   4.533  15.103 -0.2013 -4.0042  1.3904
 7928SOL    HW235247   2.752   4.637  15.113 -0.2522  0.3283  1.6068
 7929SOL     OW35248   1.078   0.375  11.085  0.0222  0.3717  0.5717
 7929SOL    HW135249   1.166   0.403  11.110 -1.3294  3.3617  1.9484
 7929SOL    HW235250   1.032   0.459  11.083 -1.3457 -0.4286 -2.0398
 7930SOL     OW35251   2.618   3.984   7.932  0.1301 -0.5540  0.0171
 7930SOL    HW135252   2.617   3.978   8.027  1.0043  2.2985  0.2015
 7930SOL    HW235253   2.583   4.070   7.910 -1.0893 -1.0128  0.1981
 7931SOL     OW35254   3.905   0.215   0.381  0.2213 -0.3931 -0.3580
 7931SOL    HW135255   3.879   0.197   0.472 -0.9320 -1.2376 -0.8479
 7931SOL    HW235256   3.997   0.189   0.379  0.6309  1.0114  0.1659
 7932SOL     OW35257   3.929   2.732   5.087 -0.2700  0.2381 -0.0363
 7932SOL    HW135258   3.969   2.808   5.045 -0.1538  0.5039  0.5577
 7932SOL    HW235259   3.946   2.668   5.018 -1.1687  2.4773 -2.3596
 7933SOL     OW35260   4.197   1.112   6.648 -0.2286  0.0919  0.7883
 7933SOL    HW135261   4.212   1.041   6.711 -1.1220  0.2701  1.2011
 7933SOL    HW235262   4.130   1.074   6.591  0.1847  1.4746 -0.5854
 7934SOL     OW35263   1.060   3.964  17.670 -0.5249  1.2962  0.1467
 7934SOL    HW135264   1.105   4.030   0.018  1.1991  0.9930 -0.9668
 7934SOL    HW235265   0.970   3.986  17.694 -0.2853 -0.4381  2.7364
 7935SOL     OW35266   2.111   0.454   6.062 -0.0369  0.0055 -0.0974
 7935SOL    HW135267   2.097   0.411   6.146  2.7809 -1.3623 -0.3335
 7935SOL    HW235268   2.110   0.379   6.002 -1.4882 -2.0203  2.4769
 7936SOL     OW35269   4.283   0.713  10.274  0.6898 -0.4568 -0.3880
 7936SOL    HW135270   4.354   0.775  10.289  0.4314 -0.1798 -0.3079
 7936SOL    HW235271   4.310   0.680  10.188 -2.3684 -1.0852 -1.1037
 7937SOL     OW35272   1.006   3.361   5.152  0.9982  0.4401  0.7792
 7937SOL    HW135273   1.008   3.332   5.243  1.7379  2.5161  1.4252
 7937SOL    HW235274   0.976   3.450   5.171 -0.8089 -0.1563  0.7204
 7938SOL     OW35275   2.774   1.946   4.165  0.1474 -1.1581 -0.4424
 7938SOL    HW135276   2.823   2.023   4.137 -0.8120 -0.3166  0.1829
 7938SOL    HW235277   2.717   1.937   4.089  1.4424  2.4242 -1.8342
 7939SOL     OW35278   4.419   0.529  15.617 -0.2685  0.6063 -0.1403
 7939SOL    HW135279   4.392   0.454  15.670 -0.2603 -1.4640 -3.0969
 7939SOL    HW235280   4.446   0.476  15.542 -0.4144 -1.2205  1.1063
 7940SOL     OW35281   3.228   3.301   4.929 -0.6442  0.1615  0.9301
 7940SOL    HW135282   3.226   3.393   4.901 -1.6073 -0.8053 -2.1989
 7940SOL    HW235283   3.251   3.258   4.846  1.0629 -0.0346  1.4958
 7941SOL     OW35284   4.208   2.644   8.417 -0.1704  0.2664  0.3614
 7941SOL    HW135285   4.179   2.554   8.435 -1.3398  0.3608 -1.0248
 7941SOL    HW235286   4.299   2.643   8.447  0.3946  2.7051 -1.3056
 7942SOL     OW35287   2.439   4.671   6.499 -0.2161  0.0957 -0.1532
 7942SOL    HW135288   2.457   4.651   6.591 -0.0022 -0.6048 -0.3471
 7942SOL    HW235289   2.448   0.041   6.501  0.9361 -0.0038 -0.7010
 7943SOL     OW35290   1.499   1.169   2.503  0.3219  0.3245  0.5292
 7943SOL    HW135291   1.479   1.139   2.414  1.8403 -1.3351  0.7434
 7943SOL    HW235292   1.551   1.249   2.487  2.8450 -1.6352 -1.0968
 7944SOL     OW35293   1.517   4.005  11.692  0.1777  0.3608  0.1673
 7944SOL    HW135294   1.526   4.064  11.617  1.4712  3.4977  2.7781
 7944SOL    HW235295   1.440   4.042  11.734 -0.2970  0.8499 -1.1152
 7945SOL     OW35296   2.993   1.688   9.619  0.0215  0.3068  0.8078
 7945SOL    HW135297   3.052   1.752   9.658 -1.3578  0.6239  2.3709
 7945SOL    HW235298   3.012   1.611   9.672  0.4025  0.2411  0.5792
 7946SOL     OW35299   3.884   4.171   3.766  0.0742  0.2809  0.0846
 7946SOL    HW135300   3.926   4.251   3.734 -0.6181  1.3949  1.9758
 7946SOL    HW235301   3.955   4.121   3.808  0.4207  1.5868  1.0539
 7947SOL     OW35302   4.349   2.390   8.317  0.4393 -0.2868 -0.3518
 7947SOL    HW135303   4.407   2.463   8.294 -1.5553  0.8251 -1.8169
 7947SOL    HW235304   4.288   2.404   8.245  2.0054  1.1768 -1.3963
 7948SOL     OW35305   2.187   4.100   2.804 -1.3432 -0.8630 -0.3674
 7948SOL    HW135306   2.147   4.064   2.884  1.1519 -1.6116  0.5561
 7948SOL    HW235307   2.279   4.090   2.829 -0.8262  1.9659 -1.2033
 7949SOL     OW35308   4.393   1.254   0.455 -0.5051 -0.2485 -1.0695
 7949SOL    HW135309   4.394   1.227   0.547 -0.6081  0.8595 -0.7435
 7949SOL    HW235310   4.423   1.345   0.459  1.4903 -0.8710 -1.9350
 7950SOL     OW35311   1.577   3.714  11.640 -0.3261  0.5308  0.2922
 7950SOL    HW135312   1.574   3.798  11.686 -1.0247  0.7568 -0.1713
 7950SOL    HW235313   1.512   3.719  11.570 -0.5017  1.1986  0.5084
 7951SOL     OW35314   2.872   1.545   4.587  0.2006  0.2862 -0.4822
 7951SOL    HW135315   2.845   1.513   4.501  1.4028  2.4293 -1.6635
 7951SOL    HW235316   2.822   1.492   4.649 -0.0580  1.1211  0.0197
 7952SOL     OW35317   2.063   0.016   6.518 -0.2298 -0.1053 -0.6760
 7952SOL    HW135318   2.130   0.061   6.465  0.3370 -2.8567 -2.2814
 7952SOL    HW235319   2.015   0.098   6.533  2.1403  0.7759  2.1840
 7953SOL     OW35320   3.924   3.760  11.210 -0.5601 -0.0771  0.3399
 7953SOL    HW135321   3.935   3.711  11.129 -2.4375 -1.3970  0.8754
 7953SOL    HW235322   4.001   3.815  11.219 -1.4470  1.2440 -0.1094
 7954SOL     OW35323   3.231   4.205   0.866 -0.5412  0.7146  0.1402
 7954SOL    HW135324   3.143   4.232   0.894 -0.2535  3.2017 -1.3868
 7954SOL    HW235325   3.210   4.113   0.850  1.7713  0.1118  0.6001
 7955SOL     OW35326   4.050   2.491   6.687 -0.4824  0.2751  0.0602
 7955SOL    HW135327   4.107   2.437   6.742  0.3001 -1.0192 -2.0323
 7955SOL    HW235328   3.994   2.425   6.645 -0.9229  1.2251 -0.8244
 7956SOL     OW35329   2.678   1.753   5.519  0.4422 -0.3052 -0.5082
 7956SOL    HW135330   2.763   1.798   5.513  0.0133  0.0479 -3.9737
 7956SOL    HW235331   2.702   1.669   5.558  0.0016 -0.8531 -1.4173
 7957SOL     OW35332   4.652   2.188   6.211 -0.2038  0.0036 -0.2669
 7957SOL    HW135333   4.624   2.264   6.263 -0.2800  0.2132 -0.6177
 7957SOL    HW235334   0.003   2.223   6.167 -0.8346  1.2559 -0.3863
 7958SOL     OW35335   2.123   3.266   5.408  0.8141  0.2932  0.1535
 7958SOL    HW135336   2.198   3.245   5.352 -1.2061 -1.3202 -1.9436
 7958SOL    HW235337   2.140   3.210   5.484  0.1889 -1.3587 -0.9072
 7959SOL     OW35338   1.270   0.412   6.156 -0.0352 -0.0925  0.2388
 7959SOL    HW135339   1.302   0.453   6.236 -0.0133 -0.1777  0.2731
 7959SOL    HW235340   1.278   0.476   6.085  0.2036 -0.7389 -0.3200
 7960SOL     OW35341   3.458   4.631   4.793  0.4434 -0.0280  0.0617
 7960SOL    HW135342   3.379   4.658   4.840  0.5707 -0.1108  0.3232
 7960SOL    HW235343   3.502   4.579   4.860  0.0508 -0.5170 -0.0624
 7961SOL     OW35344   0.231   3.834   9.800 -0.4163  0.6020 -0.5074
 7961SOL    HW135345   0.311   3.833   9.853 -1.1284 -1.8462  0.5431
 7961SOL    HW235346   0.198   3.922   9.818 -0.1532  0.6572 -0.2929
 7962SOL     OW35347   0.404   3.957   4.390  0.7159  0.1546  0.4530
 7962SOL    HW135348   0.379   3.864   4.396  2.2013 -0.2766  0.0610
 7962SOL    HW235349   0.354   3.992   4.464  0.5588 -1.2027  0.9934
 7963SOL     OW35350   2.295   3.593   6.562 -0.0716 -0.6212  0.2842
 7963SOL    HW135351   2.362   3.657   6.586  0.9664 -1.3778 -0.5718
 7963SOL    HW235352   2.232   3.611   6.631 -0.2125 -0.8413  0.2145
 7964SOL     OW35353   1.820   2.338   7.616 -0.2651 -0.1425  0.3138
 7964SOL    HW135354   1.744   2.349   7.559  1.0359  0.6014 -1.2798
 7964SOL    HW235355   1.870   2.415   7.591  1.2825 -1.0465  0.5875
 7965SOL     OW35356   3.771   4.374   1.822 -0.2410  0.5871 -0.1419
 7965SOL    HW135357   3.683   4.342   1.800 -0.2835  0.2639  0.5124
 7965SOL    HW235358   3.811   4.288   1.837 -0.8038  0.6084  1.4107
 7966SOL     OW35359   1.675   2.222   2.177  0.1792 -0.6417  0.3438
 7966SOL    HW135360   1.674   2.281   2.102 -3.0832  1.3920  1.9534
 7966SOL    HW235361   1.761   2.182   2.168  0.2869 -0.1231 -0.8554
 7967SOL     OW35362   3.374   0.422   7.887 -0.0578  0.7060 -0.3058
 7967SOL    HW135363   3.302   0.378   7.932  0.4066  0.4261  0.1656
 7967SOL    HW235364   3.410   0.469   7.963  1.8072  0.9129 -1.3285
 7968SOL     OW35365   1.691   2.269   9.372 -0.4411 -0.2160  0.3944
 7968SOL    HW135366   1.657   2.181   9.356 -2.4413  0.2508  2.0963
 7968SOL    HW235367   1.774   2.274   9.325  0.3695  0.1300  1.8630
 7969SOL     OW35368   2.761   4.502   5.322  0.2997  0.0040  0.1928
 7969SOL    HW135369   2.851   4.510   5.292 -0.1868  2.0946 -0.7583
 7969SOL    HW235370   2.728   4.592   5.321 -0.0035 -0.0743  2.6848
 7970SOL     OW35371   1.879   1.259   4.721 -0.4324 -0.3240 -0.6096
 7970SOL    HW135372   1.830   1.286   4.644 -0.4478 -1.0432 -0.8532
 7970SOL    HW235373   1.952   1.203   4.695  0.3032 -1.6460  4.1230
 7971SOL     OW35374   2.130   1.321   7.520 -0.0153  0.1906 -0.4619
 7971SOL    HW135375   2.192   1.250   7.535 -2.5538 -1.5068  2.1842
 7971SOL    HW235376   2.181   1.396   7.488 -0.6819  0.7496 -0.2137
 7972SOL     OW35377   0.760   0.355   7.845 -0.0055  0.3450 -0.4264
 7972SOL    HW135378   0.786   0.264   7.859 -0.7927 -0.0699 -1.6428
 7972SOL    HW235379   0.834   0.396   7.799  0.7443  0.0388  0.4981
 7973SOL     OW35380   0.571   4.313  12.181 -0.6277  0.7102 -0.2643
 7973SOL    HW135381   0.603   4.382  12.123 -1.8389  0.0342 -1.7224
 7973SOL    HW235382   0.614   4.332  12.265 -1.5762 -0.1825  0.4264
 7974SOL     OW35383   3.323   0.781  11.861  0.3455 -0.2168  0.3422
 7974SOL    HW135384   3.281   0.694  11.860 -1.9143  0.8722  0.3992
 7974SOL    HW235385   3.243   0.832  11.849  0.2825  0.0135  1.7930
 7975SOL     OW35386   3.614   3.478   7.100  0.5457 -0.2807 -0.2393
 7975SOL    HW135387   3.565   3.464   7.019 -3.0602 -0.1797  1.9515
 7975SOL    HW235388   3.617   3.570   7.125  0.7448 -0.3275 -0.0919
 7976SOL     OW35389   2.246   2.001   1.589  0.0920 -0.5523 -0.1402
 7976SOL    HW135390   2.334   1.998   1.626  0.0820  0.4985 -0.0350
 7976SOL    HW235391   2.261   2.067   1.521  2.4192 -2.9122 -1.9335
 7977SOL     OW35392   2.114   1.459   3.845 -0.3817  0.2816 -0.4859
 7977SOL    HW135393   2.057   1.467   3.921 -1.7670 -0.2085 -1.4539
 7977SOL    HW235394   2.136   1.551   3.832  0.0292  0.4901  1.7759
 7978SOL     OW35395   2.960   0.212   2.282  0.1844  0.1604  0.9544
 7978SOL    HW135396   2.885   0.215   2.222  0.5590 -1.5360  0.4216
 7978SOL    HW235397   3.026   0.187   2.218 -0.6141  1.9784 -0.5941
 7979SOL     OW35398   1.925   0.541  10.992 -0.2734 -0.8221 -0.0452
 7979SOL    HW135399   1.980   0.476  10.949  0.8794  1.2635 -1.7207
 7979SOL    HW235400   1.851   0.553  10.932  0.3861  1.4349 -0.3925
 7980SOL     OW35401   4.400   2.325   6.330  0.3071 -0.0537 -0.1323
 7980SOL    HW135402   4.346   2.247   6.318  0.8574 -0.7597  1.9195
 7980SOL    HW235403   4.427   2.323   6.422  1.6188  1.7071 -0.4590
 7981SOL     OW35404   1.833   3.082   5.502  0.1895 -0.2048 -0.1659
 7981SOL    HW135405   1.828   3.114   5.592  0.0862 -0.3876 -0.1055
 7981SOL    HW235406   1.742   3.087   5.475 -0.2434 -0.2694  1.2912
 7982SOL     OW35407   2.156   3.972   8.758 -0.0452 -0.0160 -0.1040
 7982SOL    HW135408   2.119   4.039   8.817 -0.3093  0.5053 -0.8608
 7982SOL    HW235409   2.108   3.975   8.675 -1.8390 -0.3933  0.9143
 7983SOL     OW35410   1.234   4.450  10.867  0.0417  0.3177 -0.2649
 7983SOL    HW135411   1.176   4.492  10.931  0.1506 -0.2320  0.1911
 7983SOL    HW235412   1.250   4.523  10.808  1.2241 -0.7098 -1.2049
 7984SOL     OW35413   1.698   0.098   6.787  0.3898  0.1733  0.7626
 7984SOL    HW135414   1.759   0.043   6.836  2.6494  1.4064 -0.6622
 7984SOL    HW235415   1.633   0.030   6.768  1.7098 -0.0633 -3.0212
 7985SOL     OW35416   2.612   2.311   4.260 -0.3649 -0.1546  0.3877
 7985SOL    HW135417   2.686   2.366   4.284 -0.2970  1.4631 -3.5308
 7985SOL    HW235418   2.555   2.372   4.213  0.5040  0.7238  0.4821
 7986SOL     OW35419   3.174   2.700   4.090  0.1638 -0.0314 -0.1054
 7986SOL    HW135420   3.219   2.730   4.012 -0.2337 -1.3338 -0.8298
 7986SOL    HW235421   3.115   2.635   4.052  1.1459  0.0650 -1.7348
 7987SOL     OW35422   3.763   3.078   6.642  0.6069  0.1042 -0.1739
 7987SOL    HW135423   3.750   3.063   6.736 -2.4454 -0.0037 -0.5967
 7987SOL    HW235424   3.774   3.173   6.643 -1.4687  0.3393  0.5227
 7988SOL     OW35425   2.800   3.736  12.263  0.0872  0.2374  0.1848
 7988SOL    HW135426   2.708   3.708  12.254  0.6889 -0.9552 -2.2295
 7988SOL    HW235427   2.834   3.655  12.301  1.3576  0.5216 -0.3465
 7989SOL     OW35428   0.062   3.470   3.001 -0.2054 -0.0477 -0.0731
 7989SOL    HW135429   0.130   3.508   3.056 -1.4743 -1.1643  2.2391
 7989SOL    HW235430   0.108   3.448   2.919  0.7101  1.2536  0.0882
 7990SOL     OW35431   1.493   3.091  14.195 -0.0429  0.0135  0.1689
 7990SOL    HW135432   1.589   3.095  14.193 -0.0970  1.4753  0.8664
 7990SOL    HW235433   1.479   3.184  14.211 -1.9128 -0.1001 -0.8819
 7991SOL     OW35434   0.082   3.833   9.348 -0.0061  0.0958 -0.1981
 7991SOL    HW135435   0.162   3.807   9.394  0.1196 -1.1424 -1.1200
 7991SOL    HW235436   0.022   3.760   9.361  0.1874 -0.2788 -1.4097
 7992SOL     OW35437   3.182   3.199  15.654 -0.4690 -0.3372 -0.2283
 7992SOL    HW135438   3.228   3.166  15.577 -0.7913 -0.3975 -0.3911
 7992SOL    HW235439   3.224   3.144  15.720  1.0739  0.2504 -0.7044
 7993SOL     OW35440   4.393   4.180   2.392 -0.5270 -0.1352  0.4072
 7993SOL    HW135441   4.435   4.095   2.401 -0.7558 -0.1328  1.5691
 7993SOL    HW235442   4.344   4.161   2.312  0.3950 -0.8699  0.0294
 7994SOL     OW35443   0.569   2.985   8.557  0.3147  0.3193 -0.1759
 7994SOL    HW135444   0.641   2.971   8.619  0.4180 -1.0141 -0.5834
 7994SOL    HW235445   0.614   3.032   8.487  3.0790 -0.3752  1.1356
 7995SOL     OW35446   4.588   4.375   9.948 -0.0324  0.2670 -1.1726
 7995SOL    HW135447   4.503   4.333   9.957 -0.8344  1.8254 -1.5634
 7995SOL    HW235448   4.649   4.301   9.941  2.5371  2.4385 -1.8604
 7996SOL     OW35449   0.552   2.171  10.068 -0.2687  0.2073  0.0715
 7996SOL    HW135450   0.647   2.179  10.081  0.2513  0.3994 -4.0798
 7996SOL    HW235451   0.555   2.128   9.983  2.7605 -3.2658  1.9466
 7997SOL     OW35452   0.367   2.063   2.990  0.1148 -0.4459 -0.3556
 7997SOL    HW135453   0.281   2.064   2.950  0.0211 -0.2937 -0.1492
 7997SOL    HW235454   0.427   2.095   2.923 -0.8263 -3.1633 -2.4763
 7998SOL     OW35455   0.966   0.726   6.383  0.1808  0.2276  0.2120
 7998SOL    HW135456   1.016   0.802   6.353  0.1951  0.1221 -0.0286
 7998SOL    HW235457   0.885   0.751   6.340  0.3440 -1.5626 -1.1564
 7999SOL     OW35458   3.129   1.552   9.427 -0.2223  0.2701  0.0589
 7999SOL    HW135459   3.172   1.627   9.384  2.2545 -0.7434  0.7732
 7999SOL    HW235460   3.067   1.606   9.476 -0.9770  0.6577 -1.3151
 8000SOL     OW35461   1.429   0.226   6.038  0.0350 -0.0003 -0.0348
 8000SOL    HW135462   1.364   0.172   5.993 -0.6762  2.0470 -1.4754
 8000SOL    HW235463   1.375   0.282   6.094 -0.5497 -0.6476  0.0505
 8001SOL     OW35464   0.208   0.004   3.011 -0.2025  0.0373 -0.3520
 8001SOL    HW135465   0.220   4.670   2.938  2.1154 -0.1476  0.1671
 8001SOL    HW235466   0.197   4.670   3.084 -3.2111  2.4126  1.1361
 8002SOL     OW35467   2.565   4.098   2.035  0.0795 -0.0072  0.0269
 8002SOL    HW135468   2.471   4.111   2.046  0.0979 -0.6677  0.9633
 8002SOL    HW235469   2.575   4.006   2.008 -1.0940 -0.0359 -0.3020
 8003SOL     OW35470   4.103   1.803   6.268  0.0491 -0.3456 -0.4324
 8003SOL    HW135471   4.056   1.725   6.242  0.1644  0.1312 -2.0837
 8003SOL    HW235472   4.178   1.770   6.318  1.3730  1.0616 -1.4552
 8004SOL     OW35473   3.497   0.559   6.836  0.1105 -0.2941  0.0287
 8004SOL    HW135474   3.404   0.582   6.833 -0.1229 -0.9933  1.6278
 8004SOL    HW235475   3.521   0.595   6.751 -0.5238 -0.6125 -0.2832
 8005SOL     OW35476   2.291   3.630   7.400  0.2475  0.2321  0.0361
 8005SOL    HW135477   2.361   3.692   7.383  1.3256 -1.0496 -0.1669
 8005SOL    HW235478   2.239   3.697   7.445 -0.6046 -0.0735 -0.4780
 8006SOL     OW35479   2.538   1.101   4.561 -0.0935  0.2448  0.2529
 8006SOL    HW135480   2.534   1.146   4.477 -2.4483  1.7479  1.1793
 8006SOL    HW235481   2.469   1.152   4.604 -1.1678 -0.7290 -0.3244
 8007SOL     OW35482   4.434   4.326   6.104 -0.5962  0.3166 -0.4692
 8007SOL    HW135483   4.469   4.413   6.087 -1.1884  0.5811 -0.3524
 8007SOL    HW235484   4.519   4.282   6.108 -0.8710 -0.2125 -0.4360
 8008SOL     OW35485   1.567   4.409   2.321 -0.4737 -0.1209  0.4147
 8008SOL    HW135486   1.534   4.423   2.409 -0.3732 -1.9057  0.7430
 8008SOL    HW235487   1.562   4.499   2.288  0.0963 -1.0082 -2.1492
 8009SOL     OW35488   4.593   2.194   3.294  0.5258  0.4095 -0.1714
 8009SOL    HW135489   4.643   2.113   3.287 -0.7032 -0.2921 -0.6741
 8009SOL    HW235490   4.565   2.214   3.205 -1.2873  1.9675  0.7549
 8010SOL     OW35491   0.384   2.834  15.618  0.2630 -0.5430 -0.5917
 8010SOL    HW135492   0.397   2.902  15.553  0.4727  0.6586  0.7021
 8010SOL    HW235493   0.463   2.844  15.671  0.2900 -0.6418 -0.6133
 8011SOL     OW35494   4.493   2.754   4.532  0.1405  0.1365  0.4152
 8011SOL    HW135495   4.449   2.837   4.511  1.3126  0.8603  0.8291
 8011SOL    HW235496   4.477   2.742   4.626  0.2268  0.4529  0.4694
 8012SOL     OW35497   0.710   2.306   4.628  0.1708  0.7634 -0.6160
 8012SOL    HW135498   0.678   2.294   4.538 -1.3489  1.5809 -0.1707
 8012SOL    HW235499   0.714   2.401   4.639  0.3542  0.6664  0.1792
 8013SOL     OW35500   4.512   2.004   0.755 -0.3405 -0.1439 -0.0467
 8013SOL    HW135501   4.466   2.038   0.832 -2.1004 -1.3964 -0.5648
 8013SOL    HW235502   4.517   2.080   0.697 -1.2889  0.2162  0.3474
 8014SOL     OW35503   2.358   0.917   2.743 -0.1308  0.0830  0.1248
 8014SOL    HW135504   2.319   0.956   2.821  3.0539  0.8223  1.3627
 8014SOL    HW235505   2.348   0.824   2.760  1.1336 -0.6095 -2.8637
 8015SOL     OW35506   1.330   3.873  12.045  0.5064 -0.2774 -0.3747
 8015SOL    HW135507   1.286   3.945  12.001  0.6562  0.8330  1.2958
 8015SOL    HW235508   1.401   3.855  11.984 -0.2756 -0.8569 -1.1120
 8016SOL     OW35509   3.756   1.215  11.224 -0.3199 -0.3166  0.0979
 8016SOL    HW135510   3.675   1.198  11.176 -0.3511  0.2274 -0.0374
 8016SOL    HW235511   3.738   1.293  11.275  1.7147  1.8138 -2.4295
 8017SOL     OW35512   2.627   4.410  12.889  0.3705  0.3586  0.1107
 8017SOL    HW135513   2.687   4.465  12.940 -1.2908  1.0981  1.2530
 8017SOL    HW235514   2.614   4.330  12.942  1.6474 -1.2113 -1.9517
 8018SOL     OW35515   1.700   3.532   4.596 -0.1913  0.3577  0.0526
 8018SOL    HW135516   1.698   3.564   4.686  0.9220  0.8477 -0.0897
 8018SOL    HW235517   1.679   3.612   4.548 -1.6642  0.5343  1.0139
 8019SOL     OW35518   0.973   3.168   7.153  0.4942  0.1044  0.0487
 8019SOL    HW135519   0.946   3.162   7.062 -0.3441  4.1792  0.0554
 8019SOL    HW235520   0.979   3.262   7.172 -0.6006  0.2002 -0.0630
 8020SOL     OW35521   0.545   1.856  10.147 -0.2591  0.2263 -0.5590
 8020SOL    HW135522   0.615   1.825  10.090  0.0404 -2.6417  1.3578
 8020SOL    HW235523   0.515   1.936  10.103 -0.2405 -0.0740 -1.1094
 8021SOL     OW35524   2.906   3.683  10.855 -0.1128  0.0998  0.3422
 8021SOL    HW135525   2.991   3.721  10.877 -0.0809  0.9822 -1.2949
 8021SOL    HW235526   2.845   3.756  10.862  0.4266  0.5137  0.7791
 8022SOL     OW35527   4.674   0.182  14.769 -0.0794  0.3674 -0.2182
 8022SOL    HW135528   4.630   0.098  14.768 -0.5751  0.6144  1.0892
 8022SOL    HW235529   0.008   0.176  14.844 -0.3609 -3.6392 -0.3409
 8023SOL     OW35530   1.583   1.303   9.098 -0.0145  0.4492 -0.2911
 8023SOL    HW135531   1.640   1.367   9.054 -2.2135  2.0497 -0.8021
 8023SOL    HW235532   1.498   1.304   9.054  1.3664  0.7016 -3.0074
 8024SOL     OW35533   1.317   0.824   4.484  0.3259  0.2821 -0.0277
 8024SOL    HW135534   1.222   0.823   4.496  0.1235 -1.6188 -1.7268
 8024SOL    HW235535   1.339   0.831   4.577 -1.0726 -1.8574  0.4643
 8025SOL     OW35536   4.094   3.093   3.226 -0.6430 -0.1557 -0.0856
 8025SOL    HW135537   4.126   3.181   3.209 -0.9037 -0.0790 -0.1817
 8025SOL    HW235538   4.004   3.107   3.198 -0.8207  1.4819  1.3012
 8026SOL     OW35539   0.064   3.840  16.000  0.1872  0.1566  0.7072
 8026SOL    HW135540   0.084   3.931  16.018 -0.2379  0.8514 -2.4119
 8026SOL    HW235541   0.025   3.815  16.084 -0.5904  0.5704  0.4689
 8027SOL     OW35542   0.606   3.096  17.366  0.1400 -0.2783 -0.0932
 8027SOL    HW135543   0.622   3.162  17.299  1.1083  2.0051  2.3995
 8027SOL    HW235544   0.672   3.032  17.340  0.3097 -0.5382  0.9512
 8028SOL     OW35545   2.885   0.375   2.780  0.0624 -0.1354 -0.2700
 8028SOL    HW135546   2.806   0.355   2.830  0.3176 -1.5633 -0.4413
 8028SOL    HW235547   2.877   0.313   2.707 -0.7632  0.3593 -0.6099
 8029SOL     OW35548   1.853   0.206   6.005  0.1753  0.1597  0.0740
 8029SOL    HW135549   1.822   0.201   6.095 -2.4553 -1.3742 -0.9051
 8029SOL    HW235550   1.805   0.282   5.971  0.2423  0.2582  0.2004
 8030SOL     OW35551   3.491   0.151   2.307 -0.0862  0.2307  0.1162
 8030SOL    HW135552   3.402   0.148   2.271 -0.3888  0.7430  0.8321
 8030SOL    HW235553   3.532   0.218   2.253 -3.2342 -0.5081 -3.1857
 8031SOL     OW35554   0.717   1.909  13.545 -0.0273 -0.1279  0.2201
 8031SOL    HW135555   0.710   1.818  13.575 -1.3931 -0.1094 -0.0279
 8031SOL    HW235556   0.672   1.950  13.619  1.5427  0.2376  0.9782
 8032SOL     OW35557   1.471   1.464   8.380  0.1027  0.3364 -0.5064
 8032SOL    HW135558   1.475   1.541   8.437 -0.1639  0.2858 -0.4191
 8032SOL    HW235559   1.538   1.501   8.322  1.0807 -1.0421 -0.2508
 8033SOL     OW35560   1.146   4.486   6.650 -0.1933 -0.7072 -0.4982
 8033SOL    HW135561   1.136   4.393   6.669  0.8436 -0.6990  0.1092
 8033SOL    HW235562   1.238   4.499   6.675 -0.6576  1.1961  0.2260
 8034SOL     OW35563   2.178   3.544   3.230 -0.1204 -0.0432 -0.0939
 8034SOL    HW135564   2.097   3.530   3.181  0.8793  2.3911 -2.4351
 8034SOL    HW235565   2.158   3.490   3.307  0.9729  1.5627  1.3268
 8035SOL     OW35566   0.994   4.100   3.134 -0.5731  0.1576  0.2960
 8035SOL    HW135567   0.949   4.139   3.059  0.3943 -0.7773 -0.7596
 8035SOL    HW235568   1.065   4.051   3.095 -1.0941 -0.2038 -0.1907
 8036SOL     OW35569   0.014   2.143  14.225  0.2729  0.1137  0.0506
 8036SOL    HW135570   4.649   2.162  14.201  1.2234  2.8882 -1.3283
 8036SOL    HW235571   0.045   2.217  14.276  1.6946  0.2840 -1.0521
 8037SOL     OW35572   4.395   2.080   3.471  0.0216  0.1922 -0.0251
 8037SOL    HW135573   4.439   2.125   3.398 -1.7368  2.8553  0.5555
 8037SOL    HW235574   4.371   1.998   3.428 -0.2631  0.5560 -0.5610
 8038SOL     OW35575   1.166   0.541   5.062 -0.0741  0.1504 -0.1371
 8038SOL    HW135576   1.084   0.512   5.100  1.0884  0.0556  2.3133
 8038SOL    HW235577   1.128   0.546   4.974  2.9600 -0.6689 -1.4996
 8039SOL     OW35578   1.651   4.581  16.886 -0.5089  0.1004  0.3927
 8039SOL    HW135579   1.668   4.500  16.838  0.5699 -0.5117  1.8363
 8039SOL    HW235580   1.570   4.615  16.845 -0.9510 -0.4364  0.8273
 8040SOL     OW35581   2.436   2.033   6.908  0.6669 -0.2642  0.4501
 8040SOL    HW135582   2.427   1.971   6.835  1.0790  0.1816  0.0268
 8040SOL    HW235583   2.343   2.035   6.931  0.4476 -2.4509 -0.1955
 8041SOL     OW35584   1.396   0.604  10.490  0.4640  0.6910 -0.3440
 8041SOL    HW135585   1.455   0.597  10.565  1.1859  0.8179 -0.9019
 8041SOL    HW235586   1.398   0.519  10.447  0.7968 -0.3556  1.7366
 8042SOL     OW35587   3.441   4.261   5.438  0.2072  0.0894  0.1443
 8042SOL    HW135588   3.527   4.251   5.479 -0.8807  0.5861  2.5348
 8042SOL    HW235589   3.437   4.180   5.387  0.3685  0.5890 -0.6822
 8043SOL     OW35590   4.509   1.818   4.461 -0.4961  0.1634  0.7147
 8043SOL    HW135591   4.440   1.850   4.403  2.5369  3.7847 -0.8968
 8043SOL    HW235592   4.549   1.902   4.484  1.1798  0.0983 -1.9918
 8044SOL     OW35593   4.064   0.682  15.103  0.1104  0.3572  0.2516
 8044SOL    HW135594   4.064   0.618  15.032 -2.0205 -0.4605  0.9833
 8044SOL    HW235595   4.010   0.744  15.055 -1.1286 -1.1856 -0.3501
 8045SOL     OW35596   2.078   1.590   2.108 -0.0530 -0.3720  0.1941
 8045SOL    HW135597   2.046   1.680   2.104 -2.5971 -1.2978 -0.4413
 8045SOL    HW235598   2.040   1.562   2.025  2.6598 -2.4144 -0.3493
 8046SOL     OW35599   1.420   2.821   7.709  0.5000  0.1956  0.0331
 8046SOL    HW135600   1.418   2.818   7.805 -0.3273  1.4147  0.0544
 8046SOL    HW235601   1.362   2.746   7.693  0.5665  0.9892 -3.9282
 8047SOL     OW35602   3.463   4.253   3.277  0.2967  0.3048 -0.6939
 8047SOL    HW135603   3.397   4.187   3.298  2.2697 -1.0300  1.4085
 8047SOL    HW235604   3.419   4.336   3.299  0.5872 -0.0744  1.3258
 8048SOL     OW35605   3.449   2.519   9.010  0.3931  0.2052 -0.2621
 8048SOL    HW135606   3.512   2.570   8.959  2.3172 -1.4572  0.4826
 8048SOL    HW235607   3.372   2.564   8.974 -0.4999 -0.0531  1.3296
 8049SOL     OW35608   0.795   4.366   8.206 -0.3309  0.3886  0.8518
 8049SOL    HW135609   0.786   4.289   8.262  1.5493 -1.7454 -1.7559
 8049SOL    HW235610   0.707   4.401   8.219  1.0251  3.6586  1.2345
 8050SOL     OW35611   2.343   2.234   3.240  0.0431 -0.0829  0.4670
 8050SOL    HW135612   2.402   2.180   3.188  0.8252  1.7366 -0.5184
 8050SOL    HW235613   2.285   2.261   3.169  3.2037  1.8945 -1.3282
 8051SOL     OW35614   4.444   1.275   4.518 -0.3410 -0.0603 -0.0175
 8051SOL    HW135615   4.448   1.248   4.426  2.7574 -1.3167  0.4555
 8051SOL    HW235616   4.390   1.202   4.549 -0.5972  0.4921  0.8063
 8052SOL     OW35617   0.176   3.829   7.466  0.5107 -0.2775 -0.0687
 8052SOL    HW135618   0.194   3.735   7.473  1.7364 -0.0389 -0.0610
 8052SOL    HW235619   0.192   3.872   7.550 -0.5989  0.3578 -0.1853
 8053SOL     OW35620   3.344   3.963   7.836  0.0937  0.0226  0.2355
 8053SOL    HW135621   3.269   3.905   7.852  0.6220 -1.0155 -1.0032
 8053SOL    HW235622   3.370   3.974   7.927  0.2755  0.6563  0.1084
 8054SOL     OW35623   1.545   2.687  12.269 -0.1092 -0.6295  0.0553
 8054SOL    HW135624   1.528   2.650  12.183  0.5250  0.5879 -0.5865
 8054SOL    HW235625   1.637   2.662  12.279 -0.0504 -0.3665  0.1792
 8055SOL     OW35626   1.757   1.646   7.393  0.5688 -0.4098  0.6158
 8055SOL    HW135627   1.836   1.650   7.339 -0.3983 -0.0941 -0.7702
 8055SOL    HW235628   1.790   1.577   7.450  0.9935  0.7502  1.7745
 8056SOL     OW35629   3.883   4.494  17.231 -0.3061  0.6377  0.0216
 8056SOL    HW135630   3.809   4.449  17.271  0.3146 -0.0725  0.3620
 8056SOL    HW235631   3.953   4.474  17.294 -1.5110  2.4624  1.9450
 8057SOL     OW35632   0.297   3.720   3.677  0.0149  0.4716 -0.6843
 8057SOL    HW135633   0.306   3.665   3.599 -2.2957 -0.2801 -0.4434
 8057SOL    HW235634   0.313   3.658   3.748  0.4620 -0.8141 -1.9044
 8058SOL     OW35635   2.349   2.575   6.200  0.7281  0.2905  0.1666
 8058SOL    HW135636   2.279   2.613   6.254 -0.0843 -0.7385 -0.1613
 8058SOL    HW235637   2.347   2.480   6.202  2.9321  0.2025 -2.3135
 8059SOL     OW35638   4.626   2.284   8.675  0.7661 -0.1496  0.6508
 8059SOL    HW135639   4.535   2.311   8.689  0.2341 -0.5704 -1.9537
 8059SOL    HW235640   4.648   2.354   8.614 -1.4743 -0.8666 -1.0002
 8060SOL     OW35641   4.231   3.720   4.894  0.1140 -0.1268 -0.4655
 8060SOL    HW135642   4.286   3.710   4.972 -0.7366  0.8699  0.2569
 8060SOL    HW235643   4.261   3.801   4.853  0.9467 -0.4788 -0.5505
 8061SOL     OW35644   2.085   1.098  14.935  0.4578  0.3375 -0.0195
 8061SOL    HW135645   2.118   1.171  14.987  1.3863 -0.3633  0.3616
 8061SOL    HW235646   1.995   1.127  14.919  0.5485 -0.2636 -1.6724
 8062SOL     OW35647   1.834   0.837  16.605  0.9200  0.7743  0.1432
 8062SOL    HW135648   1.784   0.794  16.674 -1.0464 -0.2380 -1.8998
 8062SOL    HW235649   1.790   0.918  16.579 -1.7149 -1.0882 -1.2413
 8063SOL     OW35650   4.141   2.316   4.093 -0.0438  0.2809  0.1005
 8063SOL    HW135651   4.090   2.368   4.030  0.4735  1.4693  0.6506
 8063SOL    HW235652   4.149   2.383   4.161 -0.0241  0.0552  0.3209
 8064SOL     OW35653   2.510   1.445   7.426  0.4422 -0.2371 -0.0621
 8064SOL    HW135654   2.485   1.410   7.340 -1.4568 -0.9817  0.7870
 8064SOL    HW235655   2.437   1.506   7.440  1.6104  1.1680 -0.1416
 8065SOL     OW35656   0.620   1.052   6.323  0.3997  0.4219 -0.2028
 8065SOL    HW135657   0.564   1.024   6.396  2.3171  2.3773  1.9976
 8065SOL    HW235658   0.554   1.076   6.258 -0.5700 -1.4599  0.0929
 8066SOL     OW35659   2.563   2.341  16.995  1.0448 -0.1968  0.5815
 8066SOL    HW135660   2.517   2.327  17.078  2.6667 -3.5433  0.9016
 8066SOL    HW235661   2.596   2.254  16.974 -1.3898 -0.2880 -2.7342
 8067SOL     OW35662   2.631   3.452   2.882 -0.1442 -0.9189 -0.1719
 8067SOL    HW135663   2.631   3.533   2.832 -4.5759 -0.8415  0.0146
 8067SOL    HW235664   2.589   3.482   2.962  0.5944  0.4330 -0.2838
 8068SOL     OW35665   3.790   2.326   1.671 -0.1177  0.1134 -0.0801
 8068SOL    HW135666   3.725   2.372   1.618  0.2382  0.5211 -0.1660
 8068SOL    HW235667   3.745   2.248   1.703  1.7226 -1.0653 -0.3337
 8069SOL     OW35668   0.016   1.197  13.232  0.1907  0.4361 -0.4022
 8069SOL    HW135669   0.073   1.120  13.229  2.2786  1.8943  1.8921
 8069SOL    HW235670   0.084   1.261  13.254  0.4713  0.7795 -2.2164
 8070SOL     OW35671   1.061   2.528   3.326  0.1085  0.2433  0.0460
 8070SOL    HW135672   1.006   2.540   3.249 -0.0298 -1.7359 -0.1646
 8070SOL    HW235673   1.087   2.617   3.348  1.7803 -0.2430  0.0369
 8071SOL     OW35674   2.674   4.202  10.851  0.0180  0.3638 -0.1090
 8071SOL    HW135675   2.745   4.264  10.868 -0.8729  1.1718  0.6012
 8071SOL    HW235676   2.610   4.224  10.918 -1.9677 -1.2996 -1.4696
 8072SOL     OW35677   0.068   1.596  13.177 -0.6043  0.1212 -0.0343
 8072SOL    HW135678   0.149   1.552  13.152 -1.2985 -0.7883 -0.7356
 8072SOL    HW235679   0.054   1.559  13.264  1.5362 -0.5790 -0.0014
 8073SOL     OW35680   1.191   3.537  13.466  0.3918 -0.2326  0.5171
 8073SOL    HW135681   1.281   3.506  13.459  1.0169  1.6869  0.0879
 8073SOL    HW235682   1.169   3.475  13.535  0.9496  0.1291  1.0186
 8074SOL     OW35683   4.415   2.541  13.606 -0.2281  0.1948 -0.0845
 8074SOL    HW135684   4.345   2.597  13.639  0.7656 -0.2005  2.6774
 8074SOL    HW235685   4.380   2.453  13.614  1.2656 -0.2705  1.2215
 8075SOL     OW35686   1.529   0.822   7.548 -0.2745  0.1190 -0.1637
 8075SOL    HW135687   1.526   0.853   7.638  1.9609 -0.7503  0.2129
 8075SOL    HW235688   1.495   0.732   7.548  1.9353 -0.7124  1.0765
 8076SOL     OW35689   3.990   4.191   2.760 -0.1518 -0.0391 -0.2066
 8076SOL    HW135690   4.032   4.178   2.674 -0.3235 -0.5229 -0.2159
 8076SOL    HW235691   4.054   4.249   2.802  0.8903  0.7698 -2.8819
 8077SOL     OW35692   1.752   1.739   4.879  0.1208 -0.2196 -0.0416
 8077SOL    HW135693   1.785   1.649   4.880 -1.3576 -0.7522  0.7025
 8077SOL    HW235694   1.807   1.764   4.804  0.4264  2.1879  0.9913
 8078SOL     OW35695   4.718   2.895  16.036 -0.1483 -0.2017 -0.0696
 8078SOL    HW135696   4.666   2.965  15.996 -0.5479  0.8750  2.3965
 8078SOL    HW235697   0.079   2.929  16.015 -0.0364 -0.1125  0.5540
 8079SOL     OW35698   2.602   0.444  10.675 -0.0747 -0.0817 -0.0320
 8079SOL    HW135699   2.677   0.399  10.715  0.0635  0.1066 -0.0792
 8079SOL    HW235700   2.544   0.455  10.750 -0.5747 -2.1282 -0.1251
 8080SOL     OW35701   0.746   2.577  11.163 -0.3262 -0.1190  0.0660
 8080SOL    HW135702   0.711   2.554  11.077  1.6308 -0.1963 -0.7191
 8080SOL    HW235703   0.832   2.616  11.149 -0.5774  0.9490  1.5204
 8081SOL     OW35704   3.413   0.937  10.889  0.0310  0.0713  0.6989
 8081SOL    HW135705   3.423   0.854  10.842  2.8376 -0.3760  2.0564
 8081SOL    HW235706   3.319   0.947  10.874 -0.2762 -0.6624  2.1211
 8082SOL     OW35707   2.729   3.442  15.472  0.1235  0.3297  0.2095
 8082SOL    HW135708   2.700   3.392  15.396  2.7675  1.6736 -1.6722
 8082SOL    HW235709   2.756   3.375  15.534  0.5493 -2.1390 -2.6491
 8083SOL     OW35710   2.241   0.913  13.832 -0.0440  0.6311  0.8106
 8083SOL    HW135711   2.189   0.873  13.901  0.0218  0.3604  0.7030
 8083SOL    HW235712   2.202   0.872  13.755  1.5664  0.5884  0.0203
 8084SOL     OW35713   1.637   4.693  11.920  0.1532  0.5197 -0.3571
 8084SOL    HW135714   1.546   4.668  11.932  0.1546  0.9205  0.4541
 8084SOL    HW235715   1.675   4.643  11.992  0.1155  1.3655  0.2427
 8085SOL     OW35716   4.570   3.373  15.086  0.0765  0.7931 -0.0250
 8085SOL    HW135717   4.554   3.378  14.992  2.9741 -0.5022 -0.6192
 8085SOL    HW235718   4.575   3.278  15.098  2.3156  0.8658 -0.3393
 8086SOL     OW35719   0.882   3.492   9.661 -0.0148  0.5533 -0.3988
 8086SOL    HW135720   0.895   3.585   9.675  0.3710  0.2738  1.0397
 8086SOL    HW235721   0.916   3.455   9.743 -0.9100  2.1238  0.6651
 8087SOL     OW35722   3.145   3.852  11.844 -0.4937  0.1070  0.4188
 8087SOL    HW135723   3.194   3.845  11.926  0.2417  0.7365  0.0226
 8087SOL    HW235724   3.102   3.766  11.844  0.2830 -0.2761  1.0193
 8088SOL     OW35725   4.135   1.569  13.733 -0.2483 -0.6720 -0.2034
 8088SOL    HW135726   4.161   1.594  13.645 -0.6707  0.5994  0.0260
 8088SOL    HW235727   4.103   1.653  13.767 -1.4830 -0.6627 -1.4147
 8089SOL     OW35728   3.260   0.096  10.958  0.1484 -0.1586  0.4460
 8089SOL    HW135729   3.305   0.018  10.990  0.1527 -0.7608 -1.0194
 8089SOL    HW235730   3.333   0.158  10.950 -0.2331  0.2906  0.4693
 8090SOL     OW35731   1.337   4.040   0.607 -0.3087  0.4678  0.3884
 8090SOL    HW135732   1.307   4.036   0.517  1.2326 -0.8260 -0.0851
 8090SOL    HW235733   1.304   4.125   0.636  1.3921  0.6023  1.9803
 8091SOL     OW35734   2.847   2.736   2.436  0.0067  0.0431  0.0990
 8091SOL    HW135735   2.934   2.763   2.466 -0.6945  2.2823  0.1437
 8091SOL    HW235736   2.869   2.726   2.344 -0.3438 -3.1537  0.3518
 8092SOL     OW35737   4.428   0.949   6.603 -0.1596  0.1813 -0.0279
 8092SOL    HW135738   4.364   0.915   6.664 -2.6491  3.0199 -1.0606
 8092SOL    HW235739   4.504   0.969   6.658 -0.3382  3.8200 -1.0649
 8093SOL     OW35740   0.075   2.661   0.544  0.2091  0.2922 -0.6625
 8093SOL    HW135741   0.014   2.620   0.482  1.7768 -1.9922 -0.6740
 8093SOL    HW235742   0.089   2.586   0.600 -2.2967  0.6561  0.4490
 8094SOL     OW35743   3.427   3.659   4.563 -0.0154 -0.1682 -0.3957
 8094SOL    HW135744   3.508   3.697   4.598  0.0206 -0.8930  0.3333
 8094SOL    HW235745   3.461   3.595   4.500 -1.4218  0.1555 -1.4795
 8095SOL     OW35746   2.456   3.195  12.247  0.5182 -0.1146  0.8453
 8095SOL    HW135747   2.470   3.148  12.165  0.9211  2.0353 -0.3186
 8095SOL    HW235748   2.474   3.120  12.304  0.4959  0.8646  2.1283
 8096SOL     OW35749   4.689   0.310   3.696 -0.2494  0.3633 -0.1863
 8096SOL    HW135750   4.698   0.308   3.601  0.4563  2.7993 -0.1726
 8096SOL    HW235751   4.721   0.398   3.714  0.0912  0.3617 -0.7985
 8097SOL     OW35752   4.197   1.746   7.772 -0.0686  0.2151 -0.5622
 8097SOL    HW135753   4.237   1.821   7.816 -2.9464  1.2660  0.2410
 8097SOL    HW235754   4.120   1.797   7.750  0.9012  1.1553 -1.8228
 8098SOL     OW35755   2.718   4.493  10.559  0.5913  0.1937 -0.3429
 8098SOL    HW135756   2.636   4.536  10.583 -0.4992 -2.3497  0.4665
 8098SOL    HW235757   2.766   4.573  10.537 -1.8338  1.6486 -0.4488
 8099SOL     OW35758   2.870   3.010   9.845  0.3255 -0.1944  0.0365
 8099SOL    HW135759   2.837   2.923   9.868  2.1234 -1.0839 -0.7362
 8099SOL    HW235760   2.800   3.052   9.795  0.4176 -0.7475 -0.5510
 8100SOL     OW35761   2.894   4.168   4.852  0.2235  0.1517 -0.4354
 8100SOL    HW135762   2.848   4.093   4.889 -0.0180  0.0394 -0.9713
 8100SOL    HW235763   2.920   4.129   4.768 -3.0884 -0.8764 -0.9696
 8101SOL     OW35764   2.323   1.090  15.335 -0.2086  0.1918 -0.5462
 8101SOL    HW135765   2.413   1.068  15.356 -0.6575 -1.5247 -0.4287
 8101SOL    HW235766   2.307   1.028  15.264 -0.1852 -1.6524  1.0667
 8102SOL     OW35767   4.374   1.087   2.239 -0.2349  0.0423  0.1878
 8102SOL    HW135768   4.464   1.077   2.269  0.6265  2.0826 -1.7456
 8102SOL    HW235769   4.348   1.004   2.199 -2.4360 -0.2797  2.2708
 8103SOL     OW35770   4.715   1.658  16.607  0.9001 -0.0077  0.1727
 8103SOL    HW135771   4.692   1.710  16.684  0.5104 -0.6821  0.5123
 8103SOL    HW235772   0.071   1.704  16.589 -0.4398  1.5911 -1.9063
 8104SOL     OW35773   2.333   3.232  13.682 -0.5258  0.3082  0.0902
 8104SOL    HW135774   2.347   3.140  13.701  0.3045  0.2162 -0.9924
 8104SOL    HW235775   2.249   3.240  13.728  0.1025 -0.4519  1.3575
 8105SOL     OW35776   0.775   1.340  17.672 -0.1026  0.4777  0.1284
 8105SOL    HW135777   0.786   1.340  17.577  1.7803 -1.2951  0.3511
 8105SOL    HW235778   0.681   1.334  17.687 -0.1440  2.2187  0.6133
 8106SOL     OW35779   1.368   1.134   7.169 -0.3316  0.0697  0.2801
 8106SOL    HW135780   1.387   1.093   7.253 -0.8157  1.1421  0.9153
 8106SOL    HW235781   1.334   1.063   7.115 -0.2937 -0.1118  0.4962
 8107SOL     OW35782   4.565   1.432   1.704 -0.2481 -0.0897 -0.7910
 8107SOL    HW135783   4.637   1.378   1.671  0.1426 -1.1055  1.7270
 8107SOL    HW235784   4.596   1.479   1.781 -1.4447 -1.5658  0.5731
 8108SOL     OW35785   1.474   1.064   0.854  0.1560  0.0693 -0.5147
 8108SOL    HW135786   1.484   1.068   0.759 -0.7762  0.3030 -0.6018
 8108SOL    HW235787   1.563   1.040   0.883 -0.2385 -0.4814  0.2649
 8109SOL     OW35788   1.796   2.593  12.217  0.2432  0.4044  0.1901
 8109SOL    HW135789   1.836   2.602  12.130 -1.4087 -0.3963 -0.6664
 8109SOL    HW235790   1.848   2.516  12.242 -0.7203  0.2800  1.7787
 8110SOL     OW35791   0.833   2.906  13.497  0.2502  0.6764 -0.1731
 8110SOL    HW135792   0.920   2.941  13.514  0.0919 -0.0590  2.1446
 8110SOL    HW235793   0.790   2.931  13.579  1.8561  2.1332  0.2218
 8111SOL     OW35794   0.324   0.144   7.760  0.3023 -0.0556  0.0104
 8111SOL    HW135795   0.339   0.131   7.853  0.8302 -0.7499 -0.1731
 8111SOL    HW235796   0.413   0.163   7.729  0.6602 -2.6666 -0.5714
 8112SOL     OW35797   3.861   1.540  17.578  0.4263  0.0411  0.0262
 8112SOL    HW135798   3.904   1.460  17.547 -0.6552 -0.7477  0.5887
 8112SOL    HW235799   3.767   1.524  17.572  0.5018 -0.0223 -1.0503
 8113SOL     OW35800   2.252   3.846  13.031  0.4774  0.0262  0.3780
 8113SOL    HW135801   2.242   3.863  12.937  0.3936 -1.5269  0.0985
 8113SOL    HW235802   2.329   3.895  13.058 -0.0671 -0.2977  2.5127
 8114SOL     OW35803   2.610   1.172   3.647  0.0673 -0.4042  0.0587
 8114SOL    HW135804   2.623   1.096   3.591  1.1644  0.7419 -1.2415
 8114SOL    HW235805   2.560   1.141   3.723 -2.5544  0.7750 -1.1603
 8115SOL     OW35806   0.667   0.331   5.650  0.0062  0.0939 -0.4122
 8115SOL    HW135807   0.607   0.361   5.582 -0.8993 -0.8989 -0.0407
 8115SOL    HW235808   0.716   0.411   5.669  1.7401 -1.1628  0.4600
 8116SOL     OW35809   2.555   2.141   7.125 -0.3683  0.1462  0.0526
 8116SOL    HW135810   2.515   2.098   7.049 -0.4321 -1.6416  1.1143
 8116SOL    HW235811   2.505   2.222   7.112  0.6620  0.3594 -2.8161
 8117SOL     OW35812   2.220   1.647   4.812  0.0608 -0.1805  0.2996
 8117SOL    HW135813   2.183   1.607   4.733  0.9883  1.5434 -1.0107
 8117SOL    HW235814   2.258   1.574   4.859 -1.4236 -3.0222 -2.9324
 8118SOL     OW35815   0.101   3.803   2.935  0.4642 -0.0453 -0.0355
 8118SOL    HW135816   0.166   3.768   2.875  0.5687 -1.6786  1.0331
 8118SOL    HW235817   0.157   3.834   3.006 -1.3539  0.1028  1.3420
 8119SOL     OW35818   1.336   2.554   9.704  0.5314  0.6108 -0.4107
 8119SOL    HW135819   1.293   2.472   9.682  1.5983 -0.1280  0.2407
 8119SOL    HW235820   1.395   2.523   9.773  0.9601 -0.6518 -1.3462
 8120SOL     OW35821   0.538   2.891  15.819  0.1027  0.1914 -0.2449
 8120SOL    HW135822   0.510   2.977  15.787 -2.0129 -1.8812 -4.0689
 8120SOL    HW235823   0.633   2.898  15.811  0.3336 -1.6197  0.9597
 8121SOL     OW35824   1.085   4.285   6.226  0.2640  0.6887  0.6937
 8121SOL    HW135825   1.111   4.212   6.168 -0.3062  0.3101  0.9140
 8121SOL    HW235826   1.135   4.361   6.197  1.0521 -0.3819 -0.7785
 8122SOL     OW35827   2.704   0.948   9.642 -0.2279  0.2376 -0.0457
 8122SOL    HW135828   2.655   0.933   9.723 -1.5327  0.6562 -0.7632
 8122SOL    HW235829   2.643   0.920   9.574 -1.1864  0.7707  0.6047
 8123SOL     OW35830   3.727   1.307   4.344 -0.2675  0.3382 -0.5890
 8123SOL    HW135831   3.785   1.364   4.294  0.9115 -0.8972 -0.6249
 8123SOL    HW235832   3.664   1.288   4.276 -3.2310  1.2073  1.9144
 8124SOL     OW35833   2.758   4.583  13.036 -0.1569 -0.4645  0.0302
 8124SOL    HW135834   2.827   4.517  13.044 -0.4482 -0.8986 -0.9948
 8124SOL    HW235835   2.809   4.663  13.044 -2.1343  0.4036  4.4135
 8125SOL     OW35836   3.701   4.023   7.272  0.2440  0.3920 -0.1203
 8125SOL    HW135837   3.781   3.999   7.225  0.8157 -0.2219  1.1666
 8125SOL    HW235838   3.738   4.098   7.318 -2.7026  2.7577 -1.5548
 8126SOL     OW35839   1.542   2.434   6.959  0.6683  0.2082 -0.7474
 8126SOL    HW135840   1.473   2.427   7.025  1.0534  0.6796 -0.2936
 8126SOL    HW235841   1.513   2.368   6.896  1.6851  1.4414 -2.4996
 8127SOL     OW35842   4.205   0.575   5.888  0.0499  0.7667  0.4844
 8127SOL    HW135843   4.286   0.558   5.840 -0.8515  0.9906 -1.0963
 8127SOL    HW235844   4.215   0.511   5.958  1.2689 -1.6174 -1.8578
 8128SOL     OW35845   0.300   2.462   7.273 -0.3380 -0.2515  0.3088
 8128SOL    HW135846   0.289   2.520   7.348  1.8898 -0.0828  0.5015
 8128SOL    HW235847   0.393   2.439   7.267  0.1075  1.4441  0.5784
 8129SOL     OW35848   1.548   3.088   5.770 -0.4775  0.4415  0.0368
 8129SOL    HW135849   1.562   3.008   5.820  0.1180  0.1291 -0.6218
 8129SOL    HW235850   1.506   3.045   5.695  0.4216 -0.7967  0.2484
 8130SOL     OW35851   1.358   2.175   8.459 -0.1245 -0.0351  0.5372
 8130SOL    HW135852   1.338   2.096   8.409  1.2685  0.5941 -1.0086
 8130SOL    HW235853   1.361   2.128   8.543  1.1991 -3.1300 -1.2215
 8131SOL     OW35854   3.177   0.203   9.384  0.3426 -0.0731 -0.8578
 8131SOL    HW135855   3.094   0.170   9.350 -0.1711 -0.0109  0.3410
 8131SOL    HW235856   3.230   0.225   9.307  1.1358  0.6571 -0.1123
 8132SOL     OW35857   2.822   1.148  17.505  0.4588 -0.3881 -0.4043
 8132SOL    HW135858   2.832   1.085  17.577  0.7727 -0.8845 -0.8880
 8132SOL    HW235859   2.909   1.178  17.483  0.9109 -0.0458  1.8204
 8133SOL     OW35860   1.867   3.406   0.440 -0.5232 -0.0132 -0.1688
 8133SOL    HW135861   1.823   3.338   0.492  2.0479  0.4919  2.6838
 8133SOL    HW235862   1.889   3.468   0.509 -0.1012 -0.6662  0.2848
 8134SOL     OW35863   1.590   0.780   5.706 -0.4476 -0.1866 -0.1246
 8134SOL    HW135864   1.684   0.766   5.707 -0.2942  0.8415 -1.0968
 8134SOL    HW235865   1.570   0.731   5.626 -1.7324  0.3508 -0.1353
 8135SOL     OW35866   0.780   4.278   4.948  0.3140 -0.5412 -0.1568
 8135SOL    HW135867   0.727   4.245   5.021  1.2848  2.1361  1.7570
 8135SOL    HW235868   0.783   4.193   4.906  1.0520 -0.1743 -0.8341
 8136SOL     OW35869   1.967   3.639  11.320  0.4018 -0.0893 -0.7126
 8136SOL    HW135870   1.900   3.698  11.355 -0.8489 -0.8720 -1.7517
 8136SOL    HW235871   2.038   3.697  11.292 -1.0762  0.9503 -2.3074
 8137SOL     OW35872   3.712   4.645  16.033  0.3374  0.2106 -0.0133
 8137SOL    HW135873   3.780   4.583  16.009 -0.0424 -0.7224  1.3636
 8137SOL    HW235874   3.764   4.710  16.080  3.0602 -2.5149  0.7311
 8138SOL     OW35875   1.580   2.355   0.495 -0.2379  0.3776  0.0004
 8138SOL    HW135876   1.596   2.429   0.554 -1.3443 -0.6782  1.6255
 8138SOL    HW235877   1.627   2.285   0.540 -0.2323 -0.0543 -0.6937
 8139SOL     OW35878   0.450   2.001  12.051 -0.0966  0.6468  0.8021
 8139SOL    HW135879   0.485   2.070  11.996 -1.1272  0.9679  0.5547
 8139SOL    HW235880   0.433   1.931  11.987 -2.1758  1.1431  0.8078
 8140SOL     OW35881   3.921   0.044  14.025 -0.4951  0.0058 -0.2326
 8140SOL    HW135882   3.868   0.042  14.105 -1.7162 -0.6773 -1.0622
 8140SOL    HW235883   3.915   0.134  13.995  1.0363  0.1204 -0.2081
 8141SOL     OW35884   2.027   1.464   2.654  0.2808 -0.2029  0.3393
 8141SOL    HW135885   2.114   1.498   2.634 -0.3018  0.9734 -0.1980
 8141SOL    HW235886   2.000   1.550   2.689  0.8970 -0.5287  1.6108
 8142SOL     OW35887   1.819   0.670  14.255 -0.1421  0.1556 -0.0772
 8142SOL    HW135888   1.751   0.722  14.298  1.3852 -2.0951  5.1343
 8142SOL    HW235889   1.886   0.682  14.323  0.7830 -0.2014 -0.9306
 8143SOL     OW35890   3.562   2.513  14.299 -0.3099  0.0326 -0.1350
 8143SOL    HW135891   3.519   2.597  14.286  1.5806  0.8198 -1.2416
 8143SOL    HW235892   3.573   2.504  14.394 -1.9796 -0.7744 -0.0150
 8144SOL     OW35893   3.257   1.676  10.451 -0.5392 -0.1009  0.2152
 8144SOL    HW135894   3.215   1.750  10.406  0.0604  1.3661  2.0670
 8144SOL    HW235895   3.222   1.695  10.537  2.0172  1.7320  0.8468
 8145SOL     OW35896   3.522   3.119   8.358 -0.3137 -0.2897  0.1927
 8145SOL    HW135897   3.430   3.133   8.337 -0.1182 -0.2272 -0.6321
 8145SOL    HW235898   3.536   3.041   8.303 -0.0954 -0.4916  0.5386
 8146SOL     OW35899   4.263   3.050   7.229 -0.1147 -0.2031  0.4535
 8146SOL    HW135900   4.261   2.954   7.233  0.4465 -0.2370  0.0124
 8146SOL    HW235901   4.253   3.076   7.320 -1.1520  1.4176 -0.1243
 8147SOL     OW35902   3.924   2.334   1.936 -0.0783 -0.1039  0.0324
 8147SOL    HW135903   4.009   2.290   1.941 -0.3091 -0.4692  0.7126
 8147SOL    HW235904   3.896   2.316   1.846  0.5329  1.9168 -0.5581
 8148SOL     OW35905   4.168   1.172  15.369 -0.2090 -0.2899 -0.3909
 8148SOL    HW135906   4.114   1.212  15.300 -1.5216 -0.8908  0.2901
 8148SOL    HW235907   4.099   1.151  15.432 -0.2161  1.6434  0.2548
 8149SOL     OW35908   4.427   4.201   2.697  0.4807 -0.3691  0.1760
 8149SOL    HW135909   4.518   4.179   2.715  0.2658 -0.0211  1.6997
 8149SOL    HW235910   4.430   4.201   2.602 -1.1642  0.0940  0.1185
 8150SOL     OW35911   1.415   4.244   7.130 -0.1414 -0.3010 -0.0345
 8150SOL    HW135912   1.341   4.238   7.069 -2.5261 -0.9360  2.8989
 8150SOL    HW235913   1.430   4.154   7.160  2.4137 -0.8164 -2.8361
 8151SOL     OW35914   1.224   4.053  11.841 -0.1322 -0.4565 -0.3274
 8151SOL    HW135915   1.145   4.108  11.845  0.7373  0.6894  1.1992
 8151SOL    HW235916   1.212   4.014  11.754 -1.4830 -1.0657  0.1268
 8152SOL     OW35917   2.044   1.935   8.220 -0.2963  0.3468 -0.1227
 8152SOL    HW135918   2.051   2.030   8.222  0.1255  0.3423 -1.9424
 8152SOL    HW235919   2.026   1.909   8.130  0.1128  0.5433 -0.2587
 8153SOL     OW35920   2.630   1.186  10.301 -0.0933  0.1447 -0.5021
 8153SOL    HW135921   2.571   1.261  10.292  0.0287  0.1944 -0.9058
 8153SOL    HW235922   2.570   1.115  10.277 -0.5058  0.4452 -0.3579
 8154SOL     OW35923   3.666   0.459  13.515 -0.5004  0.0133 -0.2794
 8154SOL    HW135924   3.620   0.471  13.432 -1.4306  1.1503  0.3887
 8154SOL    HW235925   3.663   0.365  13.530  1.9870 -0.1253 -0.6835
 8155SOL     OW35926   0.861   3.129  10.763 -0.1812  0.2121  0.0415
 8155SOL    HW135927   0.795   3.131  10.833 -0.4972 -0.3500 -0.2398
 8155SOL    HW235928   0.831   3.063  10.701 -1.7038  1.2037 -0.2608
 8156SOL     OW35929   2.415   2.233   2.619  0.8372 -0.2706 -0.3695
 8156SOL    HW135930   2.461   2.270   2.694  0.5189 -1.2629  0.3055
 8156SOL    HW235931   2.396   2.313   2.570  1.5714 -0.0408 -0.2810
 8157SOL     OW35932   0.471   3.565   7.310 -0.0649 -0.2288  0.3846
 8157SOL    HW135933   0.517   3.646   7.330 -0.3154 -0.0790  0.3509
 8157SOL    HW235934   0.395   3.557   7.368 -0.4940  0.0509 -0.1394
 8158SOL     OW35935   1.804   2.556   8.958  0.2080  0.2714  0.7806
 8158SOL    HW135936   1.849   2.527   9.037 -0.2202  2.0151  1.6443
 8158SOL    HW235937   1.789   2.472   8.914 -0.9971  1.0367 -0.2711
 8159SOL     OW35938   1.527   3.801   6.104 -0.3835 -0.1069  0.1036
 8159SOL    HW135939   1.512   3.851   6.024 -1.1373 -0.0533  0.2857
 8159SOL    HW235940   1.494   3.713   6.083 -1.6153  0.2319  0.6976
 8160SOL     OW35941   2.993   3.979  13.602 -0.1559 -0.4497 -0.2447
 8160SOL    HW135942   2.930   3.972  13.531 -1.0503 -1.2565  0.6086
 8160SOL    HW235943   2.958   3.916  13.666  3.6729 -1.2756  1.0524
 8161SOL     OW35944   4.118   4.299   6.595  0.0510 -0.3390 -0.2352
 8161SOL    HW135945   4.204   4.266   6.621  0.8733  1.7364 -0.3637
 8161SOL    HW235946   4.059   4.290   6.670  0.6854  0.2096  0.3275
 8162SOL     OW35947   4.137   1.032   7.702 -0.2735 -0.0253 -0.1033
 8162SOL    HW135948   4.123   0.997   7.614  0.7190 -1.3957  0.2834
 8162SOL    HW235949   4.110   0.952   7.746  0.6355 -0.9150 -1.1385
 8163SOL     OW35950   2.363   4.633   0.975  0.2760 -0.2309 -0.1313
 8163SOL    HW135951   2.397   4.646   1.064 -2.8657 -0.9714  1.1630
 8163SOL    HW235952   2.322   4.548   0.994  0.2571  0.0813  1.2412
 8164SOL     OW35953   3.139   0.681   8.787  0.7635  0.0420  0.2719
 8164SOL    HW135954   3.047   0.708   8.793  0.0098 -2.4988  0.4146
 8164SOL    HW235955   3.153   0.694   8.881 -1.8785  2.1199  0.3948
 8165SOL     OW35956   3.651   2.522  15.065 -0.1873 -0.0173  0.4323
 8165SOL    HW135957   3.690   2.452  15.013 -1.2167  1.4416 -2.2979
 8165SOL    HW235958   3.604   2.560  14.991 -0.2755 -2.0723 -0.5581
 8166SOL     OW35959   2.735   1.718   6.759 -0.1791  0.5216 -0.0295
 8166SOL    HW135960   2.641   1.710   6.773 -0.1206 -1.2524 -0.6866
 8166SOL    HW235961   2.744   1.640   6.705  1.0293  1.4415 -1.1662
 8167SOL     OW35962   3.766   0.034  17.300  0.2728 -0.1394  0.3201
 8167SOL    HW135963   3.820   4.684  17.282  1.3985  0.8305 -0.4008
 8167SOL    HW235964   3.743   0.016  17.391 -2.6584 -0.1468 -0.4167
 8168SOL     OW35965   0.956   0.069   3.800 -0.6003  0.0335 -0.0897
 8168SOL    HW135966   0.958   4.711   3.845  3.2864 -0.4262 -1.1248
 8168SOL    HW235967   0.962   0.131   3.872  3.5442  0.9602 -1.2478
 8169SOL     OW35968   2.051   4.472   2.016 -0.0032  0.1313  0.6894
 8169SOL    HW135969   1.966   4.465   2.059 -1.5619  2.4391 -1.9804
 8169SOL    HW235970   2.043   4.405   1.948  0.7478 -1.2775  1.9862
 8170SOL     OW35971   1.632   3.687   4.373 -0.2876 -0.1751 -0.2375
 8170SOL    HW135972   1.679   3.767   4.400  0.1368 -0.7988  0.8850
 8170SOL    HW235973   1.604   3.716   4.287 -1.2876 -1.6919 -0.4095
 8171SOL     OW35974   4.229   1.312   9.878 -0.7496 -0.5957 -0.4632
 8171SOL    HW135975   4.315   1.271   9.870  0.1697  1.4658 -1.2212
 8171SOL    HW235976   4.168   1.239   9.872  0.2872 -1.3221 -1.9195
 8172SOL     OW35977   4.188   0.986   3.162  0.1349 -0.0887 -0.6458
 8172SOL    HW135978   4.279   1.016   3.158 -0.1794  0.8867 -0.4961
 8172SOL    HW235979   4.149   1.049   3.101 -2.5168  0.1972  1.3588
 8173SOL     OW35980   2.479   2.155   1.326  0.4677 -0.6006 -0.9338
 8173SOL    HW135981   2.414   2.084   1.318 -0.5345  0.4222 -1.8859
 8173SOL    HW235982   2.559   2.108   1.303  1.0958  0.1747 -0.2915
 8174SOL     OW35983   3.005   3.538   4.614  0.1075 -0.4488  0.8634
 8174SOL    HW135984   2.988   3.632   4.624 -0.3741 -0.1586 -2.8664
 8174SOL    HW235985   3.026   3.538   4.521  1.6312  1.8989  1.2031
 8175SOL     OW35986   0.850   1.468   4.707 -0.2335 -0.0437  0.4149
 8175SOL    HW135987   0.844   1.560   4.681 -2.8725 -1.0716 -2.5722
 8175SOL    HW235988   0.896   1.426   4.634 -2.1588  1.0688 -1.4788
 8176SOL     OW35989   3.508   0.615   5.764 -0.2836 -0.3611 -0.1321
 8176SOL    HW135990   3.591   0.629   5.809  0.1526  1.0994 -1.4071
 8176SOL    HW235991   3.474   0.704   5.770  2.1927  0.5644  0.4087
 8177SOL     OW35992   3.169   4.089  12.648  0.1985 -0.1177 -0.0883
 8177SOL    HW135993   3.248   4.034  12.651  0.1617 -0.1877 -0.3954
 8177SOL    HW235994   3.144   4.070  12.738 -1.2229 -1.3833 -0.7426
 8178SOL     OW35995   4.335   2.863   7.772  0.1050  0.2624  0.5385
 8178SOL    HW135996   4.279   2.839   7.846 -0.6193 -0.3107 -0.1986
 8178SOL    HW235997   4.421   2.826   7.794  0.4112 -0.6156 -2.0449
 8179SOL     OW35998   4.136   3.543   0.143 -0.2394  0.1984  0.2605
 8179SOL    HW135999   4.169   3.519   0.230 -1.6689  0.1910  0.8038
 8179SOL    HW236000   4.173   3.469   0.095 -0.2309 -1.6855  3.1612
 8180SOL     OW36001   0.150   0.328   8.683 -0.1923 -0.1763  1.0351
 8180SOL    HW136002   0.163   0.366   8.596 -0.2905  0.6874  1.4024
 8180SOL    HW236003   0.226   0.362   8.730  1.7431 -1.2053 -1.3064
 8181SOL     OW36004   3.488   2.938   2.206  0.1232  0.3901  1.0376
 8181SOL    HW136005   3.432   2.999   2.254  1.1204  2.2159 -0.1249
 8181SOL    HW236006   3.562   2.999   2.206 -0.2971  0.9244 -2.3281
 8182SOL     OW36007   2.203   3.337   2.666 -0.1977 -0.0800 -0.1648
 8182SOL    HW136008   2.227   3.416   2.618  0.7293 -0.3383 -0.1232
 8182SOL    HW236009   2.183   3.370   2.753 -0.3181 -0.9184  0.1245
 8183SOL     OW36010   2.569   1.734   2.289  0.4154  0.6249  0.3397
 8183SOL    HW136011   2.615   1.651   2.299  2.4473  1.8700  1.2903
 8183SOL    HW236012   2.589   1.779   2.371  0.2799  0.2964  0.5538
 8184SOL     OW36013   0.144   3.915   4.839 -0.3995 -0.0099  0.0023
 8184SOL    HW136014   0.105   3.992   4.879 -0.3552  0.8541 -1.6654
 8184SOL    HW236015   0.238   3.933   4.847 -0.4452 -0.4110  1.4733
 8185SOL     OW36016   4.664   1.364   8.775  0.4183 -0.3841  0.0633
 8185SOL    HW136017   4.693   1.427   8.841 -0.6052 -1.0383  1.1466
 8185SOL    HW236018   4.580   1.335   8.811  0.5249 -2.2313 -1.1690
 8186SOL     OW36019   3.104   2.078   6.414  0.1137  0.0571 -0.3687
 8186SOL    HW136020   3.160   2.152   6.435 -0.7707  0.0415  2.1198
 8186SOL    HW236021   3.122   2.063   6.322 -1.2512 -0.7355 -0.5174
 8187SOL     OW36022   3.084   2.525   6.691  0.4194  0.0396 -0.0710
 8187SOL    HW136023   3.063   2.610   6.730  0.3285  0.4047 -0.9133
 8187SOL    HW236024   3.091   2.469   6.768  0.6953  1.4289  0.9115
 8188SOL     OW36025   1.574   2.124   0.758 -0.0946  0.3432  0.0018
 8188SOL    HW136026   1.667   2.102   0.758  0.0786  1.1031  2.9213
 8188SOL    HW236027   1.565   2.199   0.816  0.7723  2.0301 -2.0481
 8189SOL     OW36028   2.594   2.999   9.968  0.1947 -0.2433  0.0047
 8189SOL    HW136029   2.637   2.920   9.935  0.5162 -0.4432  0.9039
 8189SOL    HW236030   2.595   3.048   9.886  2.7398  0.7343  0.6372
 8190SOL     OW36031   4.608   2.483   5.210  0.1995 -0.2490 -0.8975
 8190SOL    HW136032   4.685   2.428   5.197 -0.3156 -0.5526 -2.7119
 8190SOL    HW236033   4.551   2.413   5.242 -0.7992  1.3772  0.8448
 8191SOL     OW36034   2.627   0.420   3.830  0.1499  0.0754  0.1936
 8191SOL    HW136035   2.538   0.447   3.807  0.9826  0.4097 -2.6558
 8191SOL    HW236036   2.614   0.337   3.876  2.8718 -0.2300  0.3924
 8192SOL     OW36037   1.051   1.888   9.142  0.5608 -0.0687 -0.5483
 8192SOL    HW136038   1.015   1.806   9.177  1.2895 -0.1903 -0.0838
 8192SOL    HW236039   1.104   1.909   9.219 -0.9876 -0.8756  0.7578
 8193SOL     OW36040   1.943   3.005   8.390  0.1456 -0.0025  0.2417
 8193SOL    HW136041   1.911   2.967   8.309  0.3689 -1.9805  1.0656
 8193SOL    HW236042   1.982   3.088   8.365  0.7824 -0.6615 -0.9683
 8194SOL     OW36043   0.673   2.882  14.463 -0.5922 -0.1965  0.0476
 8194SOL    HW136044   0.694   2.967  14.423 -0.2649  1.0159  2.8243
 8194SOL    HW236045   0.724   2.905  14.540 -1.4049 -0.3695  0.6313
 8195SOL     OW36046   0.374   3.577   2.973  0.5378 -0.3433  0.1888
 8195SOL    HW136047   0.430   3.503   2.950  1.9590  0.6952  0.3099
 8195SOL    HW236048   0.357   3.610   2.885  1.3212  1.7489  0.8212
 8196SOL     OW36049   2.545   1.489   3.628 -0.3561  0.1077 -0.3197
 8196SOL    HW136050   2.499   1.475   3.545 -2.8884  1.2836  0.8798
 8196SOL    HW236051   2.496   1.427   3.683  1.9629 -2.0258 -0.6440
 8197SOL     OW36052   2.633   2.278   9.306  0.2076 -0.3815  0.1799
 8197SOL    HW136053   2.594   2.274   9.394  0.1686 -2.5053  0.0680
 8197SOL    HW236054   2.610   2.190   9.277  1.0192  0.3496 -2.6977
 8198SOL     OW36055   0.132   4.382   5.637  0.0126  0.0073  0.2525
 8198SOL    HW136056   0.167   4.466   5.607 -2.6637  1.0363  0.0001
 8198SOL    HW236057   0.054   4.410   5.685  1.0523  1.4731  1.0559
 8199SOL     OW36058   1.970   4.639   1.731  1.1261 -0.5678  0.0912
 8199SOL    HW136059   1.955   4.634   1.825 -0.2068 -3.0714 -0.2383
 8199SOL    HW236060   1.908   4.710   1.717  0.2492 -1.5659 -1.2001
 8200SOL     OW36061   4.396   1.762   8.796 -0.3337 -0.0026  0.0368
 8200SOL    HW136062   4.317   1.797   8.836  0.3973  0.5649  0.9744
 8200SOL    HW236063   4.377   1.800   8.710 -1.0252 -0.0653  0.1643
 8201SOL     OW36064   3.520   2.157   7.812  0.4305 -0.0232  0.4124
 8201SOL    HW136065   3.453   2.127   7.874  0.3044 -0.6760 -0.0388
 8201SOL    HW236066   3.527   2.075   7.763  0.4119  1.3736 -1.8804
 8202SOL     OW36067   2.490   1.934   7.299 -0.3849 -0.5707  0.0325
 8202SOL    HW136068   2.451   1.872   7.238  0.0249 -1.0563  0.2668
 8202SOL    HW236069   2.511   2.009   7.243 -0.2381  1.1586  2.4164
 8203SOL     OW36070   0.823   2.964   2.296 -0.4214  0.3564  0.4962
 8203SOL    HW136071   0.733   2.995   2.298 -0.9082 -0.9553 -1.3202
 8203SOL    HW236072   0.857   2.987   2.383  2.8995  1.5180 -1.1234
 8204SOL     OW36073   3.539   1.376   3.232  0.4583 -0.3253  0.4142
 8204SOL    HW136074   3.552   1.368   3.138  1.3968 -2.0824  0.6917
 8204SOL    HW236075   3.626   1.411   3.255  0.1492  1.0148 -0.4225
 8205SOL     OW36076   4.155   4.291   4.041  0.2768 -0.2068  0.6971
 8205SOL    HW136077   4.182   4.383   4.037  0.6961 -0.3683 -0.2100
 8205SOL    HW236078   4.067   4.292   4.079  0.6158 -1.9916  1.5055
 8206SOL     OW36079   0.114   4.042  17.420  0.5225  0.2491  0.0557
 8206SOL    HW136080   0.049   4.003  17.478 -1.0024  2.6577 -0.0181
 8206SOL    HW236081   0.058   4.093  17.361 -1.9674 -1.3878  1.0313
 8207SOL     OW36082   3.741   3.279   9.836 -0.4702 -0.3694 -0.3183
 8207SOL    HW136083   3.649   3.261   9.816 -0.2715 -1.7634  0.0140
 8207SOL    HW236084   3.748   3.360   9.785  1.1378  0.8003  1.7475
 8208SOL     OW36085   0.906   3.746   4.903 -0.0600  0.8014  0.0962
 8208SOL    HW136086   0.964   3.822   4.910 -0.5170  1.0430  1.2301
 8208SOL    HW236087   0.961   3.675   4.870  0.1468  1.2056 -0.4171
 8209SOL     OW36088   3.335   3.071   6.290 -0.1785 -0.3951  0.0148
 8209SOL    HW136089   3.426   3.053   6.314  0.6194  0.0955 -2.6289
 8209SOL    HW236090   3.342   3.106   6.201  1.1004 -1.3429 -0.2643
 8210SOL     OW36091   0.336   2.166  11.846  0.2715 -0.3298 -0.4866
 8210SOL    HW136092   0.392   2.243  11.833  1.7568 -1.0599  1.5792
 8210SOL    HW236093   0.329   2.132  11.757 -0.1678  1.7786 -1.2658
 8211SOL     OW36094   3.894   1.368  10.246 -0.0318  0.0350  0.3850
 8211SOL    HW136095   3.964   1.342  10.306 -0.7962  0.3162  1.3852
 8211SOL    HW236096   3.824   1.304  10.254  1.0760 -1.2895 -0.4672
 8212SOL     OW36097   3.555   2.290   5.149 -0.7871  0.4434 -0.4267
 8212SOL    HW136098   3.576   2.200   5.127  0.7492  0.8412 -0.5857
 8212SOL    HW236099   3.525   2.329   5.067  0.3308  1.7663 -0.2061
 8213SOL     OW36100   4.501   0.350   0.164 -0.4979  0.2317 -0.2003
 8213SOL    HW136101   4.525   0.312   0.079 -0.2723  2.1498 -1.0096
 8213SOL    HW236102   4.409   0.328   0.174 -0.0358 -0.3324  2.6209
 8214SOL     OW36103   0.827   0.827   2.813 -0.3277 -0.0957  0.0163
 8214SOL    HW136104   0.842   0.806   2.905 -0.3134 -3.1535 -0.6791
 8214SOL    HW236105   0.817   0.740   2.774  0.2400  0.2539 -0.9153
 8215SOL     OW36106   1.758   4.215   1.792  0.2279  0.0272  0.3483
 8215SOL    HW136107   1.694   4.265   1.742  0.5151  0.5173  0.4779
 8215SOL    HW236108   1.840   4.256   1.766  0.9617 -1.5483  0.1668
 8216SOL     OW36109   1.463   3.069   7.569  0.1895  0.1181 -0.0413
 8216SOL    HW136110   1.497   3.027   7.489 -2.2348  0.4416 -1.2403
 8216SOL    HW236111   1.428   2.992   7.614 -0.2904  0.0538 -0.5226
 8217SOL     OW36112   3.671   4.271  15.867 -0.7984 -0.4993 -0.2261
 8217SOL    HW136113   3.723   4.238  15.940 -1.5055 -1.2323 -0.0509
 8217SOL    HW236114   3.743   4.268  15.803 -0.0737 -1.0569  0.6272
 8218SOL     OW36115   0.944   1.712   4.619 -0.0100 -0.2718 -0.0576
 8218SOL    HW136116   1.016   1.775   4.613  0.3699 -0.9269 -2.5459
 8218SOL    HW236117   0.933   1.687   4.527 -0.3101  0.3289 -0.1861
 8219SOL     OW36118   1.043   0.877  13.386 -0.0779  0.7529 -0.1435
 8219SOL    HW136119   1.015   0.855  13.475  0.6842 -1.7400 -0.5279
 8219SOL    HW236120   1.091   0.799  13.359  0.5352  0.9816  0.2574
 8220SOL     OW36121   0.520   4.055  14.027 -0.1033 -0.2674  0.0271
 8220SOL    HW136122   0.583   4.039  14.097  2.1762  0.6267 -1.8087
 8220SOL    HW236123   0.544   3.985  13.966 -2.8447 -1.0842 -0.0953
 8221SOL     OW36124   3.008   0.832   3.655  0.1742 -0.3173 -0.3186
 8221SOL    HW136125   3.020   0.796   3.567  1.4002 -0.4591 -0.0995
 8221SOL    HW236126   3.014   0.927   3.643 -1.1504 -0.0914  0.8333
 8222SOL     OW36127   1.571   2.952   3.484 -0.3178 -0.8223  0.6431
 8222SOL    HW136128   1.666   2.939   3.490 -0.2151 -0.2859  0.2191
 8222SOL    HW236129   1.561   2.942   3.389  0.4520 -0.5913  0.5355
 8223SOL     OW36130   1.675   3.835  11.132 -0.6538  0.1532 -0.3170
 8223SOL    HW136131   1.643   3.867  11.216 -0.4039  0.5965 -0.3917
 8223SOL    HW236132   1.675   3.915  11.080  0.4384  0.4097  0.0703
 8224SOL     OW36133   3.100   4.519  10.793  0.5156 -0.1354 -0.6775
 8224SOL    HW136134   3.079   4.451  10.729  2.2253 -1.0824 -0.2398
 8224SOL    HW236135   3.161   4.576  10.746 -0.3578  0.8686 -0.5710
 8225SOL     OW36136   4.116   1.506  13.261  0.7743  0.1178 -0.7577
 8225SOL    HW136137   4.086   1.423  13.223 -1.5534  1.2698 -1.4386
 8225SOL    HW236138   4.115   1.562  13.183  1.0731 -1.1761 -1.7088
 8226SOL     OW36139   3.636   3.635   9.907  0.7053  0.3850  0.3055
 8226SOL    HW136140   3.582   3.598   9.837 -1.6224  2.0531  1.1963
 8226SOL    HW236141   3.609   3.577   9.978  1.0453  1.5885  1.4229
 8227SOL     OW36142   4.015   0.880  12.459  0.6351 -0.3832 -0.5472
 8227SOL    HW136143   4.105   0.889  12.490  0.6251  0.2279 -0.6921
 8227SOL    HW236144   4.030   0.833  12.377 -4.5486 -3.8829  0.5173
 8228SOL     OW36145   3.983   0.837  11.638 -0.5185 -0.5554  0.3830
 8228SOL    HW136146   3.888   0.833  11.621 -0.0996 -1.9135 -1.7525
 8228SOL    HW236147   3.994   0.930  11.620  3.3097 -1.0812  0.1463
 8229SOL     OW36148   1.717   2.766  17.000 -0.8998 -0.2378 -0.6700
 8229SOL    HW136149   1.631   2.791  16.967 -1.9833  0.0542  2.3303
 8229SOL    HW236150   1.694   2.681  17.038 -2.3675  0.0920 -0.8178
 8230SOL     OW36151   3.134   0.156  11.225  0.0833 -0.7070 -0.3327
 8230SOL    HW136152   3.152   0.162  11.131  0.2512 -0.6448 -0.2955
 8230SOL    HW236153   3.171   0.238  11.257 -0.1200 -1.5187  2.0269
 8231SOL     OW36154   0.675   2.657   3.145 -0.3273 -0.6083  0.5877
 8231SOL    HW136155   0.608   2.725   3.142 -1.0668 -1.4254 -1.2683
 8231SOL    HW236156   0.626   2.579   3.120 -2.4367  0.5416  1.1006
 8232SOL     OW36157   4.047   1.802   1.960 -0.0612 -0.2971  0.9766
 8232SOL    HW136158   3.954   1.793   1.983 -0.5060  1.0334 -0.2675
 8232SOL    HW236159   4.027   1.786   1.868 -0.3715  2.0911  0.6250
 8233SOL     OW36160   3.926   2.495   5.221 -0.1589 -0.5630 -0.3037
 8233SOL    HW136161   3.947   2.583   5.190  0.9725 -0.4281  0.8380
 8233SOL    HW236162   3.837   2.503   5.257  0.3619  2.6291  0.2777
 8234SOL     OW36163   1.659   0.828   4.121 -0.1580 -0.0073 -0.9714
 8234SOL    HW136164   1.662   0.745   4.168  1.0112  0.2929 -0.5236
 8234SOL    HW236165   1.588   0.869   4.171  0.6859 -0.6207  0.7180
 8235SOL     OW36166   1.780   3.004  14.363  0.1183  0.7993  0.5086
 8235SOL    HW136167   1.806   2.940  14.429 -0.2973  0.8305  0.7020
 8235SOL    HW236168   1.770   3.090  14.403  1.9052  1.3363 -0.2092
 8236SOL     OW36169   2.216   4.329   6.809 -0.1409  0.2756  0.4191
 8236SOL    HW136170   2.203   4.385   6.732  0.4825 -0.0895  0.0407
 8236SOL    HW236171   2.210   4.238   6.780 -0.6881  0.4750 -0.0734
 8237SOL     OW36172   2.068   2.947  14.299 -0.3041 -0.1727 -0.9483
 8237SOL    HW136173   1.995   3.007  14.312 -0.6678 -0.8953  0.2437
 8237SOL    HW236174   2.141   2.973  14.355 -0.9280  0.6802 -0.5457
 8238SOL     OW36175   2.533   3.396  13.550 -0.1960 -0.2661  0.1312
 8238SOL    HW136176   2.532   3.328  13.483 -1.3749 -0.7078  0.5866
 8238SOL    HW236177   2.490   3.351  13.624  0.6653  1.1662  1.5106
 8239SOL     OW36178   1.275   1.384   8.588  0.5718 -0.2647  0.5651
 8239SOL    HW136179   1.337   1.384   8.515 -2.1828  2.7758 -1.7608
 8239SOL    HW236180   1.228   1.467   8.577  0.9887 -0.1936 -0.7106
 8240SOL     OW36181   2.019   2.708   1.777 -0.0827 -0.3611 -0.1752
 8240SOL    HW136182   1.950   2.731   1.839  1.2486  1.5791  0.5625
 8240SOL    HW236183   1.990   2.631   1.727 -0.0125 -0.7981  0.4585
 8241SOL     OW36184   1.526   0.157   1.453 -0.7112 -0.9279  0.7960
 8241SOL    HW136185   1.530   0.163   1.357 -1.2491  1.0337  0.8865
 8241SOL    HW236186   1.435   0.188   1.443 -0.9032 -0.8587  2.8475
 8242SOL     OW36187   0.790   2.905   8.271 -0.5899  0.1336 -0.0275
 8242SOL    HW136188   0.774   2.818   8.309  0.2689  0.4358  1.0298
 8242SOL    HW236189   0.808   2.880   8.181 -1.0423  0.1297 -0.1201
 8243SOL     OW36190   2.736   4.096  13.882 -0.2242 -0.0703  0.1353
 8243SOL    HW136191   2.757   4.015  13.835  2.6861  1.6539 -1.5942
 8243SOL    HW236192   2.823   4.135  13.894 -0.3708  0.1493  0.4642
 8244SOL     OW36193   3.265   0.763   0.857  0.2722 -0.2326  0.1080
 8244SOL    HW136194   3.309   0.810   0.785 -1.7551  1.4800 -0.0021
 8244SOL    HW236195   3.323   0.783   0.930  0.2972  1.3428 -0.3342
 8245SOL     OW36196   3.430   0.218   7.627 -0.4424  0.2576 -0.1752
 8245SOL    HW136197   3.510   0.250   7.669 -1.6845  1.6942  1.1151
 8245SOL    HW236198   3.402   0.294   7.575  1.1385 -0.0516 -1.4851
 8246SOL     OW36199   1.259   2.599  14.071  0.2727 -0.1537  0.1346
 8246SOL    HW136200   1.199   2.663  14.107  1.5945  0.4215  1.3178
 8246SOL    HW236201   1.279   2.540  14.144 -1.3071 -0.5809  0.2220
 8247SOL     OW36202   2.121   1.970   3.142 -0.3215  0.3078  0.4467
 8247SOL    HW136203   2.102   1.963   3.048  0.8133  0.5809  0.1978
 8247SOL    HW236204   2.035   1.959   3.182  0.1761 -1.6023  0.9565
 8248SOL     OW36205   2.040   4.318   8.228  0.2091  0.2784  0.7541
 8248SOL    HW136206   2.059   4.235   8.272 -0.1948 -0.2907 -0.1388
 8248SOL    HW236207   2.127   4.357   8.231  0.7153 -0.4506 -3.7641
 8249SOL     OW36208   3.867   2.392  17.660 -0.2495 -0.0149  0.0094
 8249SOL    HW136209   3.922   2.333   0.007  0.7768  0.0007 -1.0542
 8249SOL    HW236210   3.924   2.469  17.661 -1.8447  1.1634 -1.1018
 8250SOL     OW36211   2.287   1.975   4.012 -0.2508 -0.0946 -0.4499
 8250SOL    HW136212   2.339   2.024   3.948 -0.1892 -1.6682 -1.5932
 8250SOL    HW236213   2.342   2.000   4.087  0.2431 -1.1981 -0.4471
 8251SOL     OW36214   4.723   0.529   4.924  0.5142 -0.8525 -0.0275
 8251SOL    HW136215   0.041   0.500   4.844  0.6810 -1.3905  0.2539
 8251SOL    HW236216   0.055   0.592   4.968 -0.6072  1.8171 -2.3578
 8252SOL     OW36217   4.410   1.971   4.703  0.6333  0.1736 -0.2002
 8252SOL    HW136218   4.498   2.000   4.676  1.0865 -1.9759 -0.9816
 8252SOL    HW236219   4.425   1.877   4.708 -0.4526  0.0683  1.0167
 8253SOL     OW36220   0.696   0.272   3.050  0.5669 -0.4389  0.1281
 8253SOL    HW136221   0.631   0.203   3.064  0.0126  0.2851  1.0599
 8253SOL    HW236222   0.775   0.223   3.072  0.1934 -0.3345  1.7222
 8254SOL     OW36223   3.997   4.216   2.217 -0.0819  0.0040  0.3451
 8254SOL    HW136224   3.911   4.241   2.181 -0.3763  0.0673  1.0795
 8254SOL    HW236225   4.034   4.287   2.270  0.8407 -2.2876  2.7458
 8255SOL     OW36226   3.472   1.465   4.851  0.1093  0.5155  0.3472
 8255SOL    HW136227   3.380   1.492   4.851  0.5484  1.9968  0.8314
 8255SOL    HW236228   3.512   1.529   4.792 -0.9718  1.3121  0.4807
 8256SOL     OW36229   3.224   1.173   7.207  0.4655  0.3414 -0.1785
 8256SOL    HW136230   3.269   1.204   7.287 -0.8432 -0.2076  0.7662
 8256SOL    HW236231   3.167   1.245   7.179  0.0479  1.2596  2.9942
 8257SOL     OW36232   0.557   2.715   3.955  0.2783 -0.3227 -0.2040
 8257SOL    HW136233   0.549   2.668   4.037  0.1995 -0.3757 -0.2418
 8257SOL    HW236234   0.542   2.641   3.896  1.3027 -1.3726  0.8704
 8258SOL     OW36235   1.426   4.414   2.963 -0.1498  0.0452 -0.1520
 8258SOL    HW136236   1.380   4.333   2.939 -1.6518  0.6669  0.6225
 8258SOL    HW236237   1.381   4.478   2.908  0.4383  1.4815  1.0402
 8259SOL     OW36238   3.737   2.536   9.110  0.6190 -0.0449  0.5970
 8259SOL    HW136239   3.716   2.533   9.203  3.3286 -0.3885  1.1876
 8259SOL    HW236240   3.831   2.518   9.109  0.5096 -0.5819 -1.6741
 8260SOL     OW36241   3.958   3.402   6.297 -0.4253  0.0008 -0.2313
 8260SOL    HW136242   4.026   3.366   6.355  1.0525 -0.7915 -2.4584
 8260SOL    HW236243   3.967   3.498   6.300  1.9680 -0.1559 -2.0969
 8261SOL     OW36244   3.247   0.032   4.382  0.2091 -0.1300 -0.6522
 8261SOL    HW136245   3.196   0.001   4.307 -1.3416 -1.2979  0.8811
 8261SOL    HW236246   3.197   0.004   4.459 -0.3752  0.3984 -0.8323
 8262SOL     OW36247   1.967   2.211   3.483  0.3269 -0.4748  0.1633
 8262SOL    HW136248   1.976   2.183   3.392  0.7312 -1.8823  0.6290
 8262SOL    HW236249   2.056   2.243   3.491 -0.2013  1.6851 -2.7030
 8263SOL     OW36250   4.356   3.030   2.541 -0.3941  0.5766 -0.0679
 8263SOL    HW136251   4.321   2.942   2.549 -0.5116  0.7667  1.5170
 8263SOL    HW236252   4.377   3.038   2.634 -1.2639 -1.0706  0.2631
 8264SOL     OW36253   0.332   1.975   6.803 -0.4160  0.2238 -0.6006
 8264SOL    HW136254   0.390   1.921   6.856 -1.0575  0.6236  0.5086
 8264SOL    HW236255   0.399   2.005   6.742 -1.4187  2.1767 -0.7458
 8265SOL     OW36256   0.350   2.459  14.456  0.1591 -0.2487 -0.4805
 8265SOL    HW136257   0.387   2.372  14.439 -1.7678 -0.8501 -1.6639
 8265SOL    HW236258   0.421   2.509  14.495 -0.1688 -0.8217  0.8520
 8266SOL     OW36259   1.620   3.827   8.304  0.0125 -0.8432  0.2410
 8266SOL    HW136260   1.714   3.837   8.288  0.2160 -0.1998  1.8166
 8266SOL    HW236261   1.611   3.735   8.328 -1.5196 -1.4394 -2.5746
 8267SOL     OW36262   4.215   1.299   9.377 -0.4389 -0.9014 -0.0757
 8267SOL    HW136263   4.270   1.221   9.372  2.2574  0.9672  0.2749
 8267SOL    HW236264   4.200   1.311   9.471 -0.6258  3.5874 -0.6706
 8268SOL     OW36265   2.085   3.727   0.545 -0.8061 -0.0941 -0.4779
 8268SOL    HW136266   2.007   3.683   0.510  0.3540 -2.3761 -0.1509
 8268SOL    HW236267   2.058   3.762   0.630 -0.6646  0.0344 -0.4871
 8269SOL     OW36268   3.944   2.480   1.316  0.5714 -0.5490  0.3287
 8269SOL    HW136269   3.980   2.411   1.372  0.2508 -0.4705  0.6359
 8269SOL    HW236270   3.874   2.441   1.265  1.7835  0.7268 -2.2766
 8270SOL     OW36271   3.936   1.296   2.575  0.5494  0.1848 -0.0529
 8270SOL    HW136272   3.915   1.297   2.482 -2.1813 -0.1489  0.5579
 8270SOL    HW236273   4.030   1.307   2.562  0.8063 -0.7765  0.9804
 8271SOL     OW36274   2.769   0.316   0.283 -0.0674 -0.5294 -0.0179
 8271SOL    HW136275   2.687   0.301   0.236 -0.4540 -1.0928  0.8320
 8271SOL    HW236276   2.737   0.272   0.362  0.8637 -0.3013  0.4900
 8272SOL     OW36277   1.083   0.701  15.736 -0.4088  0.0611  0.5959
 8272SOL    HW136278   0.993   0.724  15.712 -0.2813  0.3127  0.3681
 8272SOL    HW236279   1.138   0.711  15.659 -1.1832  0.6532  0.1134
 8273SOL     OW36280   3.042   2.158   4.615 -0.0139  0.1838 -0.3103
 8273SOL    HW136281   2.954   2.129   4.641  0.7352 -0.9474  0.9525
 8273SOL    HW236282   3.067   2.093   4.549 -0.5772  1.0999 -1.4385
 8274SOL     OW36283   1.628   1.002  12.027  0.1024 -0.2657 -0.1259
 8274SOL    HW136284   1.580   0.973  11.949  1.0318  1.1538 -1.2313
 8274SOL    HW236285   1.697   0.935  12.026  1.0265  0.6485  4.0997
 8275SOL     OW36286   0.670   2.425   5.397  0.2435  0.4656  0.1616
 8275SOL    HW136287   0.709   2.487   5.336  0.3826 -0.4045 -0.6223
 8275SOL    HW236288   0.648   2.486   5.468  1.8203 -1.1027  2.0101
 8276SOL     OW36289   2.181   4.388  13.062 -0.0253  0.2687  0.1528
 8276SOL    HW136290   2.262   4.337  13.054  0.3114  0.8126  0.0943
 8276SOL    HW236291   2.215   4.470  13.025 -1.2590  1.4706  1.7092
 8277SOL     OW36292   1.506   1.354   3.338  0.0958  0.0245 -1.1355
 8277SOL    HW136293   1.526   1.411   3.413 -1.0447 -1.4101  0.2539
 8277SOL    HW236294   1.513   1.269   3.383 -0.0003  0.8674  0.4913
 8278SOL     OW36295   3.351   4.532   5.081  0.0090 -0.3930  0.3136
 8278SOL    HW136296   3.316   4.621   5.087  0.6840 -0.1096  0.0555
 8278SOL    HW236297   3.326   4.506   5.169  0.0849  0.5279  0.6007
 8279SOL     OW36298   4.715   0.409   2.874 -0.5507  0.0085  0.3346
 8279SOL    HW136299   4.691   0.494   2.910 -0.3245  1.0915 -2.0622
 8279SOL    HW236300   0.056   0.375   2.933 -0.0002  3.3543  1.6321
 8280SOL     OW36301   0.680   0.554   8.230  0.6753 -0.5458 -0.0612
 8280SOL    HW136302   0.660   0.515   8.315  0.6599  0.9919  0.6315
 8280SOL    HW236303   0.625   0.503   8.170 -1.1407  0.6744  0.5895
 8281SOL     OW36304   2.232   0.336   4.367 -0.5145  0.0780  0.3581
 8281SOL    HW136305   2.285   0.354   4.445  1.2097  0.1684 -0.8292
 8281SOL    HW236306   2.271   0.250   4.347 -2.4207 -0.4620 -1.0289
 8282SOL     OW36307   2.235   0.842   7.672  0.7383 -0.4522  0.8088
 8282SOL    HW136308   2.301   0.888   7.621 -0.8633  0.7484 -0.1848
 8282SOL    HW236309   2.171   0.825   7.603  0.7637  1.8867  0.2085
 8283SOL     OW36310   0.743   0.527   4.528 -0.2659 -0.8173  0.3012
 8283SOL    HW136311   0.648   0.537   4.540 -0.3163  0.0602 -0.8569
 8283SOL    HW236312   0.760   0.446   4.479 -1.0090 -0.6349 -0.2755
 8284SOL     OW36313   2.269   1.578  14.871  0.4449 -0.2286  0.1354
 8284SOL    HW136314   2.212   1.652  14.888 -1.3082 -1.8930  1.4705
 8284SOL    HW236315   2.247   1.517  14.941  3.6469 -1.2054  0.3277
 8285SOL     OW36316   3.128   3.465   7.444 -0.1864 -0.0622  0.4087
 8285SOL    HW136317   3.063   3.440   7.379  2.2597  0.9000 -2.3837
 8285SOL    HW236318   3.067   3.511   7.502  2.0662  1.0915  1.8632
 8286SOL     OW36319   2.760   3.409   7.724 -0.0180  0.2400 -0.1865
 8286SOL    HW136320   2.789   3.329   7.681  0.4899  0.1046  0.4083
 8286SOL    HW236321   2.772   3.378   7.813  1.1660  0.1198 -0.3860
 8287SOL     OW36322   0.320   4.605   0.933  0.8686  0.5719 -0.6907
 8287SOL    HW136323   0.353   4.659   0.862  3.2125  0.0910  0.0182
 8287SOL    HW236324   0.241   4.652   0.959  0.7249 -0.7777  1.3979
 8288SOL     OW36325   1.692   0.171   4.208  0.0083 -0.5507  0.2419
 8288SOL    HW136326   1.644   0.205   4.284 -1.9771 -0.8746 -0.8841
 8288SOL    HW236327   1.681   0.247   4.150  0.5894  1.8553  3.2326
 8289SOL     OW36328   3.964   1.412   2.222 -0.6717  0.0986 -0.5734
 8289SOL    HW136329   3.998   1.352   2.155  2.8113  2.0347 -0.4991
 8289SOL    HW236330   4.045   1.458   2.242  1.0377 -3.0767 -0.2366
 8290SOL     OW36331   1.700   3.126  13.662  0.5276  0.3363  0.2530
 8290SOL    HW136332   1.657   3.211  13.660  2.8891  1.4901 -1.0024
 8290SOL    HW236333   1.627   3.065  13.668  0.7182  0.1089  0.2888
 8291SOL     OW36334   0.587   3.832  16.303  0.0100  1.0468 -0.3304
 8291SOL    HW136335   0.642   3.886  16.361  1.1020 -1.5317  1.0369
 8291SOL    HW236336   0.650   3.760  16.291  0.4233  1.2238  0.7578
 8292SOL     OW36337   4.156   2.163   7.699  0.2730  0.3134  0.0814
 8292SOL    HW136338   4.101   2.136   7.625  1.3163  0.7034 -0.8340
 8292SOL    HW236339   4.084   2.167   7.762  0.0723  1.4568 -0.2166
 8293SOL     OW36340   3.152   3.081   7.104 -0.3160  0.0704 -0.5434
 8293SOL    HW136341   3.187   2.994   7.086 -1.5137 -0.5042 -0.0964
 8293SOL    HW236342   3.179   3.087   7.196 -0.5144  0.5553 -0.5193
 8294SOL     OW36343   0.297   1.743   0.050  0.1568 -0.6090  0.2369
 8294SOL    HW136344   0.265   1.735  17.664 -0.1478 -2.5032  0.5291
 8294SOL    HW236345   0.381   1.787   0.035  1.4409 -2.8054  1.1245
 8295SOL     OW36346   3.620   1.122   5.750 -0.1380 -0.0371  0.0963
 8295SOL    HW136347   3.582   1.063   5.685 -1.1203 -2.2479  2.7113
 8295SOL    HW236348   3.638   1.072   5.830 -1.0817 -1.1676 -0.3968
 8296SOL     OW36349   3.335   3.978   8.138  0.1490  0.5046 -0.2518
 8296SOL    HW136350   3.242   3.988   8.121 -0.0048  0.7726  0.7242
 8296SOL    HW236351   3.344   4.025   8.221  1.9229  0.5044 -0.4400
 8297SOL     OW36352   3.854   1.420  16.674 -0.6184 -0.0796 -0.3880
 8297SOL    HW136353   3.926   1.481  16.657 -0.0964 -0.5966 -0.0435
 8297SOL    HW236354   3.896   1.334  16.677  1.3620  0.9110  0.2336
 8298SOL     OW36355   0.914   2.111   2.255 -0.6040 -0.9281 -0.2244
 8298SOL    HW136356   0.973   2.122   2.181 -0.0535 -0.4327  0.2852
 8298SOL    HW236357   0.911   2.194   2.302  1.6230 -1.6186  1.1191
 8299SOL     OW36358   3.996   0.309   4.539  0.9138  0.2807 -0.0849
 8299SOL    HW136359   3.967   0.219   4.553  0.3820  0.0677 -2.5467
 8299SOL    HW236360   3.973   0.317   4.447  1.3590 -0.4473 -0.2563
 8300SOL     OW36361   0.871   4.625  10.263 -0.0602 -0.4462 -0.0938
 8300SOL    HW136362   0.790   4.654  10.222 -0.1098  0.1385  0.4156
 8300SOL    HW236363   0.891   4.694  10.326 -0.7398  0.1409 -0.5294
 8301SOL     OW36364   4.172   2.134   7.242  0.1861  0.6937  0.1592
 8301SOL    HW136365   4.161   2.092   7.328 -0.8657  1.6137  0.4679
 8301SOL    HW236366   4.183   2.054   7.190  0.9901  0.9826 -0.1210
 8302SOL     OW36367   1.312   1.235   2.021  0.6265 -0.0010 -0.3405
 8302SOL    HW136368   1.261   1.212   1.943  0.3335  0.6314 -0.3346
 8302SOL    HW236369   1.384   1.175   2.002  0.9597 -0.5340  2.7411
 8303SOL     OW36370   3.969   3.000   6.497 -0.6478 -0.6714 -0.0091
 8303SOL    HW136371   3.946   2.925   6.441 -0.1712 -0.1094 -0.9499
 8303SOL    HW236372   3.877   3.011   6.518 -0.1628  3.0289  0.0456
 8304SOL     OW36373   4.107   2.297   5.269  0.3873  0.0565 -0.5460
 8304SOL    HW136374   4.039   2.358   5.240 -0.0254  0.1819  0.7008
 8304SOL    HW236375   4.109   2.318   5.362  1.2534 -1.4509 -0.2234
 8305SOL     OW36376   2.249   4.618  12.948  0.5256  0.4744  0.0708
 8305SOL    HW136377   2.291   4.690  12.901  1.1968  0.0306 -0.0066
 8305SOL    HW236378   2.161   4.652  12.969  0.4137  0.9155 -1.1240
 8306SOL     OW36379   0.062   3.748   5.792 -0.0683 -0.7705  0.2828
 8306SOL    HW136380   0.113   3.697   5.855 -2.2110  0.4301  2.9913
 8306SOL    HW236381   0.028   3.814   5.852  0.8168  1.7488 -2.0048
 8307SOL     OW36382   4.603   3.649   9.345 -0.1663 -0.3896  0.3292
 8307SOL    HW136383   4.617   3.579   9.281  0.2778 -0.1101  0.1153
 8307SOL    HW236384   4.578   3.603   9.424 -1.4807  2.3268  1.5147
 8308SOL     OW36385   1.820   3.310   4.953  0.1039 -0.0276  0.1349
 8308SOL    HW136386   1.736   3.341   4.986  0.6411 -0.9373  2.3757
 8308SOL    HW236387   1.874   3.388   4.964  0.4777 -0.2299 -0.2561
 8309SOL     OW36388   0.117   4.092   5.925  0.5987 -0.0042 -0.0167
 8309SOL    HW136389   0.179   4.089   5.853 -0.6611 -1.1724 -1.0456
 8309SOL    HW236390   0.029   4.080   5.890  0.2765  1.8221  0.1529
 8310SOL     OW36391   2.157   1.668  12.921 -0.3707 -0.1161 -0.0096
 8310SOL    HW136392   2.147   1.760  12.944 -0.0636  0.5434 -2.4395
 8310SOL    HW236393   2.172   1.626  13.005  0.8163 -2.8139 -1.5736
 8311SOL     OW36394   2.638   4.035  12.287 -0.6345 -0.0451  0.6332
 8311SOL    HW136395   2.686   3.963  12.327 -1.2408 -1.1292 -0.6115
 8311SOL    HW236396   2.661   4.107  12.346 -0.2959  0.4677 -0.1153
 8312SOL     OW36397   0.677   1.566  12.689 -0.5056 -0.4285 -0.1608
 8312SOL    HW136398   0.729   1.497  12.648 -0.5922  0.0511 -1.0789
 8312SOL    HW236399   0.676   1.629  12.617 -1.6348 -1.2006 -0.8211
 8313SOL     OW36400   0.670   1.976  13.095 -0.0671  0.1160 -0.1591
 8313SOL    HW136401   0.723   2.047  13.132 -0.0592  0.3420 -0.6052
 8313SOL    HW236402   0.591   2.023  13.069  0.7393  1.0710 -0.8940
 8314SOL     OW36403   0.810   2.665  14.747 -0.1742 -0.7885  0.0696
 8314SOL    HW136404   0.736   2.692  14.801  0.8372  0.1564  1.0076
 8314SOL    HW236405   0.791   2.618  14.666 -1.4229  0.6879 -0.4887
 8315SOL     OW36406   0.356   1.297   1.919 -0.2468 -0.3287  0.1553
 8315SOL    HW136407   0.424   1.363   1.917 -0.0980 -0.4000  3.2167
 8315SOL    HW236408   0.408   1.217   1.926  1.2208  0.7707  1.7957
 8316SOL     OW36409   1.804   4.337   6.506 -0.3482  0.2318  0.0157
 8316SOL    HW136410   1.825   4.427   6.479  1.8998 -0.3607 -0.1845
 8316SOL    HW236411   1.756   4.315   6.426  1.5050  2.3795 -1.7007
 8317SOL     OW36412   1.317   1.550  13.534  0.3442 -0.4275  0.0535
 8317SOL    HW136413   1.306   1.644  13.523  0.2783 -0.5059 -0.5697
 8317SOL    HW236414   1.296   1.527  13.443 -0.8816 -1.2952  0.5687
 8318SOL     OW36415   2.813   2.773  11.659  0.2147 -0.0514  0.1205
 8318SOL    HW136416   2.897   2.728  11.673  0.1695 -0.7944 -2.1208
 8318SOL    HW236417   2.816   2.800  11.567 -1.2067 -2.8448 -0.7509
 8319SOL     OW36418   0.391   2.043   3.926 -0.2893 -0.7376 -0.5154
 8319SOL    HW136419   0.315   2.071   3.875 -1.6462 -2.8600  0.3247
 8319SOL    HW236420   0.358   1.957   3.953 -0.9102 -1.5279 -3.8012
 8320SOL     OW36421   0.889   1.655   4.373  0.1081 -0.0300  0.2106
 8320SOL    HW136422   0.821   1.718   4.351 -1.1406 -1.1570  0.8372
 8320SOL    HW236423   0.852   1.570   4.348  1.8260 -0.7479  0.0952
 8321SOL     OW36424   4.045   2.505   4.360 -0.0128 -0.0070 -0.2405
 8321SOL    HW136425   3.957   2.541   4.349  0.4246  1.0018 -0.4541
 8321SOL    HW236426   4.089   2.568   4.303  0.3989  0.2647  0.3803
 8322SOL     OW36427   2.454   3.442   6.716 -0.1079  0.3042  0.2231
 8322SOL    HW136428   2.391   3.409   6.781  0.7993  0.0868  0.9895
 8322SOL    HW236429   2.397   3.474   6.646  1.6332  1.9872 -0.4195
 8323SOL     OW36430   2.299   3.580   3.715 -0.0359  0.0044 -0.1784
 8323SOL    HW136431   2.212   3.614   3.738 -0.2055  0.2149 -1.1270
 8323SOL    HW236432   2.340   3.664   3.697  2.1561 -0.7546  1.3277
 8324SOL     OW36433   3.494   1.900   6.973 -0.2083  0.5946  0.1087
 8324SOL    HW136434   3.535   1.815   6.987 -0.1178  0.8135  1.1854
 8324SOL    HW236435   3.562   1.952   7.016 -0.4712 -0.3210  1.6324
 8325SOL     OW36436   4.111   3.297   5.724  1.0549  0.2063 -0.5925
 8325SOL    HW136437   4.133   3.291   5.631  0.7250 -0.3914 -0.6329
 8325SOL    HW236438   4.156   3.220   5.760 -2.2872 -0.3034  2.5498
 8326SOL     OW36439   0.646   0.989   6.753  0.0007 -0.8574 -0.1405
 8326SOL    HW136440   0.634   0.932   6.677  1.2027 -0.4841 -0.6089
 8326SOL    HW236441   0.717   1.042   6.717 -0.4960  0.2466  0.5307
 8327SOL     OW36442   1.568   3.635   7.503 -0.2405 -0.6270  0.1383
 8327SOL    HW136443   1.518   3.581   7.443  0.7731  0.0055 -1.2691
 8327SOL    HW236444   1.656   3.601   7.488 -0.1361 -0.2422 -0.1166
 8328SOL     OW36445   2.158   3.862   9.639  0.5824  0.0978 -0.2372
 8328SOL    HW136446   2.163   3.782   9.691  0.4354 -0.5100 -1.1548
 8328SOL    HW236447   2.166   3.922   9.713 -0.4347 -2.8720  2.2776
 8329SOL     OW36448   4.077   2.373   6.954 -0.4852 -0.4701  0.4999
 8329SOL    HW136449   4.160   2.385   6.999 -1.2724 -1.3618  2.1790
 8329SOL    HW236450   4.019   2.329   7.016  0.5978 -2.6501 -0.0405
 8330SOL     OW36451   3.937   4.140   4.778 -0.6600 -0.0907 -0.2129
 8330SOL    HW136452   3.868   4.103   4.724 -1.7309  0.2293  0.9465
 8330SOL    HW236453   3.905   4.100   4.858  1.3489  0.5134  0.9064
 8331SOL     OW36454   3.065   1.025  16.667  0.1562 -0.1057 -0.7142
 8331SOL    HW136455   2.998   1.072  16.618 -3.4164 -4.0824  0.3353
 8331SOL    HW236456   3.012   0.999  16.742 -1.3407  1.3359 -1.2782
 8332SOL     OW36457   2.505   1.498  12.342  0.6397  0.0793 -0.3817
 8332SOL    HW136458   2.597   1.502  12.367  1.0257 -2.0700 -1.4449
 8332SOL    HW236459   2.469   1.458  12.422  0.8157  3.0058  1.1642
 8333SOL     OW36460   3.907   1.793   7.033  0.6679 -0.1045  0.1025
 8333SOL    HW136461   3.849   1.867   7.050  1.0687  0.3382 -0.4694
 8333SOL    HW236462   3.991   1.828   7.061  0.5437  0.6873 -0.4960
 8334SOL     OW36463   3.617   2.857   5.797  0.3150 -0.1015  0.3669
 8334SOL    HW136464   3.524   2.836   5.784  0.2144 -0.8368  2.2007
 8334SOL    HW236465   3.656   2.774   5.770 -2.1678 -1.2817  0.3509
 8335SOL     OW36466   0.360   1.795   0.317 -0.2952 -0.0887 -0.8200
 8335SOL    HW136467   0.456   1.792   0.318 -0.3252 -1.1756 -1.1393
 8335SOL    HW236468   0.337   1.769   0.228  0.2959 -1.3485 -0.6164
 8336SOL     OW36469   3.963   3.346   5.924  0.1192  0.1824 -0.3826
 8336SOL    HW136470   4.027   3.338   5.853 -1.8301 -0.4211 -2.0666
 8336SOL    HW236471   4.006   3.295   5.992  0.8408  0.6506 -0.4919
 8337SOL     OW36472   4.622   1.710   6.899 -0.4190 -0.2460  0.3574
 8337SOL    HW136473   4.589   1.773   6.963  0.3492  0.8437 -0.3263
 8337SOL    HW236474   4.712   1.694   6.928 -0.0906  2.4497  0.7396
 8338SOL     OW36475   1.109   3.896   3.875  0.2916  0.2451  0.2630
 8338SOL    HW136476   1.055   3.924   3.802 -0.4816  1.1973  1.2186
 8338SOL    HW236477   1.162   3.824   3.840 -0.5384 -1.6039  2.7681
 8339SOL     OW36478   3.267   3.671   7.687 -0.2089  0.1240 -0.7962
 8339SOL    HW136479   3.362   3.677   7.680 -0.1080  0.3628  0.6305
 8339SOL    HW236480   3.234   3.688   7.599 -0.7810  1.7731 -0.2643
 8340SOL     OW36481   0.236   3.103  11.311  0.0569  0.2244 -0.3410
 8340SOL    HW136482   0.238   3.045  11.387 -0.5201 -2.4175 -2.3288
 8340SOL    HW236483   0.309   3.156  11.343 -0.7420  1.1694 -0.0742
 8341SOL     OW36484   2.985   3.510   9.703  0.4019 -0.8075 -0.4617
 8341SOL    HW136485   3.074   3.481   9.721  1.6164  1.9475 -1.9107
 8341SOL    HW236486   3.003   3.596   9.663  0.6870  0.0902  1.6009
 8342SOL     OW36487   1.501   2.523   4.614 -0.1114  0.2606  1.0936
 8342SOL    HW136488   1.557   2.596   4.588 -1.5993  1.7739  2.1337
 8342SOL    HW236489   1.418   2.569   4.628  0.6660  1.9964 -0.0244
 8343SOL     OW36490   4.335   2.962  12.081 -0.2599  0.9094  0.2771
 8343SOL    HW136491   4.375   3.047  12.098 -2.5310  2.3400 -1.4232
 8343SOL    HW236492   4.339   2.935  12.173 -1.3164  0.3771  0.1700
 8344SOL     OW36493   1.741   3.475  13.452 -0.5877 -0.3336 -0.6317
 8344SOL    HW136494   1.805   3.409  13.425 -0.5328 -1.9113  3.3532
 8344SOL    HW236495   1.779   3.518  13.529 -1.5349  0.9593 -0.8767
 8345SOL     OW36496   4.288   1.014  16.588 -0.2083  0.0782 -0.1487
 8345SOL    HW136497   4.361   1.069  16.614  1.2773 -1.6761 -0.5596
 8345SOL    HW236498   4.310   0.927  16.621 -2.2378 -0.3147  0.2062
 8346SOL     OW36499   0.988   4.498   5.813 -0.1757 -0.3295 -0.2133
 8346SOL    HW136500   1.061   4.443   5.844  1.1449  1.8748  0.5907
 8346SOL    HW236501   1.026   4.576   5.772  1.0346 -1.3477 -1.0480
 8347SOL     OW36502   4.626   3.963  14.825 -0.2964  0.6805 -0.5426
 8347SOL    HW136503   4.691   3.893  14.819 -0.9947  0.1299 -1.4934
 8347SOL    HW236504   4.562   3.932  14.762 -0.5999  1.9575 -0.8521
 8348SOL     OW36505   3.785   0.559   3.051  0.1704 -0.0918 -0.5231
 8348SOL    HW136506   3.727   0.577   2.977 -0.7221 -0.7885  0.0145
 8348SOL    HW236507   3.743   0.488   3.100  2.5037 -1.0855  0.0482
 8349SOL     OW36508   3.451   0.585  14.947 -0.4975  0.4395 -0.3383
 8349SOL    HW136509   3.404   0.607  14.866 -2.0461 -0.0851  0.4081
 8349SOL    HW236510   3.377   0.577  15.008 -0.2449 -3.0515 -0.4602
 8350SOL     OW36511   2.113   1.421   5.827 -0.1623  0.1910  0.1893
 8350SOL    HW136512   2.075   1.493   5.878  0.2111 -0.5802  1.5447
 8350SOL    HW236513   2.045   1.386   5.769 -0.6102  0.9361  0.2684
 8351SOL     OW36514   0.143   0.442   8.425  0.4730  0.9218 -0.2307
 8351SOL    HW136515   0.160   0.536   8.427  0.3707  0.9233  0.5224
 8351SOL    HW236516   0.048   0.447   8.408  0.1940 -0.6731  0.8303
 8352SOL     OW36517   1.460   2.821   4.948  0.6243 -0.3344 -0.4923
 8352SOL    HW136518   1.545   2.804   4.988  0.8759  0.5163 -0.6531
 8352SOL    HW236519   1.442   2.910   4.980  0.2283 -0.9421  0.9701
 8353SOL     OW36520   1.597   4.124   5.330  0.2764 -0.2135  0.0718
 8353SOL    HW136521   1.631   4.171   5.407  1.2685  0.3110 -0.6782
 8353SOL    HW236522   1.631   4.189   5.268  0.5556  0.3155  0.7701
 8354SOL     OW36523   1.040   1.523  13.080 -0.1944 -0.1136 -0.5171
 8354SOL    HW136524   1.053   1.584  13.008 -2.4411 -1.7866 -2.3591
 8354SOL    HW236525   0.945   1.512  13.088 -0.0047 -0.7122  0.7980
 8355SOL     OW36526   3.917   0.047   5.146 -0.0610  0.4325 -0.3702
 8355SOL    HW136527   3.967   4.707   5.096 -0.6251 -0.2580 -0.0149
 8355SOL    HW236528   3.991   0.103   5.168  0.5208 -0.7677  0.7645
 8356SOL     OW36529   0.424   1.663  15.968 -0.0191  0.3014  0.2252
 8356SOL    HW136530   0.445   1.715  15.891 -1.2140  2.1028  1.1232
 8356SOL    HW236531   0.368   1.592  15.937 -0.6167  1.8107 -2.0960
 8357SOL     OW36532   1.537   1.563   7.127 -0.1308  0.1907  0.0067
 8357SOL    HW136533   1.460   1.506   7.122  0.2932 -0.4031  0.2539
 8357SOL    HW236534   1.534   1.607   7.042  0.2222  0.7913  0.3047
 8358SOL     OW36535   4.101   4.124  17.483 -0.0422 -0.0382 -0.3676
 8358SOL    HW136536   4.024   4.069  17.494 -0.3671  1.0156  2.7344
 8358SOL    HW236537   4.172   4.066  17.513 -0.2422  0.7395  1.5922
 8359SOL     OW36538   0.193   1.813   4.497 -0.3089  0.0688  0.5545
 8359SOL    HW136539   0.286   1.791   4.497 -0.8792 -2.3319  1.8140
 8359SOL    HW236540   0.162   1.797   4.586  0.7616  1.8938  1.2681
 8360SOL     OW36541   1.560   0.140   8.061 -0.1841 -0.8072 -0.4508
 8360SOL    HW136542   1.516   0.192   7.994  1.0173  0.1393 -0.4991
 8360SOL    HW236543   1.486   0.104   8.111 -0.4733  0.0461 -0.2528
 8361SOL     OW36544   1.355   1.612   9.567  0.0407  0.7993  0.7408
 8361SOL    HW136545   1.402   1.567   9.496 -1.3947 -1.3661  1.2011
 8361SOL    HW236546   1.386   1.570   9.647 -0.0842  3.1560  2.0265
 8362SOL     OW36547   2.704   0.026   1.878 -0.2337  0.4934  0.1260
 8362SOL    HW136548   2.713   0.007   1.785  0.2414 -0.9687  0.4713
 8362SOL    HW236549   2.708   0.121   1.887  0.3067  0.7092 -2.4888
 8363SOL     OW36550   3.270   4.209  10.889  0.4320 -0.0683 -0.1005
 8363SOL    HW136551   3.346   4.218  10.832 -1.0447  2.2461 -1.6698
 8363SOL    HW236552   3.265   4.117  10.862  2.6644  0.0965 -1.0416
 8364SOL     OW36553   4.086   1.013   6.425  0.0142 -0.0881  0.1169
 8364SOL    HW136554   4.103   1.059   6.343 -0.8796  2.0721  1.1400
 8364SOL    HW236555   4.131   0.933   6.398 -0.1052 -0.6714  1.6565
 8365SOL     OW36556   4.478   2.906   3.927  0.2705  0.4519 -0.1817
 8365SOL    HW136557   4.560   2.947   3.955 -0.2697  0.1370  1.8424
 8365SOL    HW236558   4.484   2.920   3.833 -0.6035  1.8217 -0.0335
 8366SOL     OW36559   0.465   0.327   4.560  0.0175 -0.1628  0.6928
 8366SOL    HW136560   0.468   0.421   4.538  0.3673 -0.1789  0.6648
 8366SOL    HW236561   0.469   0.294   4.470  1.5727 -0.3464  0.8222
 8367SOL     OW36562   0.312   3.381   5.052 -0.0326 -0.5822 -0.6505
 8367SOL    HW136563   0.231   3.340   5.020  1.1792 -2.4543 -1.3446
 8367SOL    HW236564   0.328   3.331   5.132  2.5458  0.8152 -0.2748
 8368SOL     OW36565   1.313   2.915   2.362  0.6709 -0.2057  0.5684
 8368SOL    HW136566   1.408   2.924   2.374  0.4804  0.8510  1.2990
 8368SOL    HW236567   1.306   2.913   2.267 -1.3102  0.9782  0.6840
 8369SOL     OW36568   3.155   4.115   1.728  0.2888  0.4810 -0.6224
 8369SOL    HW136569   3.064   4.087   1.729  0.4085  0.1487  0.7113
 8369SOL    HW236570   3.186   4.073   1.647 -1.7639 -0.1871 -1.0496
 8370SOL     OW36571   0.020   3.822   6.945 -0.1269  0.2164  0.2165
 8370SOL    HW136572   4.679   3.889   6.961 -0.4775 -0.3544  1.1040
 8370SOL    HW236573   0.027   3.784   7.032  0.4591  0.6399  0.3553
 8371SOL     OW36574   2.565   4.166   6.115  1.1218 -0.2941  0.5137
 8371SOL    HW136575   2.638   4.225   6.135  0.5800  0.7053 -0.4507
 8371SOL    HW236576   2.565   4.174   6.020  0.7933  0.2814  0.5611
 8372SOL     OW36577   4.210   2.191   9.761 -0.8556  0.3076 -0.2068
 8372SOL    HW136578   4.219   2.272   9.811 -0.2326  0.0159  0.1506
 8372SOL    HW236579   4.183   2.214   9.672 -0.9433  1.6169  0.1546
 8373SOL     OW36580   4.705   3.923   1.479 -0.3114  0.1059  0.0545
 8373SOL    HW136581   0.042   3.941   1.410 -1.6711 -0.0503 -1.2132
 8373SOL    HW236582   4.689   3.829   1.485  2.4646 -0.3470  0.1694
 8374SOL     OW36583   1.618   4.042   4.992 -0.4657 -0.2448 -0.2951
 8374SOL    HW136584   1.548   4.100   5.025 -1.1990 -0.9495 -0.6270
 8374SOL    HW236585   1.583   3.954   5.008 -0.8086 -0.1377 -0.4501
 8375SOL     OW36586   0.239   3.670  10.533 -0.4278  0.1188  0.7220
 8375SOL    HW136587   0.316   3.624  10.498 -1.0470 -0.3278 -0.0439
 8375SOL    HW236588   0.255   3.764  10.529  0.9588 -0.1612 -0.6287
 8376SOL     OW36589   0.678   1.760   6.038 -0.0661 -0.1304  0.2178
 8376SOL    HW136590   0.589   1.776   6.006 -0.6607 -0.9712  1.4360
 8376SOL    HW236591   0.711   1.685   5.989  1.5019  0.5369  0.2682
 8377SOL     OW36592   3.133   0.264   4.720 -0.1087  0.0458  0.2026
 8377SOL    HW136593   3.080   0.248   4.642 -0.0079 -2.5560  0.6712
 8377SOL    HW236594   3.212   0.302   4.682 -0.9037 -0.1676 -1.6371
 8378SOL     OW36595   1.676   2.324   1.241 -0.2306 -0.6862  0.3601
 8378SOL    HW136596   1.692   2.278   1.324  1.7992 -0.0859  0.3183
 8378SOL    HW236597   1.644   2.408   1.273 -1.6539 -1.2063  0.2790
 8379SOL     OW36598   0.116   2.188   3.612  0.1023 -0.1152  0.4666
 8379SOL    HW136599   0.114   2.281   3.589  1.5519 -0.3600 -0.6774
 8379SOL    HW236600   0.211   2.177   3.608 -0.0108 -1.0759  0.5428
 8380SOL     OW36601   3.995   1.750   8.975  0.2639 -0.1761 -0.0549
 8380SOL    HW136602   4.077   1.798   8.971  0.2756 -0.2523 -0.6722
 8380SOL    HW236603   3.963   1.794   9.054  0.7132  0.5955 -0.3068
 8381SOL     OW36604   4.144   4.563   6.488  0.4308  0.0881  0.0164
 8381SOL    HW136605   4.119   4.506   6.561  0.0296  0.8908  0.5100
 8381SOL    HW236606   4.184   4.505   6.424  0.2359 -2.8942  2.6109
 8382SOL     OW36607   0.507   3.014   5.443 -0.0874 -0.1365  0.2182
 8382SOL    HW136608   0.589   3.027   5.396  0.1165  0.0677  0.6273
 8382SOL    HW236609   0.544   3.011   5.531  0.5298  3.7956  0.0859
 8383SOL     OW36610   0.676   0.078  10.476 -0.6374  0.0199  0.3988
 8383SOL    HW136611   0.633   4.718  10.474 -0.9010  0.1097  2.7648
 8383SOL    HW236612   0.680   0.086  10.571  2.3988  3.1897  0.0038
 8384SOL     OW36613   4.585   0.268   2.372 -0.6947  0.2645  0.3653
 8384SOL    HW136614   4.634   0.296   2.294 -0.3234  1.4793  1.0361
 8384SOL    HW236615   4.536   0.344   2.402  0.4152  1.0378  0.2188
 8385SOL     OW36616   3.614   3.310   3.646 -0.9261 -0.1062  0.0616
 8385SOL    HW136617   3.697   3.312   3.694 -0.3085 -1.3240 -0.9506
 8385SOL    HW236618   3.574   3.224   3.659 -0.5488 -0.3052 -0.0871
 8386SOL     OW36619   0.665   2.204   7.717  0.1283  0.0140  0.9296
 8386SOL    HW136620   0.580   2.211   7.674  0.0199 -0.4299  1.0751
 8386SOL    HW236621   0.664   2.116   7.755  1.3339  1.4716  4.4046
 8387SOL     OW36622   3.757   0.283   7.521  0.5518 -0.3450 -0.5739
 8387SOL    HW136623   3.735   0.348   7.587 -1.2881 -0.7870 -0.7673
 8387SOL    HW236624   3.788   0.335   7.446 -1.2307  1.7053  0.1141
 8388SOL     OW36625   4.703   0.555   9.956 -0.1379  0.3341 -0.1985
 8388SOL    HW136626   0.001   0.583  10.044  1.3354 -0.4109 -0.3665
 8388SOL    HW236627   4.706   0.633   9.902  1.6033 -0.1696 -0.8243
 8389SOL     OW36628   2.455   1.080   7.944 -0.1604 -0.3506 -0.0693
 8389SOL    HW136629   2.377   1.058   7.995 -0.6524 -0.2128 -0.7636
 8389SOL    HW236630   2.425   1.134   7.871  2.2015 -0.5052 -1.1838
 8390SOL     OW36631   4.681   4.515   1.014 -0.2607 -0.0097  0.0774
 8390SOL    HW136632   4.638   4.568   0.946 -0.2112 -2.1012 -1.5711
 8390SOL    HW236633   4.676   4.572   1.091 -1.8340 -0.6010  0.4239
 8391SOL     OW36634   2.719   0.246   8.579 -0.0536 -0.1671  0.2015
 8391SOL    HW136635   2.649   0.312   8.574 -0.5948 -0.7259  0.4184
 8391SOL    HW236636   2.700   0.200   8.660  1.2494 -0.1153  0.5320
 8392SOL     OW36637   0.187   3.101   5.743 -0.0604  0.0641  0.4845
 8392SOL    HW136638   0.128   3.130   5.674 -0.6581 -0.1570  0.9018
 8392SOL    HW236639   0.143   3.023   5.777 -0.4838  0.8093  1.6770
 8393SOL     OW36640   1.590   1.291   7.875 -0.3943  0.0204 -0.1018
 8393SOL    HW136641   1.632   1.318   7.956 -1.5024 -0.5817  0.6689
 8393SOL    HW236642   1.498   1.317   7.884 -0.0953  0.7441  0.7699
 8394SOL     OW36643   3.251   0.508   5.335  0.0728  0.0136  0.1306
 8394SOL    HW136644   3.249   0.482   5.243  0.7776 -0.6672  0.3067
 8394SOL    HW236645   3.272   0.420   5.367 -0.4386  0.0143  0.4682
 8395SOL     OW36646   1.891   2.457   3.616  0.3331  0.3958 -0.4219
 8395SOL    HW136647   1.943   2.380   3.640 -0.1633  0.1711 -0.0635
 8395SOL    HW236648   1.939   2.491   3.540  0.4425  1.2367  0.0295
 8396SOL     OW36649   4.199   3.759   0.575 -0.0418 -0.3110  0.0026
 8396SOL    HW136650   4.114   3.732   0.611 -0.0221 -1.8115 -1.0506
 8396SOL    HW236651   4.212   3.701   0.500  1.6751 -0.0506  0.0956
 8397SOL     OW36652   1.268   1.691  11.690 -0.3351  0.5538  0.4742
 8397SOL    HW136653   1.257   1.786  11.686 -1.7408  0.4099  0.8888
 8397SOL    HW236654   1.241   1.677  11.781  1.0652 -2.0395  0.4792
 8398SOL     OW36655   0.387   4.304  15.640 -0.0316 -0.7643 -0.0092
 8398SOL    HW136656   0.298   4.284  15.609  0.6966 -1.5110 -1.6147
 8398SOL    HW236657   0.425   4.308  15.552 -0.3793 -2.4957 -0.2434
 8399SOL     OW36658   3.875   1.315   1.887  0.1975  0.0399  0.1048
 8399SOL    HW136659   3.933   1.263   1.943 -1.2158 -2.6128 -0.8952
 8399SOL    HW236660   3.794   1.292   1.933 -0.5328 -1.1399 -1.7471
 8400SOL     OW36661   1.941   4.307   4.334  0.0791  0.4249 -0.2962
 8400SOL    HW136662   1.934   4.365   4.259  1.0794  0.5641 -0.2834
 8400SOL    HW236663   1.934   4.373   4.403 -1.4360  0.5911 -0.5959
 8401SOL     OW36664   3.522   1.521   2.161  0.2832 -0.1906 -0.2024
 8401SOL    HW136665   3.468   1.537   2.239  0.1048  1.1907 -0.6080
 8401SOL    HW236666   3.595   1.470   2.195 -0.6832  0.5047  2.9794
 8402SOL     OW36667   3.441   1.357   8.503 -0.2954  0.1256 -0.1513
 8402SOL    HW136668   3.463   1.341   8.412 -0.9544  0.2259 -0.3271
 8402SOL    HW236669   3.356   1.398   8.488 -0.4943 -0.2572 -0.0679
 8403SOL     OW36670   0.775   0.566  13.715 -0.6428 -0.1218 -0.2165
 8403SOL    HW136671   0.802   0.511  13.641 -2.4274  1.3792 -1.9665
 8403SOL    HW236672   0.857   0.616  13.726  0.5008 -1.6190 -1.9957
 8404SOL     OW36673   3.046   1.613  17.648  0.2679  0.0040 -0.2304
 8404SOL    HW136674   2.965   1.562  17.650  0.0851  0.2938 -0.2082
 8404SOL    HW236675   3.057   1.646   0.033 -0.6732 -1.8044  0.5355
 8405SOL     OW36676   2.260   4.066   1.111  0.3390  0.5234 -0.2472
 8405SOL    HW136677   2.298   4.054   1.198  1.5710 -0.7997 -0.9873
 8405SOL    HW236678   2.321   4.125   1.067  2.5436 -1.6187 -0.0671
 8406SOL     OW36679   4.261   3.204  16.602 -0.1581 -0.5898 -0.4336
 8406SOL    HW136680   4.169   3.185  16.623  0.0450  0.2992  1.2017
 8406SOL    HW236681   4.276   3.112  16.580 -1.3505 -0.9550  0.2947
 8407SOL     OW36682   4.660   1.128   3.512  0.3713  0.2296 -0.0324
 8407SOL    HW136683   4.611   1.159   3.436  0.0736  0.5453  0.2907
 8407SOL    HW236684   0.009   1.085   3.471 -1.8196 -3.0765 -0.5580
 8408SOL     OW36685   4.390   1.453   8.844 -0.4608 -0.3804  0.0832
 8408SOL    HW136686   4.318   1.432   8.904 -0.4040 -1.2852 -0.1551
 8408SOL    HW236687   4.396   1.548   8.847 -0.6536 -0.3681  0.0706
 8409SOL     OW36688   4.048   4.403   8.474 -0.2461 -0.0364 -0.0087
 8409SOL    HW136689   4.000   4.394   8.391  0.8300 -1.0195 -0.5211
 8409SOL    HW236690   3.982   4.429   8.538 -0.2713 -1.9069  0.7132
 8410SOL     OW36691   4.665   4.080   3.962 -0.1683 -0.9150  0.7841
 8410SOL    HW136692   0.004   4.086   4.032 -0.3637 -2.7507  1.1176
 8410SOL    HW236693   4.656   4.172   3.936 -1.5351 -0.8597  1.4649
 8411SOL     OW36694   4.294   3.787  15.879  0.0295 -0.0694 -0.2501
 8411SOL    HW136695   4.330   3.797  15.967 -0.9936  0.9503  0.0440
 8411SOL    HW236696   4.302   3.880  15.860  2.6068 -0.5608 -1.6234
 8412SOL     OW36697   1.182   0.588   2.918  0.6633  0.0666 -0.2033
 8412SOL    HW136698   1.162   0.662   2.861  0.2392 -0.4138 -0.6715
 8412SOL    HW236699   1.212   0.521   2.858 -1.3113 -1.6022  0.6675
 8413SOL     OW36700   3.548   0.038   6.748  0.4313 -0.2688  1.0591
 8413SOL    HW136701   3.526   0.118   6.796 -1.0528  0.0892 -0.2180
 8413SOL    HW236702   3.618   0.011   6.807  0.3856  1.1923  1.7769
 8414SOL     OW36703   3.325   0.948  14.778 -0.1987 -0.3153  0.1087
 8414SOL    HW136704   3.323   0.853  14.773 -1.4954 -0.2217 -1.0206
 8414SOL    HW236705   3.310   0.953  14.873  0.7836 -0.7607  0.2850
 8415SOL     OW36706   0.388   4.326   2.648  0.4713  0.4047 -0.8033
 8415SOL    HW136707   0.424   4.238   2.662 -1.5497  0.2524  3.5502
 8415SOL    HW236708   0.381   4.337   2.554  3.0547  2.0464 -0.8261
 8416SOL     OW36709   3.682   4.554   7.139 -0.1845 -0.1499  0.4459
 8416SOL    HW136710   3.630   4.627   7.106  2.2226  0.6459 -1.5732
 8416SOL    HW236711   3.611   4.494   7.163  0.4499 -1.2156 -0.3223
 8417SOL     OW36712   2.716   0.305   7.176  0.1808 -0.0458  0.5301
 8417SOL    HW136713   2.780   0.355   7.227  1.4028 -0.6545 -0.4303
 8417SOL    HW236714   2.766   0.288   7.096  0.4078  0.6206  0.5337
 8418SOL     OW36715   2.468   3.101   3.802  0.0688 -0.1054  0.0264
 8418SOL    HW136716   2.462   3.185   3.755  1.0527  1.3225  2.4731
 8418SOL    HW236717   2.385   3.058   3.780  1.2488 -1.5151 -1.6605
 8419SOL     OW36718   2.672   1.651   3.811  0.0297  0.5309  0.2772
 8419SOL    HW136719   2.619   1.590   3.760  1.4124 -0.8684  0.4850
 8419SOL    HW236720   2.730   1.702   3.755  0.9573 -0.7264  0.0804
 8420SOL     OW36721   2.930   1.862   5.417 -0.1347 -0.3297  0.5569
 8420SOL    HW136722   2.957   1.877   5.508  0.3645  0.3993  0.2862
 8420SOL    HW236723   2.890   1.947   5.400 -1.9307 -0.8192  2.3658
 8421SOL     OW36724   1.456   2.509   6.271  0.3418  0.5959  0.6150
 8421SOL    HW136725   1.413   2.424   6.264 -1.2157  1.3275  1.1662
 8421SOL    HW236726   1.519   2.516   6.199 -0.6952 -1.5444 -0.5077
 8422SOL     OW36727   4.197   2.169  15.769 -0.1099 -0.7292 -0.6221
 8422SOL    HW136728   4.241   2.164  15.685 -1.7292  5.0470 -1.8386
 8422SOL    HW236729   4.211   2.262  15.788  0.4037 -1.0594  0.6338
 8423SOL     OW36730   4.417   4.177  17.442 -0.2801  0.4874  0.2078
 8423SOL    HW136731   4.377   4.099  17.480  2.6151 -0.5604  1.0798
 8423SOL    HW236732   4.437   4.232  17.518 -2.0238 -0.3081  1.2290
 8424SOL     OW36733   2.414   3.064   7.906 -0.1207 -0.6709  0.6009
 8424SOL    HW136734   2.416   3.143   7.853  2.4121 -0.3081  1.2408
 8424SOL    HW236735   2.328   3.062   7.949 -0.8579  1.6654 -0.8031
 8425SOL     OW36736   0.322   4.040   5.052  0.1110 -0.1856  0.0799
 8425SOL    HW136737   0.372   4.025   4.971  0.5506 -0.7766  0.4638
 8425SOL    HW236738   0.372   4.115   5.084 -0.0846  0.6514 -1.5817
 8426SOL     OW36739   4.209   0.466   5.508 -0.2600  0.1217 -0.0415
 8426SOL    HW136740   4.282   0.479   5.568 -1.3458 -1.2978  1.5780
 8426SOL    HW236741   4.213   0.545   5.455  0.9372  0.7103  0.9256
 8427SOL     OW36742   1.959   3.173   2.812 -0.2521  0.3726 -0.4210
 8427SOL    HW136743   2.002   3.096   2.775  2.7786  1.8282  0.0667
 8427SOL    HW236744   1.953   3.225   2.732  0.1449  0.7104 -0.2323
 8428SOL     OW36745   2.562   1.019   5.546  0.0508 -0.4995 -0.1487
 8428SOL    HW136746   2.610   1.064   5.476  3.3756 -1.6112  1.4260
 8428SOL    HW236747   2.577   0.929   5.515 -0.1185 -1.0960  1.5035
 8429SOL     OW36748   4.644   2.613   9.264 -0.1795 -0.0458 -0.2820
 8429SOL    HW136749   4.582   2.624   9.336 -0.0890  0.3360 -0.2655
 8429SOL    HW236750   4.717   2.580   9.316  1.6789  0.6240 -2.4657
 8430SOL     OW36751   3.930   1.092   5.266  0.1145 -0.0214 -0.4396
 8430SOL    HW136752   3.892   1.058   5.347 -2.1223 -1.2974 -2.0348
 8430SOL    HW236753   3.904   1.184   5.271 -0.6129 -0.1949 -1.0656
 8431SOL     OW36754   4.505   4.675   4.895  0.0506 -0.2056  0.0705
 8431SOL    HW136755   4.509   4.670   4.799  0.3801  0.1910  0.0688
 8431SOL    HW236756   4.410   4.666   4.908  0.4366  0.3751  3.2100
 8432SOL     OW36757   1.404   3.871   7.470  0.0397  0.1769  0.1031
 8432SOL    HW136758   1.487   3.825   7.485  0.0499  0.5914  1.2851
 8432SOL    HW236759   1.394   3.836   7.381  1.3280 -1.0774  0.4523
 8433SOL     OW36760   3.392   3.517   9.782  0.3927 -0.1709 -0.6152
 8433SOL    HW136761   3.340   3.491   9.706 -0.2660  0.9898 -0.5484
 8433SOL    HW236762   3.423   3.430   9.809  3.5594  0.7355 -1.2923
 8434SOL     OW36763   0.621   1.942  16.198 -0.3996  0.4358 -0.6868
 8434SOL    HW136764   0.564   1.927  16.122 -2.1377 -1.5304  0.9898
 8434SOL    HW236765   0.648   2.028  16.167 -1.4324  0.8047 -0.5539
 8435SOL     OW36766   2.179   0.267   5.861  0.3111  0.7468 -0.3832
 8435SOL    HW136767   2.250   0.268   5.797  0.8893  1.1314  0.2798
 8435SOL    HW236768   2.168   0.175   5.887  2.3910  0.5996 -0.0480
 8436SOL     OW36769   0.866   2.279   6.575 -0.0525 -0.0941  0.5946
 8436SOL    HW136770   0.792   2.273   6.635  1.3855  1.0662  2.4971
 8436SOL    HW236771   0.929   2.338   6.616  0.3573 -1.7714  2.3384
 8437SOL     OW36772   3.637   0.939   4.934 -0.3102  0.1517  0.3496
 8437SOL    HW136773   3.719   0.890   4.929 -1.2945 -1.7124  2.3505
 8437SOL    HW236774   3.567   0.886   4.897  1.0303 -1.2318 -0.2186
 8438SOL     OW36775   2.233   4.174   3.262  0.5251  0.6543  0.2500
 8438SOL    HW136776   2.201   4.108   3.323  1.4332 -0.6614 -0.6859
 8438SOL    HW236777   2.151   4.213   3.230  0.0210 -0.0416  0.7048
 8439SOL     OW36778   4.094   4.071   3.309 -0.0022 -0.5565  0.3382
 8439SOL    HW136779   4.067   4.067   3.401 -1.0731  1.6900  0.1334
 8439SOL    HW236780   4.014   4.091   3.261 -0.7744 -0.0262  1.8221
 8440SOL     OW36781   3.940   1.908   3.399 -0.6926  0.2232  0.0957
 8440SOL    HW136782   3.976   1.821   3.416  0.2719  0.3275 -1.3271
 8440SOL    HW236783   4.008   1.962   3.440 -0.6502 -0.8787  1.4403
 8441SOL     OW36784   2.211   2.496   2.161 -0.0091 -0.0104 -0.2216
 8441SOL    HW136785   2.133   2.537   2.125 -0.2390 -0.5827 -0.3674
 8441SOL    HW236786   2.209   2.420   2.104  2.1258 -0.6305  0.5085
 8442SOL     OW36787   1.505   1.823  14.614  0.2031  0.6280  0.8935
 8442SOL    HW136788   1.527   1.801  14.523  0.0321 -0.0259  1.0109
 8442SOL    HW236789   1.415   1.848  14.595  0.1304  1.0146  1.7492
 8443SOL     OW36790   2.329   4.395  11.413 -0.1255 -0.3263 -0.3335
 8443SOL    HW136791   2.366   4.396  11.502  0.6363 -1.1849 -0.6404
 8443SOL    HW236792   2.275   4.474  11.412 -0.8543 -0.7945  1.8044
 8444SOL     OW36793   2.988   1.431   7.316  0.1919 -0.6542 -0.4752
 8444SOL    HW136794   3.042   1.414   7.238  0.9422 -0.9925  0.1191
 8444SOL    HW236795   2.901   1.406   7.283  0.1993 -0.7246 -0.4409
 8445SOL     OW36796   0.293   2.317   3.990 -0.2069  0.2626 -0.0494
 8445SOL    HW136797   0.295   2.342   3.898  2.7104 -1.0450 -0.3348
 8445SOL    HW236798   0.227   2.249   3.981  1.0626 -0.8265 -1.0580
 8446SOL     OW36799   1.037   0.498  17.524  0.6968  0.5277  0.2885
 8446SOL    HW136800   1.084   0.535  17.450  1.3788  0.2682  0.5973
 8446SOL    HW236801   0.947   0.518  17.498  0.1117 -0.5636  1.4826
 8447SOL     OW36802   4.197   1.050  11.484  0.7913  0.4099  0.2379
 8447SOL    HW136803   4.158   1.064  11.570  1.8910 -2.0714  1.1088
 8447SOL    HW236804   4.260   0.981  11.505  0.1276 -0.9257 -2.1962
 8448SOL     OW36805   3.333   3.788   9.931 -0.9483 -0.5457 -0.3263
 8448SOL    HW136806   3.390   3.837   9.990 -0.4754 -0.8451 -0.5367
 8448SOL    HW236807   3.386   3.718   9.891 -0.2189  1.2730 -2.5613
 8449SOL     OW36808   2.486   3.798   6.651  0.4563  0.0358  0.1157
 8449SOL    HW136809   2.532   3.830   6.573  2.2729  4.4141  3.0102
 8449SOL    HW236810   2.556   3.789   6.714  0.9647 -1.3912 -0.6544
 8450SOL     OW36811   0.981   0.623  12.097  0.4694 -1.0026  0.2054
 8450SOL    HW136812   0.893   0.617  12.134  0.1544 -0.1190 -0.3908
 8450SOL    HW236813   1.021   0.539  12.121  0.2284 -1.6788 -1.7314
 8451SOL     OW36814   1.011   4.652   4.681  0.0892 -0.3437  0.2692
 8451SOL    HW136815   1.036   4.679   4.770  2.2635 -0.5243 -0.3096
 8451SOL    HW236816   1.097   4.634   4.644  0.9678 -1.8076  2.9585
 8452SOL     OW36817   3.059   3.400   8.125  0.3287  0.2228 -0.3968
 8452SOL    HW136818   3.053   3.305   8.126 -1.1266  0.3068 -0.6965
 8452SOL    HW236819   3.065   3.413   8.031 -0.4728  1.2682 -0.3067
 8453SOL     OW36820   3.608   4.689   0.385 -0.0630 -0.0592  0.4923
 8453SOL    HW136821   3.615   0.014   0.304 -2.3111 -1.3633 -0.5338
 8453SOL    HW236822   3.612   0.040   0.442  0.4116  0.2442  0.0473
 8454SOL     OW36823   1.235   4.502   6.149  0.5948 -0.4256 -0.2492
 8454SOL    HW136824   1.203   4.537   6.232  0.5268 -1.3751  0.1189
 8454SOL    HW236825   1.315   4.555   6.145  1.0050 -1.1569 -1.5536
 8455SOL     OW36826   0.863   2.052   9.402 -0.0021 -0.4238 -0.1398
 8455SOL    HW136827   0.945   2.005   9.419  1.3867  1.5430 -1.3075
 8455SOL    HW236828   0.848   2.025   9.312 -0.4681 -2.7326  0.6431
 8456SOL     OW36829   4.189   4.454   2.333  0.4853  0.2179  0.4769
 8456SOL    HW136830   4.126   4.435   2.403 -0.6765 -1.1766 -0.9560
 8456SOL    HW236831   4.257   4.492   2.389 -0.7591  0.8166  1.5964
 8457SOL     OW36832   2.681   3.612  13.211 -0.3018  0.1435  0.1021
 8457SOL    HW136833   2.675   3.641  13.119 -1.0523 -1.3404 -0.3187
 8457SOL    HW236834   2.775   3.622  13.224 -0.1561  0.5371 -1.1944
 8458SOL     OW36835   2.301   0.256   8.726 -0.0430 -0.0748  0.4394
 8458SOL    HW136836   2.241   0.300   8.785 -0.2447  0.6677 -0.3236
 8458SOL    HW236837   2.313   0.170   8.766 -1.9052 -0.4349  0.2214
 8459SOL     OW36838   3.307   3.340   8.354 -0.2891  0.2504 -0.2819
 8459SOL    HW136839   3.262   3.314   8.435  1.2414  3.5874  1.6143
 8459SOL    HW236840   3.242   3.384   8.300 -0.9035 -0.1829  0.1017
 8460SOL     OW36841   1.085   0.469   6.505 -0.5458  0.2276  0.3254
 8460SOL    HW136842   1.065   0.446   6.414  0.2352  0.3442  0.1263
 8460SOL    HW236843   1.057   0.560   6.496  3.1502  1.2201 -1.5025
 8461SOL     OW36844   0.138   3.644   4.892 -0.5710 -0.5987 -0.2012
 8461SOL    HW136845   0.067   3.580   4.882 -1.2674 -0.0674  1.3677
 8461SOL    HW236846   0.096   3.730   4.891  1.1383  0.2286 -0.0047
 8462SOL     OW36847   4.525   1.171   5.884 -0.0335  1.2248 -0.1639
 8462SOL    HW136848   4.499   1.140   5.797 -0.7664 -1.2612  0.9428
 8462SOL    HW236849   4.526   1.092   5.938 -0.7243  1.5041  0.2514
 8463SOL     OW36850   1.661   1.281   6.519 -0.1984 -0.5331 -0.4846
 8463SOL    HW136851   1.627   1.229   6.592 -1.4139  1.4108  0.3188
 8463SOL    HW236852   1.617   1.232   6.450 -0.4246  0.1845 -0.8446
 8464SOL     OW36853   1.109   2.417  10.103 -0.2287 -0.2768  0.3749
 8464SOL    HW136854   1.102   2.478  10.029  0.8755 -0.8087 -0.1708
 8464SOL    HW236855   1.156   2.340  10.070 -0.3587 -0.0970 -0.2285
 8465SOL     OW36856   3.677   3.498   0.682  0.2471  0.0730  0.1315
 8465SOL    HW136857   3.758   3.498   0.733  0.8953  0.2007 -0.8877
 8465SOL    HW236858   3.660   3.408   0.654 -0.2751  0.3150 -0.3209
 8466SOL     OW36859   1.234   2.884   0.378 -0.0948  0.2847  0.1209
 8466SOL    HW136860   1.256   2.793   0.396 -0.7611 -0.0659 -0.8313
 8466SOL    HW236861   1.305   2.899   0.315 -0.1900  0.7712  0.1273
 8467SOL     OW36862   0.470   2.861   4.212  0.2490  0.0711  0.3165
 8467SOL    HW136863   0.400   2.800   4.237 -1.7925  1.5612 -1.7267
 8467SOL    HW236864   0.545   2.803   4.207 -0.2852 -0.3436 -2.6783
 8468SOL     OW36865   0.562   2.340   5.679 -1.0075 -0.2862  0.3848
 8468SOL    HW136866   0.489   2.355   5.619  0.6971 -0.6989 -1.8005
 8468SOL    HW236867   0.521   2.379   5.756 -0.7621  0.2071  0.2584
 8469SOL     OW36868   0.107   0.195   7.190 -0.1873  0.2719  0.2966
 8469SOL    HW136869   0.032   0.193   7.131  0.1205 -0.7959 -0.0447
 8469SOL    HW236870   0.163   0.252   7.137 -2.0447  1.3395 -0.5419
 8470SOL     OW36871   3.189   0.052   2.815  0.8283 -0.1163 -0.4328
 8470SOL    HW136872   3.261   0.048   2.878  0.8766  0.8535 -0.4283
 8470SOL    HW236873   3.225   0.114   2.750  2.5999 -1.6194 -0.9057
 8471SOL     OW36874   2.270   3.617   9.269 -0.0376 -0.0071  0.7669
 8471SOL    HW136875   2.193   3.671   9.251 -0.9998 -1.8600 -0.6694
 8471SOL    HW236876   2.284   3.621   9.364 -0.2239 -0.7231  0.8219
 8472SOL     OW36877   4.627   1.019   1.561 -0.1310  0.1544 -0.1902
 8472SOL    HW136878   4.698   1.073   1.595  0.1176  0.2970 -0.9401
 8472SOL    HW236879   4.684   0.963   1.507 -0.7409 -2.1786  1.5793
 8473SOL     OW36880   4.399   1.233   0.743  0.1147  0.3044  0.3372
 8473SOL    HW136881   4.364   1.146   0.763 -0.3491 -0.0565 -2.0855
 8473SOL    HW236882   4.412   1.256   0.835  2.0883  1.4526 -0.2330
 8474SOL     OW36883   0.556   0.205   0.711 -0.0032 -0.3746 -0.5184
 8474SOL    HW136884   0.470   0.169   0.690 -0.6165  1.3153 -0.8526
 8474SOL    HW236885   0.537   0.296   0.690  0.5108 -0.1481 -0.0132
 8475SOL     OW36886   1.692   3.294  11.904  0.0383  0.0309 -0.5323
 8475SOL    HW136887   1.625   3.226  11.899 -1.3059  1.3237  0.1155
 8475SOL    HW236888   1.765   3.251  11.859  0.5617  0.1499  0.2151
 8476SOL     OW36889   4.048   0.833   7.859  0.1712  0.3668 -0.3766
 8476SOL    HW136890   3.994   0.785   7.797 -1.1027 -2.1776  2.6943
 8476SOL    HW236891   3.983   0.865   7.922 -0.6703 -0.6455 -0.7278
 8477SOL     OW36892   2.239   2.414   9.607  0.8134 -0.4969  0.1796
 8477SOL    HW136893   2.280   2.432   9.691 -3.3780  1.1545  1.8137
 8477SOL    HW236894   2.144   2.415   9.620  0.5979 -0.2252 -1.3917
 8478SOL     OW36895   4.239   1.949   8.928  0.0013 -0.2153 -0.3833
 8478SOL    HW136896   4.275   1.990   9.007  0.9258  0.7370 -1.3031
 8478SOL    HW236897   4.218   2.030   8.883 -2.5038  0.0399  1.2292
 8479SOL     OW36898   2.255   2.881   4.511 -0.4695 -0.0156 -0.4039
 8479SOL    HW136899   2.287   2.855   4.597  1.3308  1.7336 -0.5588
 8479SOL    HW236900   2.264   2.976   4.515 -0.2034 -0.1399  1.6368
 8480SOL     OW36901   3.675   2.482   5.332  0.4876  0.2145 -0.0641
 8480SOL    HW136902   3.625   2.409   5.296  1.0746 -0.6860  0.9565
 8480SOL    HW236903   3.629   2.562   5.307  0.9910  0.3006 -0.7308
 8481SOL     OW36904   3.138   4.015   5.517 -0.0180  0.0717 -0.1540
 8481SOL    HW136905   3.181   4.099   5.527 -0.8511  0.5112 -0.2773
 8481SOL    HW236906   3.048   4.048   5.517 -0.2913 -0.6813 -2.9643
 8482SOL     OW36907   1.906   3.433   4.456 -0.2942 -0.3535  0.7011
 8482SOL    HW136908   1.845   3.461   4.524  0.6362  0.1701  1.3270
 8482SOL    HW236909   1.984   3.415   4.509 -0.3332  0.6921  1.1126
 8483SOL     OW36910   4.231   0.947   3.489  0.1581 -0.0016 -0.3841
 8483SOL    HW136911   4.218   1.041   3.501 -1.6884 -0.4827  1.5376
 8483SOL    HW236912   4.196   0.918   3.574 -2.6034 -1.1848 -1.9426
 8484SOL     OW36913   4.592   2.014   3.967  0.6899  0.2501  0.7995
 8484SOL    HW136914   4.568   1.924   3.945  2.1821  0.1648 -0.4555
 8484SOL    HW236915   4.577   2.059   3.884  1.4644 -0.6396  0.1867
 8485SOL     OW36916   0.559   3.850   7.623 -0.3635  0.0950  0.2327
 8485SOL    HW136917   0.500   3.907   7.672 -0.2611 -1.0343  1.6802
 8485SOL    HW236918   0.615   3.818   7.694 -1.4797 -1.3669  0.4667
 8486SOL     OW36919   0.810   4.231   1.206 -0.2969 -0.0198 -0.0785
 8486SOL    HW136920   0.815   4.325   1.221  0.4414 -0.4235  2.0775
 8486SOL    HW236921   0.802   4.230   1.110  0.4470  1.8342 -0.1453
 8487SOL     OW36922   4.496   0.132   2.053  0.0833  0.0527 -0.7271
 8487SOL    HW136923   4.439   0.145   2.129 -0.8162  2.1213 -1.7526
 8487SOL    HW236924   4.551   0.207   2.076  0.3497 -0.3748  0.0409
 8488SOL     OW36925   0.710   2.457  13.561 -0.1411 -0.1192  0.5566
 8488SOL    HW136926   0.623   2.431  13.531 -0.7158  1.2164  1.0404
 8488SOL    HW236927   0.681   2.531  13.615 -0.1333  0.0703  0.3036
 8489SOL     OW36928   1.512   1.587  11.571  0.0092  0.3416 -0.2082
 8489SOL    HW136929   1.440   1.616  11.627 -0.4161  1.4449 -1.2985
 8489SOL    HW236930   1.496   1.643  11.494 -0.5833  0.1904 -0.1976
 8490SOL     OW36931   1.737   1.374   4.503  0.6892 -0.2986  0.3362
 8490SOL    HW136932   1.673   1.445   4.494 -0.5288 -1.2314  1.5506
 8490SOL    HW236933   1.696   1.312   4.444 -1.2435 -0.3695  1.7520
 8491SOL     OW36934   4.467   2.241   2.348  0.0118  0.2275 -0.4491
 8491SOL    HW136935   4.465   2.190   2.267 -1.3462  0.1848 -0.3858
 8491SOL    HW236936   4.516   2.318   2.318  0.6509 -0.3387 -0.8557
 8492SOL     OW36937   4.274   2.346   7.125  0.1881  0.0880  0.8015
 8492SOL    HW136938   4.247   2.260   7.157  1.0345 -0.4158  0.1427
 8492SOL    HW236939   4.223   2.412   7.174 -0.9766  0.0092 -0.3053
 8493SOL     OW36940   3.229   2.316   7.570  0.1251 -0.8416 -0.2246
 8493SOL    HW136941   3.217   2.241   7.628  0.2134 -2.3269 -2.1390
 8493SOL    HW236942   3.172   2.374   7.621  0.0867 -3.0830  2.2616
 8494SOL     OW36943   3.471   0.827   1.042 -0.3851 -0.1321 -0.2154
 8494SOL    HW136944   3.456   0.877   1.122  1.6438 -1.2463  0.8679
 8494SOL    HW236945   3.452   0.738   1.074  0.1039  0.0357  0.5298
 8495SOL     OW36946   4.602   0.702   3.602  0.6399  0.3390  0.1020
 8495SOL    HW136947   4.551   0.697   3.521  0.8179 -2.1584  0.1399
 8495SOL    HW236948   4.581   0.784   3.647  1.3817  0.2488  0.6202
 8496SOL     OW36949   2.584   0.111   3.181 -0.2423 -0.8106  0.2413
 8496SOL    HW136950   2.580   0.029   3.231 -0.7831 -1.5723 -1.0466
 8496SOL    HW236951   2.653   0.104   3.116 -0.7534  0.4478 -0.4440
 8497SOL     OW36952   0.329   0.109   6.558 -0.2739 -0.1131  0.1439
 8497SOL    HW136953   0.391   0.113   6.485 -0.9203 -1.4437 -0.4690
 8497SOL    HW236954   0.364   0.035   6.607  2.0650  0.5389 -0.5361
 8498SOL     OW36955   1.664   4.226  15.021 -0.0913  0.2142 -0.0402
 8498SOL    HW136956   1.629   4.170  14.952 -1.6807 -0.4062  1.2628
 8498SOL    HW236957   1.740   4.179  15.055 -0.2657  0.4357  0.6505
 8499SOL     OW36958   2.409   2.174   3.593 -0.1972  0.0800  0.6028
 8499SOL    HW136959   2.331   2.225   3.573 -0.7385 -0.2079  1.9356
 8499SOL    HW236960   2.397   2.108   3.525 -1.5459  1.6397 -0.6601
 8500SOL     OW36961   1.853   1.346   1.760  0.2680 -0.4653  0.3820
 8500SOL    HW136962   1.893   1.272   1.805  0.0036 -0.8130  0.0386
 8500SOL    HW236963   1.908   1.360   1.683  1.3090  1.6566  1.4962
 8501SOL     OW36964   1.428   4.043  12.810 -0.2527  0.1935  0.4275
 8501SOL    HW136965   1.381   4.124  12.827 -1.0818 -0.3040  0.4904
 8501SOL    HW236966   1.428   4.044  12.715 -0.8913  1.7603  0.4552
 8502SOL     OW36967   4.202   1.610   5.663 -0.3028 -0.1865 -0.6180
 8502SOL    HW136968   4.137   1.648   5.605  0.1187  1.5146  0.0233
 8502SOL    HW236969   4.147   1.573   5.732  0.7874 -1.9642 -0.7038
 8503SOL     OW36970   0.995   0.782   7.877 -0.3007  0.2340  0.0071
 8503SOL    HW136971   1.016   0.712   7.938 -0.5155  1.0907  1.0588
 8503SOL    HW236972   0.931   0.824   7.934 -0.6254  1.3813 -1.1996
 8504SOL     OW36973   1.801   0.897   7.474 -0.0702  0.3171 -0.2695
 8504SOL    HW136974   1.758   0.960   7.416 -1.0400 -0.2900 -0.1897
 8504SOL    HW236975   1.723   0.854   7.508 -0.0971  0.9412  0.4616
 8505SOL     OW36976   3.247   4.054   9.250  0.9079  0.4850  0.3371
 8505SOL    HW136977   3.200   4.098   9.321 -1.7942 -0.4421 -0.8757
 8505SOL    HW236978   3.254   3.962   9.276  1.1041  0.0770 -1.1637
 8506SOL     OW36979   4.148   4.529   7.694 -0.1891 -0.1680  0.2539
 8506SOL    HW136980   4.120   4.603   7.747 -2.2911  1.8798 -3.7083
 8506SOL    HW236981   4.232   4.552   7.656 -0.8090  0.3849 -0.7842
 8507SOL     OW36982   0.963   3.912   8.517  0.0326 -0.0709 -0.6430
 8507SOL    HW136983   0.900   3.844   8.491 -0.5201 -0.1254  0.8753
 8507SOL    HW236984   0.932   3.935   8.604 -1.2101 -2.6737 -0.3836
 8508SOL     OW36985   4.616   0.163   3.098 -0.2345 -0.8775  0.4915
 8508SOL    HW136986   4.613   0.085   3.152 -0.5799  0.5123  2.4793
 8508SOL    HW236987   4.524   0.174   3.073 -0.1263  1.7624  1.1770
 8509SOL     OW36988   1.005   2.523  13.741 -0.3701  0.3148 -0.0292
 8509SOL    HW136989   0.981   2.593  13.680 -0.3138 -0.4442 -0.9204
 8509SOL    HW236990   0.926   2.470  13.747 -0.8191  0.8146 -1.3455
 8510SOL     OW36991   0.623   1.916   7.816 -0.6348 -0.3695  0.2364
 8510SOL    HW136992   0.607   1.909   7.910  1.9508  0.3736  0.7110
 8510SOL    HW236993   0.541   1.886   7.776 -0.1688  0.3745 -1.2768
 8511SOL     OW36994   3.919   1.161  10.944 -0.5258  0.6635 -0.1245
 8511SOL    HW136995   3.928   1.180  10.851  0.9984 -3.7737 -0.9193
 8511SOL    HW236996   3.884   1.072  10.934 -3.2731  1.4998  2.0457
 8512SOL     OW36997   4.537   3.758  15.637  0.1732 -0.0556 -0.0804
 8512SOL    HW136998   4.561   3.748  15.545  0.5237 -1.4803  0.1664
 8512SOL    HW236999   4.620   3.738  15.680  0.0136  0.5097  0.4992
 8513SOL     OW37000   1.746   3.204   9.670 -0.1871  0.3354 -0.1234
 8513SOL    HW137001   1.739   3.115   9.636 -1.0991 -0.2135  1.5004
 8513SOL    HW237002   1.672   3.205   9.731  1.3702 -1.6311  1.7671
 8514SOL     OW37003   1.488   3.309   8.030 -0.4223  0.5446 -0.5444
 8514SOL    HW137004   1.512   3.395   7.995 -0.3384  1.0702  0.8247
 8514SOL    HW237005   1.397   3.335   8.019 -1.3303 -1.9105  1.4288
 8515SOL     OW37006   4.028   0.750   4.818  0.1213 -0.4709 -0.4249
 8515SOL    HW137007   4.095   0.683   4.808  2.9669  2.4132 -0.7820
 8515SOL    HW237008   4.065   0.799   4.745  0.1976  0.1005 -0.0032
 8516SOL     OW37009   0.787   2.678   5.315  0.1415 -0.0597  0.0400
 8516SOL    HW137010   0.753   2.677   5.404  1.5341  1.2585  0.5903
 8516SOL    HW237011   0.872   2.639   5.338 -0.3047  1.2066  3.8613
 8517SOL     OW37012   2.183   3.742  16.702  0.5379  0.3695  0.3326
 8517SOL    HW137013   2.102   3.755  16.653 -1.0381 -2.8033  2.0769
 8517SOL    HW237014   2.246   3.716  16.635 -0.0168 -0.3112  0.0786
 8518SOL     OW37015   0.138   1.021   6.225 -0.1470  0.0549  0.2076
 8518SOL    HW137016   0.108   0.957   6.160  2.4681 -1.5208  0.5474
 8518SOL    HW237017   0.125   0.968   6.303 -1.3395 -0.8455 -0.5974
 8519SOL     OW37018   1.647   1.225  10.703  0.5406  0.2251 -0.0791
 8519SOL    HW137019   1.640   1.259  10.614 -2.1613  0.0520  0.0805
 8519SOL    HW237020   1.717   1.163  10.683 -0.7619 -0.5053 -2.2520
 8520SOL     OW37021   2.302   2.653   8.832 -0.5692 -0.1868 -0.2922
 8520SOL    HW137022   2.220   2.615   8.864 -0.6334 -0.1565 -0.4197
 8520SOL    HW237023   2.357   2.576   8.845 -0.8742 -0.4636 -0.6598
 8521SOL     OW37024   1.510   1.844   7.256 -0.4558 -0.1003 -0.6171
 8521SOL    HW137025   1.509   1.760   7.210 -1.2932 -0.5024  0.1373
 8521SOL    HW237026   1.601   1.865   7.236 -0.1427 -1.6455 -0.8046
 8522SOL     OW37027   3.358   0.830   4.173  0.1041 -0.3777 -0.4337
 8522SOL    HW137028   3.287   0.870   4.224 -0.5871 -0.2303 -1.5044
 8522SOL    HW237029   3.327   0.740   4.168 -0.7925 -0.1490  1.1016
 8523SOL     OW37030   0.576   1.560   4.078  0.4930  0.1253  0.5573
 8523SOL    HW137031   0.636   1.509   4.023  0.0433 -0.0909  0.2651
 8523SOL    HW237032   0.605   1.651   4.074  0.5950  0.0375 -0.6884
 8524SOL     OW37033   4.215   2.941   6.863 -0.1519 -0.0333  0.0277
 8524SOL    HW137034   4.309   2.927   6.868 -0.3805 -1.0831  1.4662
 8524SOL    HW237035   4.183   2.887   6.791 -1.8416  1.4791 -0.3757
 8525SOL     OW37036   4.055   0.833   9.994 -0.4831 -0.5945  0.3163
 8525SOL    HW137037   4.105   0.760   9.959  0.1687  0.7760 -1.6548
 8525SOL    HW237038   3.976   0.823   9.941 -0.4974  1.1235  0.0023
 8526SOL     OW37039   2.460   1.351   7.179  0.5837  0.1902 -0.4337
 8526SOL    HW137040   2.467   1.303   7.096  0.3061 -0.6968  0.0664
 8526SOL    HW237041   2.366   1.367   7.180  0.5298 -0.0545 -1.2868
 8527SOL     OW37042   2.224   3.113   8.182 -0.4985  0.7888  0.1636
 8527SOL    HW137043   2.230   3.117   8.277 -2.0800  0.3828  0.2917
 8527SOL    HW237044   2.267   3.194   8.154 -0.6748 -0.2204 -3.0326
 8528SOL     OW37045   3.252   2.699   4.612 -0.6452  0.4758  0.2775
 8528SOL    HW137046   3.205   2.634   4.665 -1.1325  1.2928  0.8438
 8528SOL    HW237047   3.340   2.662   4.598 -1.3482 -0.3278 -1.9621
 8529SOL     OW37048   0.375   0.158   7.435  0.3917 -0.5957  0.5107
 8529SOL    HW137049   0.348   0.213   7.509  0.3232  0.5162 -0.3493
 8529SOL    HW237050   0.461   0.185   7.404 -0.2045  1.1769  0.3771
 8530SOL     OW37051   4.605   4.391   8.022 -0.1464 -0.1180  0.3041
 8530SOL    HW137052   4.544   4.428   7.958 -0.5344 -0.3728  0.5255
 8530SOL    HW237053   4.683   4.393   7.967 -0.1837 -0.8802  0.2290
 8531SOL     OW37054   1.906   0.021   6.922  0.3346 -0.1826  0.1281
 8531SOL    HW137055   1.913   0.102   6.871 -2.6997  1.0099  1.6192
 8531SOL    HW237056   1.985   4.700   6.896 -0.9246 -1.0499 -2.1375
 8532SOL     OW37057   4.189   0.432  14.284  0.6030  0.2982 -0.5935
 8532SOL    HW137058   4.165   0.522  14.305 -1.9630 -0.6762  0.5624
 8532SOL    HW237059   4.201   0.392  14.370  2.1842 -0.8421 -1.3276
 8533SOL     OW37060   4.077   3.685   4.048  0.0099  0.0199 -0.7182
 8533SOL    HW137061   4.060   3.695   4.142 -0.7077  0.9234 -0.9415
 8533SOL    HW237062   4.143   3.754   4.045 -0.3313  0.2796 -2.5905
 8534SOL     OW37063   0.841   2.919  17.326  0.0768  0.4571 -0.6962
 8534SOL    HW137064   0.895   2.841  17.340 -0.0956  0.8100  2.1015
 8534SOL    HW237065   0.809   2.927  17.416 -0.4944  0.2998 -0.8833
 8535SOL     OW37066   2.124   1.782   9.651  0.1283 -0.0391  0.2625
 8535SOL    HW137067   2.151   1.695   9.620  1.1457  0.1175  0.7069
 8535SOL    HW237068   2.091   1.752   9.736  0.1213  2.2826  1.0766
 8536SOL     OW37069   1.972   0.794  11.164  0.0462 -0.1918  0.0288
 8536SOL    HW137070   1.954   0.738  11.089 -0.2634  0.1187 -0.1305
 8536SOL    HW237071   2.067   0.790  11.162 -0.0235 -2.3677  0.9424
 8537SOL     OW37072   0.693   3.265   6.156  0.5405 -0.1297  0.4088
 8537SOL    HW137073   0.707   3.211   6.078 -0.8333 -0.9308  0.7193
 8537SOL    HW237074   0.684   3.194   6.220 -0.3504 -0.9339 -0.6206
 8538SOL     OW37075   0.684   3.556   7.812 -0.3073 -0.1707 -0.4663
 8538SOL    HW137076   0.746   3.503   7.863  0.3808  0.5484 -0.5503
 8538SOL    HW237077   0.739   3.633   7.796 -2.3198  1.2874 -0.2174
 8539SOL     OW37078   0.614   4.161   3.144  0.1462 -0.0345 -0.1326
 8539SOL    HW137079   0.618   4.176   3.050  1.7132  1.4127  0.1645
 8539SOL    HW237080   0.630   4.249   3.180 -0.4624 -0.2892  0.7584
 8540SOL     OW37081   3.790   3.967   9.129 -0.4103 -0.2071 -0.0830
 8540SOL    HW137082   3.732   3.896   9.100  0.4568 -0.4602 -1.1909
 8540SOL    HW237083   3.768   4.042   9.073  0.3709 -1.4339 -2.0244
 8541SOL     OW37084   1.154   0.086   1.138  0.2915  0.3357  0.0417
 8541SOL    HW137085   1.210   0.069   1.214  0.6352  0.8241 -0.0993
 8541SOL    HW237086   1.213   0.075   1.064 -1.4303  1.3049 -1.4930
 8542SOL     OW37087   1.830   3.198   4.106 -0.2101 -0.3491 -0.4693
 8542SOL    HW137088   1.897   3.185   4.039 -1.9527  0.5044 -2.3587
 8542SOL    HW237089   1.875   3.160   4.182 -1.7395  0.4737  0.8491
 8543SOL     OW37090   0.195   4.272   7.676  0.1738 -0.4660 -0.1499
 8543SOL    HW137091   0.218   4.191   7.630 -0.6220 -1.7839  1.8021
 8543SOL    HW237092   0.215   4.338   7.609 -1.0474 -0.3124 -0.3585
 8544SOL     OW37093   4.601   4.257  12.121 -0.1672  0.4499  0.0483
 8544SOL    HW137094   4.522   4.298  12.085 -0.8891 -2.1498 -1.2939
 8544SOL    HW237095   4.588   4.166  12.095  2.3366 -0.0330  0.5269
 8545SOL     OW37096   3.960   3.258  15.630 -0.5957  0.4755  0.4013
 8545SOL    HW137097   3.987   3.347  15.605  0.7260 -0.3902 -1.2745
 8545SOL    HW237098   3.922   3.224  15.549 -0.7100  0.6090  0.3981
 8546SOL     OW37099   3.357   1.715   4.274 -0.2056 -0.1520 -0.2184
 8546SOL    HW137100   3.426   1.710   4.340 -2.1519  1.0411  1.9145
 8546SOL    HW237101   3.361   1.800   4.231 -0.0409 -0.1172 -0.1299
 8547SOL     OW37102   0.119   4.633   2.180 -0.3192 -0.6660  0.6233
 8547SOL    HW137103   0.175   4.604   2.251 -0.0042 -0.6887  0.3657
 8547SOL    HW237104   0.188   4.641   2.114 -0.8060 -2.3804 -0.1007
 8548SOL     OW37105   2.274   1.423   8.430 -0.1679  0.4088 -0.2942
 8548SOL    HW137106   2.185   1.445   8.404 -0.7207 -0.4430  0.8514
 8548SOL    HW237107   2.295   1.336   8.396 -0.4539  1.1387 -2.3236
 8549SOL     OW37108   1.306   2.247   6.241  0.1515 -0.3938 -0.0794
 8549SOL    HW137109   1.256   2.319   6.279  0.2870 -0.4300  0.1670
 8549SOL    HW237110   1.239   2.180   6.226  1.1505 -1.1432 -1.2724
 8550SOL     OW37111   1.358   3.566  17.413 -0.7620  0.3142 -0.4416
 8550SOL    HW137112   1.298   3.607  17.475 -0.6556 -1.9473  1.1587
 8550SOL    HW237113   1.371   3.631  17.344 -1.4331 -1.0935 -1.8982
 8551SOL     OW37114   1.955   0.227   8.258  0.4646  0.4979  0.3714
 8551SOL    HW137115   1.888   0.189   8.315  0.7712 -0.5519  0.0222
 8551SOL    HW237116   1.986   0.146   8.217  0.8782  1.0200 -0.3476
 8552SOL     OW37117   3.956   0.322  14.077 -0.2154 -0.2443  0.2616
 8552SOL    HW137118   3.924   0.303  14.165 -0.6102  2.3158  0.6696
 8552SOL    HW237119   4.035   0.371  14.101 -0.0035 -0.3118 -0.2895
 8553SOL     OW37120   2.787   0.500   0.094 -0.6272  0.7471 -0.2553
 8553SOL    HW137121   2.811   0.434   0.159  0.0460  0.9131 -0.3335
 8553SOL    HW237122   2.726   0.450   0.040 -0.4948  0.7907 -0.4440
 8554SOL     OW37123   2.264   4.634   7.635 -0.3144  0.0437 -0.4829
 8554SOL    HW137124   2.232   4.555   7.679 -1.6271  1.7991  1.7065
 8554SOL    HW237125   2.186   4.689   7.639  0.6268  1.3583 -0.2016
 8555SOL     OW37126   4.141   1.511   8.958  0.1814  0.1376  0.6427
 8555SOL    HW137127   4.088   1.590   8.971  0.2221  0.1780  0.5625
 8555SOL    HW237128   4.077   1.449   8.922 -2.6648  1.1647  3.9464
 8556SOL     OW37129   0.577   3.908   8.302 -0.1856 -0.1965 -0.0325
 8556SOL    HW137130   0.582   3.819   8.337 -2.4757 -0.5903 -0.7218
 8556SOL    HW237131   0.653   3.912   8.243  0.5931 -0.2203  0.9678
 8557SOL     OW37132   2.747   1.792   6.126 -0.1231  0.5076  0.0105
 8557SOL    HW137133   2.719   1.797   6.035 -0.6445  0.6395  0.1783
 8557SOL    HW237134   2.665   1.770   6.171  1.5975  1.5586  3.6591
 8558SOL     OW37135   2.326   4.153   5.378  0.0066 -0.0642  0.5022
 8558SOL    HW137136   2.274   4.221   5.336 -1.6176 -2.2314 -0.9570
 8558SOL    HW237137   2.317   4.081   5.316  2.6380 -0.7275  0.9054
 8559SOL     OW37138   4.417   4.665  16.922  0.1167 -0.0524  0.4709
 8559SOL    HW137139   4.493   4.665  16.864 -0.6569 -2.7397 -0.5932
 8559SOL    HW237140   4.398   0.032  16.936  0.6554 -0.1184  1.5873
 8560SOL     OW37141   1.030   0.348   6.256 -0.5732  0.0428  0.3879
 8560SOL    HW137142   1.098   0.404   6.218  0.7404  0.4286  3.3346
 8560SOL    HW237143   1.047   0.262   6.217  1.2571  0.6549 -0.1759
 8561SOL     OW37144   3.577   4.011   1.864 -0.2672  0.1522 -0.1004
 8561SOL    HW137145   3.563   4.044   1.775  0.8186  2.0144  0.4153
 8561SOL    HW237146   3.505   3.948   1.869 -0.9997  0.9735 -0.1403
 8562SOL     OW37147   1.254   2.416  11.389 -0.6471 -0.0143 -0.4363
 8562SOL    HW137148   1.202   2.488  11.424  1.8543  1.8855 -0.6801
 8562SOL    HW237149   1.193   2.367  11.333 -0.8834  1.1876 -1.2225
 8563SOL     OW37150   2.947   4.631   5.080  0.2017 -0.0425  0.9487
 8563SOL    HW137151   2.945   4.701   5.145  1.5906  0.2646  0.6670
 8563SOL    HW237152   2.965   4.682   5.001 -0.8739 -0.5351  0.3858
 8564SOL     OW37153   3.028   1.503   8.185 -0.3761  0.7587 -0.1651
 8564SOL    HW137154   3.008   1.411   8.201  1.6312  0.5178  0.9081
 8564SOL    HW237155   2.991   1.545   8.263 -2.7051 -3.6549  1.0825
 8565SOL     OW37156   0.634   1.372   7.982 -0.6330  0.4553 -0.3227
 8565SOL    HW137157   0.684   1.433   8.036  0.2732 -0.0014 -0.6448
 8565SOL    HW237158   0.688   1.360   7.903  0.4546 -0.2070  0.5175
 8566SOL     OW37159   4.206   3.204   6.998 -0.4403 -0.3920  0.2909
 8566SOL    HW137160   4.212   3.169   7.086 -0.5117  0.6879  0.7237
 8566SOL    HW237161   4.206   3.125   6.943 -0.6565  0.0192 -0.2973
 8567SOL     OW37162   4.292   0.069   4.544 -0.3053 -0.4778 -0.1888
 8567SOL    HW137163   4.216   0.029   4.586 -1.0187  1.5446  0.4595
 8567SOL    HW237164   4.321   0.141   4.600  0.7220  0.9190 -2.4766
 8568SOL     OW37165   4.687   2.567   4.592  0.1490 -0.5176 -0.4492
 8568SOL    HW137166   0.038   2.623   4.599  0.5138 -0.9527 -1.0408
 8568SOL    HW237167   4.625   2.627   4.550  0.3390 -1.2932 -1.8062
 8569SOL     OW37168   0.183   0.441   4.749 -0.2905 -0.0070 -0.6182
 8569SOL    HW137169   0.278   0.439   4.755 -0.2070 -0.8694 -2.1375
 8569SOL    HW237170   0.168   0.372   4.684 -1.9097 -1.1184  0.9108
 8570SOL     OW37171   0.025   1.264   6.755  0.3192  0.2950  0.2784
 8570SOL    HW137172   0.008   1.353   6.723  2.1516 -0.4107 -2.7388
 8570SOL    HW237173   0.082   1.234   6.684  3.0648  2.3461  1.5995
 8571SOL     OW37174   3.565   3.463   8.421  0.6161 -1.1576 -0.4538
 8571SOL    HW137175   3.626   3.408   8.373  0.1924 -3.4448  1.6617
 8571SOL    HW237176   3.478   3.427   8.404  0.4358  0.4447 -2.9974
 8572SOL     OW37177   3.773   1.162   4.988 -0.0349  0.2503 -0.0429
 8572SOL    HW137178   3.839   1.161   4.918  1.9646 -1.3493  1.8763
 8572SOL    HW237179   3.726   1.079   4.981 -1.4127  1.0886 -0.6671
 8573SOL     OW37180   4.355   0.110   8.862  0.5620 -0.0289  0.1235
 8573SOL    HW137181   4.307   0.185   8.827 -0.5780 -0.1172  1.4777
 8573SOL    HW237182   4.385   0.150   8.944  1.9470 -0.3295 -0.2353
 8574SOL     OW37183   1.033   4.717   7.157 -0.4399  0.3628 -0.1676
 8574SOL    HW137184   1.118   0.008   7.117  0.2010 -0.1055  0.9715
 8574SOL    HW237185   0.975   0.004   7.082  0.5352 -0.5355 -1.0704
 8575SOL     OW37186   3.329   2.154   5.049 -0.0671  0.4576  0.4534
 8575SOL    HW137187   3.264   2.131   4.983 -0.3377 -3.2921  1.9944
 8575SOL    HW237188   3.410   2.175   5.004 -0.1526 -0.3780 -0.0787
 8576SOL     OW37189   0.580   1.222   4.345 -0.1045  0.1559  0.1038
 8576SOL    HW137190   0.545   1.157   4.285 -1.2138 -0.6997  1.6571
 8576SOL    HW237191   0.642   1.268   4.289  0.3239 -0.1770  0.2988
 8577SOL     OW37192   3.478   3.506   2.836 -0.5396  0.2022  0.5996
 8577SOL    HW137193   3.465   3.568   2.908  0.2295 -0.7722  1.5651
 8577SOL    HW237194   3.573   3.493   2.836 -0.4080  1.1345 -0.8063
 8578SOL     OW37195   4.133   0.439   8.430 -0.1876  0.2307  0.4071
 8578SOL    HW137196   4.121   0.360   8.377 -2.4444 -0.2581  1.6724
 8578SOL    HW237197   4.224   0.452   8.401  0.2688 -0.9143  1.3207
 8579SOL     OW37198   3.506   3.111   0.287  0.4028 -0.4789 -0.2363
 8579SOL    HW137199   3.525   3.189   0.235  2.2998 -1.4177 -0.9217
 8579SOL    HW237200   3.505   3.045   0.218  0.1097  0.8742 -1.5237
 8580SOL     OW37201   2.047   0.514   3.805  0.0180  0.1572  0.2804
 8580SOL    HW137202   2.036   0.441   3.744  1.4302  0.4721 -0.3580
 8580SOL    HW237203   1.978   0.517   3.870  0.1012  0.8641  0.3407
 8581SOL     OW37204   0.317   0.956  12.648 -0.4408 -0.5100 -0.4994
 8581SOL    HW137205   0.384   0.995  12.591 -0.5901  0.5577  0.0505
 8581SOL    HW237206   0.323   0.865  12.621 -0.3092 -0.7485  0.3649
 8582SOL     OW37207   0.832   1.310   5.206 -0.2607  0.4374 -0.5279
 8582SOL    HW137208   0.922   1.282   5.191 -0.2466  0.6527 -0.8363
 8582SOL    HW237209   0.831   1.378   5.139  1.9419  0.2998 -0.6967
 8583SOL     OW37210   2.734   1.890   7.397  0.0312  0.0882 -0.5983
 8583SOL    HW137211   2.731   1.799   7.427  0.6606 -0.5671 -2.5084
 8583SOL    HW237212   2.643   1.898   7.369  0.0377 -0.0095 -0.6489
 8584SOL     OW37213   4.013   0.896   5.635  0.2007  0.5903  0.2298
 8584SOL    HW137214   3.932   0.907   5.587  0.1972  3.3686  0.9113
 8584SOL    HW237215   4.000   0.807   5.668  0.6660  0.2348 -0.5381
 8585SOL     OW37216   4.048   2.308   3.310 -0.3981 -0.0114 -0.0741
 8585SOL    HW137217   4.084   2.337   3.226  0.1554 -2.2867 -0.6379
 8585SOL    HW237218   3.990   2.241   3.274 -1.5122  0.9465 -0.0705
 8586SOL     OW37219   0.244   4.242   8.468  0.3894 -0.2152 -0.3794
 8586SOL    HW137220   0.216   4.310   8.406  1.2672  1.5054  1.1123
 8586SOL    HW237221   0.189   4.252   8.546  0.4771 -0.8953 -0.2371
 8587SOL     OW37222   0.635   0.554   6.555  0.4130 -0.0321 -0.0955
 8587SOL    HW137223   0.655   0.538   6.463 -1.9844 -0.9928 -0.4537
 8587SOL    HW237224   0.555   0.501   6.555  0.1870  0.3150  1.4603
 8588SOL     OW37225   2.381   0.791  12.063  0.0705  0.4409  0.1673
 8588SOL    HW137226   2.319   0.735  12.016  1.7235  0.4740 -2.0354
 8588SOL    HW237227   2.322   0.840  12.120  0.2187  1.1671 -0.3015
 8589SOL     OW37228   0.171   0.395   7.694 -0.2153  0.0797  0.1042
 8589SOL    HW137229   0.235   0.328   7.718 -2.0901 -1.2606  1.3709
 8589SOL    HW237230   0.135   0.354   7.615 -1.9889  2.8951 -0.5435
 8590SOL     OW37231   0.194   1.624   6.942  0.0994  0.2457  0.0707
 8590SOL    HW137232   0.233   1.545   6.980  2.2907  1.6670  0.7942
 8590SOL    HW237233   0.178   1.587   6.855  0.2242 -2.0002  0.9927
 8591SOL     OW37234   2.359   2.706   4.241  0.2286  0.3807 -0.5930
 8591SOL    HW137235   2.400   2.790   4.221 -3.7565  1.8975 -2.4763
 8591SOL    HW237236   2.269   2.739   4.249 -0.5483 -1.1727 -2.8108
 8592SOL     OW37237   1.966   4.047   5.554 -0.0539  0.1073 -0.7924
 8592SOL    HW137238   1.974   4.066   5.460  0.6601  0.6103 -0.6270
 8592SOL    HW237239   2.026   4.109   5.595  1.0374 -0.0698 -2.0965
 8593SOL     OW37240   2.740   0.881  14.919 -0.2826  0.5939 -0.1484
 8593SOL    HW137241   2.717   0.796  14.957 -1.9751  0.8066 -0.7189
 8593SOL    HW237242   2.824   0.860  14.877 -0.1974 -2.1702  1.4039
 8594SOL     OW37243   3.727   1.257   6.907  0.0566 -0.1894 -0.3127
 8594SOL    HW137244   3.683   1.275   6.824  1.2724 -0.5435 -1.0410
 8594SOL    HW237245   3.816   1.237   6.876  0.0716 -0.9358  0.2211
 8595SOL     OW37246   3.200   4.685  16.845  0.1483 -0.3341  0.1925
 8595SOL    HW137247   3.127   4.686  16.784  0.0920 -0.8164  0.2526
 8595SOL    HW237248   3.262   0.009  16.792  0.3895 -1.5506 -0.6880
 8596SOL     OW37249   2.269   3.046   1.565  0.4613  0.2520  0.0145
 8596SOL    HW137250   2.284   3.049   1.470  1.6347  1.6121  0.2391
 8596SOL    HW237251   2.182   3.008   1.554 -0.3176  2.0220  0.0803
 8597SOL     OW37252   1.418   0.353   4.197 -0.0704 -0.1076  0.0033
 8597SOL    HW137253   1.473   0.362   4.119  0.0334  2.1078  0.3144
 8597SOL    HW237254   1.440   0.427   4.253  0.8589  0.1404 -0.6923
 8598SOL     OW37255   2.651   1.548   9.015  0.6135 -0.5130 -0.1533
 8598SOL    HW137256   2.612   1.506   8.939 -0.5055 -0.0561  0.1835
 8598SOL    HW237257   2.722   1.484   9.030 -0.2002 -0.8201  2.3963
 8599SOL     OW37258   3.303   0.122  15.079 -0.7205  0.2613  0.0091
 8599SOL    HW137259   3.312   0.116  14.984  2.2000 -1.7355  0.4034
 8599SOL    HW237260   3.359   0.200  15.086  0.7958 -0.9697  1.6016
 8600SOL     OW37261   2.933   0.514  10.693 -0.8239  0.4725 -0.0079
 8600SOL    HW137262   3.007   0.536  10.749 -0.3956  2.1234 -1.2152
 8600SOL    HW237263   2.959   0.552  10.609 -0.0029 -0.3872 -0.1418
 8601SOL     OW37264   2.375   0.229   4.828  0.1252 -0.6210  0.1412
 8601SOL    HW137265   2.280   0.227   4.842  0.0059 -0.5741 -0.6145
 8601SOL    HW237266   2.402   0.139   4.847 -0.2516 -0.0989  3.0416
 8602SOL     OW37267   0.086   0.840   2.392  0.4190 -0.3263  0.0829
 8602SOL    HW137268   0.139   0.904   2.344  2.0200 -2.3709 -0.8269
 8602SOL    HW237269   0.070   0.885   2.476 -0.5622 -0.7098  0.0991
 8603SOL     OW37270   1.435   4.384   6.397 -0.0168  0.0182  0.1617
 8603SOL    HW137271   1.418   4.289   6.402 -0.1473  0.2458  4.0361
 8603SOL    HW237272   1.490   4.372   6.320  0.9131  0.3253  0.7917
 8604SOL     OW37273   4.182   1.245   1.198 -0.5335  0.4565 -0.2596
 8604SOL    HW137274   4.186   1.337   1.172 -1.1582  0.7089  0.5086
 8604SOL    HW237275   4.231   1.263   1.279 -0.2684  1.7054 -0.6904
 8605SOL     OW37276   0.801   4.245   4.415 -0.3563  0.3853 -0.2740
 8605SOL    HW137277   0.832   4.222   4.327 -1.5250  1.3701 -0.9422
 8605SOL    HW237278   0.813   4.164   4.464  0.3322  2.2052  2.5682
 8606SOL     OW37279   1.547   1.890  16.620  0.2994 -0.0487  0.6285
 8606SOL    HW137280   1.607   1.889  16.546  0.0679  1.7444  0.4009
 8606SOL    HW237281   1.463   1.929  16.597  0.0082 -0.7936  0.4443
 8607SOL     OW37282   0.776   0.120  12.610 -0.3917  0.0266  0.0927
 8607SOL    HW137283   0.700   0.122  12.669 -0.3090 -3.0721  0.3151
 8607SOL    HW237284   0.831   0.175  12.666 -0.5444  1.0149 -0.7238
 8608SOL     OW37285   1.130   2.525   6.261  0.1951  0.3929 -0.0676
 8608SOL    HW137286   1.136   2.611   6.304  3.4752  0.3731 -0.5293
 8608SOL    HW237287   1.094   2.545   6.175 -0.2128  0.2601  0.0707
 8609SOL     OW37288   2.078   3.528   9.667 -0.4539 -0.4164 -0.4282
 8609SOL    HW137289   2.117   3.542   9.754  2.2891  0.2127 -1.7522
 8609SOL    HW237290   2.069   3.432   9.668 -0.6368 -0.3937  0.2365
 8610SOL     OW37291   1.574   3.084   4.448  0.7658  0.1830 -0.0870
 8610SOL    HW137292   1.518   3.038   4.385 -0.9721 -0.4167  1.9104
 8610SOL    HW237293   1.602   3.160   4.396 -0.3120  1.4227  1.1317
 8611SOL     OW37294   3.269   1.455  10.693  0.2029 -0.2170  0.8081
 8611SOL    HW137295   3.231   1.543  10.699 -0.9992 -0.6545 -0.4969
 8611SOL    HW237296   3.197   1.401  10.660 -0.6482  1.9141 -0.7905
 8612SOL     OW37297   2.199   3.617   2.878  0.2746  0.0692  0.1129
 8612SOL    HW137298   2.292   3.612   2.901 -0.2678 -0.5728  2.1294
 8612SOL    HW237299   2.151   3.551   2.928 -1.4551  0.7053 -0.6942
 8613SOL     OW37300   1.531   0.589   7.713  0.5803  0.1451 -0.2104
 8613SOL    HW137301   1.604   0.650   7.712 -0.9652  1.9542 -1.3477
 8613SOL    HW237302   1.549   0.557   7.802  0.2452 -0.7710 -0.4683
 8614SOL     OW37303   0.541   1.094   2.768 -0.3242  0.2850 -0.0979
 8614SOL    HW137304   0.462   1.136   2.733 -1.1772 -2.7580 -1.8584
 8614SOL    HW237305   0.613   1.154   2.754  0.3725  0.0348  2.4352
 8615SOL     OW37306   3.328   0.043   6.442  0.3527  0.4304  0.1861
 8615SOL    HW137307   3.356   4.677   6.442 -3.0963 -0.6196  1.5499
 8615SOL    HW237308   3.410   0.092   6.453  2.0477 -2.0784 -1.3447
 8616SOL     OW37309   4.311   4.291  11.407  0.3200 -0.0339 -0.7084
 8616SOL    HW137310   4.361   4.357  11.455  1.6287 -0.5585 -1.3179
 8616SOL    HW237311   4.336   4.211  11.452  1.0140 -0.1081 -1.2067
 8617SOL     OW37312   4.612   3.029   8.045 -0.0016 -0.2123 -0.0444
 8617SOL    HW137313   4.562   3.108   8.024  0.7676  0.6998  1.5245
 8617SOL    HW237314   4.699   3.048   8.008  0.6049 -1.9821  0.4719
 8618SOL     OW37315   0.494   2.324  17.590  0.5963 -0.2727  0.4133
 8618SOL    HW137316   0.584   2.345  17.618 -0.2562  4.0949 -0.1865
 8618SOL    HW237317   0.448   2.354  17.668  0.1057 -1.2341  0.4880
 8619SOL     OW37318   2.093   1.363   4.988  0.4324 -0.1022  0.3125
 8619SOL    HW137319   2.127   1.352   5.077  0.3339  1.0203  0.4882
 8619SOL    HW237320   2.140   1.293   4.943 -3.4958 -0.8282 -2.6307
 8620SOL     OW37321   1.754   3.473   8.592 -0.4803 -0.4821  0.3035
 8620SOL    HW137322   1.739   3.443   8.503  1.6842 -2.9868  0.7822
 8620SOL    HW237323   1.681   3.426   8.633 -0.8747 -0.5485 -0.4801
 8621SOL     OW37324   2.776   2.033   6.569 -0.4876  0.1522 -0.1614
 8621SOL    HW137325   2.702   2.058   6.624 -1.5406 -2.0052 -0.5869
 8621SOL    HW237326   2.768   1.943   6.537 -1.5431  0.7168 -1.5226
 8622SOL     OW37327   3.379   1.883   7.540  0.0018 -0.2935  0.5668
 8622SOL    HW137328   3.369   1.812   7.477 -1.0095  0.0424  0.3533
 8622SOL    HW237329   3.466   1.920   7.521  0.7789 -2.8510 -0.7949
 8623SOL     OW37330   4.558   3.129   6.209  0.0610 -0.5889 -0.2460
 8623SOL    HW137331   4.644   3.132   6.168 -0.7590 -0.4420 -1.9426
 8623SOL    HW237332   4.521   3.212   6.181 -0.6738 -1.2642 -1.2845
 8624SOL     OW37333   0.569   3.645   9.029 -0.1454 -0.3144 -0.2151
 8624SOL    HW137334   0.501   3.581   9.007  0.0639 -0.9333  0.8942
 8624SOL    HW237335   0.517   3.705   9.083  0.4365  0.0824 -0.1051
 8625SOL     OW37336   3.301   0.072   7.820 -0.2061 -0.6509 -0.5405
 8625SOL    HW137337   3.298   0.147   7.761  0.3300 -1.1107 -1.1590
 8625SOL    HW237338   3.394   0.061   7.837 -0.7392 -1.8237  1.6595
 8626SOL     OW37339   1.947   2.585   7.569  0.0477  0.2903 -0.4231
 8626SOL    HW137340   1.991   2.593   7.485 -0.0717 -0.1730 -0.5298
 8626SOL    HW237341   2.016   2.559   7.630  0.7833 -1.6053 -2.0788
 8627SOL     OW37342   2.562   3.954   7.007  0.1586  0.0112 -0.4195
 8627SOL    HW137343   2.549   3.880   7.066 -3.2231  0.5480 -0.4780
 8627SOL    HW237344   2.638   3.932   6.954  0.8868  0.3883  0.4743
 8628SOL     OW37345   1.099   1.752   9.588 -0.1078  0.9677  0.3422
 8628SOL    HW137346   1.145   1.827   9.551  1.8464 -1.2493 -1.7119
 8628SOL    HW237347   1.175   1.695   9.594 -1.0016 -0.2061  0.6648
 8629SOL     OW37348   2.177   1.212   9.585 -0.8340  0.1831  0.6997
 8629SOL    HW137349   2.270   1.206   9.561 -0.8942  1.8010  0.1322
 8629SOL    HW237350   2.183   1.166   9.669  1.7974  0.4710  0.6847
 8630SOL     OW37351   0.631   4.610   8.485 -0.1463 -0.1962  0.6582
 8630SOL    HW137352   0.609   4.535   8.539  1.7090 -1.3840 -0.2542
 8630SOL    HW237353   0.720   4.630   8.512 -0.3030  0.3683  0.7673
 8631SOL     OW37354   0.680   0.103  11.129  0.5862  0.1248  0.3903
 8631SOL    HW137355   0.723   0.064  11.205  0.0530 -2.8378 -0.8019
 8631SOL    HW237356   0.752   0.124  11.070 -0.6413 -0.0948 -1.2117
 8632SOL     OW37357   0.920   1.667  14.623 -0.0462  0.7145  0.3662
 8632SOL    HW137358   0.849   1.678  14.686 -0.3646  0.2611  0.0845
 8632SOL    HW237359   0.866   1.629  14.553  1.3886  0.0402 -0.3606
 8633SOL     OW37360   3.623   4.448  12.187 -0.5709 -0.5256 -0.3485
 8633SOL    HW137361   3.578   4.437  12.271  0.0654 -1.7805 -0.1701
 8633SOL    HW237362   3.713   4.469  12.212 -1.4370  2.9014 -0.0249
 8634SOL     OW37363   4.701   4.126  11.768  0.7470  0.0294 -0.0743
 8634SOL    HW137364   4.726   4.217  11.785  0.6263  0.0184  0.1641
 8634SOL    HW237365   4.672   4.097  11.855 -0.7235  0.0660 -0.5601
 8635SOL     OW37366   3.800   3.425   9.087 -0.1214  0.0362  0.3374
 8635SOL    HW137367   3.856   3.349   9.103 -1.6218 -1.1481 -0.1218
 8635SOL    HW237368   3.716   3.384   9.069  0.0961 -0.3276  0.1517
 8636SOL     OW37369   0.672   3.927   9.808  0.3559  0.4917  0.4271
 8636SOL    HW137370   0.642   4.017   9.792 -0.0805  0.1393 -0.7013
 8636SOL    HW237371   0.597   3.891   9.855  1.1951  1.0192  2.1683
 8637SOL     OW37372   0.982   1.381  12.812  0.7023 -0.2996 -0.7144
 8637SOL    HW137373   1.022   1.379  12.900  0.1112  2.9823 -0.3627
 8637SOL    HW237374   0.971   1.476  12.811 -0.1968 -0.3706  1.1542
 8638SOL     OW37375   0.672   1.501  12.211  0.2774  0.6182 -0.2138
 8638SOL    HW137376   0.728   1.426  12.232  1.3991  1.7698  0.8816
 8638SOL    HW237377   0.708   1.523  12.125  2.2451  2.6331  1.1574
 8639SOL     OW37378   0.579   3.338   9.538  0.2751 -0.3413 -0.1661
 8639SOL    HW137379   0.572   3.283   9.616  0.8900 -1.3289 -0.8075
 8639SOL    HW237380   0.618   3.280   9.473 -0.5027 -1.4286  0.3316
 8640SOL     OW37381   1.846   4.209  14.080  0.5447  0.1999  0.4988
 8640SOL    HW137382   1.789   4.244  14.011 -0.0721 -0.6421  0.5742
 8640SOL    HW237383   1.935   4.235  14.058  1.3752 -1.0239  2.4421
 8641SOL     OW37384   3.970   3.582   8.925 -0.2379 -0.3288  0.5076
 8641SOL    HW137385   3.923   3.505   8.958  0.2384 -1.0454 -0.4628
 8641SOL    HW237386   4.035   3.591   8.996  3.0918 -0.5816 -2.4944
 8642SOL     OW37387   2.880   1.333  12.656  0.5926 -0.0577 -0.4358
 8642SOL    HW137388   2.822   1.396  12.698 -1.1815 -1.5686 -0.6106
 8642SOL    HW237389   2.964   1.379  12.656 -0.2456  1.4761 -2.7517
 8643SOL     OW37390   3.435   1.760   7.276  0.1442  0.0692  0.0805
 8643SOL    HW137391   3.497   1.715   7.219 -2.3734 -1.1659 -1.7137
 8643SOL    HW237392   3.463   1.849   7.256  0.8087  0.7054  3.8207
 8644SOL     OW37393   3.370   0.356  15.315 -0.2828 -0.2144  0.1573
 8644SOL    HW137394   3.421   0.348  15.234 -1.8879 -0.0642 -0.8754
 8644SOL    HW237395   3.403   0.284  15.368 -0.4767 -0.0238  0.5337
 8645SOL     OW37396   1.043   1.678  11.508  0.2577  0.2849  0.0432
 8645SOL    HW137397   1.127   1.663  11.550 -0.4144 -3.5076  0.0279
 8645SOL    HW237398   1.032   1.617  11.435  1.6710  2.2048 -1.7434
 8646SOL     OW37399   2.787   1.722   7.827  0.0685  0.0901 -0.4412
 8646SOL    HW137400   2.734   1.774   7.887 -0.0852 -0.3854 -0.1609
 8646SOL    HW237401   2.867   1.713   7.879  0.7876 -0.0444 -1.5723
 8647SOL     OW37402   3.431   1.506   4.094  0.3559  0.5750 -0.4232
 8647SOL    HW137403   3.412   1.587   4.141  1.0702  0.1322  0.6511
 8647SOL    HW237404   3.385   1.529   4.014 -0.3483 -1.4807 -0.6070
 8648SOL     OW37405   3.595   0.534   2.784  0.2374  0.0305  0.5184
 8648SOL    HW137406   3.599   0.438   2.789 -4.3657 -0.1412  0.7587
 8648SOL    HW237407   3.504   0.547   2.812  0.1219 -0.0717  0.1813
 8649SOL     OW37408   2.136   2.935  13.426 -0.1869  0.3063  0.0378
 8649SOL    HW137409   2.151   3.009  13.366  1.1328 -0.9016 -1.1425
 8649SOL    HW237410   2.047   2.954  13.453 -0.1621  1.9971 -1.0338
 8650SOL     OW37411   3.591   1.530   1.171 -0.6043 -0.9256 -0.2964
 8650SOL    HW137412   3.642   1.449   1.180  2.1383  1.0065  1.5783
 8650SOL    HW237413   3.519   1.527   1.233  0.7679  0.1517  1.3314
 8651SOL     OW37414   0.918   0.251   3.552  0.4130 -0.5524 -0.9646
 8651SOL    HW137415   0.907   0.301   3.471  0.0776 -0.8189 -1.0843
 8651SOL    HW237416   0.942   0.318   3.616  1.0928 -1.8978  0.1693
 8652SOL     OW37417   2.271   0.773  16.052  0.4398  0.1739 -0.3584
 8652SOL    HW137418   2.311   0.860  16.052  1.4038 -0.2706 -1.8778
 8652SOL    HW237419   2.242   0.765  16.143  0.7847 -2.4897 -0.4678
 8653SOL     OW37420   2.535   0.704   9.187  0.3855 -0.4588  0.0461
 8653SOL    HW137421   2.622   0.673   9.161  0.1366 -0.4634 -0.7677
 8653SOL    HW237422   2.514   0.619   9.226 -0.1707 -0.5166 -0.3850
 8654SOL     OW37423   3.898   0.672   8.419 -0.0002  0.3481 -0.2501
 8654SOL    HW137424   3.974   0.652   8.473 -0.9407  1.6723  1.5448
 8654SOL    HW237425   3.939   0.733   8.357  1.8040 -0.7251 -0.1233
 8655SOL     OW37426   2.008   3.881   3.475 -0.0860  0.2139 -0.2552
 8655SOL    HW137427   1.972   3.900   3.389 -1.0353  2.5920  0.6704
 8655SOL    HW237428   2.092   3.846   3.446  0.6388  1.3726  0.4346
 8656SOL     OW37429   0.471   0.507   5.863 -0.1426  0.3698 -0.3750
 8656SOL    HW137430   0.457   0.476   5.773 -1.0970  1.5465 -0.6302
 8656SOL    HW237431   0.519   0.587   5.840 -0.7400  0.0533 -2.7630
 8657SOL     OW37432   2.107   4.321   4.955 -0.1278  0.9341  0.0231
 8657SOL    HW137433   2.119   4.226   4.964 -3.0155  0.5239 -0.6133
 8657SOL    HW237434   2.180   4.354   4.903 -1.4071 -0.4714 -2.6755
 8658SOL     OW37435   0.248   0.096   8.057 -0.6768 -0.5198  0.0023
 8658SOL    HW137436   0.330   0.098   8.107 -0.6107 -1.1368 -0.0809
 8658SOL    HW237437   0.209   0.180   8.080 -1.2780 -0.9018  0.3668
 8659SOL     OW37438   2.532   4.657   8.164  0.1707  0.8975  0.1671
 8659SOL    HW137439   2.549   4.671   8.257  1.7474  0.0814 -0.0070
 8659SOL    HW237440   2.563   0.016   8.132  0.6737  1.1298  1.2721
 8660SOL     OW37441   0.008   0.009   4.460 -0.6625 -0.0228 -0.1246
 8660SOL    HW137442   0.018   4.639   4.465  0.8247  0.1833  0.5834
 8660SOL    HW237443   4.665   0.019   4.393  0.3627  1.8116 -0.8935
 8661SOL     OW37444   1.067   4.631   4.971  0.2591  0.0740 -1.0282
 8661SOL    HW137445   1.033   4.570   5.037  0.3771  0.5274 -0.5488
 8661SOL    HW237446   1.147   4.592   4.936  0.9199  0.0218  0.5391
 8662SOL     OW37447   1.890   1.433   7.539 -0.6134  0.4713  0.6704
 8662SOL    HW137448   1.972   1.390   7.512 -1.7200 -0.3007 -1.4566
 8662SOL    HW237449   1.831   1.359   7.542 -1.4792  1.1222 -0.3563
 8663SOL     OW37450   1.135   4.476  11.622 -0.2360  0.2141  0.1574
 8663SOL    HW137451   1.142   4.426  11.540  2.4459  0.6233  0.1352
 8663SOL    HW237452   1.158   4.408  11.686 -1.4641  0.0130  0.3837
 8664SOL     OW37453   0.653   3.290   8.140 -0.3737 -0.9621 -1.0943
 8664SOL    HW137454   0.671   3.334   8.057 -4.0569  1.2530 -0.7426
 8664SOL    HW237455   0.557   3.289   8.141 -0.3444 -2.1902  1.1578
 8665SOL     OW37456   1.066   2.650   8.155  0.4725  0.0940 -0.0123
 8665SOL    HW137457   0.972   2.636   8.167  0.1488  3.1327  0.9227
 8665SOL    HW237458   1.097   2.660   8.245  1.0672  0.0073 -0.2074
 8666SOL     OW37459   2.792   2.498   8.075 -0.5846  0.4942  0.0673
 8666SOL    HW137460   2.845   2.423   8.105  0.1562  1.1633  0.4205
 8666SOL    HW237461   2.758   2.529   8.158 -0.3537  2.2802 -0.5127
 8667SOL     OW37462   1.823   3.504   7.255 -0.4356  0.1533  0.2484
 8667SOL    HW137463   1.850   3.497   7.164  0.3957 -2.2602  0.6763
 8667SOL    HW237464   1.908   3.477   7.291 -0.2505 -0.3193 -0.5656
 8668SOL     OW37465   0.487   2.839   3.471  0.3144  0.4481 -0.0186
 8668SOL    HW137466   0.486   2.869   3.380 -0.0769  2.7113  0.7438
 8668SOL    HW237467   0.580   2.820   3.483  0.7100  1.6523 -1.1299
 8669SOL     OW37468   2.488   2.433   1.327 -0.0441 -0.2868 -0.1822
 8669SOL    HW137469   2.554   2.432   1.258  1.1031  1.5183  0.8882
 8669SOL    HW237470   2.460   2.341   1.322  0.3700 -0.4023 -0.3813
 8670SOL     OW37471   4.416   3.757   9.175  0.4249  0.1403  0.1601
 8670SOL    HW137472   4.380   3.744   9.263 -3.6404  1.3347 -1.3120
 8670SOL    HW237473   4.507   3.729   9.185 -0.1909 -1.0815  2.2118
 8671SOL     OW37474   1.982   0.983   3.519  0.0981  0.1929  0.0812
 8671SOL    HW137475   1.914   1.045   3.544  1.7218  2.5990 -1.3842
 8671SOL    HW237476   1.973   0.979   3.423 -0.6574  0.4125  0.1440
 8672SOL     OW37477   2.119   2.843   5.473 -0.2779 -0.1001 -0.3574
 8672SOL    HW137478   2.115   2.938   5.460  1.2835 -0.1044 -0.9693
 8672SOL    HW237479   2.170   2.837   5.555 -0.4111  2.0412 -0.1236
 8673SOL     OW37480   3.217   0.332   8.126 -0.0935  0.3409  0.0304
 8673SOL    HW137481   3.122   0.346   8.125  0.0041  0.9543 -0.9433
 8673SOL    HW237482   3.242   0.397   8.191 -1.9794  0.3603  0.7341
 8674SOL     OW37483   4.573   4.545   8.683  0.1129 -0.3454 -0.3513
 8674SOL    HW137484   4.541   4.462   8.648 -0.0238  0.1637 -1.4375
 8674SOL    HW237485   4.487   4.580   8.704  0.1345  1.1495 -2.6979
 8675SOL     OW37486   4.469   2.234   6.598 -0.0910 -1.1300 -0.0433
 8675SOL    HW137487   4.446   2.231   6.690  1.3776 -1.7157  0.3113
 8675SOL    HW237488   4.435   2.151   6.565 -0.6286 -0.3468 -1.5120
 8676SOL     OW37489   4.547   1.921   5.240  0.0736 -0.4500 -0.4089
 8676SOL    HW137490   4.456   1.924   5.269  0.0708  0.3527 -0.5083
 8676SOL    HW237491   4.538   1.950   5.150 -0.2406 -2.1986 -0.9358
 8677SOL     OW37492   4.180   3.880  11.974 -0.0464  0.5845  0.4428
 8677SOL    HW137493   4.262   3.859  12.019  0.0005 -0.3653 -0.0777
 8677SOL    HW237494   4.122   3.807  11.995 -1.8581  2.0861  0.7392
 8678SOL     OW37495   1.007   0.297   4.315  0.2649 -0.3760 -0.0910
 8678SOL    HW137496   0.958   0.244   4.378  0.4323  0.0571  0.4064
 8678SOL    HW237497   1.095   0.261   4.324  0.5751 -0.3170 -2.8310
 8679SOL     OW37498   1.148   2.923   5.136  0.0547 -0.1177 -0.0864
 8679SOL    HW137499   1.220   2.987   5.135  0.3435 -0.4371  0.4073
 8679SOL    HW237500   1.194   2.841   5.152  1.1828  0.6579  0.6908
 8680SOL     OW37501   4.610   0.845   0.227  0.1780  0.4572 -0.3136
 8680SOL    HW137502   4.647   0.866   0.141  1.3537  0.9430  0.3052
 8680SOL    HW237503   4.578   0.931   0.254  0.9553  0.4197  0.7085
 8681SOL     OW37504   2.946   4.691  15.368 -0.4007  0.4036  0.6747
 8681SOL    HW137505   2.961   0.017  15.289 -0.8529  0.5884  0.7087
 8681SOL    HW237506   2.997   4.612  15.350 -0.0211  1.1392 -1.4632
 8682SOL     OW37507   1.428   2.841   3.795 -0.1429  0.3935 -0.4442
 8682SOL    HW137508   1.369   2.913   3.773 -0.8974 -0.6561 -1.9008
 8682SOL    HW237509   1.427   2.846   3.890  0.5050  0.9022 -0.4615
 8683SOL     OW37510   3.499   0.543   4.325  0.0456 -0.0449  0.4916
 8683SOL    HW137511   3.405   0.529   4.324  0.2542 -1.4036  0.0936
 8683SOL    HW237512   3.529   0.455   4.303  0.0119  0.6094 -2.1871
 8684SOL     OW37513   3.151   1.883   1.007  0.5033  0.0568 -0.2844
 8684SOL    HW137514   3.096   1.824   1.059 -0.0873  1.5052  0.7425
 8684SOL    HW237515   3.233   1.872   1.055  0.6961  1.4215 -0.3043
 8685SOL     OW37516   1.726   4.280   9.855  0.0102 -0.2593  0.2482
 8685SOL    HW137517   1.687   4.342   9.794  1.1027 -1.2037 -1.4189
 8685SOL    HW237518   1.802   4.334   9.876  1.1245 -1.6465 -0.2295
 8686SOL     OW37519   1.533   0.355   6.381 -0.3100  0.3445 -0.4037
 8686SOL    HW137520   1.613   0.408   6.386  0.1004 -0.0627 -2.6560
 8686SOL    HW237521   1.469   0.420   6.409  0.4723  1.1997 -0.6003
 8687SOL     OW37522   1.776   3.932  10.789  0.4104 -0.1723 -0.0520
 8687SOL    HW137523   1.854   3.885  10.820 -0.7314 -0.5468  2.3112
 8687SOL    HW237524   1.712   3.868  10.824 -1.3280  0.7218 -1.5999
 8688SOL     OW37525   2.304   1.689  17.368 -0.2500  0.5167 -0.5402
 8688SOL    HW137526   2.263   1.631  17.433 -1.5825  0.8396 -1.0882
 8688SOL    HW237527   2.350   1.625  17.314 -1.2953  0.1537 -0.9980
 8689SOL     OW37528   0.029   2.346   8.328  0.8475  0.3742 -0.1313
 8689SOL    HW137529   0.059   2.256   8.340  2.9562  0.4878 -4.5139
 8689SOL    HW237530   0.038   2.393   8.411 -0.9290  0.1592  0.1782
 8690SOL     OW37531   0.681   2.501  11.928  0.3266  0.0562 -0.8888
 8690SOL    HW137532   0.640   2.573  11.976  0.9419 -1.2558  1.6288
 8690SOL    HW237533   0.719   2.565  11.867 -0.2570  0.4850 -0.8053
 8691SOL     OW37534   3.137   2.511   4.814  0.6986  0.1588 -0.4748
 8691SOL    HW137535   3.169   2.540   4.899 -0.3569 -2.2239  0.7364
 8691SOL    HW237536   3.183   2.427   4.808 -2.3564 -1.4254 -1.7734
 8692SOL     OW37537   3.865   0.201  14.324 -0.7635  0.4906  0.1299
 8692SOL    HW137538   3.924   0.139  14.368 -1.2362 -1.2116 -1.6307
 8692SOL    HW237539   3.866   0.278  14.381  0.4627  1.7914 -1.6239
 8693SOL     OW37540   0.991   2.740   4.510 -0.3477 -0.7731  0.0987
 8693SOL    HW137541   0.915   2.699   4.552 -0.1790 -1.2791 -0.0958
 8693SOL    HW237542   0.993   2.825   4.553 -0.7273  0.0355 -1.4599
 8694SOL     OW37543   2.520   2.793  13.797  0.1652  0.3272  0.2929
 8694SOL    HW137544   2.536   2.747  13.715 -1.3516  1.3960 -0.6017
 8694SOL    HW237545   2.547   2.730  13.864  0.0319 -1.2271 -1.1361
 8695SOL     OW37546   2.641   3.043   2.819 -0.6191  0.0431  0.0731
 8695SOL    HW137547   2.674   3.084   2.898 -0.6941 -0.3066  0.2861
 8695SOL    HW237548   2.715   3.049   2.758  1.6868  0.9632  3.0039
 8696SOL     OW37549   1.976   2.752   1.056  0.1086 -0.4775  0.2998
 8696SOL    HW137550   1.950   2.689   1.122 -1.4466  1.1320  1.2106
 8696SOL    HW237551   1.907   2.727   0.995  0.2957 -0.7962  0.2171
 8697SOL     OW37552   3.427   2.635   5.326  0.6777  0.5431  0.5337
 8697SOL    HW137553   3.367   2.566   5.297  0.0338  1.7703 -1.0558
 8697SOL    HW237554   3.373   2.703   5.284  0.0334 -1.0981 -1.3049
 8698SOL     OW37555   3.794   3.769  12.321 -0.2061  0.3074  0.9002
 8698SOL    HW137556   3.707   3.763  12.281 -0.7154  0.6184  1.9580
 8698SOL    HW237557   3.844   3.815  12.253 -1.7202 -2.3023 -1.9939
 8699SOL     OW37558   1.078   4.506  13.655  0.1092 -0.0022 -0.0179
 8699SOL    HW137559   0.998   4.467  13.689  1.9746 -2.6946  1.2472
 8699SOL    HW237560   1.052   4.594  13.684 -1.3506  0.0531 -1.4758
 8700SOL     OW37561   1.569   3.639   3.470 -0.1655  0.7263 -0.1854
 8700SOL    HW137562   1.536   3.552   3.493  0.7002  0.2562 -0.7187
 8700SOL    HW237563   1.569   3.668   3.561 -1.3514 -0.5630  0.2356
 8701SOL     OW37564   4.368   2.247   5.014 -0.1838 -0.2375 -0.2907
 8701SOL    HW137565   4.314   2.197   4.953 -1.9357  1.2051  0.0964
 8701SOL    HW237566   4.458   2.224   4.991  0.6466  0.3272  2.3644
 8702SOL     OW37567   1.040   0.703  11.820  0.5766  0.5785  0.5977
 8702SOL    HW137568   1.129   0.681  11.847  0.1073  0.3562  1.9356
 8702SOL    HW237569   0.995   0.677  11.900  0.6367  0.2990  0.5410
 8703SOL     OW37570   3.310   1.465   7.345 -0.2703  0.7882 -0.5318
 8703SOL    HW137571   3.342   1.553   7.364 -0.1290  0.2209  1.7987
 8703SOL    HW237572   3.296   1.426   7.431 -0.1762  1.4139 -0.2407
 8704SOL     OW37573   2.281   0.708   7.904  0.5531 -0.5116  0.2602
 8704SOL    HW137574   2.200   0.665   7.933  0.2682 -1.3044 -1.7444
 8704SOL    HW237575   2.249   0.758   7.829  0.6690 -0.1448  0.4552
 8705SOL     OW37576   0.220   0.965   7.183  0.4448  0.5998 -0.0764
 8705SOL    HW137577   0.180   1.025   7.245 -2.1260  1.2558 -2.3950
 8705SOL    HW237578   0.307   0.962   7.222  0.4364 -3.9762 -0.3703
 8706SOL     OW37579   1.823   4.473   2.206 -0.5142 -0.4594 -0.4581
 8706SOL    HW137580   1.773   4.516   2.136  0.8728  2.5407  0.4221
 8706SOL    HW237581   1.761   4.402   2.222  0.4665 -1.1745  0.1493
 8707SOL     OW37582   0.098   0.841   3.989  0.6292 -0.4237  0.3972
 8707SOL    HW137583   0.073   0.933   3.982  1.0108 -0.2084  1.8817
 8707SOL    HW237584   0.154   0.827   3.912  1.3498  1.2802  0.6102
 8708SOL     OW37585   4.507   3.200   4.027  0.5333 -0.1820 -0.1650
 8708SOL    HW137586   4.557   3.119   4.021  2.3376  0.8591  1.0576
 8708SOL    HW237587   4.510   3.231   3.936 -1.4282  1.8082  0.4500
 8709SOL     OW37588   2.863   4.159   5.464 -0.7442 -0.1661 -0.0008
 8709SOL    HW137589   2.779   4.114   5.464 -0.3597 -0.8754 -0.9060
 8709SOL    HW237590   2.847   4.230   5.526 -2.4326 -0.5641  0.0024
 8710SOL     OW37591   1.227   3.466   4.573  0.2359  0.2266 -0.6115
 8710SOL    HW137592   1.265   3.386   4.608 -1.5036 -1.1060 -1.7662
 8710SOL    HW237593   1.291   3.483   4.504  0.9321  0.0964 -0.0012
 8711SOL     OW37594   0.251   4.336   0.633 -0.5444  0.2848 -1.0398
 8711SOL    HW137595   0.250   4.357   0.727  2.6267  1.4020 -1.2416
 8711SOL    HW237596   0.344   4.315   0.629 -0.9138 -1.6323  0.4367
 8712SOL     OW37597   4.009   0.852   0.710 -0.7607 -0.3826  0.0666
 8712SOL    HW137598   3.997   0.769   0.757 -0.9889 -0.2513  0.2418
 8712SOL    HW237599   4.042   0.824   0.625  0.8568  0.4356  0.4226
 8713SOL     OW37600   3.094   1.053   6.789 -0.0198 -0.2879  0.0402
 8713SOL    HW137601   3.060   1.017   6.706  0.6270 -0.0743 -0.3148
 8713SOL    HW237602   3.094   1.145   6.763 -1.3045  0.1054  1.4388
 8714SOL     OW37603   3.485   3.214  14.330  0.3308  0.1655  0.2041
 8714SOL    HW137604   3.539   3.255  14.263  0.2065 -2.2669 -1.3757
 8714SOL    HW237605   3.469   3.140  14.272 -1.2617  0.7549 -0.1241
 8715SOL     OW37606   0.231   2.133   7.032  0.6098  0.5508 -0.4574
 8715SOL    HW137607   0.251   2.134   6.938  0.8126  1.9881 -0.3974
 8715SOL    HW237608   0.184   2.050   7.040  0.5006  0.5509 -1.0462
 8716SOL     OW37609   3.073   3.228  14.106  0.4558 -0.2324  0.3407
 8716SOL    HW137610   3.059   3.315  14.144  0.3592 -0.4348  0.7608
 8716SOL    HW237611   3.007   3.178  14.153  0.2668 -1.7055 -1.4631
 8717SOL     OW37612   1.727   0.083   5.272 -0.3533 -0.1938  0.1963
 8717SOL    HW137613   1.650   0.077   5.215 -0.8846 -3.3391  1.2839
 8717SOL    HW237614   1.701   0.040   5.353  0.7038  0.1515  0.7240
 8718SOL     OW37615   2.526   3.168   9.144 -0.2910  0.3507  0.1900
 8718SOL    HW137616   2.603   3.113   9.156 -0.3174  0.1638 -0.4799
 8718SOL    HW237617   2.560   3.244   9.097 -1.6709  1.6288  1.2496
 8719SOL     OW37618   2.858   2.931   0.698 -0.1492  0.4432 -0.4005
 8719SOL    HW137619   2.910   2.851   0.710 -2.6017 -1.3321 -1.6028
 8719SOL    HW237620   2.853   2.936   0.603  2.9235 -0.7608 -0.6232
 8720SOL     OW37621   2.825   3.331   9.919 -0.7162 -0.3137  0.4662
 8720SOL    HW137622   2.834   3.347   9.825 -2.0291  1.3019  0.6329
 8720SOL    HW237623   2.914   3.302   9.941 -0.5446 -0.7898 -0.7973
 8721SOL     OW37624   4.090   0.716   7.306  0.0065 -0.0541 -0.1216
 8721SOL    HW137625   4.040   0.636   7.288  0.7337 -0.5206 -0.0424
 8721SOL    HW237626   4.155   0.676   7.363 -2.9044 -1.1493  2.4432
 8722SOL     OW37627   3.341   3.807   2.775  0.5517  0.3028 -0.2519
 8722SOL    HW137628   3.363   3.747   2.846  0.2485  0.2760 -0.1799
 8722SOL    HW237629   3.413   3.794   2.713  1.0425 -0.5982  0.5126
 8723SOL     OW37630   2.877   3.331   8.894  0.6312 -0.2449 -0.4046
 8723SOL    HW137631   2.839   3.248   8.924 -1.6930  1.1173  0.3870
 8723SOL    HW237632   2.855   3.322   8.801  0.2349 -1.5946 -0.1855
 8724SOL     OW37633   1.537   3.119   1.774 -0.4110  0.6356  0.5781
 8724SOL    HW137634   1.500   3.060   1.709  1.2309  1.8693 -1.4773
 8724SOL    HW237635   1.630   3.105   1.756 -0.5075  2.3122 -1.2111
 8725SOL     OW37636   0.434   2.185  11.334 -0.1172 -0.1608 -0.0215
 8725SOL    HW137637   0.481   2.269  11.333 -1.0923  0.3883  0.0253
 8725SOL    HW237638   0.342   2.212  11.325 -0.4840 -0.9617  1.3623
 8726SOL     OW37639   1.105   0.560   5.765 -0.4310  0.5536 -0.4542
 8726SOL    HW137640   1.168   0.499   5.728 -2.3576 -0.6866 -1.6415
 8726SOL    HW237641   1.121   0.553   5.859  0.3369  1.0103 -0.5454
 8727SOL     OW37642   4.491   2.273   0.685 -0.2757  0.3943 -0.2111
 8727SOL    HW137643   4.429   2.278   0.612 -1.2307  1.6501  0.6971
 8727SOL    HW237644   4.508   2.366   0.697  0.3698  0.2115  0.2510
 8728SOL     OW37645   3.079   4.172   7.562 -0.0789 -0.3384 -0.0308
 8728SOL    HW137646   3.033   4.110   7.504  0.8748 -0.0055 -1.1374
 8728SOL    HW237647   3.034   4.167   7.646  0.2180 -1.2432  0.0708
 8729SOL     OW37648   2.150   1.187  16.976  0.1028 -0.3442  0.5484
 8729SOL    HW137649   2.245   1.174  16.969 -0.0885 -1.0217 -0.8009
 8729SOL    HW237650   2.139   1.270  16.930  0.6923 -1.0564 -0.8817
 8730SOL     OW37651   2.007   4.270   7.610  0.2233  0.1602 -0.3038
 8730SOL    HW137652   1.941   4.231   7.668  1.0974  0.9547  1.2311
 8730SOL    HW237653   2.053   4.323   7.675  0.0637  2.0143 -1.7346
 8731SOL     OW37654   0.650   1.667   5.267 -0.0823 -0.1306  0.6875
 8731SOL    HW137655   0.689   1.751   5.241 -0.2490 -0.9647 -2.3058
 8731SOL    HW237656   0.645   1.625   5.181  1.0156  0.2021  0.4636
 8732SOL     OW37657   4.622   3.495  16.080 -0.0008 -0.3824  0.2986
 8732SOL    HW137658   4.678   3.573  16.080 -0.1778 -0.2533  0.0453
 8732SOL    HW237659   4.579   3.503  16.165  0.0258  0.6479  0.2127
 8733SOL     OW37660   3.577   3.136   8.637  0.0963  0.4196  0.6820
 8733SOL    HW137661   3.576   3.166   8.546  0.5046 -0.5869  0.3486
 8733SOL    HW237662   3.522   3.059   8.629  2.6376 -1.1863 -1.5245
 8734SOL     OW37663   0.858   2.867   7.993 -0.0517  0.7337 -0.0077
 8734SOL    HW137664   0.803   2.863   7.915  1.3393 -0.2440 -0.9461
 8734SOL    HW237665   0.928   2.804   7.974  0.5504  1.1637  0.7658
 8735SOL     OW37666   3.859   2.988   9.712  0.2585 -0.4960  0.1692
 8735SOL    HW137667   3.867   3.082   9.699 -1.2328 -0.7653 -2.6720
 8735SOL    HW237668   3.849   2.984   9.807 -1.3454  0.6624  0.0516
 8736SOL     OW37669   0.105   4.018   6.722  0.0804 -0.8861 -0.8028
 8736SOL    HW137670   0.074   4.107   6.701 -0.3989 -0.3378  2.2455
 8736SOL    HW237671   0.086   4.008   6.815 -2.4881 -1.0390 -1.3389
 8737SOL     OW37672   4.557   1.940  14.399 -0.4214  0.0804 -0.1227
 8737SOL    HW137673   4.591   1.979  14.318 -0.2242  0.0384 -0.0617
 8737SOL    HW237674   4.608   1.983  14.468  0.0151 -0.6826  0.0290
 8738SOL     OW37675   1.334   2.151   9.233 -0.2132  1.0333  0.3836
 8738SOL    HW137676   1.420   2.114   9.251 -0.5971 -0.3187 -0.6012
 8738SOL    HW237677   1.331   2.158   9.138 -0.0507  1.4291  0.4081
 8739SOL     OW37678   0.564   2.551   3.688 -0.1054 -0.0893  0.0491
 8739SOL    HW137679   0.626   2.618   3.657 -0.1560 -0.0736 -0.0169
 8739SOL    HW237680   0.595   2.482   3.630  1.1194 -0.4660  1.1405
 8740SOL     OW37681   0.798   2.826   3.839  0.0131  0.0477 -0.2556
 8740SOL    HW137682   0.841   2.749   3.803 -3.6637 -1.1906 -2.0152
 8740SOL    HW237683   0.725   2.791   3.891 -1.4581  0.5184 -1.9992
 8741SOL     OW37684   3.721   4.105   7.874 -0.0138 -0.7745 -0.4102
 8741SOL    HW137685   3.729   4.013   7.851 -4.5800 -1.5078  0.9194
 8741SOL    HW237686   3.715   4.131   7.782 -0.2157  0.4756 -0.0562
 8742SOL     OW37687   1.273   3.692   3.753 -0.0855 -0.0083 -0.7709
 8742SOL    HW137688   1.364   3.675   3.730 -0.3715  0.4021 -2.2121
 8742SOL    HW237689   1.232   3.610   3.725 -1.1212  0.9528 -2.0711
 8743SOL     OW37690   2.841   2.486   7.374 -0.3586  0.8581 -0.0814
 8743SOL    HW137691   2.872   2.404   7.414  0.0422  0.0209 -2.1355
 8743SOL    HW237692   2.781   2.524   7.439 -2.4769  0.3753 -1.7874
 8744SOL     OW37693   3.762   2.641   3.825  0.5554 -0.3262  0.2767
 8744SOL    HW137694   3.732   2.614   3.738 -1.1216 -1.0122  1.0625
 8744SOL    HW237695   3.688   2.600   3.870  1.3079  0.7894  2.5343
 8745SOL     OW37696   4.648   2.181   7.663  0.6632  0.1623  0.3998
 8745SOL    HW137697   4.719   2.122   7.689  1.5147  0.4180 -1.3445
 8745SOL    HW237698   4.588   2.114   7.631  0.4680 -0.2085  1.5071
 8746SOL     OW37699   3.959   2.134   7.466  0.0486  0.2583  0.1932
 8746SOL    HW137700   3.869   2.144   7.497  0.1925  4.1260 -0.5690
 8746SOL    HW237701   3.958   2.042   7.439  0.6132 -0.4119  2.4859
 8747SOL     OW37702   0.664   1.788  11.223 -0.3724 -0.0998 -0.5826
 8747SOL    HW137703   0.704   1.863  11.181  0.6434  0.7269  1.8493
 8747SOL    HW237704   0.736   1.725  11.218  2.1451  2.8089 -0.4551
 8748SOL     OW37705   1.778   0.884  10.332 -0.2287 -0.3807  0.2660
 8748SOL    HW137706   1.718   0.948  10.295 -0.9869 -0.7748  0.7919
 8748SOL    HW237707   1.775   0.824  10.257 -1.2137  0.2455 -0.1901
 8749SOL     OW37708   0.325   1.329   8.372  0.2847  0.0672 -0.3380
 8749SOL    HW137709   0.246   1.312   8.423 -1.3675  2.9730 -1.8884
 8749SOL    HW237710   0.295   1.276   8.297 -3.4689  1.7064  0.0221
 8750SOL     OW37711   0.225   4.329   0.928 -0.7989 -0.3704 -0.2039
 8750SOL    HW137712   0.141   4.322   0.972 -0.2570  0.0804  0.8897
 8750SOL    HW237713   0.272   4.400   0.971 -0.1685 -0.5423 -0.6030
 8751SOL     OW37714   2.648   2.741   5.944 -0.1047  0.1476 -0.2028
 8751SOL    HW137715   2.736   2.740   5.906 -0.5438  1.1480 -1.2283
 8751SOL    HW237716   2.599   2.681   5.888  0.0004  0.4716 -0.6412
 8752SOL     OW37717   0.662   3.186  15.063  0.4987  0.4174  0.3230
 8752SOL    HW137718   0.680   3.279  15.050 -1.4253  0.4514 -2.1086
 8752SOL    HW237719   0.616   3.169  14.981 -0.1691 -1.0817  1.0221
 8753SOL     OW37720   1.693   1.490  12.908 -0.7940  0.1825 -0.1801
 8753SOL    HW137721   1.784   1.519  12.909 -0.7788  0.1403 -0.7856
 8753SOL    HW237722   1.645   1.558  12.863 -2.0522 -0.7549 -0.2523
 8754SOL     OW37723   1.459   4.512  10.626  0.1649  0.0282  0.1055
 8754SOL    HW137724   1.364   4.505  10.615  0.0567  1.0633  0.3713
 8754SOL    HW237725   1.488   4.424  10.648  3.0270  0.3897 -2.0687
 8755SOL     OW37726   1.995   1.486   8.326 -0.2944  0.5928 -0.4577
 8755SOL    HW137727   1.953   1.462   8.243 -0.7751 -0.4415  0.0977
 8755SOL    HW237728   1.989   1.582   8.318 -1.5837  0.8341  3.4430
 8756SOL     OW37729   0.409   0.544   7.433 -0.7604 -0.7143  0.4252
 8756SOL    HW137730   0.474   0.519   7.498  0.8913  1.7740 -0.2945
 8756SOL    HW237731   0.366   0.624   7.464 -1.2311 -0.7436 -0.1491
 8757SOL     OW37732   3.432   2.383   4.164 -0.1081  0.1902 -0.4252
 8757SOL    HW137733   3.429   2.289   4.147  1.9840  0.0854 -0.1688
 8757SOL    HW237734   3.410   2.417   4.078 -0.8560 -1.3923 -0.8693
 8758SOL     OW37735   2.643   0.881   5.970 -0.0032  0.2216 -0.1952
 8758SOL    HW137736   2.622   0.820   6.041 -0.5622 -0.6227 -1.0841
 8758SOL    HW237737   2.688   0.954   6.011 -0.3208  0.5784 -0.4829
 8759SOL     OW37738   0.249   1.308  11.515 -0.2880  0.0044  0.0934
 8759SOL    HW137739   0.269   1.225  11.473  0.7027  0.1148  0.3678
 8759SOL    HW237740   0.337   1.340  11.535 -0.4450  0.3967  0.1614
 8760SOL     OW37741   4.481   3.053   7.636  0.1211 -0.2568 -0.2374
 8760SOL    HW137742   4.409   3.107   7.604 -0.2504 -0.7470 -0.2359
 8760SOL    HW237743   4.432   2.992   7.691 -0.1177 -1.2941 -1.6051
 8761SOL     OW37744   0.147   2.735   7.730  0.1048 -0.2346 -0.2423
 8761SOL    HW137745   0.205   2.692   7.793  0.5667  1.6698  0.6087
 8761SOL    HW237746   0.169   2.828   7.731  2.1134 -0.7075 -0.3813
 8762SOL     OW37747   3.359   3.111   8.938  0.3197 -0.0158 -0.4342
 8762SOL    HW137748   3.293   3.150   8.881 -0.8654 -1.0196  0.2490
 8762SOL    HW237749   3.435   3.168   8.946  3.1302 -3.8678 -0.0025
 8763SOL     OW37750   4.566   3.544   4.192  0.2023  0.1394  0.0450
 8763SOL    HW137751   4.558   3.640   4.187 -1.5053  0.0807  1.7512
 8763SOL    HW237752   4.643   3.544   4.135 -0.6728  0.4933 -1.1527
 8764SOL     OW37753   4.488   1.845   2.674  0.4459  0.2975  0.7983
 8764SOL    HW137754   4.516   1.767   2.626 -0.3411  0.1233  0.6299
 8764SOL    HW237755   4.505   1.909   2.605  0.2075 -1.2096 -0.6398
 8765SOL     OW37756   2.144   4.523   9.034  0.0692 -0.0027 -0.7399
 8765SOL    HW137757   2.066   4.479   9.002  0.3332 -0.7963 -0.3061
 8765SOL    HW237758   2.124   4.616   9.024 -3.0123 -0.6868 -0.7620
 8766SOL     OW37759   1.866   2.447   4.151 -0.3651 -0.6290 -0.1704
 8766SOL    HW137760   1.918   2.485   4.080  1.6314 -0.3581  1.4033
 8766SOL    HW237761   1.937   2.424   4.211 -1.8884 -2.5803  0.8766
 8767SOL     OW37762   3.656   4.545   2.834 -0.3082 -0.1769 -0.5378
 8767SOL    HW137763   3.642   4.575   2.744 -0.2831 -2.0662 -1.1890
 8767SOL    HW237764   3.620   4.456   2.836 -0.5145 -0.0665  0.9570
 8768SOL     OW37765   1.025   2.175   5.166  1.0613  0.4905  0.1939
 8768SOL    HW137766   1.011   2.139   5.078  0.0480  1.2406  0.0543
 8768SOL    HW237767   0.934   2.177   5.197  1.0784 -4.1885  0.5793
 8769SOL     OW37768   0.037   3.567   5.396 -0.3256  0.3442 -0.2330
 8769SOL    HW137769   4.695   3.561   5.463 -1.5918  1.1468 -1.4320
 8769SOL    HW237770   4.716   3.530   5.321  0.0802 -0.1260 -0.2579
 8770SOL     OW37771   1.487   1.479   1.995  0.2032  0.3383  0.7663
 8770SOL    HW137772   1.440   1.560   1.978 -0.4279  0.3195  2.3932
 8770SOL    HW237773   1.416   1.414   1.992  0.7760 -0.3435  1.6910
 8771SOL     OW37774   4.304   1.928   0.620 -0.8162 -0.6111  0.0974
 8771SOL    HW137775   4.352   1.928   0.703  1.9049 -0.5646 -1.4844
 8771SOL    HW237776   4.270   1.839   0.630  1.1982 -1.4793 -0.6384
 8772SOL     OW37777   1.729   3.815   1.717 -0.4901  0.0570 -0.7084
 8772SOL    HW137778   1.797   3.874   1.685  0.3390  0.3496  1.5655
 8772SOL    HW237779   1.646   3.857   1.696 -1.7154 -0.3067  3.3336
 8773SOL     OW37780   2.280   1.620  11.878  0.3049  0.1601  0.2226
 8773SOL    HW137781   2.352   1.627  11.941  0.3602 -0.3713  0.2201
 8773SOL    HW237782   2.224   1.693  11.902  0.4508 -0.2698  1.8652
 8774SOL     OW37783   2.897   4.060   0.573 -0.0862 -0.3453 -0.1186
 8774SOL    HW137784   2.992   4.053   0.577 -0.3052 -0.6501  4.2225
 8774SOL    HW237785   2.871   4.129   0.511 -0.7741 -0.6905 -0.2196
 8775SOL     OW37786   3.978   4.532   7.470  0.1583 -0.0077 -0.2665
 8775SOL    HW137787   4.021   4.508   7.552  1.1133  0.6683 -0.5602
 8775SOL    HW237788   3.951   4.622   7.489 -0.7197  0.2425 -2.6591
 8776SOL     OW37789   1.345   2.071   4.442  0.4259 -0.3434 -0.0554
 8776SOL    HW137790   1.425   2.103   4.483  0.1796 -1.3072  1.1676
 8776SOL    HW237791   1.387   2.012   4.380  1.4916 -1.5003  1.7849
 8777SOL     OW37792   1.703   1.269   3.730 -0.1154  0.3294  0.0403
 8777SOL    HW137793   1.793   1.299   3.722 -0.3237  1.2092  0.9643
 8777SOL    HW237794   1.661   1.347   3.694 -1.7244 -1.2902 -1.5832
 8778SOL     OW37795   1.120   0.626   0.081 -0.0866  0.3154  0.0470
 8778SOL    HW137796   1.124   0.578  17.703 -0.1742 -0.8924  0.7421
 8778SOL    HW237797   1.060   0.571   0.133  0.4631  0.4740  0.8493
 8779SOL     OW37798   4.389   2.238   7.790  0.7006 -0.1954 -0.1196
 8779SOL    HW137799   4.457   2.199   7.735  0.2035 -1.0614 -0.1193
 8779SOL    HW237800   4.321   2.171   7.782 -0.2982  0.8107  0.0012
 8780SOL     OW37801   1.925   1.841   8.596  0.0449  0.3734 -0.4202
 8780SOL    HW137802   1.942   1.912   8.658 -0.0744  0.0252  0.0170
 8780SOL    HW237803   1.953   1.771   8.655  3.0488  0.2946 -1.9243
 8781SOL     OW37804   3.707   1.814   2.865 -0.2092  0.4250 -0.5154
 8781SOL    HW137805   3.690   1.842   2.775  0.1440  1.9181 -0.1239
 8781SOL    HW237806   3.803   1.817   2.867 -0.1428 -1.3325 -1.0551
 8782SOL     OW37807   0.785   1.745   0.477  0.4683 -0.0374  0.1880
 8782SOL    HW137808   0.862   1.702   0.438  1.2838  0.0899  1.6578
 8782SOL    HW237809   0.732   1.753   0.398 -0.5386 -0.2116  0.8535
 8783SOL     OW37810   4.238   0.366  15.324 -0.3993 -0.3152 -0.6334
 8783SOL    HW137811   4.228   0.288  15.269  1.0625 -2.3871  1.9998
 8783SOL    HW237812   4.324   0.340  15.356 -0.1561  0.6346 -0.5206
 8784SOL     OW37813   0.430   1.860   7.470 -0.3313 -0.0383 -0.1476
 8784SOL    HW137814   0.403   1.941   7.427 -4.1697 -1.8464 -1.1579
 8784SOL    HW237815   0.518   1.859   7.434  0.3796  2.9512  1.5034
 8785SOL     OW37816   0.224   3.048   1.275  0.2231  0.5383  0.0328
 8785SOL    HW137817   0.232   3.033   1.180  0.4858 -1.1426  0.3178
 8785SOL    HW237818   0.259   2.962   1.297  0.1226  0.7098  0.8344
 8786SOL     OW37819   1.893   3.098   1.802  0.0516 -0.1518  0.0915
 8786SOL    HW137820   1.924   3.133   1.719 -0.1063  1.1402  0.5830
 8786SOL    HW237821   1.834   3.026   1.777 -0.3352  0.4746 -0.7945
 8787SOL     OW37822   3.219   2.393   5.424 -0.0356  0.0885  0.3745
 8787SOL    HW137823   3.220   2.314   5.370 -1.8515  0.9065 -0.8833
 8787SOL    HW237824   3.142   2.375   5.478  0.6704  1.3217  1.7750
 8788SOL     OW37825   0.135   1.161   9.147 -0.2754 -0.1597  0.0444
 8788SOL    HW137826   0.122   1.134   9.056 -0.3771 -0.1152  0.0460
 8788SOL    HW237827   0.160   1.079   9.189 -0.6382 -0.7883 -0.9725
 8789SOL     OW37828   0.031   3.583  14.067  0.3894  0.3943 -0.4300
 8789SOL    HW137829   0.048   3.518  13.998 -0.4247 -0.0538 -0.2020
 8789SOL    HW237830   4.668   3.565  14.095  0.0438  1.1448 -1.0306
 8790SOL     OW37831   0.970   2.655   2.562 -0.3359 -0.6691 -0.2316
 8790SOL    HW137832   0.930   2.669   2.477 -2.3093  0.5100  0.8793
 8790SOL    HW237833   1.046   2.609   2.526  0.2788  1.1453 -1.2382
 8791SOL     OW37834   3.988   3.224   3.956  0.3487  0.2008  0.6225
 8791SOL    HW137835   4.026   3.281   4.023  0.2338 -0.1408  0.9828
 8791SOL    HW237836   4.051   3.153   3.946 -0.3641 -0.2337 -0.6656
 8792SOL     OW37837   1.156   1.830  10.010 -0.1166 -0.1410  0.1842
 8792SOL    HW137838   1.185   1.822  10.101  2.5758  1.3901 -0.5318
 8792SOL    HW237839   1.246   1.826   9.978 -0.6001 -1.6181 -0.9590
 8793SOL     OW37840   0.463   0.693   3.644  0.1620 -0.7317 -0.0420
 8793SOL    HW137841   0.469   0.719   3.552  1.2922  2.4083  0.9107
 8793SOL    HW237842   0.487   0.777   3.682 -0.2189 -0.7951  0.3340
 8794SOL     OW37843   2.047   3.882   0.770 -0.0956  0.3221 -0.1771
 8794SOL    HW137844   2.077   3.855   0.857  0.0641  0.7575 -0.1000
 8794SOL    HW237845   1.968   3.934   0.786 -2.6767 -3.4829 -0.5213
 8795SOL     OW37846   4.201   2.146   6.787 -0.9552 -0.2103 -0.5347
 8795SOL    HW137847   4.106   2.137   6.796 -0.8821 -1.0513 -0.6393
 8795SOL    HW237848   4.222   2.102   6.704  1.4357  3.2497 -1.7780
 8796SOL     OW37849   3.863   4.553   8.631  0.2188  0.0736  0.0004
 8796SOL    HW137850   3.858   4.506   8.714  0.3818 -0.6902 -0.4274
 8796SOL    HW237851   3.881   4.640   8.668 -2.5719  0.9601 -0.6706
 8797SOL     OW37852   4.544   0.613  16.058  0.8465 -0.0846  0.0085
 8797SOL    HW137853   4.469   0.554  16.050  0.8846 -0.3622  1.6795
 8797SOL    HW237854   4.525   0.678  15.989  0.0552  1.1306  1.3702
 8798SOL     OW37855   0.063   1.151   8.872 -0.0768 -0.7892 -0.4328
 8798SOL    HW137856   0.033   1.241   8.860  0.0531 -0.7681 -0.6096
 8798SOL    HW237857   4.703   1.111   8.859  0.4116 -1.6038 -1.2176
 8799SOL     OW37858   2.353   0.520   3.787  0.1887  0.0818 -0.0644
 8799SOL    HW137859   2.368   0.435   3.746  0.1897  0.7624 -1.4539
 8799SOL    HW237860   2.260   0.509   3.805 -0.3276  3.1115 -0.8384
 8800SOL     OW37861   3.335   3.917   1.074  0.5617  0.4345 -0.2906
 8800SOL    HW137862   3.251   3.925   1.028 -0.1694 -0.3878  0.9167
 8800SOL    HW237863   3.399   3.917   1.002  0.1272  2.8870 -0.6744
 8801SOL     OW37864   4.312   4.208   5.560  0.0471  0.0943 -0.1500
 8801SOL    HW137865   4.403   4.188   5.582  0.5009  1.8207 -0.5067
 8801SOL    HW237866   4.329   4.203   5.466  2.0153 -1.3903  0.2803
 8802SOL     OW37867   4.132   1.746   4.398 -0.6996 -1.1351 -0.5291
 8802SOL    HW137868   4.154   1.696   4.476  0.7671  3.3598  1.9034
 8802SOL    HW237869   4.179   1.827   4.414 -0.6299 -0.8815 -1.9956
 8803SOL     OW37870   1.256   1.559   9.128 -0.3100 -0.7638 -0.6188
 8803SOL    HW137871   1.227   1.506   9.203  0.8319  1.7600  1.6289
 8803SOL    HW237872   1.331   1.611   9.158 -1.1749 -0.1493  0.4918
 8804SOL     OW37873   3.028   2.677   8.230  0.4834  0.0226 -0.6156
 8804SOL    HW137874   3.083   2.711   8.159  0.7061  1.7958  0.3991
 8804SOL    HW237875   3.063   2.588   8.234 -0.7040 -0.4480 -0.9086
 8805SOL     OW37876   0.794   1.318  12.614  0.2281  0.3278  0.7674
 8805SOL    HW137877   0.864   1.313  12.679  1.1011  2.1077 -0.0426
 8805SOL    HW237878   0.841   1.281  12.539 -0.1398  0.3017  0.5513
 8806SOL     OW37879   3.293   0.927   0.089 -0.1799 -0.5315  1.0160
 8806SOL    HW137880   3.361   0.895   0.148  0.1625 -1.5589  0.0673
 8806SOL    HW237881   3.331   0.924   0.001 -0.5093 -0.5360  0.8752
 8807SOL     OW37882   2.114   1.774   6.826  0.4806 -0.1783  0.1694
 8807SOL    HW137883   2.156   1.860   6.829 -1.8188  0.9395  0.2535
 8807SOL    HW237884   2.150   1.739   6.744  1.1335 -1.1703  0.8855
 8808SOL     OW37885   0.420   4.006   4.801 -0.3647 -0.3187 -0.2214
 8808SOL    HW137886   0.454   3.925   4.764 -0.5310  0.3728 -1.8786
 8808SOL    HW237887   0.486   4.068   4.770  1.7512 -1.7932  1.2975
 8809SOL     OW37888   1.590   2.043  15.117  0.6103 -0.4477  0.1492
 8809SOL    HW137889   1.676   2.045  15.075 -0.2309  0.4218 -1.5333
 8809SOL    HW237890   1.534   1.995  15.057  1.7300  0.7044 -1.8347
 8810SOL     OW37891   2.823   3.237  14.963  0.5509  0.1051  0.2960
 8810SOL    HW137892   2.782   3.157  14.995 -0.9601  0.8435  0.2163
 8810SOL    HW237893   2.892   3.256  15.026  2.6803  0.6501 -2.1914
 8811SOL     OW37894   2.284   1.384  14.673 -0.1451  0.3751 -0.5979
 8811SOL    HW137895   2.286   1.454  14.738 -2.1488  0.1311 -0.2734
 8811SOL    HW237896   2.342   1.419  14.606 -0.1477 -0.2708 -0.9345
 8812SOL     OW37897   0.927   3.644   6.510 -0.5020 -0.3153 -0.5405
 8812SOL    HW137898   0.875   3.597   6.445  1.3928 -0.6121 -1.8445
 8812SOL    HW237899   0.905   3.597   6.591  3.2334 -0.0444  0.6082
 8813SOL     OW37900   1.622   2.848   8.850  0.2347 -0.2200 -0.2031
 8813SOL    HW137901   1.598   2.863   8.758 -0.2532 -2.2736 -0.4122
 8813SOL    HW237902   1.718   2.840   8.850  0.1967 -0.4480  3.9573
 8814SOL     OW37903   3.021   1.826   2.612 -0.5413 -0.3590  0.2117
 8814SOL    HW137904   3.114   1.828   2.634 -0.3998 -0.9743 -0.3149
 8814SOL    HW237905   3.007   1.751   2.554  0.4890  0.1432 -0.7025
 8815SOL     OW37906   1.890   3.455   5.741  0.3267  0.4319 -0.8238
 8815SOL    HW137907   1.846   3.370   5.754  2.4598 -0.3038  1.5391
 8815SOL    HW237908   1.977   3.416   5.734 -0.2580 -1.3206  1.5544
 8816SOL     OW37909   3.269   1.916   3.021  0.5093  0.1370 -0.1107
 8816SOL    HW137910   3.290   1.843   2.963 -3.0964 -0.2714 -0.9167
 8816SOL    HW237911   3.357   1.954   3.033 -0.0907  1.7870 -0.8898
 8817SOL     OW37912   4.685   3.312   8.841 -0.0662 -0.2935  0.5337
 8817SOL    HW137913   0.023   3.327   8.910  0.0301 -1.8914  0.8007
 8817SOL    HW237914   4.683   3.396   8.796 -1.2393 -0.6637 -0.1088
 8818SOL     OW37915   4.287   3.421   5.202 -0.1265 -0.6442 -0.8160
 8818SOL    HW137916   4.244   3.498   5.239  0.1582 -0.8591 -0.0366
 8818SOL    HW237917   4.262   3.431   5.110 -0.1965 -1.5640 -0.8960
 8819SOL     OW37918   0.180   3.842  17.055 -0.1307  0.3992  0.3525
 8819SOL    HW137919   0.205   3.870  17.143 -0.3622 -0.8483  0.8085
 8819SOL    HW237920   0.191   3.748  17.071 -1.1144  0.1210 -0.6293
 8820SOL     OW37921   0.736   1.839   6.829  0.2736 -0.2651  0.0280
 8820SOL    HW137922   0.823   1.872   6.807  1.1876 -2.4907  0.3480
 8820SOL    HW237923   0.729   1.853   6.923 -2.7440 -1.5259 -0.0050
 8821SOL     OW37924   2.876   0.936   2.792  0.3496  0.2328  0.1102
 8821SOL    HW137925   2.815   0.877   2.835 -0.0219 -1.7563 -3.1522
 8821SOL    HW237926   2.903   0.994   2.863  0.8715  0.1599 -0.0263
 8822SOL     OW37927   0.142   1.255   8.540  1.0113 -0.1293  0.2686
 8822SOL    HW137928   0.066   1.313   8.538  1.2162  0.0915 -1.1040
 8822SOL    HW237929   0.167   1.286   8.627  2.3432 -1.0699  0.2246
 8823SOL     OW37930   1.276   4.344   7.439 -0.3224  0.7092 -0.1606
 8823SOL    HW137931   1.196   4.301   7.410  0.1296  0.8244 -1.5575
 8823SOL    HW237932   1.264   4.434   7.409  2.2171  1.6925  1.7657
 8824SOL     OW37933   2.129   0.589   9.561 -0.3605  0.1422 -0.2640
 8824SOL    HW137934   2.098   0.631   9.481 -1.4597 -0.5558 -0.2091
 8824SOL    HW237935   2.179   0.663   9.596 -1.4801  0.0871  1.4759
 8825SOL     OW37936   2.012   4.494   3.561 -0.0324  0.2545 -0.0146
 8825SOL    HW137937   1.979   4.412   3.597 -3.1205  1.8314  0.8007
 8825SOL    HW237938   2.021   4.449   3.477 -2.6715  1.0113 -0.7084
 8826SOL     OW37939   3.450   3.783   0.374 -0.1383  0.0951  0.5223
 8826SOL    HW137940   3.492   3.708   0.331 -1.6370 -0.4686  0.0609
 8826SOL    HW237941   3.442   3.750   0.464  1.4010  0.1730  0.6896
 8827SOL     OW37942   2.536   3.572   4.223 -1.0912  0.3699  0.2238
 8827SOL    HW137943   2.564   3.539   4.137  2.5489  2.0861  0.7609
 8827SOL    HW237944   2.569   3.662   4.217 -0.7341  0.3229  1.6770
 8828SOL     OW37945   2.786   1.882   3.689 -0.9343  0.3292  0.1317
 8828SOL    HW137946   2.859   1.903   3.747 -0.3383 -0.5311 -0.2993
 8828SOL    HW237947   2.791   1.958   3.631 -1.4657  0.7587  0.6534
 8829SOL     OW37948   2.051   2.788  16.645  0.4702  0.3399 -0.2399
 8829SOL    HW137949   2.119   2.807  16.710 -0.9232  1.4473  0.8916
 8829SOL    HW237950   2.012   2.708  16.681  0.2239  0.2483 -0.7072
 8830SOL     OW37951   3.713   0.890   7.486  0.7981 -0.4144 -0.0915
 8830SOL    HW137952   3.712   0.954   7.558  0.9018  1.6585 -1.9345
 8830SOL    HW237953   3.659   0.925   7.415 -0.8180 -0.3172  1.1883
 8831SOL     OW37954   2.622   4.548   5.089  0.6572 -0.2978  0.3661
 8831SOL    HW137955   2.654   4.515   5.173  1.1379  1.5284  0.9034
 8831SOL    HW237956   2.640   4.479   5.026 -1.4122 -0.2232 -0.2966
 8832SOL     OW37957   4.206   4.448   4.406  0.0589  0.1639  0.2082
 8832SOL    HW137958   4.133   4.496   4.447 -0.1144  0.3306 -0.2983
 8832SOL    HW237959   4.172   4.378   4.351 -0.3480  1.2122 -0.8678
 8833SOL     OW37960   2.687   3.180   5.761 -0.1869 -0.3670 -0.1267
 8833SOL    HW137961   2.689   3.213   5.851 -2.7071 -2.0773  0.5232
 8833SOL    HW237962   2.685   3.260   5.708  3.7830  0.3989  0.8581
 8834SOL     OW37963   0.507   2.365  14.715  0.0843 -0.2992 -0.4052
 8834SOL    HW137964   0.556   2.311  14.777  0.3954  0.2323 -0.1869
 8834SOL    HW237965   0.566   2.359  14.640 -0.7513 -1.9856 -0.9418
 8835SOL     OW37966   0.827   0.524   4.798  0.0100  0.4376 -0.1661
 8835SOL    HW137967   0.798   0.518   4.707  1.1744  1.7350 -0.6164
 8835SOL    HW237968   0.759   0.574   4.843 -0.6495 -1.3474  0.8165
 8836SOL     OW37969   1.914   2.158   7.803 -0.2681 -0.5554 -0.1960
 8836SOL    HW137970   1.902   2.077   7.753  0.9596 -0.7427 -0.1669
 8836SOL    HW237971   1.905   2.225   7.735  0.2254 -1.6180 -1.3013
 8837SOL     OW37972   0.395   1.150   5.458  0.2845 -0.2594  0.1277
 8837SOL    HW137973   0.357   1.232   5.427 -0.6222 -0.3290  1.0845
 8837SOL    HW237974   0.485   1.158   5.425  0.4054 -3.5011 -0.3601
 8838SOL     OW37975   0.563   2.544  13.137 -0.1228  0.5575  0.4685
 8838SOL    HW137976   0.627   2.615  13.137  1.4713 -0.9051  2.9842
 8838SOL    HW237977   0.539   2.540  13.044 -3.2001 -0.8168  1.3128
 8839SOL     OW37978   2.575   4.614   7.715  0.1584 -0.5034  0.1236
 8839SOL    HW137979   2.483   4.629   7.691  0.3794 -0.7706 -0.8802
 8839SOL    HW237980   2.608   4.704   7.724  0.2448 -0.4363 -0.8977
 8840SOL     OW37981   2.766   1.756   9.284 -0.0608  0.9355  0.2997
 8840SOL    HW137982   2.734   1.666   9.276 -0.0245  0.7412  2.2257
 8840SOL    HW237983   2.762   1.761   9.380  0.0076  2.1151  0.2382
 8841SOL     OW37984   1.753   3.852   6.287  0.4728 -0.6222 -0.4213
 8841SOL    HW137985   1.679   3.875   6.232 -1.7092  0.0785  2.8167
 8841SOL    HW237986   1.819   3.910   6.250  0.3293 -0.6866 -0.7813
 8842SOL     OW37987   3.037   0.405  15.127 -0.4016 -0.1822  0.3794
 8842SOL    HW137988   2.979   0.431  15.055  1.0593 -2.0722 -1.4630
 8842SOL    HW237989   3.033   0.310  15.120  1.6306 -0.1531 -1.0965
 8843SOL     OW37990   2.172   0.549  14.216 -0.6580  0.1759  0.0003
 8843SOL    HW137991   2.245   0.490  14.199 -0.2008  0.4198  1.0956
 8843SOL    HW237992   2.218   0.607  14.276 -0.1187 -1.7847  1.4754
 8844SOL     OW37993   4.247   4.590   0.470  0.1663  0.3165 -0.3741
 8844SOL    HW137994   4.278   4.680   0.461 -2.9260  1.2275 -1.6597
 8844SOL    HW237995   4.309   4.559   0.537  1.5845  2.6193 -0.6115
 8845SOL     OW37996   0.608   2.594   4.518 -0.5657 -0.1547 -0.3989
 8845SOL    HW137997   0.637   2.616   4.430  2.1752  0.0409  0.5643
 8845SOL    HW237998   0.692   2.594   4.563  1.0536 -1.3365 -3.4293
 8846SOL     OW37999   2.525   0.922   4.877  0.3788  0.6954  0.6028
 8846SOL    HW138000   2.456   0.953   4.935 -1.3462 -0.2370 -0.9472
 8846SOL    HW238001   2.592   0.897   4.941  0.4556  1.3152  0.7615
 8847SOL     OW38002   2.936   0.261   9.299 -0.5130  0.1943  0.0314
 8847SOL    HW138003   2.907   0.186   9.350  0.7022 -0.3110 -0.0128
 8847SOL    HW238004   2.923   0.333   9.362  3.3953  0.8872  0.0721
 8848SOL     OW38005   2.737   4.548   0.247  0.7360 -0.5361  0.1336
 8848SOL    HW138006   2.675   4.582   0.181  2.4710  1.2084 -0.5896
 8848SOL    HW238007   2.677   4.538   0.321 -0.0523 -0.9517 -0.5529
 8849SOL     OW38008   1.666   0.037  15.687 -0.8456 -0.2314  0.0722
 8849SOL    HW138009   1.762   0.038  15.682 -0.8008  1.1726  1.2729
 8849SOL    HW238010   1.643   0.076  15.603  1.0543  0.2355 -0.2435
 8850SOL     OW38011   1.695   2.104   2.465 -0.9467 -0.4539 -0.7848
 8850SOL    HW138012   1.681   2.094   2.370 -0.9333  1.9192 -1.0444
 8850SOL    HW238013   1.645   2.034   2.507  0.8666 -2.0551 -1.3242
 8851SOL     OW38014   4.178   0.718   9.756 -0.4381  0.2668  0.1833
 8851SOL    HW138015   4.117   0.770   9.705 -2.0804 -1.7542  0.0863
 8851SOL    HW238016   4.221   0.674   9.683 -1.1672 -0.2385  0.0603
 8852SOL     OW38017   0.072   4.038   5.191 -0.9693  0.3489  0.0340
 8852SOL    HW138018   0.160   4.020   5.160 -0.1276  0.2585  2.4151
 8852SOL    HW238019   0.056   4.116   5.139  0.8952  0.4202 -0.4368
 8853SOL     OW38020   0.490   1.061  13.565  0.4438  0.1522 -0.0365
 8853SOL    HW138021   0.426   1.122  13.529  0.4456 -0.0969 -0.4667
 8853SOL    HW238022   0.556   1.060  13.495  1.2052 -2.4477  0.7202
 8854SOL     OW38023   2.948   4.167   2.661  0.2916  0.4196 -0.3388
 8854SOL    HW138024   3.019   4.121   2.706  0.0978  0.3620 -0.0912
 8854SOL    HW238025   3.002   4.218   2.600 -1.3924  0.2941 -1.9254
 8855SOL     OW38026   1.838   0.307   8.580 -0.4391  0.2261 -0.1471
 8855SOL    HW138027   1.755   0.353   8.598 -0.8541 -0.5078 -0.1847
 8855SOL    HW238028   1.809   0.248   8.511 -2.3496  2.4595 -1.2750
 8856SOL     OW38029   4.429   0.485   6.937  0.1718 -0.6338  0.0264
 8856SOL    HW138030   4.439   0.465   6.844  0.0687  0.3209 -0.1883
 8856SOL    HW238031   4.408   0.404   6.984  1.4382 -1.8440 -1.5028
 8857SOL     OW38032   0.029   1.952   4.190  0.5874 -0.3322 -0.7360
 8857SOL    HW138033   4.714   1.970   4.105 -0.4104  0.0712 -0.1766
 8857SOL    HW238034   4.687   1.962   4.258 -0.4244 -0.4657 -1.7312
 8858SOL     OW38035   2.716   4.401   4.221  0.0552  0.1059  0.2855
 8858SOL    HW138036   2.643   4.340   4.218  0.1616 -0.0969  1.5672
 8858SOL    HW238037   2.687   4.461   4.153 -0.3331 -1.4299 -0.8981
 8859SOL     OW38038   0.520   3.780   4.649 -0.5217 -0.2578  0.0397
 8859SOL    HW138039   0.452   3.715   4.665 -0.7059 -0.2899 -0.8783
 8859SOL    HW238040   0.547   3.760   4.560  1.7055  0.8321  0.4752
 8860SOL     OW38041   1.136   3.061   7.510 -0.3350 -0.3824 -0.2343
 8860SOL    HW138042   1.064   2.999   7.503 -0.0661 -1.1287  3.7684
 8860SOL    HW238043   1.172   3.065   7.421  0.1162  1.4737  0.0226
 8861SOL     OW38044   4.350   1.671   9.635  0.1250  0.5853  0.4603
 8861SOL    HW138045   4.334   1.762   9.608 -4.3956 -0.9556 -2.0444
 8861SOL    HW238046   4.430   1.679   9.687 -0.2303  2.1853  0.7554
 8862SOL     OW38047   0.363   4.316   3.037  0.0994  0.2270 -0.4879
 8862SOL    HW138048   0.431   4.250   3.024  0.8702  1.2981 -1.8956
 8862SOL    HW238049   0.389   4.386   2.977  1.0162  1.5237  1.3985
 8863SOL     OW38050   3.375   1.056   5.005 -0.4744 -0.2019  0.9812
 8863SOL    HW138051   3.467   1.066   4.978 -1.2843 -2.8743 -2.8071
 8863SOL    HW238052   3.339   1.104   4.930 -0.0363 -2.2347 -0.5323
 8864SOL     OW38053   3.887   2.235   6.629  0.1047  0.3202  0.1401
 8864SOL    HW138054   3.830   2.269   6.561 -0.7654  0.5068  0.9577
 8864SOL    HW238055   3.947   2.183   6.575 -0.3614 -2.9213  2.7245
 8865SOL     OW38056   1.797   1.012   6.926  0.0929 -0.3038 -0.3064
 8865SOL    HW138057   1.722   0.960   6.955 -0.6466  1.8154  1.6003
 8865SOL    HW238058   1.762   1.077   6.865  0.4294  0.7142  0.5910
 8866SOL     OW38059   2.207   2.945   1.826  0.1693 -0.3035 -0.2881
 8866SOL    HW138060   2.188   2.870   1.769  1.2194 -2.2651  1.9845
 8866SOL    HW238061   2.240   3.004   1.758  1.1503  0.2673  0.6851
 8867SOL     OW38062   4.134   1.466   7.864  0.1465 -0.0900 -0.4708
 8867SOL    HW138063   4.190   1.455   7.787  0.6390  0.3867 -0.1875
 8867SOL    HW238064   4.127   1.562   7.866  2.5894  0.1703 -3.4291
 8868SOL     OW38065   1.394   3.605   1.685 -0.2857  0.1830 -0.3008
 8868SOL    HW138066   1.428   3.694   1.697  0.9531 -0.2540 -0.6071
 8868SOL    HW238067   1.309   3.609   1.728  0.4373  0.5625  1.0949
 8869SOL     OW38068   2.786   1.898   6.948  0.2359  0.4423  0.0062
 8869SOL    HW138069   2.775   1.836   6.876  0.8814 -0.8401  1.0089
 8869SOL    HW238070   2.881   1.904   6.957  0.4688 -2.4434 -0.4757
 8870SOL     OW38071   4.301   2.322   0.501 -0.2459  0.1486  0.0605
 8870SOL    HW138072   4.257   2.291   0.422 -2.3187  1.5043  0.6736
 8870SOL    HW238073   4.303   2.413   0.470  0.8203  0.6167  1.5189
 8871SOL     OW38074   0.304   0.835   6.595  0.0382  0.0597  0.5566
 8871SOL    HW138075   0.231   0.844   6.656 -1.6720 -0.7159 -1.3840
 8871SOL    HW238076   0.311   0.931   6.588  0.4034  0.1451  2.1008
 8872SOL     OW38077   1.209   1.191   3.538 -0.0211 -0.4720 -0.1923
 8872SOL    HW138078   1.212   1.107   3.582 -0.9901 -0.7073 -0.5739
 8872SOL    HW238079   1.294   1.179   3.495 -0.2129  2.3162 -1.3681
 8873SOL     OW38080   4.323   0.616   3.606 -0.7400 -0.5226  0.0674
 8873SOL    HW138081   4.313   0.531   3.562  2.3707 -0.0639 -1.5305
 8873SOL    HW238082   4.408   0.609   3.649 -1.5798  1.6495  2.0662
 8874SOL     OW38083   3.130   3.648   8.417 -0.2784  0.1397  0.0211
 8874SOL    HW138084   3.192   3.651   8.344 -3.1719  2.6503 -2.2852
 8874SOL    HW238085   3.177   3.703   8.480 -1.2721 -0.5612  1.3668
 8875SOL     OW38086   0.530   1.465   9.144  0.0525  0.5141  0.2075
 8875SOL    HW138087   0.602   1.519   9.179  1.5622 -0.3286 -1.6189
 8875SOL    HW238088   0.550   1.381   9.186 -0.0714  1.3815  2.0335
 8876SOL     OW38089   0.381   4.287   5.134 -0.3458 -0.2381  0.5883
 8876SOL    HW138090   0.348   4.323   5.052 -0.5571  2.0077  1.6537
 8876SOL    HW238091   0.343   4.344   5.201 -0.6714  2.0953 -1.5869
 8877SOL     OW38092   3.988   0.989   3.656 -0.3891 -0.0853  0.1512
 8877SOL    HW138093   3.933   0.969   3.580  0.2206 -1.9929  0.2297
 8877SOL    HW238094   3.975   1.084   3.661  0.7508  0.0496  0.5926
 8878SOL     OW38095   4.384   2.523   3.293  0.1436 -0.1687 -0.5258
 8878SOL    HW138096   4.376   2.613   3.325 -1.4998  0.2134 -2.0018
 8878SOL    HW238097   4.336   2.489   3.368 -0.2387  0.4559 -0.4890
 8879SOL     OW38098   2.538   2.141   7.768  0.5970 -0.2873 -0.5306
 8879SOL    HW138099   2.553   2.167   7.677  0.7823 -0.8728 -0.6691
 8879SOL    HW238100   2.541   2.046   7.753 -0.8889 -0.3897 -0.1532
 8880SOL     OW38101   0.577   3.830   9.295  0.7018 -0.5339 -0.2803
 8880SOL    HW138102   0.640   3.759   9.309  0.5724 -1.3311 -3.5262
 8880SOL    HW238103   0.607   3.896   9.357  1.1929 -1.1515  0.1360
 8881SOL     OW38104   2.632   1.235   6.811  0.1689  0.0788  0.2354
 8881SOL    HW138105   2.671   1.231   6.723 -0.9804 -2.2888 -0.1810
 8881SOL    HW238106   2.713   1.208   6.854  0.2041  1.4407  1.0258
 8882SOL     OW38107   0.358   0.995   9.428  0.0773 -0.8398 -0.0726
 8882SOL    HW138108   0.417   0.919   9.421  1.2474  0.1935 -1.3961
 8882SOL    HW238109   0.269   0.960   9.436  0.1725 -0.8147  1.0301
 8883SOL     OW38110   0.677   2.722  11.764  0.4956 -0.6536  0.3648
 8883SOL    HW138111   0.627   2.796  11.800 -0.7079  0.3483 -3.3662
 8883SOL    HW238112   0.755   2.760  11.724  0.9141  0.1466  1.9094
 8884SOL     OW38113   2.521   2.143   1.609 -0.3062 -0.4195  0.1333
 8884SOL    HW138114   2.605   2.099   1.621  0.8467  0.8709 -3.2401
 8884SOL    HW238115   2.545   2.192   1.530  0.6427  1.1410  1.3729
 8885SOL     OW38116   1.169   3.726   6.828 -0.6885  0.0464  0.1730
 8885SOL    HW138117   1.171   3.750   6.735 -0.8196 -0.6108  0.0028
 8885SOL    HW238118   1.166   3.630   6.828 -0.0311  0.0284  0.8775
 8886SOL     OW38119   4.204   2.647  13.750 -0.1552  0.1818  0.3903
 8886SOL    HW138120   4.133   2.711  13.743  0.1057  0.5150  0.7880
 8886SOL    HW238121   4.176   2.601  13.830 -0.0537  1.6663  1.2845
 8887SOL     OW38122   0.138   0.170  14.954 -0.2207  0.0601 -0.2724
 8887SOL    HW138123   0.191   0.232  15.004  0.9595  0.2930 -1.8129
 8887SOL    HW238124   0.206   0.107  14.931  0.6470 -0.3817  3.4568
 8888SOL     OW38125   4.451   2.625   6.697 -0.1235  0.6045  0.0009
 8888SOL    HW138126   4.437   2.651   6.789 -3.7781  0.3928 -0.4895
 8888SOL    HW238127   4.424   2.533   6.692  1.2893  0.1471  0.8512
 8889SOL     OW38128   0.415   1.715   2.331 -0.0163  0.2384 -0.4345
 8889SOL    HW138129   0.410   1.684   2.422 -2.9087 -0.4871 -0.8533
 8889SOL    HW238130   0.480   1.663   2.283  1.3514  2.7848 -1.3256
 8890SOL     OW38131   3.195   0.886   7.226  0.0231 -0.4727 -0.3248
 8890SOL    HW138132   3.174   0.978   7.244  2.7774  0.0019  0.4455
 8890SOL    HW238133   3.225   0.897   7.136 -0.1075 -0.6550 -0.3894
 8891SOL     OW38134   4.470   2.362   7.502  0.0988  0.2528 -0.0266
 8891SOL    HW138135   4.463   2.274   7.463  1.6089 -0.2112  0.7697
 8891SOL    HW238136   4.528   2.348   7.576  0.6448  0.9359 -0.3360
 8892SOL     OW38137   1.456   3.435   7.004  0.1692 -0.1787  0.2074
 8892SOL    HW138138   1.487   3.481   6.926  1.8092 -1.7214 -0.0611
 8892SOL    HW238139   1.503   3.483   7.072 -0.6743  0.6074  0.2343
 8893SOL     OW38140   0.771   0.591   2.718 -0.0891 -0.2949 -0.7286
 8893SOL    HW138141   0.718   0.527   2.670 -0.5255  0.8235 -1.7513
 8893SOL    HW238142   0.825   0.540   2.777  0.3739  0.0777 -0.8307
 8894SOL     OW38143   1.925   4.331  13.320 -0.0780 -0.0310 -0.4260
 8894SOL    HW138144   1.998   4.288  13.275  1.3146 -0.9468  2.7169
 8894SOL    HW238145   1.915   4.415  13.276 -1.8504 -0.2773 -0.4751
 8895SOL     OW38146   0.415   3.496   6.529 -0.0629 -0.0247  0.0268
 8895SOL    HW138147   0.403   3.449   6.612  0.7556 -1.6757 -0.7907
 8895SOL    HW238148   0.473   3.439   6.478 -0.0423 -0.8829  1.0025
 8896SOL     OW38149   1.863   1.575   7.783 -0.0485 -0.4440  0.1248
 8896SOL    HW138150   1.770   1.595   7.777  0.0245 -0.0602  0.2844
 8896SOL    HW238151   1.879   1.515   7.709  1.3849 -1.2808  1.1058
 8897SOL     OW38152   4.708   0.952   2.694  0.5387 -0.3376 -0.2034
 8897SOL    HW138153   0.068   0.916   2.716  0.6028  0.3098  0.5991
 8897SOL    HW238154   0.007   1.015   2.626  1.7320  0.9757  1.4697
 8898SOL     OW38155   4.020   1.355  17.448  0.5138  0.1590 -0.5502
 8898SOL    HW138156   3.985   1.272  17.417 -0.4657  0.6561 -0.7479
 8898SOL    HW238157   4.116   1.347  17.453  0.2128 -2.9281  0.1908
 8899SOL     OW38158   3.132   2.292   9.057  0.0998 -0.3284 -0.0994
 8899SOL    HW138159   3.088   2.377   9.051 -0.4552 -0.7148 -1.4410
 8899SOL    HW238160   3.079   2.258   9.129  1.0241  0.0250  0.7534
 8900SOL     OW38161   2.151   2.780  11.937  0.2114  0.0961  0.1989
 8900SOL    HW138162   2.217   2.834  11.894  1.4133 -0.8209  0.8781
 8900SOL    HW238163   2.145   2.707  11.876 -0.3032  1.6032 -1.5262
 8901SOL     OW38164   4.536   3.386   6.495  0.2631  0.0604 -0.0542
 8901SOL    HW138165   4.625   3.393   6.461  0.6700 -1.6926  0.6572
 8901SOL    HW238166   4.557   3.415   6.584 -0.0733 -2.0738  0.7073
 8902SOL     OW38167   4.105   0.440   7.798  0.1529 -0.7476 -0.4519
 8902SOL    HW138168   4.047   0.482   7.861  0.8500 -2.9755  1.7121
 8902SOL    HW238169   4.192   0.459   7.835 -0.6619  1.5683  0.2431
 8903SOL     OW38170   3.637   3.341   7.979  0.4908  0.2170  0.0979
 8903SOL    HW138171   3.667   3.337   7.888 -1.3580  0.3975 -0.5066
 8903SOL    HW238172   3.711   3.389   8.017 -0.2294 -0.5610  2.4844
 8904SOL     OW38173   4.549   2.749   2.905 -0.1377 -0.1196 -0.0503
 8904SOL    HW138174   4.590   2.666   2.930 -0.5226 -0.7555 -1.5571
 8904SOL    HW238175   4.503   2.717   2.827 -0.7207  2.0059 -0.5679
 8905SOL     OW38176   0.073   2.627   2.573  0.2297  0.2657 -0.2488
 8905SOL    HW138177   0.120   2.676   2.505  1.1932 -0.2199  0.0667
 8905SOL    HW238178   0.146   2.619   2.635 -0.3181 -0.8776  0.2383
 8906SOL     OW38179   1.585   3.375   1.636 -0.1906 -0.7701  0.0457
 8906SOL    HW138180   1.517   3.417   1.688  2.0585  0.2320  2.1471
 8906SOL    HW238181   1.655   3.439   1.649 -0.9975 -0.2277  1.7311
 8907SOL     OW38182   4.718   4.667   1.226  0.0092 -0.2746 -0.2594
 8907SOL    HW138183   0.068   4.724   1.212  1.3183 -2.6038 -2.6598
 8907SOL    HW238184   0.014   4.613   1.301 -1.5938 -3.0704 -1.8077
 8908SOL     OW38185   4.418   4.188   6.566  0.0863  0.9165 -0.7141
 8908SOL    HW138186   4.420   4.093   6.555 -1.0570  0.6861  1.0370
 8908SOL    HW238187   4.497   4.219   6.523  0.5254  1.2032  0.2932
 8909SOL     OW38188   0.806   3.014  13.780 -0.1565  0.0859  0.3736
 8909SOL    HW138189   0.826   3.107  13.795 -1.9839  0.1001  2.7490
 8909SOL    HW238190   0.757   2.987  13.858 -2.1135  1.4064 -0.3853
 8910SOL     OW38191   0.129   0.589  10.467 -0.6794 -0.3988 -0.1482
 8910SOL    HW138192   0.119   0.521  10.534 -0.0768  1.4330  1.8168
 8910SOL    HW238193   0.221   0.608  10.484 -0.4226 -1.3041 -0.5977
 8911SOL     OW38194   4.288   0.089   7.207 -0.0581  0.5684  0.7311
 8911SOL    HW138195   4.305   0.055   7.294  0.9339 -0.2243  0.2340
 8911SOL    HW238196   4.237   0.016   7.172  0.7081 -0.3604  1.5533
 8912SOL     OW38197   0.668   2.996  13.125  0.2559  0.6990 -0.6337
 8912SOL    HW138198   0.606   2.946  13.071  1.4232 -1.1033 -0.3194
 8912SOL    HW238199   0.614   3.056  13.177 -0.6937  0.3234 -1.1760
 8913SOL     OW38200   2.440   2.164   6.569 -0.6384 -0.4313  0.0385
 8913SOL    HW138201   2.412   2.083   6.613  1.8083 -0.9393  0.6309
 8913SOL    HW238202   2.360   2.213   6.588  0.6861  1.5291  0.5206
 8914SOL     OW38203   4.000   4.027   5.223  0.0146  0.3230  1.0635
 8914SOL    HW138204   4.015   4.103   5.166  1.5123 -1.6721 -1.1666
 8914SOL    HW238205   4.019   3.950   5.170 -1.0272  0.3151  0.7039
 8915SOL     OW38206   0.635   0.024   7.160  0.4972  0.3817 -0.2545
 8915SOL    HW138207   0.682   0.009   7.078 -0.2604 -0.1145 -0.6044
 8915SOL    HW238208   0.628   0.119   7.158  0.7060  0.3865 -0.8131
 8916SOL     OW38209   3.582   1.662   8.675  0.0750  0.1454  0.3626
 8916SOL    HW138210   3.632   1.582   8.690 -2.5549 -2.0944 -2.9245
 8916SOL    HW238211   3.583   1.674   8.580  1.4958  2.0572  0.6248
 8917SOL     OW38212   3.543   2.514  14.574 -0.2042 -0.0018  0.5521
 8917SOL    HW138213   3.611   2.484  14.634 -1.3422 -2.5394  0.5716
 8917SOL    HW238214   3.497   2.577  14.630  1.5002 -0.2194  2.2162
 8918SOL     OW38215   0.758   3.962   3.240 -0.0307 -0.2421  0.0378
 8918SOL    HW138216   0.842   4.007   3.248 -0.4843  0.3791  1.2988
 8918SOL    HW238217   0.714   4.044   3.218 -0.9055  0.0291  2.7619
 8919SOL     OW38218   0.504   4.084   6.726  0.0465 -0.5289 -0.1519
 8919SOL    HW138219   0.594   4.056   6.709 -0.0625 -0.1226 -1.3912
 8919SOL    HW238220   0.507   4.086   6.822 -1.1727  0.3079 -0.1431
 8920SOL     OW38221   1.668   3.987   7.102 -0.0822 -0.0200  0.0664
 8920SOL    HW138222   1.686   3.903   7.060 -0.6124  0.3343 -0.8530
 8920SOL    HW238223   1.574   3.977   7.116 -0.5183 -1.3203 -3.9142
 8921SOL     OW38224   0.146   4.418  15.064 -0.8262  0.8588 -0.0129
 8921SOL    HW138225   0.090   4.349  15.099 -0.6684  0.2177 -1.0269
 8921SOL    HW238226   0.079   4.480  15.037 -2.4171  0.3406  2.7891
 8922SOL     OW38227   0.064   1.924  17.141 -0.0378  0.5428  0.7709
 8922SOL    HW138228   0.072   1.830  17.161  0.9642  0.6780  0.9975
 8922SOL    HW238229   0.140   1.929  17.083 -1.3136 -1.3045 -1.0449
 8923SOL     OW38230   3.661   4.093   3.388 -0.0767  0.6429  0.1477
 8923SOL    HW138231   3.616   4.166   3.345 -1.2098 -0.5135 -0.6344
 8923SOL    HW238232   3.626   4.112   3.475  1.8761  2.9698  0.4281
 8924SOL     OW38233   1.011   2.972   5.421  0.1851 -0.3049 -0.2828
 8924SOL    HW138234   0.965   3.003   5.343 -0.3081  1.2614  0.6225
 8924SOL    HW238235   1.101   2.978   5.388  0.7806  0.5807  1.4660
 8925SOL     OW38236   0.611   3.806  10.386 -0.2583  0.0569  0.1598
 8925SOL    HW138237   0.652   3.731  10.344  2.6251  2.4654 -1.3834
 8925SOL    HW238238   0.596   3.782  10.478  2.3503 -4.0205 -0.4869
 8926SOL     OW38239   3.509   4.258   7.971  0.4742 -0.0153  0.2809
 8926SOL    HW138240   3.577   4.191   7.956 -0.6818 -0.3900 -3.2226
 8926SOL    HW238241   3.449   4.212   8.029  0.9715 -2.0794 -0.8391
 8927SOL     OW38242   4.046   0.237   5.514 -0.1023 -0.5605 -0.5035
 8927SOL    HW138243   3.957   0.252   5.545 -1.4658  0.1320 -4.7113
 8927SOL    HW238244   4.094   0.310   5.552 -0.5990 -0.9717  0.9138
 8928SOL     OW38245   3.497   0.801  12.163 -0.4983 -0.1655  0.0894
 8928SOL    HW138246   3.575   0.854  12.144 -0.9815  0.9301  1.2132
 8928SOL    HW238247   3.449   0.807  12.080  0.2433 -1.1196 -0.4081
 8929SOL     OW38248   3.517   2.412  13.595  0.3815 -0.2060  0.3921
 8929SOL    HW138249   3.458   2.485  13.615  3.3686  1.6033  2.6146
 8929SOL    HW238250   3.583   2.460  13.546  0.7819 -0.1103  1.0227
 8930SOL     OW38251   4.301   3.168   5.010  0.4308  0.4007 -0.2635
 8930SOL    HW138252   4.253   3.164   4.928 -1.6574  1.6467  0.8917
 8930SOL    HW238253   4.243   3.215   5.070  3.1019  2.3074  0.8196
 8931SOL     OW38254   3.954   3.475   2.812  0.0917 -0.0133  0.1252
 8931SOL    HW138255   3.909   3.535   2.752  0.9579 -0.3111 -0.8318
 8931SOL    HW238256   3.990   3.536   2.877  1.4113 -1.1406  0.4404
 8932SOL     OW38257   2.356   3.332   8.079  0.0576  0.7862  0.4173
 8932SOL    HW138258   2.427   3.380   8.122  1.2337 -0.3826 -0.1986
 8932SOL    HW238259   2.385   3.330   7.988 -3.3200  0.8479 -0.6433
 8933SOL     OW38260   3.181   4.647   1.647 -0.9981 -0.1156  0.0535
 8933SOL    HW138261   3.151   4.556   1.659  0.0579 -0.4304  0.2579
 8933SOL    HW238262   3.150   4.660   1.558 -3.1801 -2.1761  0.4859
 8934SOL     OW38263   0.973   0.339  13.207 -0.1162 -0.2922 -0.1469
 8934SOL    HW138264   0.943   0.411  13.262 -0.2075 -0.4889  0.0599
 8934SOL    HW238265   1.044   0.305  13.262 -0.0990 -0.1861 -0.1040
 8935SOL     OW38266   1.349   0.646   2.243  0.2037 -0.2727  0.5956
 8935SOL    HW138267   1.422   0.701   2.272 -1.2701  1.4627  1.0361
 8935SOL    HW238268   1.310   0.717   2.192  0.1385  0.1270  1.1997
 8936SOL     OW38269   0.672   3.145   0.226 -0.0101 -0.1736  0.8919
 8936SOL    HW138270   0.661   3.078   0.294  0.7931 -1.2969 -0.0882
 8936SOL    HW238271   0.649   3.220   0.282  0.3741 -0.7586  1.8370
 8937SOL     OW38272   1.565   2.293  11.444  0.1013  0.3903 -0.5110
 8937SOL    HW138273   1.653   2.259  11.456  0.0616  0.8253  1.0265
 8937SOL    HW238274   1.584   2.385  11.428  0.7109  0.0789 -1.5701
 8938SOL     OW38275   4.499   2.075   8.114 -0.3938 -0.0317  0.1972
 8938SOL    HW138276   4.495   2.169   8.133  0.4323  0.0869 -0.1874
 8938SOL    HW238277   4.590   2.046   8.115  0.8193  3.7646  1.5301
 8939SOL     OW38278   2.521   1.459   1.694 -0.3658  0.1362 -0.2279
 8939SOL    HW138279   2.478   1.428   1.614  0.0940  1.1873 -0.8911
 8939SOL    HW238280   2.525   1.554   1.683  0.2554  0.3815  2.0804
 8940SOL     OW38281   4.028   0.620  12.951  0.3917  0.3412  0.1511
 8940SOL    HW138282   3.947   0.583  12.915 -0.2498  3.6534 -1.7971
 8940SOL    HW238283   4.076   0.538  12.937  1.1426  0.3872  2.4035
 8941SOL     OW38284   0.010   2.290   6.492  0.2156 -0.5628  0.4533
 8941SOL    HW138285   4.720   2.383   6.478 -0.5761 -0.8482 -0.5765
 8941SOL    HW238286   4.663   2.266   6.548 -1.2440 -0.2931 -1.3236
 8942SOL     OW38287   3.045   1.424   8.742  0.0943  0.8277 -0.0494
 8942SOL    HW138288   3.019   1.516   8.743  1.9827  1.3453  2.9406
 8942SOL    HW238289   2.997   1.376   8.675 -0.3883  0.7976  0.3141
 8943SOL     OW38290   2.408   4.151   9.546  0.0604  0.3537  0.1562
 8943SOL    HW138291   2.458   4.232   9.536  0.3645 -0.3408 -3.9254
 8943SOL    HW238292   2.383   4.141   9.454  1.8428 -0.6529 -0.2211
 8944SOL     OW38293   0.119   2.476   3.608 -0.1808  0.3344 -0.1511
 8944SOL    HW138294   0.168   2.529   3.545  1.5434 -0.5897  0.4414
 8944SOL    HW238295   0.043   2.453   3.553  0.4658 -0.1658 -0.8329
 8945SOL     OW38296   1.414   4.216  11.904  0.1016 -0.3093  0.8836
 8945SOL    HW138297   1.451   4.201  11.991  1.8736 -0.1836  0.1435
 8945SOL    HW238298   1.350   4.149  11.881  0.1870  0.3229 -1.2100
 8946SOL     OW38299   4.378   2.977   0.698  0.0944 -0.4858  0.6680
 8946SOL    HW138300   4.402   3.069   0.689 -1.0037 -0.1489  1.1437
 8946SOL    HW238301   4.441   2.926   0.647  0.0068  0.7024 -0.5949
 8947SOL     OW38302   3.306   3.295  13.217  0.1279  0.3637 -0.3515
 8947SOL    HW138303   3.374   3.308  13.151  0.4333 -0.6968 -0.2481
 8947SOL    HW238304   3.356   3.253  13.286  0.0965 -2.3493 -1.9452
 8948SOL     OW38305   1.973   1.690   3.119 -0.2664 -0.2266  0.0304
 8948SOL    HW138306   1.943   1.772   3.156  0.2881 -0.9551  2.1013
 8948SOL    HW238307   1.886   1.650   3.117  0.4001 -1.7905  2.5689
 8949SOL     OW38308   3.886   0.875   3.431 -0.6097 -0.2323 -0.1170
 8949SOL    HW138309   3.862   0.790   3.467  2.7019  0.5357  3.8725
 8949SOL    HW238310   3.805   0.926   3.435 -1.4749 -1.3879 -2.8385
 8950SOL     OW38311   4.492   2.390  15.446 -0.2957 -0.5695  0.3174
 8950SOL    HW138312   4.441   2.405  15.525 -0.3492  0.7226  0.0296
 8950SOL    HW238313   4.425   2.412  15.381 -0.5115 -1.4873  0.2277
 8951SOL     OW38314   2.479   3.986  14.028 -0.0576 -0.4868 -0.0908
 8951SOL    HW138315   2.566   4.019  14.005  0.3059 -0.4197  1.3294
 8951SOL    HW238316   2.508   3.924  14.095 -1.3932  0.7558  1.6337
 8952SOL     OW38317   4.047   0.752   8.640 -0.0219 -0.8649  0.2734
 8952SOL    HW138318   4.014   0.671   8.679 -2.1376 -0.2547 -0.2397
 8952SOL    HW238319   4.136   0.759   8.675 -0.9026  0.3398  2.2677
 8953SOL     OW38320   2.798   1.924   1.288 -0.1320 -0.0621  0.1029
 8953SOL    HW138321   2.853   1.876   1.226  0.3052  1.0350 -0.3500
 8953SOL    HW238322   2.789   2.004   1.237 -3.0117 -0.8852 -0.6906
 8954SOL     OW38323   0.519   4.219   7.591 -0.0041 -0.5781 -0.2437
 8954SOL    HW138324   0.527   4.206   7.685  0.4064  1.7161  0.0452
 8954SOL    HW238325   0.533   4.314   7.590  0.4537 -0.6405  0.4275
 8955SOL     OW38326   0.787   4.633   7.891 -0.3268 -0.6940  0.7055
 8955SOL    HW138327   0.778   4.714   7.942  0.7180  0.3028 -0.6977
 8955SOL    HW238328   0.739   4.569   7.944 -1.5490 -1.1524 -0.9535
 8956SOL     OW38329   0.341   3.309   8.095  0.4228 -0.2943  0.5445
 8956SOL    HW138330   0.284   3.263   8.156 -0.9130  2.7574  1.5425
 8956SOL    HW238331   0.280   3.328   8.024  2.5464  1.1913 -0.8857
 8957SOL     OW38332   2.686   2.129   6.832  0.0885  0.2383  0.3749
 8957SOL    HW138333   2.607   2.100   6.878 -0.2587  1.3588  0.4889
 8957SOL    HW238334   2.742   2.057   6.863  0.2392  1.1289  2.1748
 8958SOL     OW38335   4.168   2.428   7.515 -0.1861 -0.6824 -0.3283
 8958SOL    HW138336   4.144   2.335   7.518 -0.0722 -0.6871  0.3559
 8958SOL    HW238337   4.262   2.433   7.529 -0.2657 -2.7783  1.0047
 8959SOL     OW38338   3.004   2.187   5.160 -0.4504 -0.1548 -0.3216
 8959SOL    HW138339   3.036   2.129   5.090  2.7933  2.0643 -0.7058
 8959SOL    HW238340   2.966   2.253   5.103 -0.0832  0.2930 -0.0446
 8960SOL     OW38341   3.273   2.104  12.291  0.3231 -0.0849 -0.2919
 8960SOL    HW138342   3.198   2.130  12.345  0.4568  2.1268 -1.1677
 8960SOL    HW238343   3.344   2.160  12.323 -0.3370 -0.4973  1.9129
 8961SOL     OW38344   4.351   0.172  10.075 -0.2627  0.0809  0.2507
 8961SOL    HW138345   4.382   0.246  10.023 -0.0185  1.7905  2.8211
 8961SOL    HW238346   4.304   0.126  10.005  2.1351 -1.2497 -0.4912
 8962SOL     OW38347   2.706   0.267   3.398  0.1104 -0.0605 -0.0591
 8962SOL    HW138348   2.661   0.347   3.425  0.8711 -0.4196  2.3256
 8962SOL    HW238349   2.654   0.250   3.320 -0.6057  1.2240  0.1519
 8963SOL     OW38350   4.210   4.289   5.943  0.5741 -0.1417 -0.2604
 8963SOL    HW138351   4.291   4.279   5.992 -0.5928 -1.8536  1.3078
 8963SOL    HW238352   4.157   4.223   5.988 -0.6631  1.8732  1.2608
 8964SOL     OW38353   2.889   1.520  14.615  0.7351 -0.5258  0.3297
 8964SOL    HW138354   2.800   1.497  14.588  0.4622 -0.3715  1.0780
 8964SOL    HW238355   2.938   1.459  14.560 -0.6709 -0.5471 -0.8840
 8965SOL     OW38356   0.142   0.344   9.314 -0.7101 -0.2978 -0.3949
 8965SOL    HW138357   0.187   0.377   9.391 -0.1655 -1.3129 -0.2796
 8965SOL    HW238358   0.137   0.256   9.352  2.0891 -0.5167 -0.5079
 8966SOL     OW38359   0.689   4.043   7.178  0.0130  0.4247 -0.3138
 8966SOL    HW138360   0.738   4.118   7.214 -2.2960  0.3783  2.9065
 8966SOL    HW238361   0.656   3.990   7.250 -1.6497 -0.3831 -1.6643
 8967SOL     OW38362   2.508   1.425   8.800 -0.2120  0.4949  0.3069
 8967SOL    HW138363   2.472   1.340   8.827 -1.2477 -0.2628 -3.4749
 8967SOL    HW238364   2.430   1.464   8.762 -0.6654  1.3989  2.1367
 8968SOL     OW38365   0.501   1.475   4.366  0.0073  0.1274 -0.5579
 8968SOL    HW138366   0.559   1.480   4.290  2.0667  0.5156  1.0223
 8968SOL    HW238367   0.537   1.394   4.402 -0.9583  0.0020  0.1242
 8969SOL     OW38368   2.769   2.765  14.067  0.1123  0.3367  0.2347
 8969SOL    HW138369   2.848   2.727  14.106 -0.4829 -1.8872 -0.7146
 8969SOL    HW238370   2.751   2.703  13.997  0.2812 -0.2893  0.7450
 8970SOL     OW38371   2.362   0.268   2.744  0.1373 -0.7098 -0.3998
 8970SOL    HW138372   2.384   0.325   2.670 -0.8494  1.1779  0.7489
 8970SOL    HW238373   2.274   0.235   2.728  0.2371 -2.3396  2.3841
 8971SOL     OW38374   0.987   4.688   4.212 -0.3194  0.1902  0.1329
 8971SOL    HW138375   0.963   4.631   4.286 -0.4209  2.2729  1.6966
 8971SOL    HW238376   1.079   4.667   4.201 -0.2567  0.7460 -0.3966
 8972SOL     OW38377   0.310   3.888   3.138  0.5439 -0.1090 -0.5482
 8972SOL    HW138378   0.331   3.931   3.055  2.1209  1.1033  0.4804
 8972SOL    HW238379   0.393   3.843   3.157  0.2917  0.3223  1.5599
 8973SOL     OW38380   0.904   1.472   9.074  0.3483  0.0813  0.5452
 8973SOL    HW138381   0.959   1.525   9.132 -1.8194 -0.4878  3.1146
 8973SOL    HW238382   0.964   1.441   9.006  1.1277  0.0007  1.2647
 8974SOL     OW38383   0.931   0.676   7.352 -0.2019 -0.3443 -0.5647
 8974SOL    HW138384   1.023   0.702   7.346 -0.3815 -0.0280 -1.8375
 8974SOL    HW238385   0.926   0.701   7.445  1.0719 -2.8558  0.1854
 8975SOL     OW38386   4.382   0.084   0.456  0.1078  0.1558 -0.3986
 8975SOL    HW138387   4.470   0.066   0.421  0.6499  0.2152  0.9326
 8975SOL    HW238388   4.404   0.163   0.504 -1.0995 -0.0635  0.4972
 8976SOL     OW38389   0.430   2.440   4.670  0.3971  0.4331 -0.1569
 8976SOL    HW138390   0.496   2.491   4.624 -2.6419  2.3120 -2.4467
 8976SOL    HW238391   0.429   2.495   4.748 -0.2626 -1.5677  1.2686
 8977SOL     OW38392   0.142   2.282   0.038  0.2812 -0.4305 -0.4862
 8977SOL    HW138393   0.102   2.333  17.671 -0.9196 -0.5209  0.1167
 8977SOL    HW238394   0.180   2.210  17.692 -0.7040 -0.0346 -1.8301
 8978SOL     OW38395   1.313   2.861  12.257  0.0601 -0.4135 -0.4737
 8978SOL    HW138396   1.371   2.932  12.286 -1.6191  0.2104  1.3469
 8978SOL    HW238397   1.388   2.804  12.239  0.7655  1.1318 -2.6235
 8979SOL     OW38398   0.441   3.946   3.642 -0.2520 -0.6283  0.6520
 8979SOL    HW138399   0.414   3.855   3.652 -0.5904 -0.5289  0.6478
 8979SOL    HW238400   0.420   3.980   3.729 -0.7803  2.6151 -0.7227
 8980SOL     OW38401   3.021   2.343  15.922 -0.5893  0.3171  0.3708
 8980SOL    HW138402   3.020   2.342  16.018  0.4482 -0.0884  0.3752
 8980SOL    HW238403   2.959   2.271  15.915  0.2212 -0.4258  0.7993
 8981SOL     OW38404   1.594   1.219   4.356 -0.1304  0.0958 -0.0673
 8981SOL    HW138405   1.558   1.131   4.350 -0.7261  0.2067  2.0102
 8981SOL    HW238406   1.557   1.260   4.277 -1.3096 -3.3054 -1.2918
 8982SOL     OW38407   0.547   2.042   7.327 -0.5395  0.3709 -0.4397
 8982SOL    HW138408   0.584   2.095   7.256 -1.1286  1.4294  0.0352
 8982SOL    HW238409   0.589   2.075   7.407 -3.4942  0.5273  1.0287
 8983SOL     OW38410   1.013   1.963  11.356 -0.1589 -0.0209  0.0934
 8983SOL    HW138411   0.983   1.956  11.265  2.0181  0.5931 -0.6829
 8983SOL    HW238412   1.013   1.872  11.388 -0.4116  0.2715  0.9179
 8984SOL     OW38413   1.278   1.395   5.678 -0.4587  0.1075  0.0484
 8984SOL    HW138414   1.194   1.385   5.633 -0.2887 -0.0321 -0.2372
 8984SOL    HW238415   1.316   1.476   5.644  1.3526 -1.0340 -0.6733
 8985SOL     OW38416   4.317   4.426   5.751  0.1132  0.3754  0.3910
 8985SOL    HW138417   4.261   4.392   5.821 -0.9654 -0.4243 -0.8585
 8985SOL    HW238418   4.305   4.361   5.682 -1.1503  1.3542 -0.3113
 8986SOL     OW38419   3.395   1.980   3.836 -0.2697 -0.1962  0.8450
 8986SOL    HW138420   3.466   2.037   3.805  0.3652 -1.5450 -0.2070
 8986SOL    HW238421   3.432   1.895   3.812  1.3416  0.8040 -0.2040
 8987SOL     OW38422   4.528   1.382   7.031  0.6683  0.0045 -0.1432
 8987SOL    HW138423   4.518   1.374   7.126  0.6414 -0.4682 -0.1858
 8987SOL    HW238424   4.468   1.314   7.000  1.8038 -2.1997  2.4169
 8988SOL     OW38425   2.753   1.717  13.306  0.3039 -0.6862  0.3319
 8988SOL    HW138426   2.761   1.681  13.218 -1.2365  2.5000 -1.1314
 8988SOL    HW238427   2.669   1.684  13.337 -0.8370  0.0211 -2.0418
 8989SOL     OW38428   1.496   4.668  11.648 -0.3900  0.2024 -0.0971
 8989SOL    HW138429   1.484   4.599  11.714  0.3443  1.8395  1.7195
 8989SOL    HW238430   1.403   4.681  11.629 -0.4463 -1.3666 -0.9005
 8990SOL     OW38431   2.903   0.562   1.425  0.3236  0.4374  0.0828
 8990SOL    HW138432   2.973   0.626   1.438 -1.0050  2.1198 -0.9317
 8990SOL    HW238433   2.854   0.584   1.345  0.0784 -1.3194 -0.2533
 8991SOL     OW38434   2.330   0.685   6.295 -0.0011 -0.4843 -0.0376
 8991SOL    HW138435   2.329   0.772   6.256  1.3209  0.2827  1.6306
 8991SOL    HW238436   2.371   0.638   6.223  1.3418 -2.5865  2.0811
 8992SOL     OW38437   3.998   2.492   9.219  0.3467 -0.0987 -0.0648
 8992SOL    HW138438   4.047   2.574   9.218  1.0197 -0.4847  1.1038
 8992SOL    HW238439   4.048   2.448   9.150 -0.6763  0.7452 -1.3584
 8993SOL     OW38440   2.044   0.446  17.115 -0.1827 -0.0589 -0.1386
 8993SOL    HW138441   2.047   0.430  17.021  0.3987  0.3457 -0.1872
 8993SOL    HW238442   1.951   0.462  17.131 -0.3200 -1.1929  0.1874
 8994SOL     OW38443   4.259   3.142   7.509  0.0182  0.5275 -0.2861
 8994SOL    HW138444   4.184   3.124   7.566 -0.2383  0.3971 -0.6669
 8994SOL    HW238445   4.239   3.232   7.485  1.4727  1.8213  3.3399
 8995SOL     OW38446   3.759   1.633   3.605  0.1213 -0.3255  0.0860
 8995SOL    HW138447   3.767   1.659   3.513  1.4468  1.4127  0.6809
 8995SOL    HW238448   3.742   1.539   3.596 -0.0749 -0.2960  0.1313
 8996SOL     OW38449   2.003   0.598   7.232  0.2638 -0.2030  0.2217
 8996SOL    HW138450   2.055   0.562   7.159 -3.1560 -1.3665 -1.6332
 8996SOL    HW238451   1.939   0.652   7.185  2.1817  2.7972  1.0257
 8997SOL     OW38452   2.060   4.178  12.343 -0.0450  0.0989  0.2194
 8997SOL    HW138453   2.072   4.270  12.319  1.2028 -0.4341 -1.1994
 8997SOL    HW238454   1.975   4.182  12.388 -0.0850  0.1449  0.1391
 8998SOL     OW38455   3.283   1.326  11.376 -0.3214  0.4333 -0.0329
 8998SOL    HW138456   3.300   1.308  11.469  1.0093 -0.5447 -0.4619
 8998SOL    HW238457   3.218   1.257  11.361  0.9456 -0.5025 -1.1707
 8999SOL     OW38458   3.397   4.471   3.009 -0.2776 -0.0936  0.3440
 8999SOL    HW138459   3.426   4.418   2.935  0.7373  0.2730  0.4757
 8999SOL    HW238460   3.323   4.423   3.046 -1.0737  1.0955  0.3068
 9000SOL     OW38461   0.999   3.216   2.972  0.3372  0.1529  0.5833
 9000SOL    HW138462   0.986   3.310   2.987 -1.0370 -0.0795  0.8174
 9000SOL    HW238463   1.095   3.223   2.969  0.2737  0.6619 -0.4537
 9001SOL     OW38464   3.535   0.955   5.528 -0.3495 -0.6358  0.4279
 9001SOL    HW138465   3.535   0.990   5.439 -0.7541  0.5657  0.9114
 9001SOL    HW238466   3.446   0.922   5.543 -0.3311 -0.2781  1.2559
 9002SOL     OW38467   3.517   3.671   7.810 -0.2423  0.2574  0.0938
 9002SOL    HW138468   3.545   3.661   7.719 -0.3320  0.5658  0.0321
 9002SOL    HW238469   3.575   3.744   7.832  2.0157 -0.7552 -2.3998
 9003SOL     OW38470   1.111   2.392   4.650  0.0730  0.3583  0.0978
 9003SOL    HW138471   1.158   2.474   4.632 -3.5870  2.3276 -0.5833
 9003SOL    HW238472   1.145   2.374   4.738 -1.6447  1.5955  1.0207
 9004SOL     OW38473   1.197   2.740   9.957  0.2521 -0.0455  0.0915
 9004SOL    HW138474   1.272   2.768   9.905  0.8878 -0.0850  0.9830
 9004SOL    HW238475   1.152   2.686   9.892  0.2427 -1.8725  1.6065
 9005SOL     OW38476   0.453   0.887   4.485 -0.2739 -0.3521  0.6355
 9005SOL    HW138477   0.448   0.886   4.389 -0.0533 -0.0103  0.6220
 9005SOL    HW238478   0.393   0.957   4.508 -0.8649  0.2835 -2.8371
 9006SOL     OW38479   1.347   4.373  10.242  0.3029  0.3623  0.2206
 9006SOL    HW138480   1.328   4.279  10.241  0.5807  0.3004  0.9157
 9006SOL    HW238481   1.264   4.422  10.243 -0.1384 -0.3883  0.5905
 9007SOL     OW38482   4.293   0.372  14.029 -1.0037 -0.0451  0.0715
 9007SOL    HW138483   4.213   0.419  14.006 -3.0403 -2.4814  2.1185
 9007SOL    HW238484   4.298   0.398  14.121  0.2629 -1.2094  0.3273
 9008SOL     OW38485   4.313   0.088   2.333  0.3736  0.9149 -0.2813
 9008SOL    HW138486   4.283   0.160   2.389  0.8960  0.3111  0.7767
 9008SOL    HW238487   4.301   0.013   2.391  4.7509  1.4854  1.3589
 9009SOL     OW38488   1.076   1.849   3.228 -0.0185 -0.0734 -0.3098
 9009SOL    HW138489   1.040   1.798   3.155 -0.9909 -0.6388  0.5686
 9009SOL    HW238490   1.107   1.774   3.279 -0.3293  1.1306  1.6285
 9010SOL     OW38491   3.605   4.391   7.465 -0.2128 -0.3707 -0.1338
 9010SOL    HW138492   3.541   4.365   7.532  1.3239 -0.8756  1.1320
 9010SOL    HW238493   3.553   4.451   7.411  0.3777  0.0234 -0.2637
 9011SOL     OW38494   0.982   2.725  11.122  0.6054  0.2455 -0.4920
 9011SOL    HW138495   1.071   2.695  11.142 -0.9655 -2.8482  1.9113
 9011SOL    HW238496   0.993   2.750  11.030  2.0166  0.1842 -0.3375
 9012SOL     OW38497   2.612   2.884  11.468 -0.1022 -0.5049 -0.5177
 9012SOL    HW138498   2.543   2.860  11.530 -0.2767 -0.9827 -0.8964
 9012SOL    HW238499   2.621   2.975  11.495 -0.5399 -0.8037  0.6557
 9013SOL     OW38500   4.542   4.277   1.617  0.1680  0.1930  1.0104
 9013SOL    HW138501   4.607   4.289   1.686  0.3347  1.5255  0.6248
 9013SOL    HW238502   4.478   4.224   1.664 -0.1183 -0.6996 -0.3860
 9014SOL     OW38503   0.392   2.512   4.158  0.0497  0.3044 -0.0076
 9014SOL    HW138504   0.416   2.433   4.205 -0.9513  0.4439  0.7223
 9014SOL    HW238505   0.347   2.476   4.082  0.6112  0.3638 -0.3696
 9015SOL     OW38506   2.610   2.026  14.949  0.1965  0.6032  0.3130
 9015SOL    HW138507   2.593   2.079  14.871 -1.1635 -2.4905 -1.5145
 9015SOL    HW238508   2.660   2.087  15.003  1.7361  0.0568 -0.4833
 9016SOL     OW38509   1.560   2.325   5.827  0.0222  0.7338 -0.0900
 9016SOL    HW138510   1.586   2.386   5.758  1.2844 -3.1462 -3.0289
 9016SOL    HW238511   1.489   2.376   5.868 -0.9137 -0.2791 -0.4638
 9017SOL     OW38512   3.797   0.919   7.945  0.0810 -0.1577  0.4415
 9017SOL    HW138513   3.745   0.857   7.997  1.4693 -2.1186 -0.5100
 9017SOL    HW238514   3.781   0.993   8.004 -0.9184 -0.7334  0.8899
 9018SOL     OW38515   2.392   0.845   4.651 -0.7547  0.2865  0.2155
 9018SOL    HW138516   2.415   0.909   4.718 -1.6360 -0.5177  1.2830
 9018SOL    HW238517   2.359   0.896   4.577 -3.1267 -0.4616  0.7636
 9019SOL     OW38518   3.266   3.775   9.326  0.1586  0.3979  0.8709
 9019SOL    HW138519   3.256   3.714   9.253 -2.4851  2.0462 -0.1255
 9019SOL    HW238520   3.202   3.736   9.386  0.0043  1.9384  1.7004
 9020SOL     OW38521   3.779   3.943   4.372 -0.1108 -0.2929  0.1708
 9020SOL    HW138522   3.715   3.872   4.363 -2.1152  1.6885 -1.4365
 9020SOL    HW238523   3.802   3.970   4.283 -0.0841 -3.9706 -0.9579
 9021SOL     OW38524   0.018   3.824   6.068 -0.9146 -0.3452  0.9661
 9021SOL    HW138525   0.061   3.740   6.056 -1.2664 -0.4848  0.7157
 9021SOL    HW238526   0.082   3.876   6.118 -1.8875 -0.5410  2.4357
 9022SOL     OW38527   3.463   1.774  14.598 -0.3262 -0.1816  0.3183
 9022SOL    HW138528   3.381   1.793  14.552 -1.7261 -0.6778  2.5877
 9022SOL    HW238529   3.464   1.846  14.662 -1.1374 -1.6321  1.9501
 9023SOL     OW38530   4.498   4.710   8.373 -0.4195  0.4249 -0.2669
 9023SOL    HW138531   4.444   4.645   8.418 -0.2812  1.1104  0.8926
 9023SOL    HW238532   4.564   4.724   8.441 -3.4709  1.1225  2.5080
 9024SOL     OW38533   2.752   1.532   2.340  0.0648  0.3835 -0.0943
 9024SOL    HW138534   2.811   1.485   2.280  0.8592  1.3718 -0.0975
 9024SOL    HW238535   2.680   1.469   2.338  0.3205  0.1317 -1.1613
 9025SOL     OW38536   2.733   0.236   9.083 -0.5310  0.1813 -0.3845
 9025SOL    HW138537   2.678   0.221   9.160  1.5488  0.8185  1.2427
 9025SOL    HW238538   2.803   0.271   9.139 -0.7570 -0.4248  0.2863
 9026SOL     OW38539   0.078   1.491   3.051  0.3062  0.1707  0.0413
 9026SOL    HW138540   0.015   1.555   3.020  1.4739  1.2297 -0.1708
 9026SOL    HW238541   0.150   1.547   3.080 -1.1773  2.3591 -0.5038
 9027SOL     OW38542   3.686   3.963  15.868  0.0783 -0.5197 -0.1786
 9027SOL    HW138543   3.732   4.042  15.896 -2.3740  1.0746 -0.6581
 9027SOL    HW238544   3.689   3.964  15.772 -1.6157 -1.6276 -0.2564
 9028SOL     OW38545   2.461   4.497  13.694 -0.0414  0.0798  0.3504
 9028SOL    HW138546   2.514   4.451  13.759  3.6840  2.9545 -0.7328
 9028SOL    HW238547   2.370   4.468  13.709  0.3701 -0.1121  2.5179
 9029SOL     OW38548   3.589   1.996   7.274 -0.4673  0.5057 -0.2077
 9029SOL    HW138549   3.664   2.016   7.219  0.4116 -1.0480  0.4358
 9029SOL    HW238550   3.610   2.056   7.346  1.4824  0.0903 -0.4415
 9030SOL     OW38551   1.554   0.544   7.973 -0.2219  0.3476  0.0263
 9030SOL    HW138552   1.523   0.629   8.006  0.5979  0.8916 -0.6187
 9030SOL    HW238553   1.632   0.538   8.028 -1.9983 -3.0710  2.2296
 9031SOL     OW38554   4.410   1.387   2.604 -0.4670 -0.4424  0.2777
 9031SOL    HW138555   4.429   1.365   2.695 -0.4551 -0.6901  0.2170
 9031SOL    HW238556   4.491   1.378   2.553  0.4835  2.0208  1.3822
 9032SOL     OW38557   4.652   3.201  12.512  0.1486  0.2963 -0.2498
 9032SOL    HW138558   4.645   3.223  12.420 -1.7446 -1.8982 -0.6129
 9032SOL    HW238559   4.661   3.291  12.545 -3.4361  0.6442 -0.1701
 9033SOL     OW38560   3.877   0.902  10.907 -0.0340  0.7343 -0.3104
 9033SOL    HW138561   3.940   0.860  10.965  0.4380  0.0562 -1.3151
 9033SOL    HW238562   3.797   0.876  10.953  0.2360 -0.6750 -0.6176
 9034SOL     OW38563   2.875   2.832   3.524 -0.0278 -0.3286 -0.1900
 9034SOL    HW138564   2.893   2.822   3.430 -3.0252 -2.5125 -0.5524
 9034SOL    HW238565   2.838   2.746   3.544 -1.7961  0.8789  1.7642
 9035SOL     OW38566   2.830   2.165  12.264  0.3617  0.0019 -0.3241
 9035SOL    HW138567   2.808   2.096  12.326 -0.0917  1.7363  1.4508
 9035SOL    HW238568   2.742   2.197  12.246  1.1612  2.5936  0.2803
 9036SOL     OW38569   2.613   1.194   6.374 -0.1338  0.0551 -0.3735
 9036SOL    HW138570   2.591   1.278   6.333  0.9223  1.6328  2.3166
 9036SOL    HW238571   2.531   1.152   6.399  0.5323 -3.1927 -3.5237
 9037SOL     OW38572   1.737   4.127  13.164 -0.2557 -0.2202 -1.1212
 9037SOL    HW138573   1.730   4.063  13.235  1.7731 -0.0473 -0.7729
 9037SOL    HW238574   1.826   4.154  13.182 -0.4630  1.9403 -3.3064
 9038SOL     OW38575   1.150   1.592   8.867 -0.1760 -0.3655  0.0806
 9038SOL    HW138576   1.116   1.503   8.865 -0.4128 -0.2270 -1.5450
 9038SOL    HW238577   1.177   1.591   8.959  0.3353  0.1418 -0.0603
 9039SOL     OW38578   3.228   1.286  16.496  0.0517  0.4460  0.2079
 9039SOL    HW138579   3.176   1.327  16.427 -2.9413  0.6582  2.5857
 9039SOL    HW238580   3.174   1.318  16.569  0.1574 -0.4847  0.6851
 9040SOL     OW38581   2.576   0.705   2.297  0.5794 -0.2790 -0.0725
 9040SOL    HW138582   2.558   0.740   2.384  0.9293  0.1729 -0.1834
 9040SOL    HW238583   2.655   0.752   2.270  0.1409 -0.8537 -2.3841
 9041SOL     OW38584   0.155   2.047  12.485  0.5062  0.4517 -0.8026
 9041SOL    HW138585   0.127   2.072  12.397 -2.5433 -0.1908 -0.0300
 9041SOL    HW238586   0.247   2.032  12.465  0.2200 -0.9423 -1.0548
 9042SOL     OW38587   3.762   4.660   9.424  0.2382  0.2998  0.9059
 9042SOL    HW138588   3.773   4.660   9.519 -0.9858 -0.5802  1.0408
 9042SOL    HW238589   3.820   4.725   9.385  0.0104 -1.6355 -2.7230
 9043SOL     OW38590   0.548   4.584   2.336 -0.0365  0.1237 -0.3570
 9043SOL    HW138591   0.504   4.631   2.407  0.1532 -1.7535  1.0111
 9043SOL    HW238592   0.636   4.621   2.341 -0.6839  1.3424  1.8749
 9044SOL     OW38593   1.793   2.104  11.463  0.3588  0.5921  0.4177
 9044SOL    HW138594   1.781   2.017  11.500  1.7605  0.8749  1.5346
 9044SOL    HW238595   1.888   2.112  11.454  0.7114 -1.2754  2.5586
 9045SOL     OW38596   4.707   4.470   4.471 -0.0741 -0.1413 -0.1127
 9045SOL    HW138597   0.027   4.403   4.521 -0.2921  1.0018  1.6385
 9045SOL    HW238598   4.615   4.447   4.484  0.4525 -0.9989  2.0359
 9046SOL     OW38599   2.243   3.399  10.537  0.1923  0.2929 -0.3684
 9046SOL    HW138600   2.190   3.477  10.521  1.3592  0.7142 -2.1681
 9046SOL    HW238601   2.225   3.407  10.631 -0.3444 -0.1415 -0.4368
 9047SOL     OW38602   4.541   3.578   7.658 -0.2443  0.2604 -0.0705
 9047SOL    HW138603   4.473   3.554   7.722  2.1684  2.9718  3.5640
 9047SOL    HW238604   4.543   3.499   7.606 -1.3558  0.5540 -0.5604
 9048SOL     OW38605   0.779   3.360   9.945 -0.4484 -0.2665 -0.2984
 9048SOL    HW138606   0.701   3.312   9.975 -0.8172 -1.1074 -2.5851
 9048SOL    HW238607   0.839   3.286   9.949 -0.7351 -0.4149  1.1279
 9049SOL     OW38608   0.272   4.203   4.171 -0.0799 -0.7703  0.5484
 9049SOL    HW138609   0.261   4.229   4.262 -1.1884 -2.1468  0.8032
 9049SOL    HW238610   0.331   4.272   4.140 -0.7553 -0.2366  0.4419
 9050SOL     OW38611   2.562   1.932   3.246  0.2506 -0.4169  0.3769
 9050SOL    HW138612   2.480   1.963   3.284 -0.0117  0.6971 -1.1088
 9050SOL    HW238613   2.527   1.870   3.182 -1.6078  1.2941 -0.2489
 9051SOL     OW38614   2.731   0.046   6.444 -0.1795  0.5287  0.6745
 9051SOL    HW138615   2.722   0.106   6.369  2.6476  0.4416  0.2875
 9051SOL    HW238616   2.778   0.108   6.500  0.4539  1.2064 -0.5962
 9052SOL     OW38617   4.263   2.130  15.243 -0.0848  0.3019  0.2746
 9052SOL    HW138618   4.278   2.223  15.263  0.0053 -0.0765  1.9406
 9052SOL    HW238619   4.355   2.109  15.223 -0.3784 -2.1893  1.6480
 9053SOL     OW38620   1.157   0.005   7.681  0.0007 -0.0675  0.4670
 9053SOL    HW138621   1.238   0.016   7.631 -0.2999  0.5055  0.1005
 9053SOL    HW238622   1.132   4.645   7.647 -1.6306  0.2007  0.9832
 9054SOL     OW38623   3.854   3.225  11.366 -0.7631  0.0507 -0.1302
 9054SOL    HW138624   3.927   3.164  11.357  0.0357  0.4955  3.1449
 9054SOL    HW238625   3.897   3.310  11.363  0.3936 -0.5476 -0.3758
 9055SOL     OW38626   0.365   3.538   3.860 -0.6080  0.0557  0.1771
 9055SOL    HW138627   0.422   3.560   3.934  0.6605 -0.4274 -0.6559
 9055SOL    HW238628   0.407   3.458   3.828  3.4079  1.7906  1.1301
 9056SOL     OW38629   2.324   1.633   0.594 -0.3457 -0.3802 -0.7388
 9056SOL    HW138630   2.247   1.642   0.537  0.1625  2.0328 -1.0401
 9056SOL    HW238631   2.393   1.605   0.535  0.2705  0.0961 -0.2514
 9057SOL     OW38632   1.359   2.194   2.649 -0.1266 -0.0727  0.4931
 9057SOL    HW138633   1.450   2.220   2.637  0.2705 -0.5745  2.3853
 9057SOL    HW238634   1.321   2.279   2.673  2.7240  1.0846  0.8778
 9058SOL     OW38635   1.057   3.792  10.929  0.0909 -0.6857  0.2161
 9058SOL    HW138636   1.148   3.784  10.900 -0.0218 -0.3437 -0.2405
 9058SOL    HW238637   1.006   3.779  10.849  0.5439  0.1406 -0.2082
 9059SOL     OW38638   1.144   0.244  17.570 -0.1343 -0.0994 -0.0188
 9059SOL    HW138639   1.113   0.332  17.548 -0.1151 -0.6071 -2.1402
 9059SOL    HW238640   1.146   0.247  17.665 -1.1231 -1.2932  0.0440
 9060SOL     OW38641   3.187   0.721   7.902 -0.2028  0.0140 -0.2169
 9060SOL    HW138642   3.173   0.693   7.992 -0.5281  1.4122  0.1733
 9060SOL    HW238643   3.203   0.815   7.908  0.4155 -0.0081 -1.5378
 9061SOL     OW38644   1.666   4.189   3.346 -0.4802  0.0218 -0.0087
 9061SOL    HW138645   1.641   4.104   3.381  2.3463  0.0316  2.0229
 9061SOL    HW238646   1.674   4.167   3.253 -1.5561 -0.6747  0.0663
 9062SOL     OW38647   2.416   3.978   2.309 -0.1200  0.3035  0.0901
 9062SOL    HW138648   2.452   4.000   2.395  1.4152 -0.2747 -0.4114
 9062SOL    HW238649   2.467   3.899   2.294 -0.8521 -0.0740 -0.3993
 9063SOL     OW38650   3.086   0.391  17.196  0.4990 -0.2302 -0.2770
 9063SOL    HW138651   3.037   0.471  17.216 -1.0092 -0.5922 -2.6112
 9063SOL    HW238652   3.048   0.374  17.110 -2.0029  0.4410  0.6713
 9064SOL     OW38653   3.591   0.169   8.373  0.2493  0.2880  0.1343
 9064SOL    HW138654   3.614   0.081   8.343 -2.4592 -0.7091  0.9936
 9064SOL    HW238655   3.504   0.152   8.409  0.6254  2.5542  2.1497
 9065SOL     OW38656   1.369   3.166   6.078  0.1046 -0.1120 -0.2105
 9065SOL    HW138657   1.374   3.169   6.174  0.4490  1.2921 -0.2701
 9065SOL    HW238658   1.448   3.219   6.067 -0.7353  1.3531  0.7584
 9066SOL     OW38659   3.187   0.817   8.538  0.0584 -0.2349 -0.3216
 9066SOL    HW138660   3.152   0.742   8.585  0.1601 -0.2176 -0.2183
 9066SOL    HW238661   3.148   0.796   8.453 -0.6231 -1.7981  0.3930
 9067SOL     OW38662   1.319   4.048   9.013 -0.1764 -0.1031 -0.5016
 9067SOL    HW138663   1.374   4.006   8.947  1.6503  1.4777 -0.0104
 9067SOL    HW238664   1.388   4.090   9.065 -0.3625  0.7710 -0.9616
 9068SOL     OW38665   0.116   2.350   5.127  0.4389  0.2621 -0.0714
 9068SOL    HW138666   0.186   2.395   5.080 -0.1988  0.9091 -0.3931
 9068SOL    HW238667   0.183   2.304   5.178  1.0475  1.0459 -0.1668
 9069SOL     OW38668   1.044   2.267  16.623  0.5866 -0.2922  0.2427
 9069SOL    HW138669   1.107   2.247  16.553  2.5087  0.5145  1.7689
 9069SOL    HW238670   1.096   2.262  16.703  2.6658  2.5807 -0.9607
 9070SOL     OW38671   0.605   1.814  13.313  0.0155  0.0909 -0.3225
 9070SOL    HW138672   0.637   1.867  13.386  0.4688  0.4060 -0.7511
 9070SOL    HW238673   0.662   1.835  13.240  1.7448  0.3703  1.1018
 9071SOL     OW38674   0.528   0.298   4.016 -0.2458  0.0415  0.5746
 9071SOL    HW138675   0.571   0.246   3.949 -3.3576 -1.3021 -0.3507
 9071SOL    HW238676   0.459   0.340   3.964  0.2439 -1.0678 -0.9635
 9072SOL     OW38677   4.445   0.502   6.127  0.0778 -0.2202 -0.4271
 9072SOL    HW138678   4.530   0.546   6.137 -0.2391  0.4208 -0.5482
 9072SOL    HW238679   4.414   0.520   6.215  1.2851 -2.8836  0.5305
 9073SOL     OW38680   1.108   1.453   8.261  0.5172  0.3159  0.4965
 9073SOL    HW138681   1.084   1.519   8.196  1.3703  0.7045  0.5795
 9073SOL    HW238682   1.104   1.506   8.340  0.0729  0.6918  0.2175
 9074SOL     OW38683   1.755   1.853   5.639 -0.1991 -0.2171 -0.6702
 9074SOL    HW138684   1.693   1.803   5.692 -0.1573 -0.9863 -1.3580
 9074SOL    HW238685   1.696   1.929   5.638  0.3681  0.2781  2.4125
 9075SOL     OW38686   3.816   0.872   7.184 -0.1349  0.0063 -0.4105
 9075SOL    HW138687   3.796   0.839   7.096 -4.1379  0.1724  0.4593
 9075SOL    HW238688   3.822   0.783   7.218 -0.1334  0.6606  1.2625
 9076SOL     OW38689   2.004   1.820   2.022  0.5380 -0.5298  0.2872
 9076SOL    HW138690   1.923   1.805   1.973  0.3444  1.5193 -0.0246
 9076SOL    HW238691   2.060   1.873   1.965  0.6258 -0.3477  0.5459
 9077SOL     OW38692   1.090   0.196  16.809  0.1624 -0.3962  0.4224
 9077SOL    HW138693   1.030   0.186  16.734 -2.4505 -2.7210  2.8070
 9077SOL    HW238694   1.038   0.247  16.871 -0.0638 -0.9781  0.7151
 9078SOL     OW38695   2.620   1.099  14.767  0.3166  0.9998  0.2915
 9078SOL    HW138696   2.647   1.027  14.824  0.0777 -0.7298 -1.7882
 9078SOL    HW238697   2.532   1.106  14.803 -0.4024 -0.9869 -1.0496
 9079SOL     OW38698   1.474   2.892   6.148  0.0534  0.2932 -0.3943
 9079SOL    HW138699   1.465   2.833   6.073 -1.2578  0.3453 -0.2714
 9079SOL    HW238700   1.474   2.980   6.111  0.3752  1.2755  1.9783
 9080SOL     OW38701   3.281   2.009   8.568 -1.0423 -0.3863 -0.3210
 9080SOL    HW138702   3.193   2.030   8.535 -0.5683  0.9986 -0.6844
 9080SOL    HW238703   3.257   1.954   8.642  0.9495 -0.5776  0.1784
 9081SOL     OW38704   4.330   3.836   8.092  0.2053  0.2451  0.0499
 9081SOL    HW138705   4.319   3.915   8.145 -1.1227  1.0923 -1.4817
 9081SOL    HW238706   4.415   3.863   8.057  0.6230 -0.7067  0.3433
 9082SOL     OW38707   4.335   1.413   3.774 -0.6602 -0.2238 -0.4677
 9082SOL    HW138708   4.379   1.386   3.693  1.9632 -2.2835  1.6439
 9082SOL    HW238709   4.403   1.467   3.815 -0.0308 -1.4911  0.1485
 9083SOL     OW38710   3.627   1.769   4.785  0.4407  0.1191  0.2481
 9083SOL    HW138711   3.671   1.723   4.713  2.3892  1.1557  0.7807
 9083SOL    HW238712   3.703   1.774   4.844  1.6733  0.6352 -1.3708
 9084SOL     OW38713   4.209   0.895   7.102  0.3585 -0.1065  0.0989
 9084SOL    HW138714   4.263   0.946   7.163 -3.7814 -0.4936  4.1515
 9084SOL    HW238715   4.183   0.830   7.167 -1.5249  0.9590  0.4205
 9085SOL     OW38716   0.803   2.115  11.480 -0.8883 -0.1474 -0.0968
 9085SOL    HW138717   0.792   2.159  11.396 -1.3249  2.1851  1.1791
 9085SOL    HW238718   0.879   2.062  11.456 -0.9483 -0.1597 -0.2542
 9086SOL     OW38719   3.191   1.271   3.895  0.0051  0.0199  0.3660
 9086SOL    HW138720   3.117   1.263   3.956  0.7728 -0.2270  1.2827
 9086SOL    HW238721   3.208   1.365   3.894 -0.4530  0.0682 -1.3448
 9087SOL     OW38722   0.999   1.336   4.494 -0.5998 -0.2689 -0.0822
 9087SOL    HW138723   0.960   1.255   4.528  1.1258 -1.3023 -0.5747
 9087SOL    HW238724   1.008   1.305   4.404  0.1973  1.5708 -0.6425
 9088SOL     OW38725   2.932   2.293   3.353 -0.9064 -0.6525  0.6923
 9088SOL    HW138726   2.999   2.362   3.354 -1.2915 -0.2777  0.7183
 9088SOL    HW238727   2.862   2.332   3.300 -0.3849 -0.9241 -0.2005
 9089SOL     OW38728   1.960   2.923  15.617  0.3649 -0.0624  0.0087
 9089SOL    HW138729   2.016   2.851  15.590  2.2991  1.6411 -0.5313
 9089SOL    HW238730   2.019   2.967  15.679  2.5770  0.0170 -2.1620
 9090SOL     OW38731   4.552   1.595   3.314 -0.1617  0.3232  0.1124
 9090SOL    HW138732   4.479   1.632   3.263 -0.9667 -0.2787  0.8215
 9090SOL    HW238733   4.529   1.627   3.401  1.9506  0.0777  0.7564
 9091SOL     OW38734   1.581   1.670   6.883 -0.0795 -0.6390  0.6467
 9091SOL    HW138735   1.673   1.667   6.908  0.0794 -1.6077 -0.0708
 9091SOL    HW238736   1.574   1.598   6.820 -0.0246 -1.2246  1.3061
 9092SOL     OW38737   2.287   3.201  14.035  0.0255 -0.4171 -0.2966
 9092SOL    HW138738   2.264   3.109  14.043 -0.7092 -0.2744 -0.7455
 9092SOL    HW238739   2.380   3.185  14.018  0.9256  1.8749  2.4469
 9093SOL     OW38740   1.658   1.191   4.849  0.5368  0.2639  0.3630
 9093SOL    HW138741   1.667   1.245   4.928  1.7153  0.8508 -0.1810
 9093SOL    HW238742   1.741   1.206   4.806  2.2881 -2.1039  2.8683
 9094SOL     OW38743   0.356   1.453   0.425 -0.0729 -0.4220  0.1388
 9094SOL    HW138744   0.359   1.462   0.329 -0.9468 -0.3096  0.1258
 9094SOL    HW238745   0.298   1.523   0.453  0.9693 -0.9503  3.5881
 9095SOL     OW38746   3.122   4.201   8.820  0.0856 -0.1389  0.0258
 9095SOL    HW138747   3.061   4.275   8.825  0.7813  0.4193  0.1709
 9095SOL    HW238748   3.074   4.153   8.753 -0.8141  0.5129  0.2069
 9096SOL     OW38749   3.132   3.815   5.701  0.2527  0.7653 -0.0647
 9096SOL    HW138750   3.205   3.864   5.739  1.5966 -0.7556 -0.6743
 9096SOL    HW238751   3.100   3.877   5.637 -2.1701 -1.8740 -1.4106
 9097SOL     OW38752   2.571   3.409   8.994 -0.0037 -0.3469  0.1820
 9097SOL    HW138753   2.534   3.392   8.907 -0.5727  0.4267  0.2651
 9097SOL    HW238754   2.543   3.498   9.015 -0.2723 -0.0722 -1.2919
 9098SOL     OW38755   0.246   0.219  12.659 -0.3312  0.1567 -0.1258
 9098SOL    HW138756   0.178   0.285  12.650  0.4218  0.4456 -3.5758
 9098SOL    HW238757   0.326   0.257  12.623  0.9247 -0.0887  2.3782
 9099SOL     OW38758   1.544   0.742   5.420  0.5952 -0.6856 -0.0658
 9099SOL    HW138759   1.577   0.652   5.416 -1.9814 -1.7151  2.2987
 9099SOL    HW238760   1.526   0.768   5.329  0.0436 -2.5360 -0.4828
 9100SOL     OW38761   2.687   3.404   5.599  0.3452  0.1466 -0.3653
 9100SOL    HW138762   2.699   3.497   5.580  1.2476  0.3473  1.1805
 9100SOL    HW238763   2.780   3.386   5.589  0.8163  2.1648  0.2749
 9101SOL     OW38764   1.339   2.868   4.698 -0.2959  0.4549  0.8817
 9101SOL    HW138765   1.369   2.836   4.783 -1.3298 -0.3697  0.9382
 9101SOL    HW238766   1.380   2.954   4.693 -0.0677  0.3658  1.2063
 9102SOL     OW38767   1.431   4.516   2.578 -0.0965 -0.0037  0.1137
 9102SOL    HW138768   1.372   4.583   2.543 -0.0105 -0.3523 -0.7209
 9102SOL    HW238769   1.421   4.524   2.673 -1.2227  0.4888 -0.0475
 9103SOL     OW38770   1.164   2.706   1.664 -0.1169  0.0312 -0.5242
 9103SOL    HW138771   1.225   2.661   1.723  0.2959  0.1702 -0.8410
 9103SOL    HW238772   1.122   2.632   1.619 -2.5030  1.2989 -0.3796
 9104SOL     OW38773   2.578   4.158   0.575  0.3441 -0.6376 -0.3739
 9104SOL    HW138774   2.595   4.064   0.581  1.1955 -0.5543 -1.5470
 9104SOL    HW238775   2.639   4.183   0.506 -1.2870 -2.2073 -2.3606
 9105SOL     OW38776   1.592   1.168   6.062  0.4623  0.3660 -0.1229
 9105SOL    HW138777   1.626   1.257   6.058  0.9177  0.0534 -4.0255
 9105SOL    HW238778   1.637   1.120   5.992  0.4614  1.8991 -1.1844
 9106SOL     OW38779   4.396   3.332   3.008  0.5309 -0.4040  0.3863
 9106SOL    HW138780   4.351   3.334   2.923 -2.8232 -1.0156  2.1208
 9106SOL    HW238781   4.441   3.249   2.997 -0.9547 -0.9166 -1.8367
 9107SOL     OW38782   3.468   2.904  13.493 -0.1438 -0.0933  0.3392
 9107SOL    HW138783   3.459   2.910  13.589  0.0979  2.3935  0.2171
 9107SOL    HW238784   3.413   2.981  13.477  1.0517  0.3575 -1.5196
 9108SOL     OW38785   0.954   2.100   4.882 -0.1761  0.1362  0.2150
 9108SOL    HW138786   0.891   2.030   4.899  1.4796 -1.0512  1.4963
 9108SOL    HW238787   0.972   2.091   4.789 -2.3442  1.1272 -0.2895
 9109SOL     OW38788   3.251   3.749  15.685 -0.7312 -0.2800 -0.4575
 9109SOL    HW138789   3.265   3.835  15.645 -2.5527  0.9655  1.5666
 9109SOL    HW238790   3.171   3.757  15.738  0.1758 -1.2656  1.0724
 9110SOL     OW38791   2.178   4.570   3.870  0.8549 -0.4313 -0.3505
 9110SOL    HW138792   2.093   4.541   3.837  0.8112 -1.3618  0.5935
 9110SOL    HW238793   2.198   4.499   3.930 -0.9465 -0.1222  0.6180
 9111SOL     OW38794   3.351   3.449   6.048 -0.0288  0.2647 -0.0484
 9111SOL    HW138795   3.406   3.427   6.124  0.4393 -2.2542 -1.1151
 9111SOL    HW238796   3.375   3.536   6.016  1.4629  0.7384  2.3656
 9112SOL     OW38797   2.157   3.429   2.355  0.5892  0.3968  0.7896
 9112SOL    HW138798   2.150   3.474   2.272  3.5508  0.8043  0.7488
 9112SOL    HW238799   2.202   3.497   2.405 -0.9955  2.1047 -0.1236
 9113SOL     OW38800   2.083   1.094   1.255  0.0143 -0.1232  0.1565
 9113SOL    HW138801   2.068   1.014   1.206 -1.3377  0.2004  0.0318
 9113SOL    HW238802   2.066   1.085   1.348 -1.0117  1.2529  0.1042
 9114SOL     OW38803   2.249   3.509   5.519  0.4577 -0.5529  0.3938
 9114SOL    HW138804   2.194   3.463   5.456 -0.3512 -0.9450  1.3963
 9114SOL    HW238805   2.305   3.447   5.566  3.3777  1.6117 -0.2112
 9115SOL     OW38806   2.208   3.126   5.612  0.2779 -0.5509  0.6536
 9115SOL    HW138807   2.201   3.184   5.688 -1.1034 -0.2937  0.3327
 9115SOL    HW238808   2.245   3.045   5.646  1.3413 -1.0349 -1.6319
 9116SOL     OW38809   1.653   3.312   0.845  0.4607  0.0441 -0.3224
 9116SOL    HW138810   1.589   3.291   0.778  0.3584 -0.0262 -0.2019
 9116SOL    HW238811   1.598   3.322   0.923  1.3422 -0.3342  0.3541
 9117SOL     OW38812   0.817   3.987   0.068 -0.1013 -0.2381  0.1764
 9117SOL    HW138813   0.746   4.020   0.123 -1.6780 -1.3656 -1.1741
 9117SOL    HW238814   0.808   3.895   0.095 -1.4464 -0.5130 -1.2239
 9118SOL     OW38815   3.588   0.791   2.114 -0.4883 -0.1339 -0.6440
 9118SOL    HW138816   3.565   0.712   2.066  0.4785  0.1353 -1.5567
 9118SOL    HW238817   3.596   0.757   2.203 -3.4785  1.7860  0.3754
 9119SOL     OW38818   2.114   4.602   0.824  0.3296  0.7460 -0.2108
 9119SOL    HW138819   2.121   4.512   0.856 -0.9539  0.4677 -0.7081
 9119SOL    HW238820   2.041   4.590   0.762 -0.8223  0.4553  1.1914
 9120SOL     OW38821   0.251   1.096   0.786  0.1392  0.0743  0.7485
 9120SOL    HW138822   0.338   1.128   0.763 -0.4892  0.6339 -0.8393
 9120SOL    HW238823   0.192   1.163   0.751  1.9089  0.9570 -0.4828
 9121SOL     OW38824   2.135   2.429   5.029 -0.1734 -0.2952 -0.5298
 9121SOL    HW138825   2.198   2.365   4.995  0.7315  0.3124 -0.0118
 9121SOL    HW238826   2.049   2.392   5.010  0.4741 -2.8828  1.6148
 9122SOL     OW38827   0.554   1.460   0.616  0.4176 -0.5912 -0.3281
 9122SOL    HW138828   0.516   1.458   0.528  0.6156 -3.4940 -0.3410
 9122SOL    HW238829   0.481   1.507   0.657  1.4473 -0.0420  0.8880
 9123SOL     OW38830   2.897   3.216   9.365 -0.8801  1.1459 -0.6906
 9123SOL    HW138831   2.978   3.197   9.318 -0.0043 -1.7298  1.9412
 9123SOL    HW238832   2.832   3.165   9.317 -0.7322  0.6369 -0.3490
 9124SOL     OW38833   2.976   4.297   8.472 -0.2078  0.0309  0.0962
 9124SOL    HW138834   2.949   4.213   8.509  2.4879 -0.1062  1.7253
 9124SOL    HW238835   2.914   4.357   8.513 -0.2439  0.1014 -0.0618
 9125SOL     OW38836   3.431   3.006  13.757  0.0256  0.0129  0.3496
 9125SOL    HW138837   3.499   3.065  13.791 -0.3424  0.5951  0.0607
 9125SOL    HW238838   3.356   3.039  13.806  1.0549  0.3010  1.7525
 9126SOL     OW38839   4.535   2.110   3.726  0.6032  0.3917 -0.1563
 9126SOL    HW138840   4.489   2.073   3.651 -1.6197 -0.4587  1.6292
 9126SOL    HW238841   4.517   2.204   3.716  0.6936  0.6775  2.3731
 9127SOL     OW38842   2.218   2.503   3.788 -0.8205 -0.0531 -0.0939
 9127SOL    HW138843   2.142   2.447   3.772  1.0655 -1.8249 -2.7720
 9127SOL    HW238844   2.227   2.492   3.883 -1.1927 -1.8839 -0.2798
 9128SOL     OW38845   4.027   2.095  17.567  0.0022  0.3473 -0.2604
 9128SOL    HW138846   3.963   2.037  17.610 -0.4968  0.2646 -1.1308
 9128SOL    HW238847   3.986   2.105  17.482  1.0262  1.9075 -0.5631
 9129SOL     OW38848   1.085   1.797   2.166  0.3786 -0.0872  0.0059
 9129SOL    HW138849   1.090   1.812   2.260  2.9664  0.6217 -0.2528
 9129SOL    HW238850   1.105   1.881   2.125  1.2955 -0.6872 -0.7841
 9130SOL     OW38851   0.653   4.720  10.146 -0.2826  0.4640 -0.5611
 9130SOL    HW138852   0.602   4.687  10.072 -0.8980  0.5777 -0.1820
 9130SOL    HW238853   0.585   0.002  10.212  1.4740 -2.5534  1.6020
 9131SOL     OW38854   1.419   3.119   8.408  0.1742  0.1305 -0.0999
 9131SOL    HW138855   1.374   3.185   8.356 -0.8024 -0.9104 -0.5745
 9131SOL    HW238856   1.510   3.143   8.392 -0.1139  2.4893  1.6920
 9132SOL     OW38857   1.938   1.668   0.674  0.4317  0.0329  0.0899
 9132SOL    HW138858   1.854   1.657   0.719 -0.2927  1.8780 -0.7968
 9132SOL    HW238859   2.003   1.612   0.715  1.1834 -0.4951 -1.8378
 9133SOL     OW38860   0.561   4.351   4.693 -0.3628 -0.6576  0.2827
 9133SOL    HW138861   0.566   4.307   4.609  0.1729  2.0135 -1.0748
 9133SOL    HW238862   0.650   4.376   4.715  0.2301 -1.7689 -0.8531
 9134SOL     OW38863   1.346   0.888   4.744 -0.3301 -0.0069 -0.0902
 9134SOL    HW138864   1.357   0.979   4.718 -1.1839 -0.0706 -0.6687
 9134SOL    HW238865   1.255   0.893   4.775  0.2940  0.5178  1.6164
 9135SOL     OW38866   2.985   0.454   4.875  0.8484  0.1792 -0.2315
 9135SOL    HW138867   3.019   0.537   4.841  0.9425  1.5356  3.1201
 9135SOL    HW238868   3.037   0.395   4.821  1.3815  0.6250 -0.2021
 9136SOL     OW38869   3.993   0.614   0.857  0.0985  1.1725  0.2541
 9136SOL    HW138870   4.073   0.569   0.884 -0.0123  0.2622 -0.9122
 9136SOL    HW238871   3.936   0.604   0.933 -1.0697 -2.2665 -1.0653
 9137SOL     OW38872   3.326   2.639   2.477 -0.1968  0.2158  0.0643
 9137SOL    HW138873   3.247   2.592   2.503 -0.9376  1.5578  0.2334
 9137SOL    HW238874   3.376   2.572   2.430 -1.1718 -0.0168 -0.6535
 9138SOL     OW38875   0.778   2.969   6.053  0.0747 -0.1681  0.0116
 9138SOL    HW138876   0.863   2.924   6.054 -0.4974 -1.2614 -0.8371
 9138SOL    HW238877   0.767   3.013   5.969  0.4317 -0.0707  0.0167
 9139SOL     OW38878   0.989   4.548  14.014  0.0338  0.2027 -0.1444
 9139SOL    HW138879   0.996   4.610  13.941 -4.3312  1.3536  0.4656
 9139SOL    HW238880   0.936   4.598  14.075 -1.9406 -0.1293 -1.5868
 9140SOL     OW38881   1.900   3.659  15.395 -0.0513 -0.0324  0.2017
 9140SOL    HW138882   1.897   3.751  15.369 -2.4294 -0.9423 -2.7531
 9140SOL    HW238883   1.930   3.621  15.311 -0.1749  2.9186 -1.1583
 9141SOL     OW38884   3.803   2.417   6.052 -0.2848 -0.4866  0.4993
 9141SOL    HW138885   3.738   2.376   5.995  1.4968  0.0992 -2.0172
 9141SOL    HW238886   3.831   2.345   6.107  1.9124  0.1162  0.1950
 9142SOL     OW38887   4.497   1.431   2.920  0.3998 -0.6037  0.2083
 9142SOL    HW138888   4.542   1.368   2.864 -1.3176 -0.5689 -1.2129
 9142SOL    HW238889   4.557   1.505   2.913  0.6254 -0.7302  0.7581
 9143SOL     OW38890   4.153   0.035   4.282  0.8195 -0.1908 -0.3966
 9143SOL    HW138891   4.194   0.014   4.366  3.0634  2.0629 -0.9421
 9143SOL    HW238892   4.063   0.051   4.309  1.3295 -0.9234  1.7556
 9144SOL     OW38893   3.562   2.517   2.688 -0.5915  0.1176  0.1753
 9144SOL    HW138894   3.503   2.475   2.751 -0.8064  2.0684  1.2742
 9144SOL    HW238895   3.506   2.505   2.612  0.4950 -1.5412 -0.3779
 9145SOL     OW38896   4.160   4.464   8.881  0.3721  0.0597  0.1338
 9145SOL    HW138897   4.195   4.404   8.947  1.0287 -0.1375 -0.3915
 9145SOL    HW238898   4.070   4.437   8.864  0.4317 -1.7778  2.6794
 9146SOL     OW38899   0.282   0.838   4.212  0.5475  0.1394  0.0434
 9146SOL    HW138900   0.225   0.867   4.141 -0.6290  0.5862  1.1624
 9146SOL    HW238901   0.304   0.751   4.179 -3.7604 -1.0815  0.3196
 9147SOL     OW38902   4.163   4.063  14.630 -0.1809 -0.0485 -0.2230
 9147SOL    HW138903   4.240   4.076  14.574  0.5560 -1.7038  0.4251
 9147SOL    HW238904   4.130   4.153  14.633 -2.0393 -0.8214  2.6915
 9148SOL     OW38905   2.952   4.391  17.535 -0.1390 -0.3584 -0.1557
 9148SOL    HW138906   2.905   4.470  17.561 -2.2474 -1.4140 -0.7548
 9148SOL    HW238907   2.903   4.356  17.461 -0.9976  0.1170  0.1964
 9149SOL     OW38908   2.778   3.380   4.373 -0.2465 -0.1036 -0.1775
 9149SOL    HW138909   2.804   3.471   4.389  0.6664 -0.4009 -0.0169
 9149SOL    HW238910   2.689   3.381   4.409  0.1553 -0.1341  0.7984
 9150SOL     OW38911   3.574   0.517   9.113 -0.6110 -0.0568 -0.1144
 9150SOL    HW138912   3.508   0.472   9.165  0.9930 -0.4187  1.5936
 9150SOL    HW238913   3.624   0.572   9.173  2.3742 -1.5339 -1.2214
 9151SOL     OW38914   0.375   0.466   3.832 -0.2983  0.2115  0.0151
 9151SOL    HW138915   0.405   0.544   3.785 -0.5457  0.3391  0.0643
 9151SOL    HW238916   0.357   0.409   3.757  0.3502 -0.6899  0.5500
 9152SOL     OW38917   2.079   2.348   2.553  0.1290 -0.1724 -0.1739
 9152SOL    HW138918   2.002   2.365   2.498 -1.0753  1.9330  2.1542
 9152SOL    HW238919   2.138   2.421   2.540  1.1234 -1.1012 -0.8565
 9153SOL     OW38920   2.013   1.160   6.563  0.2310  0.2660  0.0228
 9153SOL    HW138921   2.061   1.194   6.638 -1.6095 -2.3006  2.3583
 9153SOL    HW238922   1.922   1.159   6.592  0.1261  1.5342 -0.2719
 9154SOL     OW38923   2.646   1.698  13.792  0.5582  0.1470  0.2530
 9154SOL    HW138924   2.660   1.675  13.701 -1.9785  1.5312 -0.4833
 9154SOL    HW238925   2.594   1.623  13.822  1.1941 -1.4254 -2.6368
 9155SOL     OW38926   4.181   3.246   5.474  0.4110 -0.1375  0.2067
 9155SOL    HW138927   4.231   3.281   5.400 -0.2197 -1.2120 -0.7235
 9155SOL    HW238928   4.177   3.151   5.464 -0.2128  0.1036 -1.8975
 9156SOL     OW38929   1.935   0.236   3.209 -0.0984  0.2680  0.3814
 9156SOL    HW138930   1.975   0.178   3.274  0.8801  1.6434  1.0057
 9156SOL    HW238931   1.955   0.183   3.132  1.1147  0.0907  0.8187
 9157SOL     OW38932   4.049   2.531   2.839 -0.1514  0.3962  0.2538
 9157SOL    HW138933   3.990   2.567   2.772  1.4004 -0.4340 -1.5255
 9157SOL    HW238934   4.098   2.475   2.780  0.2119 -1.4495  2.3023
 9158SOL     OW38935   0.397   3.450   0.581 -0.2338  0.2795  0.1022
 9158SOL    HW138936   0.376   3.455   0.487  1.2447 -0.7301 -0.2848
 9158SOL    HW238937   0.387   3.356   0.593  0.5979 -0.0540 -1.7266
 9159SOL     OW38938   4.663   3.117   3.606 -0.2014 -0.1213 -0.3447
 9159SOL    HW138939   4.633   3.180   3.671  0.3085  2.6772 -2.7930
 9159SOL    HW238940   4.629   3.158   3.526 -2.4989  1.6645  1.5542
 9160SOL     OW38941   2.925   3.497   7.261 -0.4848 -0.1565 -0.4068
 9160SOL    HW138942   2.910   3.467   7.172 -1.4591 -1.4040  0.1780
 9160SOL    HW238943   2.833   3.515   7.280 -0.2222  1.3854 -0.5939
 9161SOL     OW38944   3.902   0.363   4.280 -0.1566  0.0331  0.3424
 9161SOL    HW138945   3.924   0.456   4.290 -2.6087  0.5437  1.0601
 9161SOL    HW238946   3.934   0.350   4.190 -0.2845 -0.1520  0.3243
 9162SOL     OW38947   1.383   2.688  15.353  0.3887  0.4394  0.1656
 9162SOL    HW138948   1.357   2.611  15.302  1.3950 -0.0612  0.4182
 9162SOL    HW238949   1.300   2.725  15.381 -0.1881 -1.0204  0.3711
 9163SOL     OW38950   4.551   4.498  17.146 -0.2561 -0.7456 -0.2443
 9163SOL    HW138951   4.478   4.519  17.087  2.1544  2.7991 -1.8975
 9163SOL    HW238952   4.509   4.432  17.202 -0.2547  1.5617  2.4596
 9164SOL     OW38953   1.905   0.261   4.769  0.3555 -0.4896 -0.2636
 9164SOL    HW138954   1.850   0.339   4.777  1.7533  0.5426 -0.6901
 9164SOL    HW238955   1.978   0.303   4.723  1.3659 -1.0016  0.8565
 9165SOL     OW38956   1.682   4.657  11.398 -0.5579  0.3068  0.5628
 9165SOL    HW138957   1.608   4.615  11.354 -2.4677  3.2997  0.9337
 9165SOL    HW238958   1.637   4.708  11.465 -0.0487  0.1561  1.0173
 9166SOL     OW38959   2.725   3.320  13.269  0.1445 -0.0599 -0.2585
 9166SOL    HW138960   2.719   3.353  13.180  0.3628 -2.6645 -1.2424
 9166SOL    HW238961   2.646   3.267  13.277 -0.0116  0.2337  0.1510
 9167SOL     OW38962   2.057   2.285   3.805 -0.1808  0.1422  0.1524
 9167SOL    HW138963   2.027   2.195   3.816 -0.6961  0.3740  0.6455
 9167SOL    HW238964   2.100   2.296   3.890  1.5870 -1.6900 -0.5085
 9168SOL     OW38965   0.195   0.471  12.049 -0.1493 -0.0043 -0.3337
 9168SOL    HW138966   0.273   0.521  12.072  0.9000 -1.9311  0.2528
 9168SOL    HW238967   0.227   0.381  12.040 -0.0819 -0.0927  0.8643
 9169SOL     OW38968   1.322   0.744   4.166 -0.2933  0.1505  0.2007
 9169SOL    HW138969   1.249   0.684   4.155  1.3770 -1.7355 -0.5052
 9169SOL    HW238970   1.343   0.732   4.259  2.3397 -0.5713 -0.4691
 9170SOL     OW38971   4.072   3.110   8.430  0.1107  0.1957  0.3012
 9170SOL    HW138972   4.061   3.117   8.525  1.2199 -0.1603  0.4470
 9170SOL    HW238973   4.030   3.025   8.420 -2.5110  1.3621  1.3509
 9171SOL     OW38974   1.259   3.312   2.935 -0.4192  0.1329  0.3065
 9171SOL    HW138975   1.334   3.371   2.928  0.3326 -1.0040 -1.2445
 9171SOL    HW238976   1.284   3.253   3.005  0.7826 -1.1457 -1.2051
 9172SOL     OW38977   0.876   2.670   9.264 -0.2879 -0.0990 -0.8836
 9172SOL    HW138978   0.845   2.733   9.199 -0.3380 -1.7637 -2.4815
 9172SOL    HW238979   0.971   2.671   9.252 -0.4054  1.7686 -1.6742
 9173SOL     OW38980   1.255   2.422  13.624  0.0775  0.0193 -0.1558
 9173SOL    HW138981   1.244   2.505  13.577  3.5671  0.9135  0.6100
 9173SOL    HW238982   1.224   2.354  13.564 -1.5251  0.5463  0.0769
 9174SOL     OW38983   2.873   3.153   5.247 -0.0923 -0.3149  0.0355
 9174SOL    HW138984   2.806   3.152   5.179  0.4739 -2.7245 -0.5052
 9174SOL    HW238985   2.947   3.176   5.191 -1.9844  0.2194 -2.2110
 9175SOL     OW38986   2.915   2.920   7.008 -0.1134 -0.2949  0.0317
 9175SOL    HW138987   2.857   2.960   7.073 -0.5819  1.2216 -1.3276
 9175SOL    HW238988   2.998   2.953   7.044  0.0452 -1.0553  0.3763
 9176SOL     OW38989   2.423   0.574  11.132 -0.6891  0.1347  0.4030
 9176SOL    HW138990   2.432   0.545  11.223  2.3457 -0.9924 -0.2607
 9176SOL    HW238991   2.516   0.582  11.110 -0.4646 -0.8750  0.9989
 9177SOL     OW38992   2.807   2.073   5.278 -0.4984  0.0915  0.0185
 9177SOL    HW138993   2.869   2.130   5.232 -1.9071  1.3756 -0.3009
 9177SOL    HW238994   2.721   2.107   5.255 -1.5531 -1.9970  0.8850
 9178SOL     OW38995   4.131   2.660   3.511  0.3655 -0.4370  0.1038
 9178SOL    HW138996   4.097   2.748   3.501  2.5316  0.3856 -0.0896
 9178SOL    HW238997   4.053   2.608   3.494 -0.6715  0.5897  1.8094
 9179SOL     OW38998   2.585   1.534  14.929 -0.0632 -0.1962  0.5626
 9179SOL    HW138999   2.547   1.448  14.949 -1.4018  0.2688  0.0252
 9179SOL    HW239000   2.674   1.511  14.956  1.0692  1.4393 -1.8698
 9180SOL     OW39001   2.158   1.701   1.726  0.2234  0.5107  0.0028
 9180SOL    HW139002   2.150   1.624   1.783  0.0298 -0.8356 -1.8259
 9180SOL    HW239003   2.237   1.749   1.751 -0.3827  1.3347  0.3349
 9181SOL     OW39004   0.292   0.629  10.803 -0.2437  0.4172 -0.1668
 9181SOL    HW139005   0.373   0.606  10.758  0.4091 -1.0232  1.7312
 9181SOL    HW239006   0.222   0.573  10.768 -0.1781 -0.2035  0.6766
 9182SOL     OW39007   2.886   1.910  13.527  0.2943 -0.3519  0.4103
 9182SOL    HW139008   2.921   1.856  13.598  0.5411 -2.9854 -1.7027
 9182SOL    HW239009   2.864   1.846  13.459 -1.7560  2.9177 -2.0041
 9183SOL     OW39010   1.300   1.082   6.462 -0.0324 -0.4123 -0.5160
 9183SOL    HW139011   1.379   1.129   6.434  1.3023 -0.9132  2.3594
 9183SOL    HW239012   1.270   1.140   6.532  0.3424 -0.3485 -0.4026
 9184SOL     OW39013   3.876   2.193   6.174 -0.7599 -0.3336 -0.1039
 9184SOL    HW139014   3.966   2.165   6.165 -0.2215  1.2682  0.1764
 9184SOL    HW239015   3.861   2.208   6.267  0.1403  1.2164 -0.2125
 9185SOL     OW39016   4.379   4.138  14.863 -0.4865 -0.2133  0.2322
 9185SOL    HW139017   4.327   4.218  14.865  1.7013  1.2448  0.0456
 9185SOL    HW239018   4.385   4.134  14.768  1.1612 -0.4493  0.3371
 9186SOL     OW39019   1.164   2.296   8.731 -0.0197 -0.4354  0.1445
 9186SOL    HW139020   1.070   2.301   8.714  0.2325 -0.1572 -1.1843
 9186SOL    HW239021   1.195   2.224   8.677  2.0831  0.8553 -0.3901
 9187SOL     OW39022   3.182   4.310   7.010 -0.1106 -0.1780 -0.2030
 9187SOL    HW139023   3.202   4.237   7.068 -1.6574  0.3705  1.0095
 9187SOL    HW239024   3.188   4.266   6.924 -0.6013 -1.5477  0.4663
 9188SOL     OW39025   1.963   2.149  13.039  0.6412 -0.4639  0.0202
 9188SOL    HW139026   1.904   2.074  13.029 -1.8162  1.6371 -1.2313
 9188SOL    HW239027   1.896   2.217  13.034  0.6416 -0.3106  1.8014
 9189SOL     OW39028   2.995   3.003   3.677 -0.1381  0.2506 -0.1038
 9189SOL    HW139029   3.020   3.081   3.627  2.0759 -0.1729  0.3534
 9189SOL    HW239030   2.947   2.957   3.609 -0.0946  0.4031 -0.2402
 9190SOL     OW39031   1.195   2.296  16.379  0.1760  0.4545  0.8193
 9190SOL    HW139032   1.148   2.335  16.306  0.1737  1.1539  1.1973
 9190SOL    HW239033   1.270   2.355  16.372 -0.2517  0.6506 -2.1626
 9191SOL     OW39034   3.819   3.993   2.858 -0.2170  0.0229  0.3709
 9191SOL    HW139035   3.738   4.037   2.831 -0.9571 -0.9118  1.1156
 9191SOL    HW239036   3.871   4.073   2.846 -2.7376  1.8265  1.2804
 9192SOL     OW39037   0.647   3.319   4.739  0.1755  0.2916 -0.3438
 9192SOL    HW139038   0.678   3.248   4.795 -2.1861  0.1967  0.8730
 9192SOL    HW239039   0.605   3.380   4.800  0.1769  0.8510 -0.9034
 9193SOL     OW39040   1.635   2.169   6.329  0.6813  0.3080 -0.1790
 9193SOL    HW139041   1.630   2.074   6.322 -0.8427  0.3350  0.6143
 9193SOL    HW239042   1.547   2.195   6.355  0.8838  1.5678 -0.7503
 9194SOL     OW39043   0.896   2.672  15.817  0.7074 -0.3019 -0.1992
 9194SOL    HW139044   0.948   2.646  15.894  0.1413 -0.9857 -0.0507
 9194SOL    HW239045   0.967   2.701  15.759  1.1495  0.1965  0.5799
 9195SOL     OW39046   2.177   0.390  11.301 -0.5821 -0.4182 -0.4573
 9195SOL    HW139047   2.144   0.361  11.216 -1.0776  1.5962 -0.9532
 9195SOL    HW239048   2.095   0.388  11.352 -1.2488  0.1803 -1.4923
 9196SOL     OW39049   3.316   2.213   6.446 -0.3920  0.0990  0.0844
 9196SOL    HW139050   3.382   2.146   6.466 -3.0118 -2.8277 -0.9326
 9196SOL    HW239051   3.342   2.283   6.506 -1.7608 -0.2737  1.1281
 9197SOL     OW39052   2.328   0.352   2.049  0.6898  0.5381  0.2774
 9197SOL    HW139053   2.354   0.386   2.135 -2.0560  0.2484  1.2418
 9197SOL    HW239054   2.236   0.334   2.070 -0.1953  1.2366 -3.0513
 9198SOL     OW39055   3.346   2.844   6.087 -0.1407  0.2219 -0.7811
 9198SOL    HW139056   3.429   2.885   6.109 -0.1946 -0.2802  0.3580
 9198SOL    HW239057   3.372   2.752   6.077  0.6964  0.1907  1.7153
 9199SOL     OW39058   2.166   4.314   0.859 -0.2950 -0.1780  0.1991
 9199SOL    HW139059   2.191   4.303   0.951  3.2100  2.2647 -0.4473
 9199SOL    HW239060   2.218   4.251   0.809 -1.6644 -0.4900 -0.8268
 9200SOL     OW39061   0.001   3.118   5.506  0.0015  0.3678  0.4439
 9200SOL    HW139062   4.660   3.160   5.452 -0.3284  0.3752  0.8606
 9200SOL    HW239063   4.692   3.029   5.506  0.1425  0.3073 -1.4431
 9201SOL     OW39064   2.557   1.868   8.811 -0.6770 -0.5164 -0.3152
 9201SOL    HW139065   2.577   1.863   8.904  1.0307 -0.0728 -0.6654
 9201SOL    HW239066   2.464   1.844   8.815 -1.2529  1.5080 -1.6712
 9202SOL     OW39067   2.604   0.829   8.853 -0.3732 -0.2745  0.3668
 9202SOL    HW139068   2.509   0.820   8.858 -0.5795  0.8844 -1.6328
 9202SOL    HW239069   2.639   0.741   8.869  0.3454 -0.0403  0.0824
 9203SOL     OW39070   3.394   3.280   2.478 -0.1960  0.5456 -0.3630
 9203SOL    HW139071   3.470   3.223   2.481 -0.6315 -0.1250 -2.2834
 9203SOL    HW239072   3.387   3.300   2.385 -0.3843 -0.6595 -0.5981
 9204SOL     OW39073   3.196   3.224   9.292  0.8093 -0.1520  0.1146
 9204SOL    HW139074   3.267   3.170   9.324  0.4902  0.0400  1.1792
 9204SOL    HW239075   3.201   3.205   9.199  0.6004  1.2046 -0.1797
 9205SOL     OW39076   4.088   2.046   5.717 -0.0627 -0.2306  0.0358
 9205SOL    HW139077   4.105   2.023   5.625  0.5227 -1.3479  0.4214
 9205SOL    HW239078   4.091   1.957   5.753 -0.8789 -1.0735 -1.9079
 9206SOL     OW39079   0.341   2.784   0.446  0.4425 -0.7062  0.0846
 9206SOL    HW139080   0.268   2.802   0.505  0.1863 -1.7403  0.0839
 9206SOL    HW239081   0.310   2.715   0.387  0.3832 -0.4409 -0.1946
 9207SOL     OW39082   0.004   3.739  17.300  1.2526  0.1490  0.4873
 9207SOL    HW139083   4.690   3.652  17.305  0.9756  0.1782 -1.2573
 9207SOL    HW239084   4.676   3.795  17.357  0.1655 -1.4872  1.0913
 9208SOL     OW39085   1.671   4.278  16.054 -0.1357 -0.6847 -0.0019
 9208SOL    HW139086   1.702   4.363  16.086 -1.0718 -0.3636  0.0490
 9208SOL    HW239087   1.579   4.305  16.046  0.5014  1.4270 -0.2014
 9209SOL     OW39088   1.263   1.988   0.117 -0.4108  0.8091 -0.4253
 9209SOL    HW139089   1.204   1.913   0.110  1.0959 -0.4272  0.0063
 9209SOL    HW239090   1.243   2.014   0.206  0.0207 -1.8091  0.4323
 9210SOL     OW39091   2.459   0.693   4.328  0.3110 -0.1186  0.2597
 9210SOL    HW139092   2.502   0.779   4.323  4.0674 -1.8491  2.3998
 9210SOL    HW239093   2.388   0.709   4.390 -0.5681  2.9888 -1.5414
 9211SOL     OW39094   0.732   0.179  12.087  0.3573  0.3577 -0.1006
 9211SOL    HW139095   0.705   0.226  12.008 -0.3642 -0.2770 -0.2305
 9211SOL    HW239096   0.705   0.091  12.062 -1.0726  0.8156 -0.1773
 9212SOL     OW39097   2.008   1.735   1.382 -0.2082 -0.4709 -0.0702
 9212SOL    HW139098   1.961   1.752   1.463 -0.0839  2.7672 -0.6708
 9212SOL    HW239099   2.015   1.830   1.367  0.4033 -0.2444  1.6223
 9213SOL     OW39100   1.938   3.293  13.456 -0.1865  0.1845  0.7220
 9213SOL    HW139101   2.025   3.329  13.471  0.0615 -0.8077  1.6790
 9213SOL    HW239102   1.942   3.199  13.475  1.0027  0.3094  1.0385
 9214SOL     OW39103   0.753   3.453   2.811  0.1543  0.1190 -0.1886
 9214SOL    HW139104   0.845   3.457   2.783  0.2602  2.8075  0.5685
 9214SOL    HW239105   0.710   3.413   2.735 -0.1941 -0.8525  0.5319
 9215SOL     OW39106   4.581   2.315   9.285 -0.0767 -0.3799 -0.1273
 9215SOL    HW139107   4.558   2.326   9.193 -2.0255  1.1511  0.5411
 9215SOL    HW239108   4.539   2.395   9.317  1.7099  0.4104  0.2699
 9216SOL     OW39109   3.731   2.348   1.253  0.1990  0.5474  0.0273
 9216SOL    HW139110   3.746   2.272   1.197  0.2807 -2.2819  3.9758
 9216SOL    HW239111   3.636   2.357   1.260 -0.0244 -1.3606 -0.6973
 9217SOL     OW39112   1.106   2.281   3.730  0.2910 -0.1072 -0.2739
 9217SOL    HW139113   1.042   2.307   3.664  0.2420  1.3488  0.3582
 9217SOL    HW239114   1.183   2.307   3.680 -0.0727  0.6797 -0.4199
 9218SOL     OW39115   0.283   0.405   2.367  0.1220 -0.4166  0.1692
 9218SOL    HW139116   0.286   0.486   2.418  0.3311 -2.2219  3.0205
 9218SOL    HW239117   0.260   0.343   2.436 -0.0058 -1.2433 -0.6211
 9219SOL     OW39118   0.831   1.858   3.798  0.0014  0.6398 -0.4514
 9219SOL    HW139119   0.844   1.886   3.888  1.2025 -0.1690 -0.3609
 9219SOL    HW239120   0.921   1.862   3.763 -0.6664  4.6451 -1.6270
 9220SOL     OW39121   0.091   2.306   7.204 -0.5851  0.9137 -0.4809
 9220SOL    HW139122   0.112   2.260   7.123 -0.8034 -0.9595  0.5384
 9220SOL    HW239123   0.160   2.372   7.213 -0.9777  1.4274 -1.1843
 9221SOL     OW39124   2.919   3.391   4.129 -0.0166 -0.2528  0.2979
 9221SOL    HW139125   2.863   3.403   4.206  0.9412 -1.3429  1.1562
 9221SOL    HW239126   2.966   3.313   4.158  3.9980  2.6343  1.5314
 9222SOL     OW39127   4.369   4.280  15.697  0.4509 -0.3936 -0.1700
 9222SOL    HW139128   4.462   4.295  15.681  0.5672  0.5815  1.4185
 9222SOL    HW239129   4.374   4.185  15.708  2.2289 -0.2995 -0.0536
 9223SOL     OW39130   0.735   0.006   2.643 -0.3959 -0.0351  0.4483
 9223SOL    HW139131   0.725   0.091   2.686  0.9013 -0.1428  0.9509
 9223SOL    HW239132   0.675   4.682   2.699 -0.3271 -0.2444  0.3387
 9224SOL     OW39133   3.813   2.635   4.368 -0.3853  0.3936 -0.2986
 9224SOL    HW139134   3.812   2.669   4.457  1.7224 -1.5001  0.4457
 9224SOL    HW239135   3.731   2.665   4.328 -0.8299 -1.1517 -0.5447
 9225SOL     OW39136   3.212   3.803   4.471 -0.0723 -0.6125 -0.4419
 9225SOL    HW139137   3.283   3.751   4.507 -1.1366 -1.6326  0.1990
 9225SOL    HW239138   3.139   3.799   4.533 -1.0657 -2.1920 -1.7031
 9226SOL     OW39139   1.292   4.371   5.192  0.1072  0.4094  0.1089
 9226SOL    HW139140   1.266   4.345   5.104 -0.2255  2.0526 -0.2723
 9226SOL    HW239141   1.307   4.285   5.232  4.0994  0.8591 -0.3944
 9227SOL     OW39142   2.728   0.249   2.144 -0.0359  0.3457  0.1919
 9227SOL    HW139143   2.692   0.336   2.165 -0.7476  0.1746 -0.2967
 9227SOL    HW239144   2.725   0.250   2.049  1.1191  0.2943  0.1614
 9228SOL     OW39145   1.092   4.248   4.742  0.7178  0.2153  0.4304
 9228SOL    HW139146   1.086   4.258   4.647  1.3547  1.3390  0.5035
 9228SOL    HW239147   1.009   4.285   4.774  1.0612  1.2100  0.1860
 9229SOL     OW39148   3.243   4.319   8.520  0.0759  0.2542  0.8769
 9229SOL    HW139149   3.239   4.291   8.612 -2.1733  1.8808  1.2862
 9229SOL    HW239150   3.152   4.334   8.492  0.6280 -1.2509 -1.6706
 9230SOL     OW39151   3.575   1.808  12.957  0.1095 -0.2551  0.5713
 9230SOL    HW139152   3.599   1.746  13.027 -2.5828 -0.7199  1.0821
 9230SOL    HW239153   3.611   1.750  12.890 -2.3557 -1.7187  0.5246
 9231SOL     OW39154   4.033   3.781   5.072  0.0737  0.2160  0.2576
 9231SOL    HW139155   4.086   3.747   5.000 -0.9683  0.8255 -0.7981
 9231SOL    HW239156   3.945   3.750   5.050  1.0383 -3.1915  1.1928
 9232SOL     OW39157   2.037   2.619   7.294 -0.1099 -0.2679  0.0643
 9232SOL    HW139158   1.949   2.593   7.268 -0.2620 -0.5794  0.9174
 9232SOL    HW239159   2.080   2.539   7.265 -0.7062 -0.7293  0.4647
 9233SOL     OW39160   4.342   4.427   5.166  0.2178 -0.4330 -0.0631
 9233SOL    HW139161   4.305   4.344   5.197  2.2157 -0.7580  1.5234
 9233SOL    HW239162   4.315   4.422   5.074 -0.7769 -0.6077  0.2374
 9234SOL     OW39163   1.247   0.572   7.671 -0.5339 -0.3265  0.3574
 9234SOL    HW139164   1.273   0.515   7.599  2.9660 -0.1385  1.4547
 9234SOL    HW239165   1.333   0.607   7.694 -0.1946  0.4212 -1.9570
 9235SOL     OW39166   0.631   0.384  15.949  0.7908  0.7787  0.8925
 9235SOL    HW139167   0.560   0.441  15.919 -0.8816 -0.3669  2.6535
 9235SOL    HW239168   0.603   0.308  16.000 -0.0567 -0.0411 -0.8216
 9236SOL     OW39169   2.075   1.940   2.856 -0.0183  0.0120  0.5197
 9236SOL    HW139170   2.107   1.892   2.780 -0.3573 -1.3997  1.2651
 9236SOL    HW239171   2.091   2.030   2.827  2.6423 -0.5019  0.3928
 9237SOL     OW39172   1.027   2.859   6.016  0.1121 -0.2752  0.0279
 9237SOL    HW139173   1.120   2.874   5.997  0.9281 -2.1817  2.4408
 9237SOL    HW239174   1.041   2.841   6.109  1.6505  0.1045 -0.1280
 9238SOL     OW39175   3.800   0.342   6.219 -0.3477 -0.2152 -0.6376
 9238SOL    HW139176   3.794   0.420   6.275  1.2774  0.5700 -1.5720
 9238SOL    HW239177   3.890   0.332   6.188  0.7518  1.5800  1.9301
 9239SOL     OW39178   3.347   4.666   1.856 -0.0087  0.3344  0.1339
 9239SOL    HW139179   3.287   4.649   1.783 -0.2385 -1.2979  0.7174
 9239SOL    HW239180   3.395   4.584   1.857  1.6151  1.2867 -0.2065
 9240SOL     OW39181   0.327   1.843  12.263 -0.5088  0.2493  0.5374
 9240SOL    HW139182   0.366   1.898  12.331  0.7841 -1.4020  1.1290
 9240SOL    HW239183   0.386   1.859  12.189 -0.2481 -0.5003  0.5844
 9241SOL     OW39184   1.456   1.036   7.763  0.7126 -0.2987  0.3830
 9241SOL    HW139185   1.406   1.098   7.710  0.5679  0.2296  1.1432
 9241SOL    HW239186   1.494   1.093   7.830  0.3687  1.4788 -0.9619
 9242SOL     OW39187   3.248   3.000   1.974 -0.2564  0.4915  0.0869
 9242SOL    HW139188   3.281   3.024   2.061  1.9891  2.1817 -1.2169
 9242SOL    HW239189   3.267   2.906   1.976  0.0365  0.5124 -1.7976
 9243SOL     OW39190   3.070   0.883   5.172 -0.4234  0.4832 -0.4741
 9243SOL    HW139191   3.103   0.881   5.082  1.2892 -0.9639  0.1692
 9243SOL    HW239192   3.038   0.793   5.174 -0.7164  0.5727 -1.0827
 9244SOL     OW39193   4.013   4.637   2.051 -0.3080 -0.0847 -0.1097
 9244SOL    HW139194   4.107   4.649   2.064  0.2921 -3.2647 -1.4456
 9244SOL    HW239195   4.013   4.647   1.956 -1.0325 -2.3162 -0.3378
 9245SOL     OW39196   4.033   0.617  12.596  0.2177  0.3823 -0.0110
 9245SOL    HW139197   3.978   0.543  12.569  1.1038 -1.3819  2.9995
 9245SOL    HW239198   3.987   0.691  12.556  1.5222 -0.4079 -3.0366
 9246SOL     OW39199   3.900   1.601  16.269 -0.5445 -0.7964  0.2668
 9246SOL    HW139200   3.924   1.509  16.281  1.8215 -0.3095 -0.6756
 9246SOL    HW239201   3.983   1.648  16.272 -1.0336  0.0377  0.7754
 9247SOL     OW39202   0.280   3.014   6.910 -0.0715 -0.3821  0.2931
 9247SOL    HW139203   0.201   2.995   6.960  0.3094 -2.3759  0.1256
 9247SOL    HW239204   0.330   3.075   6.964  2.6457  0.2102 -2.8917
 9248SOL     OW39205   4.346   2.848   3.075 -0.3315  0.4002 -0.3450
 9248SOL    HW139206   4.285   2.856   3.002 -1.7181 -1.3333  0.6239
 9248SOL    HW239207   4.410   2.792   3.031  1.4731  2.2754 -0.0728
 9249SOL     OW39208   4.677   1.291  10.307  0.0657 -0.0613  0.0052
 9249SOL    HW139209   4.659   1.268  10.216  0.1631 -0.1654  0.0117
 9249SOL    HW239210   0.047   1.283  10.305  0.2423  1.6147  2.2191
 9250SOL     OW39211   3.047   0.725   3.997  0.5892 -0.1513 -0.0063
 9250SOL    HW139212   3.101   0.804   3.987 -0.7283  0.7341 -0.1149
 9250SOL    HW239213   3.120   0.663   4.001 -0.0078 -0.6760  2.5420
 9251SOL     OW39214   1.199   1.217   8.287  0.2605  0.5076  0.6946
 9251SOL    HW139215   1.195   1.312   8.292 -3.6873  0.3178  1.8294
 9251SOL    HW239216   1.159   1.197   8.202 -1.6278 -0.3398  1.7624
 9252SOL     OW39217   1.394   3.387   2.546 -0.2101 -0.2284  0.6694
 9252SOL    HW139218   1.457   3.381   2.474 -1.8638  0.5449 -0.8465
 9252SOL    HW239219   1.383   3.293   2.559 -0.7869 -0.5235 -1.8420
 9253SOL     OW39220   2.847   3.852   4.929  0.1856 -0.2443 -0.4708
 9253SOL    HW139221   2.893   3.800   4.996  0.9821  0.0970 -0.7586
 9253SOL    HW239222   2.790   3.906   4.983 -0.8377 -0.4949 -1.3000
 9254SOL     OW39223   1.945   3.815   1.325  0.0608  0.1076  0.1277
 9254SOL    HW139224   1.952   3.722   1.345  0.4366  0.2724  0.7662
 9254SOL    HW239225   1.898   3.811   1.242  0.3358  0.7052 -0.0566
 9255SOL     OW39226   4.084   1.480   5.102  0.6499 -0.2581  0.0738
 9255SOL    HW139227   4.138   1.431   5.040  1.2315 -0.0902  0.4511
 9255SOL    HW239228   4.036   1.535   5.040 -1.2496 -3.3383 -1.1941
 9256SOL     OW39229   2.676   0.084   0.732  0.5958  0.0491 -0.3701
 9256SOL    HW139230   2.634   4.723   0.736  1.5462 -0.3898  0.1568
 9256SOL    HW239231   2.708   0.086   0.822 -1.6849 -1.5010  0.4815
 9257SOL     OW39232   3.867   2.232   5.804  0.5802  0.0962  0.6514
 9257SOL    HW139233   3.863   2.285   5.725  0.9509  1.3732  1.4753
 9257SOL    HW239234   3.948   2.186   5.784  0.6695 -0.0280  1.2978
 9258SOL     OW39235   1.769   0.208   3.756  0.8247  0.0655  0.0244
 9258SOL    HW139236   1.751   0.302   3.748 -0.7874 -0.3769 -1.3239
 9258SOL    HW239237   1.864   0.212   3.740  0.6828 -0.1044 -0.8598
 9259SOL     OW39238   4.605   0.699   6.903 -0.2372  0.6278 -0.3288
 9259SOL    HW139239   4.518   0.671   6.931  0.3006  0.0869  0.8065
 9259SOL    HW239240   4.652   0.663   6.978 -1.8844  0.8912  0.8296
 9260SOL     OW39241   4.344   3.596  10.623  0.0939  0.0640 -0.4255
 9260SOL    HW139242   4.395   3.584  10.542 -0.8273 -3.0164 -0.5401
 9260SOL    HW239243   4.322   3.689  10.609 -2.3166 -0.6996 -1.6882
 9261SOL     OW39244   0.870   4.662   6.297 -0.3201  0.1000 -0.3499
 9261SOL    HW139245   0.782   4.661   6.334 -0.0206 -1.4822  0.3093
 9261SOL    HW239246   0.867   4.581   6.246  1.2848  0.8519 -1.6326
 9262SOL     OW39247   1.095   3.268   5.638  0.0936  0.1152 -0.6986
 9262SOL    HW139248   1.036   3.267   5.563 -1.7585 -1.8032  0.7742
 9262SOL    HW239249   1.122   3.359   5.630  2.7417 -0.5184  1.0555
 9263SOL     OW39250   4.232   0.768   5.484  0.0066  0.0164 -0.0890
 9263SOL    HW139251   4.208   0.779   5.392 -0.9899  0.2669  0.1970
 9263SOL    HW239252   4.163   0.815   5.531 -1.0080 -3.0341  1.4891
 9264SOL     OW39253   1.903   2.001   1.680 -0.3562  0.3371  0.0042
 9264SOL    HW139254   1.946   1.934   1.732 -0.2167  1.5670  1.4499
 9264SOL    HW239255   1.813   1.983   1.708 -0.7597 -1.8627 -2.7340
 9265SOL     OW39256   0.763   3.994   5.602  0.8538 -0.2125 -0.5037
 9265SOL    HW139257   0.681   4.036   5.627  0.3990  0.0060 -2.3641
 9265SOL    HW239258   0.746   3.910   5.643 -2.3442  0.6476 -0.0612
 9266SOL     OW39259   1.715   3.505   5.517 -1.0290 -0.6774  0.6431
 9266SOL    HW139260   1.746   3.446   5.448  0.5373  0.6381  0.2257
 9266SOL    HW239261   1.752   3.468   5.598  1.3483 -0.9900 -0.5581
 9267SOL     OW39262   3.124   3.718  12.113  0.5285  0.5952  0.4919
 9267SOL    HW139263   3.109   3.788  12.177 -0.3876  0.3777  0.5180
 9267SOL    HW239264   3.043   3.709  12.062  1.1989 -0.5139 -0.3662
 9268SOL     OW39265   0.879   1.627  16.201 -0.2793  0.1989  0.0976
 9268SOL    HW139266   0.955   1.584  16.240  0.6115  2.1193  0.4950
 9268SOL    HW239267   0.926   1.709  16.186 -2.1811  1.6451  1.9620
 9269SOL     OW39268   2.528   2.616   5.741 -0.0925  0.5998 -0.6447
 9269SOL    HW139269   2.520   2.666   5.660 -1.2348 -2.1802 -2.2681
 9269SOL    HW239270   2.442   2.574   5.745  1.1511 -2.0034 -1.6425
 9270SOL     OW39271   1.609   2.778   7.995  0.4186 -0.2460  0.2803
 9270SOL    HW139272   1.653   2.769   7.910 -0.1057  0.1111 -0.0336
 9270SOL    HW239273   1.520   2.800   7.968  0.4350 -0.7021 -0.1429
 9271SOL     OW39274   4.349   3.669   0.794 -0.6081  0.1369 -0.4735
 9271SOL    HW139275   4.342   3.713   0.709 -0.6667  0.1920 -0.4400
 9271SOL    HW239276   4.261   3.642   0.821 -0.4274  0.7607  0.7248
 9272SOL     OW39277   3.400   0.275   6.097  0.1113 -0.4425 -0.3792
 9272SOL    HW139278   3.494   0.269   6.111  0.2541  1.9269 -0.2209
 9272SOL    HW239279   3.402   0.347   6.034 -0.2500 -2.1119 -2.2921
 9273SOL     OW39280   3.609   3.095   9.609 -0.1799 -0.0696  0.9728
 9273SOL    HW139281   3.629   3.178   9.566 -0.3610 -0.3372  0.3758
 9273SOL    HW239282   3.693   3.049   9.609 -0.9081 -1.4020  2.2647
 9274SOL     OW39283   1.825   4.205  13.557  0.6658  0.7808  0.0696
 9274SOL    HW139284   1.806   4.274  13.493 -2.2307 -3.2075 -3.3581
 9274SOL    HW239285   1.899   4.160  13.517  0.1903 -0.9386  1.1598
 9275SOL     OW39286   4.370   4.077   3.431  0.1257  0.1508 -0.3259
 9275SOL    HW139287   4.454   4.104   3.395  1.3592 -0.4240  2.1329
 9275SOL    HW239288   4.312   4.137   3.383 -0.7996 -0.4371  0.0491
 9276SOL     OW39289   4.714   4.431   4.900  0.0403  0.6594  0.4288
 9276SOL    HW139290   4.714   4.511   4.953  1.5771  0.2736  1.0055
 9276SOL    HW239291   4.621   4.429   4.876 -0.1662  1.0000  1.2204
 9277SOL     OW39292   3.457   2.931   2.975 -0.0041  0.0994 -0.1915
 9277SOL    HW139293   3.403   2.956   3.051 -1.1838  2.2964 -1.7556
 9277SOL    HW239294   3.424   2.845   2.952 -0.6133 -0.1966  1.7845
 9278SOL     OW39295   1.977   4.451  10.242 -0.4594 -0.0742 -0.7153
 9278SOL    HW139296   1.901   4.504  10.267 -0.3367  0.0722 -0.6542
 9278SOL    HW239297   2.036   4.522  10.216 -1.2239  0.2064 -1.6777
 9279SOL     OW39298   0.522   2.804  12.984 -0.0059 -0.3314  0.5979
 9279SOL    HW139299   0.592   2.849  12.937 -0.8758  0.7901  0.3858
 9279SOL    HW239300   0.521   2.719  12.938 -1.6672  0.6616 -1.2148
 9280SOL     OW39301   1.955   3.101  13.904 -0.1978  0.6176 -0.0461
 9280SOL    HW139302   1.888   3.089  13.836  0.3676 -0.1561 -0.4727
 9280SOL    HW239303   1.904   3.138  13.975 -0.6886  0.9613 -0.5780
 9281SOL     OW39304   0.315   1.707   7.989  0.0075  0.5366  0.1185
 9281SOL    HW139305   0.344   1.698   7.898 -1.5047 -0.2717 -0.2843
 9281SOL    HW239306   0.368   1.641   8.033 -0.4965 -0.3945 -0.6522
 9282SOL     OW39307   2.819   0.545   5.607 -0.3467 -0.1561 -0.2065
 9282SOL    HW139308   2.785   0.612   5.666 -1.3566 -2.2250  1.5683
 9282SOL    HW239309   2.911   0.571   5.609 -0.5085  0.5985 -2.2615
 9283SOL     OW39310   3.691   0.402   0.374  0.5344 -0.0211 -0.0754
 9283SOL    HW139311   3.755   0.336   0.347  1.0868  0.4739  0.0100
 9283SOL    HW239312   3.699   0.471   0.309 -0.7061  0.3998  0.2303
 9284SOL     OW39313   4.073   4.366   5.463  0.6197  0.3517  0.0802
 9284SOL    HW139314   3.994   4.360   5.517  1.8290 -2.6682  1.5129
 9284SOL    HW239315   4.127   4.305   5.514 -0.0793 -1.2724 -1.1033
 9285SOL     OW39316   2.274   3.804   8.930 -0.0347 -0.0374  0.2368
 9285SOL    HW139317   2.237   3.875   8.878  1.2622  0.3569 -0.1387
 9285SOL    HW239318   2.331   3.755   8.871 -0.2354 -1.2790  1.0528
 9286SOL     OW39319   3.511   0.774   7.079 -0.0561 -0.2507 -0.3836
 9286SOL    HW139320   3.532   0.738   6.993 -0.8040 -2.4870  0.3754
 9286SOL    HW239321   3.552   0.861   7.078  0.6641 -0.5931 -0.5773
 9287SOL     OW39322   3.487   0.237   1.486  0.0392  0.0220  0.2261
 9287SOL    HW139323   3.564   0.181   1.476  1.8305  2.1582  2.3819
 9287SOL    HW239324   3.448   0.233   1.398 -0.9333 -0.0132  0.6614
 9288SOL     OW39325   0.823   3.545   1.789  0.7740  0.1132  0.0375
 9288SOL    HW139326   0.832   3.603   1.713  0.9135 -1.3779 -1.0669
 9288SOL    HW239327   0.728   3.534   1.785  0.4099  2.1756  2.8997
 9289SOL     OW39328   0.763   3.468   6.652 -0.1573  0.4425 -0.7461
 9289SOL    HW139329   0.706   3.543   6.670  4.6032  3.8769  0.0638
 9289SOL    HW239330   0.725   3.424   6.576  2.7588 -0.2615 -1.7944
 9290SOL     OW39331   4.640   1.158   1.140 -0.9218  0.2188 -0.2550
 9290SOL    HW139332   4.600   1.076   1.169 -1.2822  0.4344 -0.1480
 9290SOL    HW239333   4.682   1.127   1.059  0.5128  1.7583 -0.0889
 9291SOL     OW39334   3.881   0.086  15.833  0.1504 -0.4217 -0.2316
 9291SOL    HW139335   3.969   0.098  15.868  0.1534  1.4183 -0.8421
 9291SOL    HW239336   3.889   4.717  15.819  2.8271 -0.2088 -0.0480
 9292SOL     OW39337   1.068   1.051  11.622 -0.7092 -0.0027  0.2014
 9292SOL    HW139338   1.137   1.064  11.557 -1.7669  1.6745 -0.5794
 9292SOL    HW239339   1.117   1.014  11.696  2.0809 -0.4694 -1.8541
 9293SOL     OW39340   0.719   4.642  12.006 -0.2453  0.0167 -0.2005
 9293SOL    HW139341   0.722   4.546  12.011  3.9910  0.1727 -0.2953
 9293SOL    HW239342   0.760   4.653  11.921  0.6146  2.1051  0.4939
 9294SOL     OW39343   1.956   3.889   4.608 -0.1316  0.1903 -0.8295
 9294SOL    HW139344   1.948   3.801   4.646 -0.1108 -0.3824 -2.1431
 9294SOL    HW239345   2.049   3.894   4.631 -0.0229 -0.9202 -0.9986
 9295SOL     OW39346   3.019   4.590   6.231  0.1589 -0.2499 -0.1990
 9295SOL    HW139347   3.103   4.570   6.189  0.0320 -0.2533 -0.4552
 9295SOL    HW239348   3.031   4.676   6.271 -2.1431  1.1608 -2.5705
 9296SOL     OW39349   4.014   2.500  13.480  0.0607 -0.0355 -0.0092
 9296SOL    HW139350   4.043   2.420  13.437 -0.3344  0.4117 -1.0933
 9296SOL    HW239351   4.053   2.562  13.419 -1.6355 -0.4515 -1.5050
 9297SOL     OW39352   0.682   1.277   5.852 -0.5427 -0.3742  0.0804
 9297SOL    HW139353   0.655   1.275   5.944  1.7214 -2.0788  0.6992
 9297SOL    HW239354   0.608   1.235   5.808 -0.0538 -0.2659 -0.8581
 9298SOL     OW39355   3.679   3.883   8.450  0.0875  0.0735  0.5872
 9298SOL    HW139356   3.769   3.914   8.462  0.3983  0.9384 -3.9816
 9298SOL    HW239357   3.657   3.802   8.497 -0.2431 -0.7817 -1.0351
 9299SOL     OW39358   1.562   2.029  16.375  0.7721  0.7948  0.5256
 9299SOL    HW139359   1.467   2.034  16.389  0.7539  0.4319  0.5278
 9299SOL    HW239360   1.578   2.113  16.332  4.5301 -0.6470 -0.8106
 9300SOL     OW39361   4.063   1.145   0.052  0.2711  0.2622  0.1364
 9300SOL    HW139362   4.115   1.162   0.131  0.6759 -1.1592  0.1827
 9300SOL    HW239363   4.070   1.235   0.020 -1.2948 -0.3084 -1.7944
 9301SOL     OW39364   3.410   3.583  14.956 -0.6137 -1.0109 -0.6653
 9301SOL    HW139365   3.320   3.600  14.984 -0.3141 -1.8114  0.8033
 9301SOL    HW239366   3.395   3.506  14.902 -2.5262 -1.2534  0.2095
 9302SOL     OW39367   2.083   1.476  13.202  0.5554 -0.4984 -0.1651
 9302SOL    HW139368   2.080   1.381  13.197  0.5784 -0.6436  2.2257
 9302SOL    HW239369   2.073   1.489  13.297  0.4632 -1.6892 -0.0070
 9303SOL     OW39370   2.456   0.204   5.709  0.2052  0.1921  0.7605
 9303SOL    HW139371   2.493   0.254   5.636  2.5210 -1.6415  0.6835
 9303SOL    HW239372   2.504   0.124   5.689  1.0219  1.1539 -1.1981
 9304SOL     OW39373   1.497   2.157   3.805 -0.2493 -0.4768  0.1981
 9304SOL    HW139374   1.552   2.224   3.764 -0.5868 -1.1948 -1.4103
 9304SOL    HW239375   1.442   2.217   3.856  1.6853  0.1102  1.6391
 9305SOL     OW39376   0.096   2.988  15.046  0.3383  0.7177 -0.2877
 9305SOL    HW139377   0.060   2.908  15.085  0.2772  1.9682  2.1530
 9305SOL    HW239378   0.188   2.963  15.030 -0.3807 -0.7224 -2.2085
 9306SOL     OW39379   0.558   3.860   7.332 -0.2095 -0.0275 -0.0951
 9306SOL    HW139380   0.467   3.863   7.302  0.1456 -1.2527 -1.2885
 9306SOL    HW239381   0.550   3.850   7.427  0.4028 -0.3929 -0.0786
 9307SOL     OW39382   0.914   0.744  12.469  0.5264  0.6402 -0.4822
 9307SOL    HW139383   0.852   0.758  12.397 -1.5795  1.6134  1.5356
 9307SOL    HW239384   0.936   0.651  12.465 -0.2023  0.4229  0.5221
 9308SOL     OW39385   0.964   3.405   7.299 -0.0876  0.6007  0.5645
 9308SOL    HW139386   0.980   3.357   7.380  1.3263 -0.2551 -0.2317
 9308SOL    HW239387   1.026   3.477   7.309  0.0358  0.8892 -2.1688
 9309SOL     OW39388   2.478   3.034  11.981 -0.1290  0.0236  0.4558
 9309SOL    HW139389   2.544   2.965  11.970 -0.8628 -0.8885  1.7009
 9309SOL    HW239390   2.418   2.993  11.918 -0.5827  0.1538  0.7995
 9310SOL     OW39391   0.300   2.675   8.684 -0.5253 -0.0640 -0.2945
 9310SOL    HW139392   0.390   2.705   8.685  0.1627 -2.2123  1.1909
 9310SOL    HW239393   0.308   2.605   8.749  0.4536  0.8716  0.5724
 9311SOL     OW39394   2.298   0.953   4.406  0.0416  0.0921 -0.9790
 9311SOL    HW139395   2.260   1.004   4.335 -1.0651  2.1970  1.1317
 9311SOL    HW239396   2.387   0.955   4.370  0.0969  0.1835 -0.8376
 9312SOL     OW39397   0.418   0.685   6.809  0.8575 -0.5204 -0.1520
 9312SOL    HW139398   0.337   0.666   6.857  0.9692 -0.1485  0.1901
 9312SOL    HW239399   0.386   0.720   6.727 -1.2513 -0.7315  0.5725
 9313SOL     OW39400   0.966   2.585   9.858  0.4781 -0.3848 -0.5757
 9313SOL    HW139401   0.936   2.537   9.781  1.4988 -1.7272 -0.1367
 9313SOL    HW239402   0.881   2.617   9.889 -0.3787 -1.4177 -1.8354
 9314SOL     OW39403   0.710   1.104   5.052  0.9694 -0.0583 -0.1506
 9314SOL    HW139404   0.733   1.159   5.128 -0.7481  1.5197 -0.7751
 9314SOL    HW239405   0.684   1.174   4.993 -1.8339 -1.7324 -0.9048
 9315SOL     OW39406   1.114   1.064   4.652 -0.6809  0.0859  0.1644
 9315SOL    HW139407   1.026   1.049   4.620  0.5020 -2.6660 -1.8572
 9315SOL    HW239408   1.100   1.134   4.715  2.4306  1.6875 -0.9161
 9316SOL     OW39409   3.441   1.844   9.601  0.4671  0.3850  0.1519
 9316SOL    HW139410   3.441   1.798   9.684  0.4959  0.3135  0.1119
 9316SOL    HW239411   3.533   1.843   9.574  0.4350  0.0677  0.0564
 9317SOL     OW39412   3.248   4.271   5.013 -0.1643 -0.4237 -0.3371
 9317SOL    HW139413   3.156   4.281   4.987  0.1147  1.3074 -0.7026
 9317SOL    HW239414   3.270   4.353   5.059  0.3009 -1.5833  1.4966
 9318SOL     OW39415   1.220   4.598   7.343 -0.0410  0.5543 -0.1451
 9318SOL    HW139416   1.300   4.630   7.301 -0.4051  1.2493 -0.3013
 9318SOL    HW239417   1.157   4.664   7.313  0.5851  0.8418 -0.8251
 9319SOL     OW39418   0.054   2.613   3.278 -0.0319 -0.2356 -0.0102
 9319SOL    HW139419   0.131   2.634   3.331 -2.1027  0.9079  2.5417
 9319SOL    HW239420   0.006   2.557   3.339 -2.1617  1.0962 -0.4798
 9320SOL     OW39421   2.910   2.833   3.226  0.5079  0.1006  0.2419
 9320SOL    HW139422   2.851   2.899   3.190 -0.1655 -1.3794 -1.3588
 9320SOL    HW239423   2.917   2.772   3.153 -2.1910 -2.2021  1.9579
 9321SOL     OW39424   0.719   4.621   2.891 -0.2807  0.0728  0.2783
 9321SOL    HW139425   0.736   4.606   2.984 -0.3906 -2.3149 -0.0904
 9321SOL    HW239426   0.624   4.621   2.898 -0.2506 -0.7420  0.6944
 9322SOL     OW39427   1.981   0.367   5.734  0.2710  0.6598 -0.3311
 9322SOL    HW139428   1.919   0.295   5.730 -0.4564  1.2802 -0.0608
 9322SOL    HW239429   2.046   0.329   5.794 -0.6785  1.5794  1.2593
 9323SOL     OW39430   2.846   4.386   7.399 -0.2135 -0.6476 -0.0503
 9323SOL    HW139431   2.924   4.433   7.370  0.2639 -0.3227  1.7193
 9323SOL    HW239432   2.828   4.430   7.483  1.0198  3.5049 -1.9754
 9324SOL     OW39433   2.449   4.142   5.028  0.0753  0.0817  0.1375
 9324SOL    HW139434   2.359   4.160   5.002  0.3495  1.0449 -0.1730
 9324SOL    HW239435   2.442   4.047   5.029 -1.2454  0.1759 -0.3884
 9325SOL     OW39436   4.365   0.470  16.787 -0.1061  0.1279  0.0589
 9325SOL    HW139437   4.378   0.382  16.822  1.0603  1.4015  2.8103
 9325SOL    HW239438   4.454   0.504  16.792  0.6203 -2.2397  2.7600
 9326SOL     OW39439   2.714   3.453   0.224  0.1248  0.9714 -0.1866
 9326SOL    HW139440   2.747   3.388   0.163  0.9439  1.1198  0.1025
 9326SOL    HW239441   2.697   3.531   0.171  0.0632  0.6722 -0.5968
 9327SOL     OW39442   4.221   1.565   8.507 -0.0089 -0.4610  0.3151
 9327SOL    HW139443   4.126   1.575   8.503 -0.4044 -3.1500  2.7282
 9327SOL    HW239444   4.256   1.638   8.455  3.9251 -1.7905  1.0666
 9328SOL     OW39445   2.750   2.474   9.150 -0.6699 -0.1318  0.6446
 9328SOL    HW139446   2.735   2.407   9.217 -1.0147 -2.5918 -1.8725
 9328SOL    HW239447   2.679   2.535   9.170 -2.4749 -2.5036  1.4608
 9329SOL     OW39448   4.343   1.858   5.783  0.4878 -0.2317 -0.0688
 9329SOL    HW139449   4.269   1.833   5.838  0.3853 -3.4633 -1.6695
 9329SOL    HW239450   4.365   1.782   5.729 -0.8076 -0.3629 -0.4173
 9330SOL     OW39451   0.138   0.643   4.571  0.0746 -0.1134  0.4067
 9330SOL    HW139452   0.126   0.548   4.567 -2.4850  0.1711  1.4733
 9330SOL    HW239453   0.155   0.645   4.665 -0.3391  1.3198  0.4459
 9331SOL     OW39454   3.751   2.681   2.815 -0.0637 -0.4197  0.4903
 9331SOL    HW139455   3.798   2.656   2.735 -0.7914 -0.0062 -0.0653
 9331SOL    HW239456   3.673   2.625   2.808 -0.0105 -0.3080 -0.9665
 9332SOL     OW39457   1.427   1.182   4.042  0.8345 -0.2455 -0.5437
 9332SOL    HW139458   1.357   1.139   4.090  0.1402 -0.6883 -1.9333
 9332SOL    HW239459   1.380   1.252   3.995  1.6254  0.2836 -0.5522
 9333SOL     OW39460   2.445   1.349   9.969 -0.0140 -0.0506 -0.2152
 9333SOL    HW139461   2.386   1.425   9.967 -0.2294 -0.1650  1.6489
 9333SOL    HW239462   2.453   1.332   9.875  1.3419 -1.1084  0.1027
 9334SOL     OW39463   4.448   3.667   3.868 -0.1765  0.2335  0.0031
 9334SOL    HW139464   4.533   3.652   3.910  0.3586  0.4605 -0.9682
 9334SOL    HW239465   4.451   3.627   3.781 -0.0411  1.2932 -0.4888
 9335SOL     OW39466   1.262   4.114   6.053 -0.4618  0.1989 -0.0915
 9335SOL    HW139467   1.260   4.194   6.000  1.9420  1.2128  1.3558
 9335SOL    HW239468   1.175   4.081   6.032 -0.2415 -1.6075  1.9042
 9336SOL     OW39469   4.270   1.060   4.128 -0.6386 -0.0895 -0.2994
 9336SOL    HW139470   4.345   1.116   4.145 -1.6101  0.9116  0.7360
 9336SOL    HW239471   4.300   1.006   4.055  1.7938  1.3844 -0.3748
 9337SOL     OW39472   1.183   3.770   1.819 -0.0934 -0.0794 -0.1074
 9337SOL    HW139473   1.131   3.786   1.898 -1.1674 -1.1426 -0.6005
 9337SOL    HW239474   1.132   3.702   1.776  1.2415 -1.2186  0.0959
 9338SOL     OW39475   3.724   0.643  10.305 -0.6177 -0.3793 -0.2347
 9338SOL    HW139476   3.814   0.632  10.336 -2.0411 -3.8664  2.6478
 9338SOL    HW239477   3.735   0.583  10.231  0.2041  1.2351 -1.4097
 9339SOL     OW39478   4.089   3.494  12.197 -0.5295  0.3679  0.5515
 9339SOL    HW139479   4.049   3.543  12.124 -0.0134  1.6860  1.1617
 9339SOL    HW239480   4.022   3.429  12.220  0.3188 -0.8468 -0.3542
 9340SOL     OW39481   4.638   3.997  17.596 -0.0332  0.1960 -0.7417
 9340SOL    HW139482   4.555   3.964  17.631 -0.2540  0.5512 -0.9260
 9340SOL    HW239483   4.672   4.040  17.674 -0.0018  0.4692 -0.9051
 9341SOL     OW39484   2.454   0.702  17.095 -0.7135 -0.0185  0.4939
 9341SOL    HW139485   2.403   0.674  17.171  0.6929  1.5118  2.0289
 9341SOL    HW239486   2.427   0.636  17.032 -0.6673 -0.5639  1.0525
 9342SOL     OW39487   4.233   1.145   0.276 -0.0160 -0.0158  0.4695
 9342SOL    HW139488   4.162   1.132   0.339  2.0199  0.4894  2.8601
 9342SOL    HW239489   4.303   1.162   0.339 -1.2251  1.3376  1.4451
 9343SOL     OW39490   0.219   4.212  17.174  0.5016  0.1196 -0.3857
 9343SOL    HW139491   0.283   4.189  17.107  0.7222 -1.6590  0.4293
 9343SOL    HW239492   0.267   4.199  17.256 -1.7122  1.0849  1.0646
 9344SOL     OW39493   3.639   0.979   3.514 -0.4032  0.4691  0.3524
 9344SOL    HW139494   3.627   0.968   3.608  0.8284  4.2502  0.9513
 9344SOL    HW239495   3.556   0.949   3.478  0.6851  0.2268 -1.9573
 9345SOL     OW39496   2.282   2.708   1.693  0.2260  0.3277 -0.5634
 9345SOL    HW139497   2.301   2.658   1.614 -0.6420  1.9429 -1.7942
 9345SOL    HW239498   2.189   2.696   1.709  0.3554  1.5404  1.1122
 9346SOL     OW39499   2.247   1.804   7.996  0.2231 -0.1582 -0.1793
 9346SOL    HW139500   2.284   1.818   8.083  2.2113 -1.2449 -0.8397
 9346SOL    HW239501   2.230   1.892   7.964  0.9371 -0.2343 -0.7616
 9347SOL     OW39502   2.926   4.725   2.926  0.6348 -0.2605 -0.8810
 9347SOL    HW139503   2.979   0.034   2.853  0.7237 -1.4501 -1.3724
 9347SOL    HW239504   2.919   4.632   2.907 -0.2928 -0.7091  1.7348
 9348SOL     OW39505   3.925   2.584   7.644 -0.0356  0.5745  0.0428
 9348SOL    HW139506   3.995   2.526   7.616  1.6975  2.0437  1.3033
 9348SOL    HW239507   3.869   2.579   7.566 -0.3865  1.1330  0.2571
 9349SOL     OW39508   0.947   0.508   0.507 -0.7109  0.1531  0.2860
 9349SOL    HW139509   0.888   0.471   0.574 -2.6037 -0.1691 -1.5538
 9349SOL    HW239510   0.882   0.523   0.438  0.1717 -2.0780 -1.0283
 9350SOL     OW39511   0.663   1.103  12.202  0.2591 -0.2260  0.4397
 9350SOL    HW139512   0.640   1.106  12.109  0.2215  0.6470  0.4733
 9350SOL    HW239513   0.726   1.175  12.188 -1.9808  1.3574 -1.5338
 9351SOL     OW39514   0.968   1.307   1.127 -0.8253  0.1561 -0.5869
 9351SOL    HW139515   0.936   1.356   1.052 -1.9025 -2.0122 -1.5464
 9351SOL    HW239516   0.990   1.226   1.081 -2.3215 -0.1341 -0.7845
 9352SOL     OW39517   2.464   4.251   1.057  0.5620  0.2874 -0.0737
 9352SOL    HW139518   2.520   4.239   0.980  1.2227 -0.3313  0.5162
 9352SOL    HW239519   2.531   4.232   1.122  0.1850 -2.2265 -0.4303
 9353SOL     OW39520   2.549   4.495   3.859  0.2581  0.0291  0.1629
 9353SOL    HW139521   2.543   4.399   3.856  0.0987  0.0040  1.4103
 9353SOL    HW239522   2.583   4.498   3.770 -2.9116  0.2304 -1.0155
 9354SOL     OW39523   3.841   3.085   8.922  0.5738  0.1301  0.5421
 9354SOL    HW139524   3.749   3.113   8.917  0.1693 -1.2797  0.0311
 9354SOL    HW239525   3.868   3.100   9.012  0.9790 -1.0567  0.6135
 9355SOL     OW39526   1.621   4.112  14.206 -0.3102  0.2708 -0.6109
 9355SOL    HW139527   1.712   4.141  14.209 -1.0589  2.3054  2.4376
 9355SOL    HW239528   1.613   4.058  14.127  0.1357 -1.4402  0.5380
 9356SOL     OW39529   4.605   4.298   7.331 -0.2599  0.3223 -0.1309
 9356SOL    HW139530   4.513   4.274   7.342 -0.2857  0.8588  0.8650
 9356SOL    HW239531   4.617   4.358   7.405 -0.6786  1.7470 -1.2217
 9357SOL     OW39532   0.737   1.907   4.890  0.4401 -0.2994 -0.1257
 9357SOL    HW139533   0.656   1.958   4.883  0.2578 -0.2572  2.1369
 9357SOL    HW239534   0.735   1.846   4.816 -1.6866 -0.2045 -0.1565
 9358SOL     OW39535   4.325   4.561   1.001 -0.2521  0.0785  0.5502
 9358SOL    HW139536   4.346   4.567   0.907  1.4664  1.7824  1.0527
 9358SOL    HW239537   4.240   4.603   1.011  0.2464  0.7468  1.9847
 9359SOL     OW39538   3.080   1.324   5.520 -0.4539 -0.0365  0.1337
 9359SOL    HW139539   3.102   1.410   5.482  0.0568 -0.5878 -0.8247
 9359SOL    HW239540   3.169   1.295   5.537 -0.8697 -1.4127 -0.0698
 9360SOL     OW39541   1.851   1.373   5.725  0.3824  0.0803  0.4397
 9360SOL    HW139542   1.830   1.339   5.638  1.2512  1.3998 -0.2919
 9360SOL    HW239543   1.765   1.404   5.751  0.2650 -1.1538  1.4899
 9361SOL     OW39544   3.353   0.590  16.093 -0.0998 -0.0842 -0.2334
 9361SOL    HW139545   3.345   0.682  16.071 -1.5918  0.2996  1.8417
 9361SOL    HW239546   3.389   0.557  16.011  0.4308  1.9820 -0.8260
 9362SOL     OW39547   4.008   3.711   7.032  0.2139  0.4310  0.4671
 9362SOL    HW139548   4.012   3.625   6.991 -0.6041  0.3518  0.5596
 9362SOL    HW239549   4.086   3.746   6.989 -0.1451  0.0958 -0.4794
 9363SOL     OW39550   4.262   1.915   3.286 -0.1306 -0.3323  0.0112
 9363SOL    HW139551   4.224   1.961   3.211  2.7922  1.3473 -0.4391
 9363SOL    HW239552   4.215   1.832   3.279 -0.3348 -0.0851 -1.5175
 9364SOL     OW39553   1.904   2.606   5.452 -0.8067  0.3296 -0.3789
 9364SOL    HW139554   1.931   2.688   5.494 -1.5188 -0.2839  1.2514
 9364SOL    HW239555   1.977   2.587   5.393  0.7645 -1.4479  2.1710
 9365SOL     OW39556   1.358   4.353   7.887  0.1323  0.0779  0.3846
 9365SOL    HW139557   1.320   4.275   7.927  0.0458 -0.4017 -0.6194
 9365SOL    HW239558   1.292   4.423   7.883  0.9574  0.9045  1.1336
 9366SOL     OW39559   0.589   1.290   7.075 -0.6539 -0.1116 -0.0650
 9366SOL    HW139560   0.632   1.306   6.991  0.6408  0.3718  0.6791
 9366SOL    HW239561   0.642   1.220   7.113 -2.1215 -2.0623 -1.6673
 9367SOL     OW39562   3.299   0.271   2.137 -0.3934  0.4445  0.6610
 9367SOL    HW139563   3.373   0.256   2.078  0.0394 -2.5952  1.9802
 9367SOL    HW239564   3.230   0.273   2.071  0.0149  0.6905  0.2343
 9368SOL     OW39565   2.236   4.725   5.901  0.3207 -0.2022  0.6161
 9368SOL    HW139566   2.288   4.687   5.831 -1.8368 -0.1578 -0.9981
 9368SOL    HW239567   2.152   4.678   5.900  1.0236 -1.4529  0.9945
 9369SOL     OW39568   0.827   0.063   5.170  0.4771  0.1540 -0.1152
 9369SOL    HW139569   0.787   0.006   5.105 -1.9602  1.7488  0.0014
 9369SOL    HW239570   0.770   0.027   5.238 -0.9870 -0.4927 -1.6964
 9370SOL     OW39571   3.144   4.001   2.767 -0.3588  0.0380  0.1407
 9370SOL    HW139572   3.169   4.021   2.857  0.1328  0.4729 -0.0922
 9370SOL    HW239573   3.206   3.935   2.734  0.8066  1.8041 -1.1640
 9371SOL     OW39574   0.028   0.645  10.212 -0.6115 -0.2325 -0.0716
 9371SOL    HW139575   4.693   0.717  10.228  0.5177  0.9031 -0.9171
 9371SOL    HW239576   0.065   0.631  10.299 -1.8570 -0.8205  0.3728
 9372SOL     OW39577   1.964   1.184   4.355 -0.5809  0.4797  0.5161
 9372SOL    HW139578   1.948   1.277   4.337  2.5172  1.0157  0.5254
 9372SOL    HW239579   1.928   1.140   4.278  0.7444  2.2258 -1.1216
 9373SOL     OW39580   0.060   2.280   4.632 -0.2891  0.1091 -0.6283
 9373SOL    HW139581   0.092   2.276   4.542  2.5403  3.4740  0.2091
 9373SOL    HW239582   0.042   2.374   4.632  1.1087  0.3856 -1.0551
 9374SOL     OW39583   1.867   0.215   6.557 -0.2312  0.4530  0.0452
 9374SOL    HW139584   1.810   0.222   6.633 -0.0258  1.8625  0.0805
 9374SOL    HW239585   1.868   0.304   6.520 -1.4558 -0.1047 -1.3118
 9375SOL     OW39586   0.212   3.248  14.909 -0.1428 -0.6434  0.8117
 9375SOL    HW139587   0.275   3.244  14.981  2.0164  1.3185 -0.9706
 9375SOL    HW239588   0.156   3.176  14.939 -1.6052  1.0005  2.0513
 9376SOL     OW39589   4.558   0.906   4.370  0.1756 -0.3252  0.6301
 9376SOL    HW139590   4.650   0.885   4.355  0.0013 -1.8782  1.7976
 9376SOL    HW239591   4.534   0.833   4.425  0.1444 -1.6370 -1.1255
 9377SOL     OW39592   1.330   4.244  16.373 -0.5767  0.1341  0.5624
 9377SOL    HW139593   1.271   4.170  16.357 -0.7463  0.7620 -1.6379
 9377SOL    HW239594   1.329   4.290  16.289  2.6552 -0.6740  0.0905
 9378SOL     OW39595   2.892   4.378   3.263  0.4397 -0.2199 -0.1806
 9378SOL    HW139596   2.932   4.463   3.284  1.6049 -0.6056 -0.8009
 9378SOL    HW239597   2.823   4.422   3.213  0.2168 -1.1513 -0.6805
 9379SOL     OW39598   2.700   1.089  15.085 -0.1938  0.4995  0.3973
 9379SOL    HW139599   2.708   1.011  15.030  3.2745 -0.2471  1.9651
 9379SOL    HW239600   2.785   1.121  15.057  1.1307 -0.7941  2.9324
 9380SOL     OW39601   0.911   2.561   3.054 -0.1631  0.1369 -0.6378
 9380SOL    HW139602   0.829   2.596   3.087  0.5502 -1.9554  3.2665
 9380SOL    HW239603   0.919   2.626   2.984  0.3103  0.1494 -0.5722
 9381SOL     OW39604   3.062   0.089  15.172  0.0190 -0.0851  0.1760
 9381SOL    HW139605   3.037   0.057  15.085  0.1712  0.1332  0.0510
 9381SOL    HW239606   3.155   0.074  15.154 -0.3395 -1.9251 -0.1734
 9382SOL     OW39607   0.722   4.048  10.386 -0.2966  0.2250  0.4615
 9382SOL    HW139608   0.688   3.961  10.405 -0.6169  0.1695 -0.3822
 9382SOL    HW239609   0.786   4.033  10.317 -1.4362 -0.4991 -0.4347
 9383SOL     OW39610   1.073   1.153   4.906 -0.3696  0.0035  0.3306
 9383SOL    HW139611   1.104   1.240   4.934  0.7315 -0.1859 -0.2976
 9383SOL    HW239612   1.039   1.115   4.987 -2.0889 -0.2360 -0.5158
 9384SOL     OW39613   2.518   2.982  12.434  0.2425  0.0676  0.0396
 9384SOL    HW139614   2.520   2.903  12.488 -0.8889  0.6969  0.9890
 9384SOL    HW239615   2.588   2.959  12.373 -0.0968 -1.5438  0.2554
 9385SOL     OW39616   1.338   0.223   0.948 -0.6275 -0.0522 -0.5212
 9385SOL    HW139617   1.411   0.237   1.009 -0.3007 -4.9488  0.2099
 9385SOL    HW239618   1.383   0.239   0.865 -0.7366  1.2142 -0.3256
 9386SOL     OW39619   2.170   2.201   2.739  0.1758 -0.0093 -0.1853
 9386SOL    HW139620   2.139   2.258   2.669  0.2847 -2.9676 -2.6317
 9386SOL    HW239621   2.257   2.188   2.701  0.1435 -1.3103  0.1642
 9387SOL     OW39622   4.392   0.363   5.168 -0.1658 -0.5507 -0.5903
 9387SOL    HW139623   4.303   0.393   5.151 -0.6789 -1.1395  1.0274
 9387SOL    HW239624   4.376   0.302   5.240 -1.1488  0.5167  0.0984
 9388SOL     OW39625   3.480   0.512   6.554  0.1618 -0.1506  0.1973
 9388SOL    HW139626   3.519   0.467   6.478  0.5662  0.6514 -0.0665
 9388SOL    HW239627   3.497   0.601   6.523  3.0208 -1.0799 -0.9130
 9389SOL     OW39628   2.979   3.594   5.658  1.2740  0.3062  0.0187
 9389SOL    HW139629   3.033   3.669   5.682  1.2995  0.8561 -1.8296
 9389SOL    HW239630   3.003   3.538   5.732 -2.6280  0.8638  1.7092
 9390SOL     OW39631   4.140   1.045   6.147  0.1141 -0.0292  0.3729
 9390SOL    HW139632   4.086   0.982   6.100  2.2082 -2.7047  1.5638
 9390SOL    HW239633   4.220   0.997   6.168 -0.4885 -0.3799  1.7973
 9391SOL     OW39634   1.640   3.659  16.873  0.5000  0.0891 -0.1232
 9391SOL    HW139635   1.732   3.684  16.865  0.8118 -1.7786 -2.2644
 9391SOL    HW239636   1.647   3.619  16.959 -0.2701 -1.5224 -0.8068
 9392SOL     OW39637   1.559   1.750  10.002  0.5964 -0.6135  0.1935
 9392SOL    HW139638   1.515   1.828   9.968  2.3791  1.3464  2.3737
 9392SOL    HW239639   1.639   1.801  10.016  0.8045 -0.5054 -1.3804
 9393SOL     OW39640   0.573   1.338   6.426  0.2768  0.4611 -0.2436
 9393SOL    HW139641   0.631   1.392   6.372 -0.9476  3.9334  1.8872
 9393SOL    HW239642   0.577   1.257   6.375  1.6451 -0.6672  1.6518
 9394SOL     OW39643   2.433   3.730  16.213  0.0871  0.0648  0.2211
 9394SOL    HW139644   2.435   3.825  16.206  2.3503 -0.2517 -2.9141
 9394SOL    HW239645   2.379   3.699  16.141  0.2269  1.5864 -0.5327
 9395SOL     OW39646   3.051   3.987   1.269 -0.1894 -0.7683 -0.5109
 9395SOL    HW139647   3.072   3.895   1.250  0.9361 -0.4948 -0.5716
 9395SOL    HW239648   2.959   3.971   1.293  0.0453 -0.2983  0.7301
 9396SOL     OW39649   1.043   2.855  13.743 -0.5023  0.2232  0.3607
 9396SOL    HW139650   0.970   2.848  13.804  0.1453 -0.8235  1.0150
 9396SOL    HW239651   1.016   2.923  13.682  1.5740  0.7162 -0.0319
 9397SOL     OW39652   2.668   1.880  16.130  0.1082 -0.5230  0.7029
 9397SOL    HW139653   2.694   1.950  16.071  0.2812 -0.8262  0.4192
 9397SOL    HW239654   2.673   1.805  16.070 -1.8202 -0.6608  0.6941
 9398SOL     OW39655   4.230   3.977   4.765 -0.3301  0.1304 -0.4018
 9398SOL    HW139656   4.162   3.935   4.712 -1.7931  0.2251  1.4000
 9398SOL    HW239657   4.214   4.070   4.744  0.2987  0.2676 -0.2694
 9399SOL     OW39658   3.531   1.070   7.056  0.4794  0.0309  0.8039
 9399SOL    HW139659   3.590   1.122   7.002  0.8855 -2.7290 -1.4225
 9399SOL    HW239660   3.446   1.109   7.037 -0.0626 -0.6893  1.7465
 9400SOL     OW39661   2.004   2.894   4.883 -0.1038 -0.1361 -0.5289
 9400SOL    HW139662   2.003   2.949   4.962 -0.8689  1.7555 -1.8742
 9400SOL    HW239663   2.085   2.846   4.904 -0.3970  0.9678  3.1753
 9401SOL     OW39664   3.330   0.289   4.293  0.0304  0.0553 -0.8003
 9401SOL    HW139665   3.352   0.289   4.200 -0.1561 -1.2147 -0.8332
 9401SOL    HW239666   3.317   0.197   4.313  0.2576 -0.1771 -1.7592
 9402SOL     OW39667   3.082   2.094  11.041  0.2972 -0.4648  0.5648
 9402SOL    HW139668   3.101   2.146  11.120  2.9320 -0.0828 -0.3317
 9402SOL    HW239669   2.991   2.065  11.047  0.9680 -2.2121  2.4280
 9403SOL     OW39670   0.905   3.419   7.921  0.0446  0.5209 -0.3850
 9403SOL    HW139671   0.944   3.333   7.934  2.4055  1.6436  0.0181
 9403SOL    HW239672   0.954   3.468   7.855 -2.5090  0.3314 -2.4196
 9404SOL     OW39673   0.938   0.844   5.083 -0.2467 -0.0228  0.2633
 9404SOL    HW139674   0.866   0.891   5.040  0.3741 -0.2557 -1.0465
 9404SOL    HW239675   0.970   0.787   5.012  3.3817 -0.4220  2.2272
 9405SOL     OW39676   1.263   0.428   0.336 -0.5231  0.1581 -0.3451
 9405SOL    HW139677   1.202   0.371   0.383  0.6990 -0.9522 -0.0743
 9405SOL    HW239678   1.236   0.416   0.245  0.0289  0.6786 -0.5762
 9406SOL     OW39679   4.028   2.658   6.962  0.5135 -0.1652  0.2934
 9406SOL    HW139680   4.041   2.697   6.876 -0.8785  2.3100  1.2181
 9406SOL    HW239681   4.059   2.572   6.934  1.1316 -0.0340  0.5683
 9407SOL     OW39682   1.717   3.418   9.108 -0.0539  0.0596  0.0300
 9407SOL    HW139683   1.767   3.344   9.141 -1.9663 -1.1757  0.1526
 9407SOL    HW239684   1.723   3.487   9.175  0.8250  1.8292 -1.8450
 9408SOL     OW39685   4.244   4.182   4.476 -0.1337 -0.0762 -0.2102
 9408SOL    HW139686   4.248   4.277   4.490  0.4909  0.0880 -1.4809
 9408SOL    HW239687   4.333   4.156   4.502 -0.1810  0.8021  0.8114
 9409SOL     OW39688   0.597   1.573   2.736  0.1741 -0.5451  0.6320
 9409SOL    HW139689   0.532   1.531   2.680  0.8598  0.2225 -0.7643
 9409SOL    HW239690   0.603   1.652   2.681 -0.6418 -0.6431  0.4025
 9410SOL     OW39691   2.274   2.088   9.341  0.6886  0.1718 -0.1591
 9410SOL    HW139692   2.250   1.996   9.335  1.1351  0.1306 -1.3075
 9410SOL    HW239693   2.298   2.094   9.434  0.2407  0.7672 -0.0773
 9411SOL     OW39694   4.326   3.394   8.243 -0.2157 -0.1630  0.4576
 9411SOL    HW139695   4.347   3.405   8.150  0.0476  0.0165  0.5384
 9411SOL    HW239696   4.247   3.341   8.235 -0.3029 -0.1988  1.5971
 9412SOL     OW39697   2.897   2.910   8.131  0.5428 -0.5137  0.0027
 9412SOL    HW139698   2.896   2.852   8.055  0.3833  0.6886 -0.9286
 9412SOL    HW239699   2.912   2.843   8.197 -4.0265 -2.7307 -1.1656
 9413SOL     OW39700   3.734   2.495  13.420 -0.0754  0.1946  0.2613
 9413SOL    HW139701   3.822   2.517  13.450 -0.0494  0.5800 -0.1033
 9413SOL    HW239702   3.703   2.582  13.397 -0.4759 -0.1066 -0.3264
 9414SOL     OW39703   2.417   0.298   3.653 -0.6181  0.2072  0.3170
 9414SOL    HW139704   2.387   0.214   3.618 -0.0017 -0.6071  1.7479
 9414SOL    HW239705   2.438   0.342   3.571 -0.6783  1.1618  0.8214
 9415SOL     OW39706   0.945   0.416  16.968 -0.1484  0.2983  0.0131
 9415SOL    HW139707   1.001   0.480  17.012 -1.0577 -0.3966  2.1827
 9415SOL    HW239708   0.884   0.391  17.038  1.1489 -0.3582  0.9146
 9416SOL     OW39709   2.660   3.072  15.331 -0.6123  0.1736 -0.5887
 9416SOL    HW139710   2.728   3.049  15.394  0.5225 -1.5054 -2.4167
 9416SOL    HW239711   2.594   3.028  15.385 -0.7098 -1.6933 -2.2228
 9417SOL     OW39712   4.282   3.478   7.767 -0.4658 -0.4143 -0.0585
 9417SOL    HW139713   4.233   3.539   7.823 -0.2131  0.0588 -0.3530
 9417SOL    HW239714   4.284   3.399   7.820  0.9758 -0.8922 -0.8195
 9418SOL     OW39715   0.452   3.638  15.003  0.1233  0.2130  0.6903
 9418SOL    HW139716   0.375   3.615  14.951 -0.9560  1.4386  1.7454
 9418SOL    HW239717   0.503   3.558  14.991 -2.1558 -1.1850  0.2281
 9419SOL     OW39718   1.889   3.020  13.485  0.5610 -0.2203  0.4255
 9419SOL    HW139719   1.840   2.946  13.449  0.9954 -1.3985  2.2281
 9419SOL    HW239720   1.822   3.061  13.538  0.8037 -2.4635  2.4733
 9420SOL     OW39721   3.270   1.875   2.677  0.4104 -0.4395  0.2900
 9420SOL    HW139722   3.277   1.807   2.745 -0.7894 -0.2839  0.5539
 9420SOL    HW239723   3.317   1.824   2.610  1.9071  0.4596  0.6410
 9421SOL     OW39724   0.934   2.228   4.174  0.3453  0.0214 -0.0318
 9421SOL    HW139725   1.001   2.212   4.107  0.4311  4.2748 -0.9714
 9421SOL    HW239726   0.987   2.259   4.247 -1.0178  0.0960  0.9206
 9422SOL     OW39727   3.807   4.272   5.525 -0.3170 -0.1112  0.3337
 9422SOL    HW139728   3.781   4.363   5.512 -0.0447 -0.2780 -1.3205
 9422SOL    HW239729   3.759   4.248   5.604 -1.1107 -1.8571 -0.6834
 9423SOL     OW39730   3.345   0.585  15.484 -0.4388  0.1171 -0.3738
 9423SOL    HW139731   3.290   0.540  15.548  0.6178  1.2534  1.3475
 9423SOL    HW239732   3.371   0.513  15.427  1.5387 -1.1899  2.1848
 9424SOL     OW39733   0.103   1.822  12.655  0.0722 -0.5463 -0.2911
 9424SOL    HW139734   0.108   1.741  12.604 -1.8882 -1.0145  0.2571
 9424SOL    HW239735   0.110   1.886  12.585 -0.4903 -0.8871 -0.6623
 9425SOL     OW39736   2.497   0.402  17.619  0.1309  0.0640  0.2891
 9425SOL    HW139737   2.549   0.465  17.568 -0.2059 -0.0176 -0.1593
 9425SOL    HW239738   2.411   0.430  17.588 -0.9386 -0.5980  2.7039
 9426SOL     OW39739   3.588   0.056   9.025 -0.2849 -0.1337  0.0893
 9426SOL    HW139740   3.569   4.690   9.008 -1.9683  0.1902  0.1757
 9426SOL    HW239741   3.535   0.073   9.103 -0.0056 -1.4420  0.5605
 9427SOL     OW39742   2.401   3.416  12.054  0.0349  0.0116 -0.0724
 9427SOL    HW139743   2.314   3.381  12.035  0.5359 -1.0018 -0.4311
 9427SOL    HW239744   2.431   3.356  12.122 -0.2212  0.3873  0.3832
 9428SOL     OW39745   2.852   3.032   8.874  0.2190  0.1008  0.3864
 9428SOL    HW139746   2.920   2.968   8.853  1.1847  1.4418 -0.5911
 9428SOL    HW239747   2.792   3.018   8.801 -0.8979 -0.2425  1.3690
 9429SOL     OW39748   4.542   1.937   4.958  0.0562  0.2463  0.6285
 9429SOL    HW139749   4.555   1.950   4.864  0.5940 -1.3622  0.4840
 9429SOL    HW239750   4.497   1.853   4.969 -1.3992  0.9204 -0.2208
 9430SOL     OW39751   1.189   2.383   5.272  0.1200 -0.0300  0.1816
 9430SOL    HW139752   1.115   2.324   5.256 -1.8179  2.6222 -0.4782
 9430SOL    HW239753   1.255   2.317   5.251  1.1751  1.4052 -0.9822
 9431SOL     OW39754   1.543   1.425   5.874 -0.4958  0.2399  0.2247
 9431SOL    HW139755   1.477   1.488   5.842  1.5793  2.5309  0.4709
 9431SOL    HW239756   1.516   1.424   5.966  4.6312 -4.0628  1.6490
 9432SOL     OW39757   4.393   3.199   7.971 -0.5085 -0.0479 -0.6250
 9432SOL    HW139758   4.307   3.231   7.945 -0.0452  1.5028 -0.2811
 9432SOL    HW239759   4.385   3.105   7.981  2.2508 -0.2481 -0.3243
 9433SOL     OW39760   3.362   2.641   2.904  0.1116  0.4618  0.0284
 9433SOL    HW139761   3.400   2.574   2.962  0.9418  1.5652  0.7535
 9433SOL    HW239762   3.315   2.586   2.841  0.1701 -0.5512  0.8646
 9434SOL     OW39763   0.624   2.081   1.428  0.8894  0.1765  0.2488
 9434SOL    HW139764   0.599   1.992   1.405  1.7970 -0.1126  0.3650
 9434SOL    HW239765   0.588   2.131   1.354 -0.4654 -1.7115 -0.3818
 9435SOL     OW39766   3.511   1.260   4.169  0.2075  0.0519 -0.7489
 9435SOL    HW139767   3.480   1.349   4.150 -2.1628 -0.6986 -0.4174
 9435SOL    HW239768   3.429   1.223   4.201  0.2429  0.0304 -0.6836
 9436SOL     OW39769   4.593   3.636   6.223  0.4727 -0.5541 -0.5403
 9436SOL    HW139770   4.628   3.712   6.177 -2.2011  2.3070  2.1504
 9436SOL    HW239771   4.644   3.634   6.305 -0.6089 -2.2243  0.0806
 9437SOL     OW39772   1.921   2.353   9.182  0.4237 -0.1198 -0.4185
 9437SOL    HW139773   1.960   2.276   9.224  0.0323  0.5542  1.1948
 9437SOL    HW239774   1.875   2.308   9.111  0.4146  0.6984 -0.9311
 9438SOL     OW39775   2.306   4.546   1.853  0.0647  0.4974 -0.5092
 9438SOL    HW139776   2.371   4.599   1.898 -1.1615  3.1808 -1.8935
 9438SOL    HW239777   2.226   4.567   1.901 -0.7668 -0.4432 -1.4797
 9439SOL     OW39778   4.339   4.690   5.662 -0.0526 -0.1854  0.7720
 9439SOL    HW139779   4.247   4.687   5.635  0.2876 -2.1033 -0.1503
 9439SOL    HW239780   4.335   4.604   5.704 -0.0455 -0.2333  0.6739
 9440SOL     OW39781   2.514   3.641   7.038 -0.0602  0.5487 -0.5209
 9440SOL    HW139782   2.425   3.608   7.028  0.8462 -1.9361 -0.4521
 9440SOL    HW239783   2.565   3.590   6.975 -0.9561 -1.7173  0.5948
 9441SOL     OW39784   4.457   0.594   8.063 -0.4859 -0.1583 -0.2160
 9441SOL    HW139785   4.379   0.646   8.081  0.0505  0.3457  0.6277
 9441SOL    HW239786   4.424   0.538   7.992 -0.4073 -1.6480  0.9196
 9442SOL     OW39787   1.814   1.636   9.487  0.3063  0.3547  0.1098
 9442SOL    HW139788   1.802   1.541   9.485 -2.6677  0.7467 -1.9537
 9442SOL    HW239789   1.749   1.652   9.555  0.7456 -2.0305  1.0961
 9443SOL     OW39790   1.098   1.412   7.674 -0.3093  0.3433  0.3625
 9443SOL    HW139791   1.169   1.468   7.641  1.8556 -2.0361  1.0306
 9443SOL    HW239792   1.031   1.424   7.607 -1.2255  0.1050  1.2412
 9444SOL     OW39793   1.076   2.493   3.919  0.3253 -0.6906 -0.2432
 9444SOL    HW139794   1.151   2.549   3.899  1.0369 -1.1131  1.3005
 9444SOL    HW239795   1.101   2.428   3.854  0.0878 -1.8246  0.7987
 9445SOL     OW39796   4.382   1.531   7.298  0.0193  0.2901  0.0408
 9445SOL    HW139797   4.321   1.459   7.284 -1.2698  1.3533  0.2170
 9445SOL    HW239798   4.315   1.596   7.316  0.3479  1.0951 -1.6385
 9446SOL     OW39799   1.206   2.448  10.870  0.0581  0.4122  0.3395
 9446SOL    HW139800   1.286   2.461  10.922 -0.3895 -1.7773  1.5961
 9446SOL    HW239801   1.237   2.436  10.780  1.0805  1.9797  0.4929
 9447SOL     OW39802   0.485   2.859   3.157 -0.0353 -0.1546 -0.2820
 9447SOL    HW139803   0.393   2.876   3.137  0.6289  2.6992 -0.9351
 9447SOL    HW239804   0.530   2.925   3.103  0.9359 -0.0335  0.6746
 9448SOL     OW39805   0.723   2.405   0.562 -0.3508 -0.4696  0.2281
 9448SOL    HW139806   0.642   2.363   0.592 -0.0699  0.3633  2.1928
 9448SOL    HW239807   0.685   2.491   0.543 -0.2330  0.0262  2.1784
 9449SOL     OW39808   3.446   0.174  11.192 -0.3099 -0.6074 -0.6478
 9449SOL    HW139809   3.453   0.206  11.103  0.7133 -1.6235 -0.9291
 9449SOL    HW239810   3.403   0.252  11.227 -3.5366 -2.2553 -0.8278
 9450SOL     OW39811   4.423   1.289   7.879 -0.6722  1.0430 -0.4095
 9450SOL    HW139812   4.393   1.343   7.952  0.6034  1.0068  0.1405
 9450SOL    HW239813   4.483   1.233   7.929  0.6718  3.3511  0.5252
 9451SOL     OW39814   1.743   1.045   5.834  0.1470  0.3796  0.9632
 9451SOL    HW139815   1.745   0.953   5.810 -0.4128  1.1179 -1.9697
 9451SOL    HW239816   1.670   1.076   5.781  1.8085  1.5739 -0.6246
 9452SOL     OW39817   1.869   4.152   7.195  0.4272 -0.0817 -0.0939
 9452SOL    HW139818   1.805   4.086   7.168  1.7527 -0.6664 -1.7689
 9452SOL    HW239819   1.946   4.132   7.142  0.2025 -1.7482  0.2111
 9453SOL     OW39820   4.282   2.182   8.474  0.1099 -0.5891 -0.5660
 9453SOL    HW139821   4.319   2.249   8.417 -1.9617  1.5800  0.6404
 9453SOL    HW239822   4.353   2.118   8.467  0.3324 -0.4996  0.9898
 9454SOL     OW39823   3.173   3.495   5.323  0.5491 -0.3203 -0.1336
 9454SOL    HW139824   3.132   3.581   5.321 -2.7466 -1.9244 -0.4906
 9454SOL    HW239825   3.219   3.495   5.407 -1.1417  0.8204  0.7718
 9455SOL     OW39826   3.546   0.557   4.944 -0.4012 -0.0072 -0.0710
 9455SOL    HW139827   3.527   0.464   4.941  0.5724 -0.2447  0.9075
 9455SOL    HW239828   3.606   0.572   5.018  0.3848 -0.2523 -0.6521
 9456SOL     OW39829   3.156   0.393   3.921 -0.1602  0.8385 -0.5435
 9456SOL    HW139830   3.199   0.423   3.840  0.8668 -2.7660 -1.3261
 9456SOL    HW239831   3.077   0.447   3.925  0.0596  1.0722  0.6175
 9457SOL     OW39832   0.558   4.581   3.364  0.0745  0.0691 -0.2602
 9457SOL    HW139833   0.503   4.612   3.436 -0.4894 -1.5546 -0.0044
 9457SOL    HW239834   0.513   4.499   3.346 -0.2639 -0.2244  1.9244
 9458SOL     OW39835   0.461   3.122  15.702  0.1213  0.0363  0.9228
 9458SOL    HW139836   0.513   3.163  15.633 -1.1645  0.0746 -0.0198
 9458SOL    HW239837   0.417   3.203  15.728 -3.0549 -0.6673 -2.2346
 9459SOL     OW39838   0.797   2.490   4.046 -0.4606  0.4524  0.2900
 9459SOL    HW139839   0.776   2.403   4.013  0.4494 -0.1624  1.3448
 9459SOL    HW239840   0.878   2.510   3.999 -0.5097 -0.7740 -0.3022
 9460SOL     OW39841   3.456   4.263   4.858  0.3604  0.4553  0.2085
 9460SOL    HW139842   3.377   4.255   4.912 -0.2191 -0.1143 -0.7400
 9460SOL    HW239843   3.519   4.210   4.907  0.2931 -0.0881 -0.3022
 9461SOL     OW39844   2.714   4.304  15.552 -0.8040 -0.3186  0.0634
 9461SOL    HW139845   2.743   4.386  15.593 -2.4359 -0.1027  0.8166
 9461SOL    HW239846   2.672   4.332  15.471 -0.2631 -1.5293 -0.6369
 9462SOL     OW39847   3.569   1.090   0.020 -0.1117 -0.4392 -0.2676
 9462SOL    HW139848   3.593   1.052  17.640 -0.4267  0.4590 -0.7515
 9462SOL    HW239849   3.481   1.116  17.697 -0.9569  0.3789  3.2178
 9463SOL     OW39850   0.907   0.178   6.483  0.1757 -0.1059 -0.2913
 9463SOL    HW139851   0.933   0.264   6.449  0.8288  0.5580  1.8708
 9463SOL    HW239852   0.924   0.117   6.411  0.9472  0.2996 -0.4527
 9464SOL     OW39853   0.701   1.441  16.154  0.2025  0.1727  0.1918
 9464SOL    HW139854   0.632   1.481  16.208 -0.1064  1.1494 -0.9426
 9464SOL    HW239855   0.771   1.506  16.144 -0.1109  0.6354  0.9684
 9465SOL     OW39856   3.982   3.587   4.383  0.1078  0.3416  0.2461
 9465SOL    HW139857   3.899   3.551   4.354 -0.3080 -0.8084  2.8690
 9465SOL    HW239858   4.029   3.504   4.374 -0.7015 -0.0024 -0.7492
 9466SOL     OW39859   3.088   1.705   7.376  0.2432  0.0035  0.1580
 9466SOL    HW139860   3.037   1.637   7.332  1.5241  0.6488 -2.3478
 9466SOL    HW239861   3.076   1.687   7.469  1.2301 -1.2812  0.0321
 9467SOL     OW39862   2.065   3.891   9.376  0.2281  0.4587 -0.1557
 9467SOL    HW139863   2.105   3.888   9.463 -1.0711  0.7086  0.4589
 9467SOL    HW239864   2.131   3.944   9.332  0.4950  1.3367  1.2834
 9468SOL     OW39865   1.168   4.085  17.435  0.6617 -0.3984 -0.1013
 9468SOL    HW139866   1.102   4.150  17.410  1.4384  0.8380  1.0496
 9468SOL    HW239867   1.112   4.033  17.493 -1.8334  1.1274 -1.1256
 9469SOL     OW39868   4.036   4.386   4.727 -0.5827  0.2087 -0.0758
 9469SOL    HW139869   4.002   4.297   4.742 -0.4855  0.1793 -0.0305
 9469SOL    HW239870   3.974   4.415   4.660 -0.8991  1.5164  0.7844
 9470SOL     OW39871   1.617   1.670   9.688  0.2044 -0.2076 -0.0347
 9470SOL    HW139872   1.647   1.753   9.725 -0.3983 -0.6041  1.3638
 9470SOL    HW239873   1.567   1.634   9.762  0.6406  0.1747  0.4499
 9471SOL     OW39874   3.706   0.005   4.981  0.3354  0.2210  0.1864
 9471SOL    HW139875   3.782   0.022   5.037 -1.1407  2.1539  1.6099
 9471SOL    HW239876   3.691   4.638   4.997  1.9115  0.0907  0.9683
 9472SOL     OW39877   2.872   1.410   0.070  0.6240 -0.6072  0.2960
 9472SOL    HW139878   2.815   1.335   0.054  0.2383 -0.0318 -1.0632
 9472SOL    HW239879   2.953   1.376   0.033 -0.1469  0.0978 -2.0696
 9473SOL     OW39880   1.098   3.493  11.948 -0.1311  0.3040  0.5447
 9473SOL    HW139881   1.170   3.442  11.985  0.7447 -0.3055 -2.0010
 9473SOL    HW239882   1.126   3.563  11.889 -0.7130  0.2113  0.1570
 9474SOL     OW39883   4.072   1.200   2.051  0.3182  0.6659  0.0147
 9474SOL    HW139884   4.115   1.170   1.970  1.1169  3.5350 -0.6085
 9474SOL    HW239885   4.084   1.126   2.110  1.2760  0.3475 -0.5698
 9475SOL     OW39886   3.443   0.177   0.824 -0.2660 -0.1978  0.0605
 9475SOL    HW139887   3.381   0.110   0.795  0.1932 -1.2773  1.5596
 9475SOL    HW239888   3.490   0.182   0.741 -1.1275 -0.7222 -0.4525
 9476SOL     OW39889   0.245   3.754   5.379  0.1125 -0.2142 -0.1401
 9476SOL    HW139890   0.184   3.682   5.397 -0.6104  0.2592 -0.7003
 9476SOL    HW239891   0.278   3.738   5.291 -2.1918  2.3515 -1.4687
 9477SOL     OW39892   1.561   3.399  17.447  0.2235 -0.0042  0.4141
 9477SOL    HW139893   1.635   3.459  17.437 -0.8093  1.0695 -0.7770
 9477SOL    HW239894   1.485   3.456  17.440 -0.2022 -0.8635 -2.2089
 9478SOL     OW39895   1.663   1.634  10.378  0.3572  0.4940 -0.4712
 9478SOL    HW139896   1.725   1.658  10.309  1.6575 -0.8123  0.2523
 9478SOL    HW239897   1.708   1.681  10.449  0.1863  0.2694 -0.2171
 9479SOL     OW39898   0.755   3.726   0.168 -0.1699 -0.0529  0.0062
 9479SOL    HW139899   0.784   3.644   0.127  0.8351  0.0544  0.4977
 9479SOL    HW239900   0.778   3.714   0.260  1.6319  1.5651 -0.2226
 9480SOL     OW39901   4.280   0.764   8.759 -0.5243 -0.3259 -0.3282
 9480SOL    HW139902   4.351   0.801   8.706  0.4997 -1.7415  0.0388
 9480SOL    HW239903   4.335   0.762   8.837  0.6433 -0.0218 -1.1441
 9481SOL     OW39904   1.086   1.338   8.920  0.3915 -0.4513 -0.3533
 9481SOL    HW139905   1.025   1.265   8.930  2.0280 -1.7581  0.1200
 9481SOL    HW239906   1.172   1.301   8.942 -1.0472 -3.5377 -0.0003
 9482SOL     OW39907   2.345   4.545   9.205  0.1584  0.6836 -0.0029
 9482SOL    HW139908   2.303   4.478   9.258  2.7205  1.8150  3.4583
 9482SOL    HW239909   2.274   4.536   9.142 -1.6660  1.5012  1.9755
 9483SOL     OW39910   3.360   1.239   6.933 -0.5188  0.1587  0.7212
 9483SOL    HW139911   3.279   1.188   6.924  1.3067 -2.5321 -0.1839
 9483SOL    HW239912   3.412   1.194   6.866 -0.3427 -0.7950  1.5122
 9484SOL     OW39913   3.160   4.365   2.954 -0.2295 -0.2788 -0.0848
 9484SOL    HW139914   3.163   4.439   2.893  0.8061  0.3849  0.7660
 9484SOL    HW239915   3.066   4.378   2.968  0.3514  1.2126  2.4764
 9485SOL     OW39916   4.690   4.624  17.526 -0.3220  0.3358  0.7914
 9485SOL    HW139917   4.608   4.661  17.559 -1.7683 -0.2952 -2.1075
 9485SOL    HW239918   0.008   4.705  17.500 -0.6307 -0.5061 -2.4326
 9486SOL     OW39919   1.984   4.409   5.525  0.3246  0.0567  0.3613
 9486SOL    HW139920   1.892   4.401   5.501 -0.4304  1.4460  2.7862
 9486SOL    HW239921   2.028   4.384   5.444 -0.0548  1.1959 -0.2013
 9487SOL     OW39922   2.368   4.638   7.201 -0.5266 -0.2070  0.0240
 9487SOL    HW139923   2.306   4.577   7.162 -0.7829 -0.5367  0.9532
 9487SOL    HW239924   2.445   4.633   7.144  0.7796  0.4969  1.7261
 9488SOL     OW39925   0.297   3.876  17.298 -0.5409  0.5441 -0.1913
 9488SOL    HW139926   0.314   3.863  17.391 -0.7875  1.6150  0.0072
 9488SOL    HW239927   0.225   3.938  17.311 -0.4714  0.6820 -0.4699
 9489SOL     OW39928   4.598   1.246  12.371 -0.3004  0.1279 -0.5074
 9489SOL    HW139929   4.650   1.167  12.385 -0.0186  0.3165 -0.4844
 9489SOL    HW239930   4.569   1.266  12.460  1.3961  1.1906 -0.1828
 9490SOL     OW39931   1.012   3.422   3.423 -0.2966  0.2450 -0.1831
 9490SOL    HW139932   0.961   3.489   3.377  0.7456 -0.2303 -2.0641
 9490SOL    HW239933   0.938   3.390   3.474 -0.0055  0.5179  0.4119
 9491SOL     OW39934   2.659   0.757  15.704 -0.1815 -0.3429  0.3348
 9491SOL    HW139935   2.639   0.718  15.619  0.0335 -1.4954  0.8186
 9491SOL    HW239936   2.576   0.733  15.744 -1.2964  0.0936 -1.6758
 9492SOL     OW39937   1.830   3.490   2.768  0.0924  0.7102  0.3643
 9492SOL    HW139938   1.757   3.538   2.729 -2.6278 -3.2328  0.5818
 9492SOL    HW239939   1.877   3.571   2.790 -0.0519  0.6912  0.7458
 9493SOL     OW39940   0.515   1.076   1.889 -0.4057  0.0195 -0.0587
 9493SOL    HW139941   0.542   1.087   1.798  2.0256 -1.1586  0.5167
 9493SOL    HW239942   0.492   0.983   1.881  0.6692 -0.1382 -1.3263
 9494SOL     OW39943   0.581   3.652   0.614 -0.7999 -0.0066  0.0401
 9494SOL    HW139944   0.609   3.586   0.677  0.2025  0.9072  0.5599
 9494SOL    HW239945   0.507   3.604   0.576 -0.1150 -1.7034  0.8646
 9495SOL     OW39946   3.572   2.384   4.396  0.1248  0.6244 -0.2714
 9495SOL    HW139947   3.503   2.388   4.329 -0.6594  0.4178  0.5364
 9495SOL    HW239948   3.647   2.354   4.345  0.2739 -0.2788  0.4838
 9496SOL     OW39949   2.012   1.809   8.956  0.4512  0.0197  0.1298
 9496SOL    HW139950   2.034   1.773   9.042  1.0320 -1.7120 -0.7386
 9496SOL    HW239951   1.981   1.734   8.905  1.4979 -0.4110  0.1325
 9497SOL     OW39952   1.760   2.596   8.179 -0.3738  0.2032  0.5721
 9497SOL    HW139953   1.774   2.569   8.088 -0.1053  0.1686  0.6234
 9497SOL    HW239954   1.670   2.628   8.179  0.5645  2.8084  1.9753
 9498SOL     OW39955   0.165   1.162  10.434 -0.1438  0.0191  0.0904
 9498SOL    HW139956   0.204   1.245  10.407 -0.7689 -0.0574 -1.0413
 9498SOL    HW239957   0.131   1.187  10.520  0.2809 -1.4744  0.6785
 9499SOL     OW39958   3.540   3.776   2.580 -0.1363  0.2722 -0.1579
 9499SOL    HW139959   3.577   3.856   2.541 -0.0275  0.6424  0.7002
 9499SOL    HW239960   3.532   3.716   2.506 -0.9922 -0.9510  0.9307
 9500SOL     OW39961   0.857   2.713  14.385  0.1447  0.2673  0.0093
 9500SOL    HW139962   0.811   2.639  14.423 -1.5968  1.2301 -0.2236
 9500SOL    HW239963   0.782   2.773  14.381 -0.0622 -0.0647 -1.3042
 9501SOL     OW39964   4.255   2.647   0.759  0.5646  0.1104 -0.7568
 9501SOL    HW139965   4.173   2.611   0.724  0.2873  0.3118 -0.3097
 9501SOL    HW239966   4.240   2.628   0.852  1.1975 -1.9416 -1.0726
 9502SOL     OW39967   4.069   0.420   3.151 -0.4218  0.2898  0.7893
 9502SOL    HW139968   4.025   0.476   3.088  1.1102 -0.0504 -0.5944
 9502SOL    HW239969   4.060   0.457   3.239  0.3658  0.1620  0.9305
 9503SOL     OW39970   0.450   3.811   6.998  0.4811  0.2909  0.1716
 9503SOL    HW139971   0.449   3.905   6.981 -0.7776  0.0053 -1.3456
 9503SOL    HW239972   0.396   3.803   7.076 -2.3782  1.7800 -1.6500
 9504SOL     OW39973   0.389   4.576   7.625 -0.1332 -0.5794 -0.3860
 9504SOL    HW139974   0.313   4.619   7.664  0.0327 -0.8459  0.2281
 9504SOL    HW239975   0.343   4.517   7.565 -0.8140  0.7175 -1.1408
 9505SOL     OW39976   4.071   3.825  15.384 -0.6772  0.4591 -0.1566
 9505SOL    HW139977   4.112   3.739  15.392  1.4808  1.7879  2.9458
 9505SOL    HW239978   4.006   3.806  15.317 -0.8642  0.2109  0.0971
 9506SOL     OW39979   4.347   4.562   9.992  0.3896  0.2809 -0.2636
 9506SOL    HW139980   4.364   4.555  10.086  1.7716 -0.2050 -0.5403
 9506SOL    HW239981   4.323   4.474   9.965  0.6625  0.2179 -0.2995
 9507SOL     OW39982   4.531   2.456   7.866 -0.7507  0.0593 -0.1508
 9507SOL    HW139983   4.460   2.400   7.834 -2.4227  2.9576 -1.4642
 9507SOL    HW239984   4.559   2.410   7.945 -0.9835  1.7293  0.8825
 9508SOL     OW39985   2.298   3.078   7.328 -0.1027 -0.0195  0.3340
 9508SOL    HW139986   2.243   3.006   7.299 -0.6516  0.7343 -0.4988
 9508SOL    HW239987   2.385   3.070   7.290  0.0107  1.9799  0.1658
 9509SOL     OW39988   2.425   1.440  12.821 -0.2367  0.3632  0.5621
 9509SOL    HW139989   2.494   1.419  12.883 -0.1354 -2.4401 -0.4960
 9509SOL    HW239990   2.347   1.396  12.855  0.6731 -0.8900  1.0344
 9510SOL     OW39991   3.080   0.709   2.525  0.3659  0.5206  0.3907
 9510SOL    HW139992   3.068   0.633   2.467 -0.2195  2.5542 -2.1537
 9510SOL    HW239993   3.001   0.695   2.576 -0.2018  0.4316 -0.5111
 9511SOL     OW39994   1.346   1.491   6.368  0.0794  0.7794 -0.5822
 9511SOL    HW139995   1.295   1.464   6.292 -1.4108 -2.6873  1.6525
 9511SOL    HW239996   1.329   1.584   6.385  1.8153  1.0802 -0.4342
 9512SOL     OW39997   1.996   0.308  16.657 -0.3731  0.1530  0.3311
 9512SOL    HW139998   1.925   0.366  16.629  1.5245  2.0992 -0.3923
 9512SOL    HW239999   1.964   0.236  16.602 -2.4358  1.5001 -0.2459
 9513SOL     OW40000   4.716   0.830   7.270  0.1159  0.4554  0.0479
 9513SOL    HW140001   0.010   0.788   7.354  0.4388  0.5396  0.0117
 9513SOL    HW240002   0.077   0.860   7.242 -0.3210  1.1446 -0.5661
 9514SOL     OW40003   2.426   4.502  15.608 -0.2599 -0.8473  0.7683
 9514SOL    HW140004   2.504   4.540  15.568 -0.5034 -0.8889  0.2635
 9514SOL    HW240005   2.428   4.418  15.561 -0.9745 -0.6067  0.3178
 9515SOL     OW40006   1.112   1.751  13.971 -0.1270 -0.5940 -0.2824
 9515SOL    HW140007   1.159   1.789  14.046 -0.6649  0.9329 -0.7063
 9515SOL    HW240008   1.033   1.721  14.017  1.9706 -4.4041  0.7943
 9516SOL     OW40009   2.137   0.760   5.513 -0.2064  0.3951 -0.2507
 9516SOL    HW140010   2.202   0.716   5.459  0.8405 -0.2167  1.5084
 9516SOL    HW240011   2.195   0.826   5.551  1.6541 -0.4771 -1.5833
 9517SOL     OW40012   3.959   1.481   7.537 -0.5938  0.6102 -0.0132
 9517SOL    HW140013   4.040   1.448   7.576 -2.1129 -1.3263  1.5037
 9517SOL    HW240014   3.940   1.405   7.482  0.1977  0.7007 -0.4033
 9518SOL     OW40015   4.710   4.211  16.925  0.1559  0.3743 -0.1476
 9518SOL    HW140016   4.694   4.118  16.939  0.8132  0.2730 -0.0984
 9518SOL    HW240017   4.636   4.225  16.866 -0.6222 -1.4995  0.4089
 9519SOL     OW40018   0.095   3.119   6.069  0.3378 -0.9216  0.3068
 9519SOL    HW140019   0.065   3.074   5.990  0.2314  0.7846 -0.6312
 9519SOL    HW240020   0.136   3.046   6.115  3.7117  0.3250 -0.6703
 9520SOL     OW40021   1.199   0.146   5.913  0.1709  0.1170  0.0509
 9520SOL    HW140022   1.138   0.148   5.839  1.6528 -2.7832 -1.2433
 9520SOL    HW240023   1.138   0.177   5.980  1.2048  0.4430  0.8347
 9521SOL     OW40024   1.053   1.426   7.944 -0.2082  0.3943 -0.3592
 9521SOL    HW140025   1.065   1.422   7.850 -1.7673  0.2137 -0.5462
 9521SOL    HW240026   0.998   1.500   7.969  0.9247  1.3190 -0.6140
 9522SOL     OW40027   0.443   1.969  15.982  0.0167 -0.5504 -0.0574
 9522SOL    HW140028   0.406   2.057  15.976  1.4561  0.1245  0.6723
 9522SOL    HW240029   0.464   1.947  15.892 -0.6342  4.7253 -1.5116
 9523SOL     OW40030   1.453   3.187   3.971  0.4405  0.1685  0.0850
 9523SOL    HW140031   1.411   3.165   4.054  1.9060  0.1303  0.8057
 9523SOL    HW240032   1.412   3.272   3.954 -0.6153 -0.0107  1.7564
 9524SOL     OW40033   0.186   2.607   0.217  0.6991  0.0305  0.2746
 9524SOL    HW140034   0.115   2.593   0.155  0.1856 -0.1313  0.8915
 9524SOL    HW240035   0.177   2.533   0.278  0.5989 -0.4562 -0.3303
 9525SOL     OW40036   2.646   4.210   2.304  0.1122 -0.9446  0.4114
 9525SOL    HW140037   2.558   4.245   2.322 -0.6492 -1.4959 -2.1875
 9525SOL    HW240038   2.621   4.183   2.216  0.3235  1.5213 -0.4197
 9526SOL     OW40039   3.496   3.259   0.040  0.5774 -0.3905  0.2098
 9526SOL    HW140040   3.489   3.312  17.665 -2.2931 -2.1515 -0.7292
 9526SOL    HW240041   3.405   3.229   0.042 -0.1064  1.5361 -1.8091
 9527SOL     OW40042   4.444   0.334   6.526 -0.0109 -0.0640  0.9261
 9527SOL    HW140043   4.471   0.259   6.579 -0.2185  0.1512  1.3368
 9527SOL    HW240044   4.489   0.401   6.577  1.8455 -0.3776 -0.3266
 9528SOL     OW40045   4.112   1.203   4.443 -0.0665 -0.2055 -0.2356
 9528SOL    HW140046   4.030   1.160   4.465  0.6315 -1.1480  0.5840
 9528SOL    HW240047   4.173   1.134   4.415 -0.0854 -0.9816  1.5797
 9529SOL     OW40048   0.046   0.828   6.734 -0.0354  0.1833  0.3622
 9529SOL    HW140049   0.017   0.771   6.805 -1.2685  2.6961  1.8610
 9529SOL    HW240050   4.720   0.908   6.746 -1.1921 -0.5235  0.0535
 9530SOL     OW40051   1.214   4.003  16.199 -0.0186  0.1862 -0.1967
 9530SOL    HW140052   1.175   3.919  16.225  1.3871 -0.0702  1.0631
 9530SOL    HW240053   1.297   3.976  16.161 -0.1997  0.6103 -0.8868
 9531SOL     OW40054   1.572   4.205   4.482 -0.8439  0.7699  0.1230
 9531SOL    HW140055   1.597   4.168   4.567  0.6611  3.0203  0.6710
 9531SOL    HW240056   1.592   4.299   4.484  0.0790  0.5733  0.3780
 9532SOL     OW40057   2.045   2.717  10.362 -0.1250  0.2891  0.6099
 9532SOL    HW140058   2.039   2.791  10.423 -0.0071  0.4046  0.4811
 9532SOL    HW240059   2.139   2.701  10.355 -0.1121  0.3722  0.5948
 9533SOL     OW40060   1.581   0.471   5.359  0.4421 -0.0452  0.1996
 9533SOL    HW140061   1.515   0.403   5.347 -1.4601  2.0441 -1.0783
 9533SOL    HW240062   1.628   0.484   5.277 -2.9399 -1.0272 -1.9041
 9534SOL     OW40063   2.703   4.085   7.345 -0.0449  0.2479 -0.0234
 9534SOL    HW140064   2.704   4.016   7.278 -0.7740 -0.1834  0.4056
 9534SOL    HW240065   2.796   4.071   7.359  0.0246  0.6506 -0.0872
 9535SOL     OW40066   0.384   3.147   4.871  0.3894 -0.8594 -0.0828
 9535SOL    HW140067   0.296   3.122   4.842  1.9850 -1.1528 -4.7260
 9535SOL    HW240068   0.386   3.169   4.964  0.3693  0.0524 -0.2994
 9536SOL     OW40069   2.893   0.947   7.748  0.0897  0.0629 -0.5995
 9536SOL    HW140070   2.875   0.865   7.793  0.5115  1.4828  2.1454
 9536SOL    HW240071   2.856   1.012   7.808  2.1574 -0.8899  1.6944
 9537SOL     OW40072   0.618   4.175  13.812  0.5054 -0.1406  0.3146
 9537SOL    HW140073   0.550   4.217  13.760 -0.4300  1.4094  2.7578
 9537SOL    HW240074   0.570   4.133  13.883  1.3417 -2.3884 -0.4538
 9538SOL     OW40075   0.386   3.229   2.166 -0.1285  0.7923  0.2160
 9538SOL    HW140076   0.363   3.138   2.150  1.5255  0.2861  0.7577
 9538SOL    HW240077   0.295   3.259   2.172  0.2553  1.6133  1.8266
 9539SOL     OW40078   3.241   0.593   4.149  0.4003 -0.0577 -0.1309
 9539SOL    HW140079   3.294   0.540   4.089  0.5907  0.6972 -0.6312
 9539SOL    HW240080   3.160   0.544   4.163 -0.5751  1.1098 -1.6308
 9540SOL     OW40081   0.113   2.139   3.863  0.3119  0.2705  0.9569
 9540SOL    HW140082   0.095   2.157   3.771  4.5288 -3.1528 -0.5410
 9540SOL    HW240083   0.050   2.074   3.891  1.0020 -1.0567 -0.6072
 9541SOL     OW40084   3.806   3.337   8.362 -0.3646  0.0577 -0.0122
 9541SOL    HW140085   3.858   3.417   8.364  2.0122 -1.5259  2.2882
 9541SOL    HW240086   3.839   3.297   8.443 -0.2004  0.3136  0.0467
 9542SOL     OW40087   3.785   0.774   4.180  0.6772 -0.4640 -0.0074
 9542SOL    HW140088   3.834   0.843   4.135 -0.6589  0.9247  0.6934
 9542SOL    HW240089   3.709   0.824   4.208  1.2051  0.0060  0.5611
 9543SOL     OW40090   1.274   3.464   8.263 -0.1334 -0.2587  0.0237
 9543SOL    HW140091   1.288   3.531   8.196  2.4098 -0.0718  0.7328
 9543SOL    HW240092   1.179   3.453   8.263 -0.1507 -0.1128  0.0265
 9544SOL     OW40093   0.134   3.849  11.777 -0.2110  0.2081  0.0061
 9544SOL    HW140094   0.129   3.766  11.825  2.0320  0.0900  0.0451
 9544SOL    HW240095   0.045   3.883  11.779 -0.3255 -0.0309 -0.9419
 9545SOL     OW40096   1.118   0.914  13.721  0.1649  0.6097 -0.0378
 9545SOL    HW140097   1.106   0.941  13.813 -0.8263 -3.3517  0.9788
 9545SOL    HW240098   1.028   0.886  13.706 -0.0715  0.3681  1.8342
 9546SOL     OW40099   2.690   2.667  17.187 -0.2108  0.4644  0.0058
 9546SOL    HW140100   2.644   2.736  17.139 -0.5827  1.0413  1.1961
 9546SOL    HW240101   2.761   2.720  17.224  2.9396 -2.0441 -2.4388
 9547SOL     OW40102   1.795   2.794   4.747  0.0477  0.0826 -0.0404
 9547SOL    HW140103   1.734   2.867   4.753 -0.6526 -0.3342 -2.0477
 9547SOL    HW240104   1.868   2.845   4.782 -0.6483 -0.0814  1.6812
 9548SOL     OW40105   4.601   3.782  10.644  0.5878 -0.4153  0.7497
 9548SOL    HW140106   4.635   3.822  10.724  0.9660  0.2630  0.2519
 9548SOL    HW240107   4.521   3.823  10.613  0.5732 -1.8273 -1.0926
 9549SOL     OW40108   2.551   0.786   2.582  0.0842  0.0208 -0.1518
 9549SOL    HW140109   2.527   0.847   2.652 -1.9434 -1.2078  0.2330
 9549SOL    HW240110   2.567   0.709   2.636 -1.4371 -0.3388 -0.2237
 9550SOL     OW40111   3.754   4.712   5.348 -0.1972 -0.3330  0.4055
 9550SOL    HW140112   3.698   0.041   5.293 -1.8240  0.6923  3.0827
 9550SOL    HW240113   3.833   4.711   5.294 -0.3301 -0.5147  0.2136
 9551SOL     OW40114   0.908   3.254   9.530  0.8349 -0.1498 -0.2458
 9551SOL    HW140115   0.897   3.348   9.546 -1.1854 -0.4077 -0.1429
 9551SOL    HW240116   0.886   3.217   9.616  1.3692 -0.2292 -0.1405
 9552SOL     OW40117   3.980   3.171   2.879  0.3871 -0.3766  0.0519
 9552SOL    HW140118   3.932   3.133   2.953  0.6257 -0.4535  0.1674
 9552SOL    HW240119   3.978   3.265   2.897 -1.2516 -0.4749  0.3533
 9553SOL     OW40120   1.397   4.145   6.289 -0.4678  0.3858  0.5295
 9553SOL    HW140121   1.351   4.122   6.208  1.8990  0.2685 -0.7879
 9553SOL    HW240122   1.343   4.113   6.361 -1.9440  3.5415  0.8240
 9554SOL     OW40123   2.823   4.029   2.405  0.7843 -0.0623 -0.3346
 9554SOL    HW140124   2.850   4.080   2.482  0.5563 -0.8352  0.2531
 9554SOL    HW240125   2.761   4.091   2.366  0.5857  0.0689  0.1878
 9555SOL     OW40126   4.298   3.078  12.336 -0.3040  0.9915 -0.6581
 9555SOL    HW140127   4.297   3.009  12.402  4.9107  0.1103 -1.4766
 9555SOL    HW240128   4.203   3.086  12.334 -0.2694  1.3690 -0.6366
 9556SOL     OW40129   1.777   3.438   7.941  0.0390 -0.1557 -0.0693
 9556SOL    HW140130   1.759   3.369   7.877  0.9028 -0.7784  0.3565
 9556SOL    HW240131   1.757   3.514   7.888  0.2058 -0.2770 -0.3054
 9557SOL     OW40132   0.809   1.660   5.495 -0.1690 -0.7265 -0.3267
 9557SOL    HW140133   0.818   1.754   5.483  0.0510 -0.9158 -1.6073
 9557SOL    HW240134   0.740   1.637   5.433 -0.1142 -1.5811 -0.0724
 9558SOL     OW40135   3.330   1.852   5.718 -0.5224 -0.2890  0.2220
 9558SOL    HW140136   3.319   1.771   5.767  1.2754  0.7144  2.2756
 9558SOL    HW240137   3.286   1.826   5.636 -0.4119 -0.5561  0.2497
 9559SOL     OW40138   4.702   1.320  11.448  0.4283 -0.0156  0.1629
 9559SOL    HW140139   4.659   1.267  11.515 -0.4365  1.4653  0.7821
 9559SOL    HW240140   0.065   1.288  11.466  0.2478 -0.9717 -0.6576
 9560SOL     OW40141   1.341   1.567   7.706 -0.1084  0.3158  0.5751
 9560SOL    HW140142   1.333   1.609   7.620 -2.0932  0.2434  0.7428
 9560SOL    HW240143   1.352   1.643   7.763 -0.9090  0.5476  0.4151
 9561SOL     OW40144   4.717   2.515   8.546 -0.1284 -0.0458  0.2777
 9561SOL    HW140145   0.078   2.556   8.541 -0.0365 -0.1376  1.0803
 9561SOL    HW240146   4.664   2.584   8.508  3.1746  0.7336 -2.8850
 9562SOL     OW40147   0.230   0.550   7.908 -0.4456 -0.0348 -0.0928
 9562SOL    HW140148   0.187   0.497   7.841  1.0251 -3.6301  1.8079
 9562SOL    HW240149   0.248   0.479   7.971 -1.6383  0.3776  0.7204
 9563SOL     OW40150   2.748   2.179  13.702  0.0277  0.7040 -0.4963
 9563SOL    HW140151   2.783   2.172  13.790 -0.8741 -1.4836 -0.3002
 9563SOL    HW240152   2.711   2.090  13.705 -0.6016  0.8708 -2.8815
 9564SOL     OW40153   0.561   0.816   9.398 -0.0252  0.1529  0.0510
 9564SOL    HW140154   0.605   0.730   9.400 -3.3128 -1.5453 -0.9694
 9564SOL    HW240155   0.628   0.881   9.376 -1.8399  1.8615 -0.3503
 9565SOL     OW40156   2.398   4.043   8.599  0.5907  0.8114 -0.0786
 9565SOL    HW140157   2.338   3.985   8.645  0.5625  2.3944  1.9127
 9565SOL    HW240158   2.354   4.128   8.611  1.7383  1.5749 -1.2843
 9566SOL     OW40159   0.285   0.081   8.704  0.3215  0.4131  0.5478
 9566SOL    HW140160   0.248   0.166   8.682  1.9140  0.1474 -3.1728
 9566SOL    HW240161   0.269   0.019   8.632  1.5837 -1.6004  2.0129
 9567SOL     OW40162   4.117   1.156   6.986 -0.0463 -0.2510  0.4112
 9567SOL    HW140163   4.129   1.061   6.994 -3.4008 -0.8724 -1.8493
 9567SOL    HW240164   4.041   1.167   7.043  0.6676  0.4543  1.2262
 9568SOL     OW40165   3.362   4.118   8.352 -0.5624 -0.0184 -0.0585
 9568SOL    HW140166   3.323   4.182   8.412  1.6443  0.7016  0.6284
 9568SOL    HW240167   3.452   4.122   8.387 -0.3473 -1.0919 -0.5163
   4.72580   4.72580  17.70439
