Membrane in water
40167
    1TCq1    O1    1   3.213   0.404  11.414  0.4736  0.6707 -0.1222
    1TCq1    C1    2   3.194   0.404  11.548 -0.1360  0.0798 -0.0522
    1TCq1    O2    3   3.274   0.374  11.633 -0.8002  0.2474 -0.3483
    1TCq1    C2    4   3.053   0.382  11.575 -0.0524  0.3962  0.1804
    1TCq1    C3    5   2.949   0.462  11.529  0.6999 -0.2597 -0.0345
    1TCq1    C4    6   2.820   0.428  11.561  0.0017  0.3727 -0.2779
    1TCq1    C5    7   2.789   0.319  11.641  0.5602  0.6914 -0.0250
    1TCq1    C6    8   2.897   0.255  11.695  0.3711 -0.7682  0.0588
    1TCq1    C7    9   3.032   0.282  11.665 -0.5555  0.0132  0.4404
    1TCq1    C8   10   2.866   0.139  11.780 -0.0590 -0.4501  0.2065
    1TCq1    O4   11   2.763   0.139  11.839  0.4089  0.3040  0.4078
    1TCq1    C9   12   2.720   0.511  11.509 -0.1836  0.6170  0.7268
    1TCq1    O5   13   2.608   0.462  11.492  0.3861  0.3435  0.1212
    1TCq1    O6   14   2.758   0.625  11.474 -0.0784 -0.2671 -0.1854
    1TCq1    H1   15   3.131   0.411  11.361  0.2045 -1.2574  0.0371
    1TCq1    H2   16   2.964   0.542  11.457 -3.4423  1.3147  0.8813
    1TCq1    H3   17   2.692   0.272  11.646  0.2762  1.3170  0.3176
    1TCq1    H4   18   3.119   0.225  11.695 -0.6759  0.0046  0.7662
    2MPD2     C   19   2.940   4.419  11.994 -0.7507 -0.2039  0.5460
    2MPD2    C1   20   2.875   4.532  12.041 -0.3445 -0.0473  0.1112
    2MPD2    C2   21   2.882   4.645  11.968  0.6969 -0.2835  0.7551
    2MPD2    C3   22   2.955   4.644  11.854 -1.5586  0.6013  0.4640
    2MPD2    C4   23   3.028   4.541  11.816  0.1756  0.2402 -0.0828
    2MPD2    C5   24   3.018   4.427  11.877  0.4990 -0.8823  0.0485
    2MPD2     H   25   2.833   0.008  12.008  2.2455 -0.6747  3.4856
    2MPD2    H1   26   3.069   4.537  11.716  0.6369  0.4966  0.0958
    2MPD2    H2   27   2.940   4.326  12.049 -0.0993 -1.8250 -2.1541
    2MPD2    H3   28   3.071   4.341  11.838  1.4429  0.3945 -1.5202
    2MPD2     N   29   2.963   0.039  11.773  0.2204  0.1683 -0.8664
    2MPD2    H5   30   3.030   0.038  11.696  2.3317  1.7331  0.9379
    2MPD2    N1   31   2.805   4.530  12.170 -0.0502 -0.1419  0.0794
    2MPD2    H7   32   2.777   4.623  12.200  0.5606  0.7898 -2.2638
    3TCq1    O1   33   2.673   1.184  10.846 -0.0010 -0.4742 -0.2949
    3TCq1    C1   34   2.733   1.272  10.931  0.0644  0.4748 -0.0373
    3TCq1    O2   35   2.811   1.233  11.016 -0.1838  0.4941  0.9835
    3TCq1    C2   36   2.629   1.360  10.960 -0.5531  0.8454 -0.2321
    3TCq1    C3   37   2.590   1.453  10.865  0.0844  0.4642  0.6250
    3TCq1    C4   38   2.479   1.528  10.885  0.6020 -0.4878  0.2749
    3TCq1    C5   39   2.402   1.505  11.001 -0.8586 -0.1252 -0.2078
    3TCq1    C6   40   2.445   1.406  11.089 -1.1011  0.1171 -0.5954
    3TCq1    C7   41   2.561   1.337  11.073 -0.2790  0.0022 -0.1618
    3TCq1    C8   42   2.359   1.374  11.198  0.2188 -0.4600 -0.2656
    3TCq1    O4   43   2.344   1.260  11.231  0.5985  0.3069  0.8822
    3TCq1    C9   44   2.444   1.631  10.799 -0.4653  0.0912  0.1749
    3TCq1    O5   45   2.529   1.669  10.710  0.2884 -0.0133 -0.3605
    3TCq1    O6   46   2.355   1.711  10.838 -0.7453  0.3342  0.8539
    3TCq1    H1   47   2.581   1.211  10.824  0.8315  0.7163 -2.2993
    3TCq1    H2   48   2.644   1.469  10.772  2.6776  1.5075  2.3003
    3TCq1    H3   49   2.305   1.552  11.017 -0.5246  0.4238  0.1875
    3TCq1    H4   50   2.600   1.267  11.146  0.2712 -0.3253 -0.7755
    4MPD2     C   51   1.995   1.508  11.527 -0.5788 -0.2081 -0.1719
    4MPD2    C1   52   2.057   1.621  11.475 -0.1074 -0.1675  0.1928
    4MPD2    C2   53   2.153   1.611  11.381 -0.3528  0.0516  0.6319
    4MPD2    C3   54   2.182   1.493  11.323  0.3645  0.5779  0.4349
    4MPD2    C4   55   2.129   1.381  11.377  0.2476 -0.0106  0.0142
    4MPD2    C5   56   2.041   1.389  11.479 -0.5632 -0.4742 -0.8340
    4MPD2     H   57   2.197   1.704  11.345 -0.8090 -0.7534 -1.9965
    4MPD2    H1   58   2.160   1.283  11.342 -0.5183 -0.6541  1.1437
    4MPD2    H2   59   1.909   1.522  11.592 -0.3557  0.4631 -0.0173
    4MPD2    H3   60   2.013   1.296  11.527  0.1785 -0.5075 -0.4776
    4MPD2     N   61   2.298   1.489  11.244  0.6605  0.1590  0.2214
    4MPD2    H5   62   2.332   1.578  11.208  1.6191  0.4361  1.8172
    4MPD2    N1   63   2.019   1.754  11.520  0.6089 -0.5652 -0.1907
    4MPD2    H7   64   2.073   1.826  11.474  0.2569 -0.6711 -0.7742
    5TCq1    O1   65   2.805   3.199  12.519  0.0069  0.3063 -0.2507
    5TCq1    C1   66   2.820   3.209  12.388  1.1840 -0.1997  0.5235
    5TCq1    O2   67   2.838   3.305  12.314 -0.4163  0.1958 -0.7963
    5TCq1    C2   68   2.835   3.075  12.337  0.1691  0.0139  0.2790
    5TCq1    C3   69   2.755   2.970  12.390  0.6350  0.1103 -0.0395
    5TCq1    C4   70   2.729   2.859  12.311 -0.1799  0.2554  0.2002
    5TCq1    C5   71   2.793   2.843  12.184  0.2621 -0.2292  0.2504
    5TCq1    C6   72   2.862   2.944  12.135 -0.1430  0.4143 -1.0526
    5TCq1    C7   73   2.889   3.060  12.208 -0.1572  0.5165 -0.1714
    5TCq1    C8   74   2.921   2.933  12.000  0.7215  0.2551  0.6646
    5TCq1    O4   75   2.952   2.821  11.951 -0.5483  0.3075  0.0163
    5TCq1    C9   76   2.649   2.756  12.365 -0.1919  0.6514  0.2943
    5TCq1    O5   77   2.645   2.648  12.298 -0.4388 -0.0165 -0.1183
    5TCq1    O6   78   2.579   2.782  12.466  0.3093  0.3667 -0.4500
    5TCq1    H1   79   2.805   3.106  12.548  1.0522  1.1473  2.4226
    5TCq1    H2   80   2.715   2.981  12.490 -0.7068 -2.3208 -0.3071
    5TCq1    H3   81   2.774   2.757  12.121  2.6086 -2.5920  2.7151
    5TCq1    H4   82   2.955   3.140  12.177  1.0961 -0.7614 -0.7823
    6MPD2     C   83   2.904   3.207  11.762 -0.0324 -0.3249  0.1444
    6MPD2    C1   84   2.936   3.078  11.803  0.5498 -0.2487 -0.3627
    6MPD2    C2   85   2.979   2.983  11.716  0.2173 -0.0127 -0.4174
    6MPD2    C3   86   3.011   3.013  11.588 -0.0606  0.6202  0.3045
    6MPD2    C4   87   2.980   3.142  11.543  0.1042  0.3016  0.1242
    6MPD2    C5   88   2.929   3.237  11.633 -0.0307 -0.5321 -0.1401
    6MPD2     H   89   3.016   2.891  11.760 -1.7317 -0.7562 -0.3763
    6MPD2    H1   90   3.005   3.181  11.445 -3.4756  0.6544 -0.6596
    6MPD2    H2   91   2.864   3.285  11.826 -1.0535  0.7814 -1.8453
    6MPD2    H3   92   2.906   3.335  11.592  1.3548  0.2631  1.0122
    6MPD2     N   93   3.063   2.924  11.501 -0.3272  0.3936  0.4386
    6MPD2    H5   94   3.099   2.837  11.539 -3.6208 -1.0011  0.3818
    6MPD2    N1   95   2.916   3.052  11.940  0.0330  0.2607  0.1077
    6MPD2    H7   96   2.885   3.132  11.994  1.6510  0.3104  0.9633
    7TCq1    O1   97   4.117   2.281  13.004 -0.3177 -0.3276 -0.1456
    7TCq1    C1   98   4.177   2.396  12.956  0.3046 -0.5424 -0.7578
    7TCq1    O2   99   4.117   2.498  12.927  0.0807 -0.0485 -0.2408
    7TCq1    C2  100   4.314   2.368  12.928 -0.1233 -0.3453  0.2519
    7TCq1    C3  101   4.379   2.440  12.827 -0.4541 -0.1321 -0.3639
    7TCq1    C4  102   4.514   2.431  12.827  0.3585 -0.7885  0.7738
    7TCq1    C5  103   4.585   2.354  12.912 -0.0031  0.2572  0.3325
    7TCq1    C6  104   4.520   2.289  13.010  0.0169  0.1722  0.3605
    7TCq1    C7  105   4.382   2.286  13.020  0.3263  0.0260  0.3858
    7TCq1    C8  106   4.578   2.176  13.083 -0.7249  0.9354  0.2326
    7TCq1    O4  107   4.498   2.121  13.160 -0.3480 -0.1505  0.0491
    7TCq1    C9  108   4.592   2.490  12.720 -0.4843 -0.6210 -0.6747
    7TCq1    O5  109   4.706   2.445  12.701  0.2692  0.1602  0.4301
    7TCq1    O6  110   4.532   2.571  12.644  0.0822  0.0752 -0.2301
    7TCq1    H1  111   4.181   2.207  13.006 -0.7925 -0.6871  1.4219
    7TCq1    H2  112   4.318   2.494  12.755 -2.4398  0.6132  1.8920
    7TCq1    H3  113   4.694   2.355  12.909 -0.0023  0.1271  0.3308
    7TCq1    H4  114   4.333   2.252  13.111 -0.0953  1.9042  0.8639
    8MPD2     C  115   0.236   1.848  13.174  0.0375  0.1822  0.2228
    8MPD2    C1  116   0.105   1.828  13.191 -0.0403 -0.4397  0.0751
    8MPD2    C2  117   0.015   1.925  13.161 -0.1319 -0.0194 -0.2914
    8MPD2    C3  118   0.059   2.041  13.099 -0.2730  0.0284 -0.0753
    8MPD2    C4  119   0.196   2.062  13.087  0.3973  0.0660  0.1231
    8MPD2    C5  120   0.277   1.953  13.104 -0.1573 -0.1865  0.0942
    8MPD2     H  121   4.633   1.911  13.167  0.2059 -2.4859 -0.1777
    8MPD2    H1  122   0.235   2.157  13.053 -0.9051  0.9027  0.9648
    8MPD2    H2  123   0.310   1.774  13.204 -0.6898 -1.4666 -2.0472
    8MPD2    H3  124   0.385   1.968  13.106 -0.1456 -0.2099 -0.4906
    8MPD2     N  125   4.709   2.152  13.065  1.1141 -0.2157  0.0987
    8MPD2    H5  126   0.034   2.229  13.023  0.9979 -0.6515 -0.8594
    8MPD2    N1  127   0.066   1.699  13.242 -0.2276  0.0623  0.9856
    8MPD2    H7  128   0.142   1.639  13.273 -0.1789  0.2280  1.1820
    9TCq1    O1  129   1.769   0.732  10.854  0.1043  0.1998  0.3331
    9TCq1    C1  130   1.813   0.846  10.900  0.0361 -0.5680 -0.5568
    9TCq1    O2  131   1.788   0.893  11.007  0.3790 -0.0371 -0.0144
    9TCq1    C2  132   1.935   0.873  10.833 -0.8845  0.0785  0.4173
    9TCq1    C3  133   1.939   0.843  10.702 -0.3815 -0.0933 -0.5418
    9TCq1    C4  134   2.056   0.828  10.638 -0.4060 -0.0148  0.0016
    9TCq1    C5  135   2.167   0.816  10.714 -0.3059  0.0928  0.3775
    9TCq1    C6  136   2.166   0.832  10.847 -0.2621  0.4112  0.1686
    9TCq1    C7  137   2.050   0.870  10.907 -0.2296 -0.2531  0.3733
    9TCq1    C8  138   2.291   0.878  10.904 -0.6276 -0.1388  0.5016
    9TCq1    O4  139   2.379   0.922  10.836  0.0941  0.2297  0.1158
    9TCq1    C9  140   2.067   0.821  10.488 -0.1847  0.0956  0.5203
    9TCq1    O5  141   1.962   0.814  10.420 -0.2936 -0.0146 -0.6841
    9TCq1    O6  142   2.176   0.779  10.441  0.0749  0.1124 -0.2117
    9TCq1    H1  143   1.815   0.699  10.773 -0.9615  0.3149 -0.3294
    9TCq1    H2  144   1.850   0.843  10.641 -0.5352  1.7439 -0.3185
    9TCq1    H3  145   2.263   0.811  10.665  1.2957 -1.1051  3.6512
    9TCq1    H4  146   2.037   0.893  11.012 -3.0211 -0.5439  0.1115
   10MPD2     C  147   2.507   0.964  11.084  0.0146  0.0417 -0.2953
   10MPD2    C1  148   2.400   0.886  11.125  0.7308 -0.5206 -0.1442
   10MPD2    C2  149   2.389   0.851  11.256 -0.0046 -0.5864 -0.0982
   10MPD2    C3  150   2.497   0.874  11.344 -0.1324  0.2094 -0.0444
   10MPD2    C4  151   2.605   0.937  11.296 -0.1458 -0.2024  0.3047
   10MPD2    C5  152   2.613   0.983  11.166  0.4863 -0.1333  0.2439
   10MPD2     H  153   2.298   0.798  11.282 -0.1291  0.5914  1.8412
   10MPD2    H1  154   2.694   0.953  11.357  1.2827 -0.5023 -1.6787
   10MPD2    H2  155   2.515   1.004  10.984  2.4940  2.6613  0.9299
   10MPD2    H3  156   2.695   1.040  11.125 -0.6528  1.6047  0.3793
   10MPD2     N  157   2.503   0.830  11.479  0.1561 -0.2025 -0.5373
   10MPD2    H5  158   2.589   0.857  11.526  1.1793 -0.3672 -2.2972
   10MPD2    N1  159   2.291   0.848  11.036  0.2814  0.9986 -0.9571
   10MPD2    H7  160   2.214   0.801  11.082  0.2797  2.0339  0.1020
   11TCq1    O1  161   4.094   0.277  13.954  0.1796  0.1554 -0.0754
   11TCq1    C1  162   4.202   0.346  14.005  0.5359  0.0949 -0.1803
   11TCq1    O2  163   4.318   0.337  13.971 -0.3888  0.0479  0.1955
   11TCq1    C2  164   4.168   0.425  14.121  0.0051  0.1292 -0.4552
   11TCq1    C3  165   4.263   0.503  14.175  0.3804 -0.6361  0.1189
   11TCq1    C4  166   4.225   0.583  14.271  0.0975 -0.0411 -0.1779
   11TCq1    C5  167   4.101   0.578  14.330  0.7487 -0.4627  0.0120
   11TCq1    C6  168   4.011   0.489  14.280  0.0759 -0.0906 -0.0333
   11TCq1    C7  169   4.044   0.408  14.173  0.7357  0.3013 -0.8104
   11TCq1    C8  170   3.894   0.454  14.354  0.2221  0.3220  0.1693
   11TCq1    O4  171   3.896   0.480  14.474  0.3131 -0.3217  0.1648
   11TCq1    C9  172   4.318   0.659  14.349  0.3013  0.1198 -0.4142
   11TCq1    O5  173   4.438   0.670  14.314 -0.4595 -0.1611  0.3029
   11TCq1    O6  174   4.272   0.746  14.428 -0.3370 -0.3546  0.2558
   11TCq1    H1  175   4.005   0.306  13.981  0.4130 -1.3794  2.3329
   11TCq1    H2  176   4.368   0.513  14.149  0.0647 -0.6783 -1.1652
   11TCq1    H3  177   4.083   0.632  14.422 -1.6072 -1.0533 -0.1031
   11TCq1    H4  178   4.002   0.308  14.164 -0.3135  0.7549 -0.9901
   12MPD2     C  179   3.633   0.377  14.440 -0.2793  0.5034 -0.0931
   12MPD2    C1  180   3.667   0.383  14.309  0.2174  0.3745  0.0828
   12MPD2    C2  181   3.576   0.346  14.217  0.9375 -0.0643  0.6473
   12MPD2    C3  182   3.452   0.308  14.265 -0.3893 -0.7351 -0.2714
   12MPD2    C4  183   3.412   0.311  14.395  1.0640  0.6136 -0.2167
   12MPD2    C5  184   3.504   0.358  14.481  0.0846  0.1405  0.5540
   12MPD2     H  185   3.605   0.350  14.112 -1.3324 -1.6633 -0.0375
   12MPD2    H1  186   3.313   0.282  14.427  0.5669  1.4001 -1.0428
   12MPD2    H2  187   3.702   0.384  14.523 -0.6962 -0.9752  0.3601
   12MPD2    H3  188   3.488   0.340  14.587 -0.8956  0.7573  0.5108
   12MPD2     N  189   3.354   0.269  14.167  0.0817  0.7112  0.2525
   12MPD2    H5  190   3.262   0.239  14.194  0.9543 -2.3117 -0.1184
   12MPD2    N1  191   3.792   0.423  14.267 -0.1834  0.3370  0.5446
   12MPD2    H7  192   3.813   0.402  14.170  0.5811  1.1832  0.5271
   13TCq1    O1  193   2.463   0.444  10.717  0.4599  0.3705  0.1906
   13TCq1    C1  194   2.408   0.408  10.834 -0.0112  0.5623 -0.1174
   13TCq1    O2  195   2.464   0.363  10.929  0.1362 -0.0355  0.1755
   13TCq1    C2  196   2.267   0.444  10.846  0.8163 -0.7053 -0.0230
   13TCq1    C3  197   2.180   0.434  10.746 -0.3397  0.5739 -0.2459
   13TCq1    C4  198   2.048   0.460  10.773 -0.0474 -0.3089  0.1001
   13TCq1    C5  199   2.006   0.492  10.896  0.7389  0.4784  0.6399
   13TCq1    C6  200   2.095   0.504  10.997 -0.1110 -0.1034 -0.7258
   13TCq1    C7  201   2.229   0.482  10.972 -0.8264 -0.2832  0.3577
   13TCq1    C8  202   2.056   0.579  11.119  0.7705 -1.0484  0.0401
   13TCq1    O4  203   2.150   0.629  11.179 -0.2463  0.3438 -0.2656
   13TCq1    C9  204   1.955   0.454  10.669  0.1725  0.0854 -0.6724
   13TCq1    O5  205   2.000   0.402  10.562  0.2098 -0.2470 -0.0292
   13TCq1    O6  206   1.856   0.538  10.674  0.5468 -0.5011  0.7501
   13TCq1    H1  207   2.402   0.485  10.651 -0.2286 -0.9012  0.0372
   13TCq1    H2  208   2.208   0.405  10.646 -0.2890 -2.2398  0.5835
   13TCq1    H3  209   1.900   0.517  10.901  0.4305 -0.0839 -3.2486
   13TCq1    H4  210   2.295   0.470  11.057 -0.5775 -1.2192  0.0267
   14MPD2     C  211   1.752   0.658  11.286 -0.4052  0.8085  0.1342
   14MPD2    C1  212   1.881   0.683  11.254 -0.2090 -0.8060 -0.3188
   14MPD2    C2  213   1.961   0.768  11.329 -1.0281 -0.4873  0.2596
   14MPD2    C3  214   1.902   0.835  11.437 -0.3701  0.1657 -0.1443
   14MPD2    C4  215   1.769   0.813  11.477  0.3325  0.2665 -0.3210
   14MPD2    C5  216   1.702   0.729  11.396  0.5529 -0.0242  0.1915
   14MPD2     H  217   2.064   0.786  11.302 -0.8203 -3.9600 -1.2579
   14MPD2    H1  218   1.731   0.835  11.577 -0.0031  0.6081 -0.5222
   14MPD2    H2  219   1.697   0.584  11.230  3.2937 -1.8563  0.0775
   14MPD2    H3  220   1.606   0.705  11.440 -0.4383 -0.3227 -2.1247
   14MPD2     N  221   1.978   0.931  11.514 -0.1451  0.2533  0.6160
   14MPD2    H5  222   1.935   0.970  11.598 -1.0312 -1.4105  0.9254
   14MPD2    N1  223   1.918   0.614  11.134  0.8826 -0.3267 -0.6701
   14MPD2    H7  224   1.850   0.556  11.086 -0.7523  0.3808  0.7746
   15TCq1    O1  225   4.089   0.087   1.140  0.1452  0.6758 -0.8271
   15TCq1    C1  226   4.136   4.698   1.077  0.0330 -0.7239 -1.0820
   15TCq1    O2  227   4.070   4.615   1.014 -0.4520  0.1794  0.0666
   15TCq1    C2  228   4.265   4.682   1.137 -0.1749 -0.3462  0.4675
   15TCq1    C3  229   4.342   0.066   1.155  0.3344 -0.4261 -0.3714
   15TCq1    C4  230   4.468   0.048   1.191  0.2572 -0.7567 -0.3710
   15TCq1    C5  231   4.521   4.658   1.207 -0.7271  0.7520  0.0560
   15TCq1    C6  232   4.447   4.546   1.177  0.0258  0.8986  0.3743
   15TCq1    C7  233   4.314   4.555   1.137  0.7516  0.5644 -0.4674
   15TCq1    C8  234   4.509   4.411   1.184  0.3112 -0.0004  0.7782
   15TCq1    O4  235   4.607   4.401   1.257  0.1740  0.0427  0.0258
   15TCq1    C9  236   4.548   0.156   1.221  1.0504  0.4160 -0.1032
   15TCq1    O5  237   4.508   0.278   1.206  0.6346  0.3003  0.3720
   15TCq1    O6  238   4.671   0.132   1.244 -0.2106 -0.1793 -0.1548
   15TCq1    H1  239   4.146   0.137   1.202 -0.0964  0.4005 -0.3830
   15TCq1    H2  240   4.310   0.166   1.131  0.7245 -0.3559 -0.5999
   15TCq1    H3  241   4.619   4.641   1.251 -0.7078  0.1348 -0.2209
   15TCq1    H4  242   4.258   4.463   1.128 -0.2283  1.1980 -0.7822
   16MPD2     C  243   4.435   4.150   0.949 -0.7492  0.3796 -0.4235
   16MPD2    C1  244   4.501   4.203   1.054  0.2176 -0.0429  0.1353
   16MPD2    C2  245   4.606   4.133   1.124  0.5425 -0.6975  0.3967
   16MPD2    C3  246   4.646   4.009   1.083  0.2579  0.3432  0.8511
   16MPD2    C4  247   4.591   3.965   0.964  0.4298 -0.1499 -0.0656
   16MPD2    C5  248   4.481   4.027   0.910  0.1060  0.0347 -0.6219
   16MPD2     H  249   4.645   4.162   1.221 -1.0617  1.0936  0.5212
   16MPD2    H1  250   4.616   3.869   0.920  0.2609 -0.2624  0.0903
   16MPD2    H2  251   4.349   4.190   0.896 -0.7096 -0.3104 -1.0139
   16MPD2    H3  252   4.443   3.981   0.819 -0.5189 -1.6610  0.4996
   16MPD2     N  253   0.020   3.942   1.154  0.3464  0.2797  0.3565
   16MPD2    H5  254   0.071   3.983   1.232  0.8305 -0.1946  0.2922
   16MPD2    N1  255   4.465   4.333   1.083  1.0754  0.5158 -0.4833
   16MPD2    H7  256   4.389   4.370   1.027  2.3597  1.1154 -1.8511
   17TCq1    O1  257   3.127   4.614  11.241  0.3413  0.4824 -0.5099
   17TCq1    C1  258   3.173   4.497  11.200 -0.3581 -0.0774  0.2812
   17TCq1    O2  259   3.279   4.443  11.237  0.2920  0.5858  0.1828
   17TCq1    C2  260   3.129   4.461  11.065 -0.2631 -0.8759 -0.3290
   17TCq1    C3  261   2.997   4.456  11.042  0.0245  0.6221 -0.6058
   17TCq1    C4  262   2.956   4.438  10.915  0.0822  0.5205 -0.5215
   17TCq1    C5  263   3.050   4.426  10.807  0.9176 -0.1557 -0.5709
   17TCq1    C6  264   3.182   4.441  10.833 -0.7645  0.0463  0.6221
   17TCq1    C7  265   3.222   4.452  10.965  0.9651  0.1246  0.9249
   17TCq1    C8  266   3.274   4.381  10.735  0.7884  0.5210  0.4750
   17TCq1    O4  267   3.238   4.309  10.644  0.4731  0.2430 -0.2178
   17TCq1    C9  268   2.818   4.416  10.885  0.0683 -0.4112 -0.5277
   17TCq1    O5  269   2.778   4.366  10.778 -0.2004 -0.3522  0.0873
   17TCq1    O6  270   2.742   4.419  10.988 -0.0771  0.0564 -0.0469
   17TCq1    H1  271   3.065   4.661  11.181 -0.5734 -1.4239 -1.0474
   17TCq1    H2  272   2.931   4.447  11.127  3.3085 -1.6144  1.7103
   17TCq1    H3  273   3.006   4.399  10.712  0.3265  1.8265 -0.8671
   17TCq1    H4  274   3.327   4.456  10.994  0.3800  0.4481  2.9776
   18MPD2     C  275   3.519   4.301  10.592  0.0770 -0.4525 -0.2937
   18MPD2    C1  276   3.512   4.413  10.674  0.1087  0.1334 -0.4959
   18MPD2    C2  277   3.614   4.507  10.674  0.5930  0.6632  0.8584
   18MPD2    C3  278   3.734   4.481  10.607 -0.0383  0.6495  0.3126
   18MPD2    C4  279   3.742   4.364  10.526 -0.5872  0.2007 -0.0699
   18MPD2    C5  280   3.638   4.271  10.523 -0.3597  0.1077  0.0009
   18MPD2     H  281   3.612   4.590  10.744 -0.3526  1.7622 -0.4887
   18MPD2    H1  282   3.831   4.347  10.466 -0.8242 -0.4784 -0.2357
   18MPD2    H2  283   3.440   4.228  10.577 -0.7605  0.3938  0.0075
   18MPD2    H3  284   3.641   4.188  10.454  1.1015  0.3028 -0.1718
   18MPD2     N  285   3.844   4.567  10.605  0.4547  0.2884  0.6087
   18MPD2    H5  286   3.920   4.543  10.543  1.0177 -1.5120  1.9823
   18MPD2    N1  287   3.402   4.435  10.758  1.0747  0.6198  0.4301
   18MPD2    H7  288   3.406   4.520  10.814 -0.3768  2.3805 -2.1544
   19TMC2    C1  289   4.314   0.063  13.739  0.9523  0.6384  0.5470
   19TMC2    C2  290   4.271   0.156  13.659 -0.1306  0.5264  0.5303
   19TMC2    C3  291   4.139   0.175  13.641  0.6307  0.4103  0.2341
   19TMC2    C4  292   4.227   4.699  13.801  0.2869  0.2131 -0.0221
   19TMC2    C5  293   4.093   0.014  13.799  0.1774  0.2696  0.3549
   19TMC2    C6  294   4.046   0.113  13.713 -0.3523 -0.1129 -0.6022
   19TMC2     C  295   4.440   0.085  13.811  0.4967  0.0744  0.9046
   19TMC2     O  296   4.510   0.174  13.762 -0.1440  0.3206 -0.8800
   19TMC2     H  297   4.334   0.225  13.605 -1.4901  1.8801  0.6767
   19TMC2    H1  298   4.255   4.606  13.848  2.5548  0.3396 -1.1158
   19TMC2    H2  299   3.942   0.122  13.683  0.4169 -1.7254 -3.7730
   19TMC2    C7  300   4.001   4.654  13.861  0.4695  0.1810 -0.7529
   19TMC2    C8  301   4.095   0.228  13.518 -0.2261  0.3402 -0.0072
   19TMC2    O1  302   4.037   4.538  13.867 -0.1267  0.6035  0.1334
   19TMC2    O2  303   4.178   0.237  13.427  0.2689 -0.4878  0.1401
   19TMC2    O5  304   3.982   0.305  13.538 -0.4051  0.3075  0.1418
   19TMC2    H5  305   3.943   0.290  13.627 -1.7612 -2.1745 -0.8816
   20MPD2     C  306   4.626   0.149  14.036  0.4721 -0.0198 -0.1341
   20MPD2    C1  307   4.511   0.070  14.045 -0.2954 -0.0227  0.0735
   20MPD2    C2  308   4.477   0.019  14.172  0.4630 -0.4363 -0.3337
   20MPD2    C3  309   4.544   0.044  14.289  0.5896 -0.5953 -0.7469
   20MPD2    C4  310   4.653   0.129  14.284  1.0279 -0.5941 -0.6017
   20MPD2    C5  311   4.688   0.169  14.157 -0.7774 -0.0604 -0.0550
   20MPD2     H  312   4.399   4.669  14.177  0.8319 -0.8416 -0.7131
   20MPD2    H1  313   4.716   0.157  14.367 -0.4925  1.7672 -0.2537
   20MPD2    H2  314   4.670   0.190  13.946  0.0722 -0.0956 -0.3639
   20MPD2    H3  315   0.054   0.228  14.162  0.5036 -1.9410 -1.4769
   20MPD2     N  316   4.515   4.712  14.416 -0.2930  1.0750 -0.1285
   20MPD2    H5  317   4.559   0.017  14.502 -1.4513 -0.8520  1.1370
   20MPD2    N1  318   4.432   0.030  13.937 -0.3007  0.7970 -0.3430
   20MPD2    H7  319   4.353   4.701  13.970  1.1739 -0.9198  0.3862
   21MPD2     C  320   2.679   0.670  14.353 -0.4019 -0.2476  0.4095
   21MPD2    C1  321   2.580   0.595  14.297  0.0654  0.2205  0.1066
   21MPD2    C2  322   2.459   0.645  14.246  0.3045  0.5604 -0.1966
   21MPD2    C3  323   2.439   0.784  14.250  0.6637 -0.6064  0.3017
   21MPD2    C4  324   2.537   0.856  14.308  0.4392  0.4941 -0.3636
   21MPD2    C5  325   2.654   0.804  14.357  0.1564  0.5787  0.1220
   21MPD2     H  326   2.374   0.583  14.220 -0.8879  2.3149 -0.4663
   21MPD2    H1  327   2.525   0.964  14.314  1.0998  0.4231  2.4721
   21MPD2    H2  328   2.773   0.636  14.394 -0.7619  2.6127  3.5966
   21MPD2    H3  329   2.736   0.865  14.394 -0.2927  1.1136  0.2366
   21MPD2     N  330   2.316   0.843  14.224 -0.2986 -0.3420 -0.4062
   21MPD2    H5  331   2.302   0.937  14.259  0.3175 -1.6948  3.4713
   21MPD2    N1  332   2.587   0.449  14.308 -0.4180  0.0606  0.3117
   21MPD2    H7  333   2.508   0.396  14.271  0.7513  0.1875 -2.2752
   22TCq2    C1  334   2.214   0.781  14.148 -0.5285  0.1222  0.1351
   22TCq2    O2  335   2.217   0.687  14.066 -0.5066  0.6651 -0.1790
   22TCq2    C2  336   2.083   0.820  14.204 -0.7042  0.3659  0.1968
   22TCq2    C3  337   1.987   0.724  14.206 -0.1531 -0.1573 -0.1221
   22TCq2    C4  338   1.883   0.744  14.287 -0.4622 -0.0667  0.3214
   22TCq2    C5  339   1.871   0.848  14.371 -0.2474  0.2140  0.2256
   22TCq2    C6  340   1.961   0.949  14.366  0.6569  0.4281  0.2937
   22TCq2    C7  341   2.071   0.939  14.280 -0.1724 -0.3949 -0.6226
   22TCq2    C8  342   1.934   1.075  14.424  0.3745 -0.2606 -0.2874
   22TCq2    O4  343   2.030   1.147  14.451 -0.5116  0.0100 -0.4950
   22TCq2    C9  344   1.777   0.647  14.282 -0.1128 -0.8509  0.1961
   22TCq2    O5  345   1.790   0.551  14.199 -0.1275 -0.4158 -0.0833
   22TCq2    O6  346   1.672   0.690  14.336 -0.0602 -0.4143 -0.2064
   22TCq2    H2  347   1.991   0.646  14.131 -0.6367  1.6814 -2.0391
   22TCq2    H3  348   1.784   0.859  14.435 -0.2580  0.7305  0.1218
   22TCq2    H4  349   2.132   1.028  14.263 -2.2082  1.4446  1.7571
   23MPD2     C  350   3.965   1.157  14.817 -0.1559  0.2786 -0.3416
   23MPD2    C1  351   3.848   1.169  14.900 -0.1742 -0.0083 -0.3090
   23MPD2    C2  352   3.771   1.282  14.880 -0.3963  0.0900  0.2435
   23MPD2    C3  353   3.801   1.379  14.784 -0.0778 -0.0181  0.0966
   23MPD2    C4  354   3.913   1.365  14.711 -0.0574 -0.0090  0.1917
   23MPD2    C5  355   3.997   1.257  14.731 -0.6678  0.3379  0.1461
   23MPD2     H  356   3.687   1.291  14.947  0.7164  0.2244  1.6057
   23MPD2    H1  357   3.961   1.439  14.649  0.1626  1.0141  1.6047
   23MPD2    H2  358   4.024   1.066  14.809 -2.0651 -1.1078  1.1460
   23MPD2    H3  359   4.089   1.241  14.675 -1.2154  0.5756 -0.8087
   23MPD2     N  360   3.716   1.490  14.747 -0.2198  0.2277  0.2884
   23MPD2    H5  361   3.750   1.554  14.676  0.9347 -1.1105 -0.3762
   23MPD2    N1  362   3.814   1.080  14.996  0.1162  0.3704 -0.1290
   23MPD2    H7  363   3.737   1.104  15.057 -0.4200 -0.6684 -0.4042
   24TCq2    C1  364   3.587   1.501  14.792 -0.6675  0.5755 -0.1172
   24TCq2    O2  365   3.516   1.431  14.867 -0.5309 -0.4514 -0.5696
   24TCq2    C2  366   3.510   1.600  14.719 -0.5223 -0.1566 -0.1334
   24TCq2    C3  367   3.555   1.727  14.694  0.2403 -0.9194 -0.2779
   24TCq2    C4  368   3.472   1.805  14.623 -0.0225 -0.4191 -0.0967
   24TCq2    C5  369   3.346   1.762  14.584  0.0685 -0.5789 -0.5908
   24TCq2    C6  370   3.299   1.640  14.627  0.4584 -0.0174  0.2710
   24TCq2    C7  371   3.386   1.560  14.692  0.1789 -0.0520  0.2028
   24TCq2    C8  372   3.167   1.581  14.590 -0.2939  0.0328 -0.2505
   24TCq2    O4  373   3.139   1.466  14.621  0.1390 -0.1486 -0.1778
   24TCq2    C9  374   3.504   1.949  14.616 -0.3837 -0.5202 -0.1997
   24TCq2    O5  375   3.410   2.035  14.607  0.0161  0.1325 -1.1457
   24TCq2    O6  376   3.627   1.973  14.610  0.1774 -0.2346  0.4914
   24TCq2    H2  377   3.653   1.767  14.717 -0.6944  1.6264 -0.6636
   24TCq2    H3  378   3.277   1.829  14.535 -3.5770 -2.4368  2.0487
   24TCq2    H4  379   3.345   1.462  14.711  1.6879 -0.5129  1.1284
   25TMC2    C1  380   2.166   4.564  11.655 -0.2079 -1.0830  0.1907
   25TMC2    C2  381   2.253   4.667  11.680  0.3876 -0.3374 -0.2151
   25TMC2    C3  382   2.225   0.024  11.786  0.3989  0.1873 -0.1804
   25TMC2    C4  383   2.062   4.537  11.738  0.3762 -0.4190 -0.0693
   25TMC2    C5  384   2.040   4.631  11.840  0.3553 -0.1050  0.2847
   25TMC2    C6  385   2.131   4.720  11.880  0.4503 -0.3169 -0.3620
   25TMC2     C  386   2.226   4.463  11.570 -0.5621 -0.2624  0.5314
   25TMC2     O  387   2.334   4.493  11.524 -0.1162 -0.6861 -0.2908
   25TMC2     H  388   2.324   4.697  11.604  0.6713  1.6370  0.8118
   25TMC2    H1  389   2.007   4.443  11.740  1.4347 -1.0375  0.2752
   25TMC2    H2  390   2.118   0.068  11.959 -0.0700  2.9739 -3.4574
   25TMC2    C7  391   1.941   4.593  11.941 -0.1486  0.2686 -0.2410
   25TMC2    C8  392   2.335   0.112  11.821  1.0201  0.2592 -0.2312
   25TMC2    O1  393   1.980   4.608  12.059 -0.1535  0.3301 -0.1125
   25TMC2    O2  394   2.401   0.173  11.734  0.6381  0.2099  0.0239
   25TMC2    O5  395   2.393   0.063  11.933  0.7682 -0.1307  0.3306
   25TMC2    H5  396   2.357   4.703  11.966  0.5800 -0.0588  0.3134
   26MPD2     C  397   2.174   4.060  11.257  0.1273 -0.2082  0.6116
   26MPD2    C1  398   2.069   4.060  11.345 -1.3177 -0.5425 -0.2278
   26MPD2    C2  399   2.054   4.160  11.435 -0.3404 -0.3328 -0.1596
   26MPD2    C3  400   2.155   4.255  11.451 -0.2807 -0.0533 -0.4191
   26MPD2    C4  401   2.270   4.246  11.372  0.3801  0.4228  0.2975
   26MPD2    C5  402   2.274   4.148  11.276  0.0638  1.0411 -0.0157
   26MPD2     H  403   1.964   4.170  11.495  0.9320  0.4849  1.6256
   26MPD2    H1  404   2.343   4.326  11.377 -0.8105  1.5750 -0.8567
   26MPD2    H2  405   2.184   3.969  11.199  0.9657 -0.4254  1.0877
   26MPD2    H3  406   2.355   4.142  11.204 -2.1445 -2.4262 -2.2420
   26MPD2     N  407   2.137   4.363  11.538 -0.8650  0.7558  0.3123
   26MPD2    H5  408   2.045   4.368  11.579 -0.5314  3.3660  0.7163
   26MPD2    N1  409   1.970   3.965  11.326 -0.0717 -0.3836 -0.3171
   26MPD2    H7  410   1.975   3.904  11.245 -0.0337 -0.4792 -0.2429
   27TMC2    C1  411   1.344   1.724  12.692 -0.2474  0.0559  0.2255
   27TMC2    C2  412   1.273   1.824  12.631 -0.2921  0.0958  0.2264
   27TMC2    C3  413   1.345   1.929  12.593  0.2824  0.5511 -0.4440
   27TMC2    C4  414   1.477   1.732  12.723  0.2475 -0.2375 -0.7351
   27TMC2    C5  415   1.540   1.847  12.691 -0.4868  1.1249 -0.6754
   27TMC2    C6  416   1.475   1.949  12.635 -0.3414 -0.0237  0.0349
   27TMC2     C  417   1.277   1.597  12.691 -1.0378  0.2388  0.0773
   27TMC2     O  418   1.340   1.501  12.730 -0.1510  0.6198 -0.0576
   27TMC2     H  419   1.169   1.813  12.603  0.2235 -2.2362 -0.7762
   27TMC2    H1  420   1.528   1.652  12.775  0.0674  1.6165  2.2457
   27TMC2    H2  421   1.524   2.035  12.591 -0.5205  1.2037  2.2080
   27TMC2    C7  422   1.636   1.901  12.788  0.1899 -0.1752 -0.6278
   27TMC2    C8  423   1.298   2.028  12.501  0.1268 -0.8929 -0.0473
   27TMC2    O1  424   1.678   2.016  12.775 -0.5540 -0.1093  0.6782
   27TMC2    O2  425   1.357   2.095  12.417  0.3942  0.2533 -0.0567
   27TMC2    O5  426   1.170   2.044  12.536  0.5646  0.2459  0.0419
   27TMC2    H5  427   1.149   2.017  12.628 -0.9895  1.9226  0.1596
   28MPD2     C  428   0.918   1.247  12.718 -0.2105  0.7528 -0.4549
   28MPD2    C1  429   0.873   1.364  12.771 -0.0770  0.3013  0.4246
   28MPD2    C2  430   0.939   1.483  12.751  0.1380 -0.3082 -1.0684
   28MPD2    C3  431   1.066   1.475  12.689  0.2902  0.3670  0.1244
   28MPD2    C4  432   1.115   1.356  12.636 -0.2815 -0.4995 -0.0505
   28MPD2    C5  433   1.034   1.246  12.644 -0.1969 -0.0213 -0.2940
   28MPD2     H  434   0.904   1.582  12.774 -0.3247 -0.8190  0.4218
   28MPD2    H1  435   1.200   1.359  12.567 -1.5235  1.8600 -1.4915
   28MPD2    H2  436   0.874   1.148  12.727  0.5515  0.2299 -2.5028
   28MPD2    H3  437   1.066   1.162  12.585  0.8985 -0.9712  1.6766
   28MPD2     N  438   1.140   1.596  12.686 -0.7466  0.4391  0.1425
   28MPD2    H5  439   1.092   1.682  12.711  0.1861  0.6281  1.2530
   28MPD2    N1  440   0.748   1.346  12.832 -0.3273 -0.1718 -0.6649
   28MPD2    H7  441   0.711   1.251  12.836 -2.4637  0.6823 -0.2011
   29MPD2     C  442   0.374   3.297  14.160  0.3030  0.7504 -0.1880
   29MPD2    C1  443   0.493   3.311  14.223  0.3496 -0.5056 -0.4464
   29MPD2    C2  444   0.506   3.425  14.294 -0.1394 -0.3171  0.5009
   29MPD2    C3  445   0.400   3.521  14.299 -0.4486 -0.3623  0.0759
   29MPD2    C4  446   0.275   3.490  14.253  0.0829  0.1633 -0.2128
   29MPD2    C5  447   0.266   3.376  14.185 -0.2911  0.4767 -0.1044
   29MPD2     H  448   0.607   3.440  14.331  0.0339 -1.9544  0.6820
   29MPD2    H1  449   0.193   3.561  14.258 -1.1860 -1.3592  0.6033
   29MPD2    H2  450   0.347   3.206  14.107 -1.2906  0.0855  1.7570
   29MPD2    H3  451   0.175   3.350  14.131  0.5850 -1.1621 -0.8001
   29MPD2     N  452   0.417   3.648  14.363 -0.5406  0.2621  0.2849
   29MPD2    H5  453   0.337   3.710  14.371  0.1001  1.1062  0.1202
   29MPD2    N1  454   0.585   3.207  14.215  0.0054  0.4277 -0.1530
   29MPD2    H7  455   0.648   3.201  14.295 -0.1879 -0.1992 -0.0440
   30TCq2    C1  456   0.530   3.694  14.436 -0.4242 -0.1692  0.1039
   30TCq2    O2  457   0.642   3.644  14.448 -0.2398  0.1556 -0.3039
   30TCq2    C2  458   0.497   3.823  14.480 -0.2620 -0.8783  0.7629
   30TCq2    C3  459   0.363   3.842  14.505  0.1590 -0.0237  0.4826
   30TCq2    C4  460   0.313   3.967  14.482  0.4421  0.2158 -0.0590
   30TCq2    C5  461   0.400   4.062  14.436  0.4520  0.1438 -0.6836
   30TCq2    C6  462   0.533   4.047  14.419  0.2968 -0.6626  0.2546
   30TCq2    C7  463   0.583   3.917  14.435  1.1023  1.5893  0.1159
   30TCq2    C8  464   0.629   4.156  14.392  0.2382 -0.5708  0.0066
   30TCq2    O4  465   0.747   4.132  14.419  0.0152  0.2993 -0.2501
   30TCq2    C9  466   0.175   4.001  14.513  0.1033 -0.1285  0.6050
   30TCq2    O5  467   0.092   3.906  14.548 -0.1402 -0.3205  0.3775
   30TCq2    O6  468   0.137   4.117  14.499  0.2538 -0.4500 -0.3748
   30TCq2    H2  469   0.299   3.762  14.540  2.0158 -1.2543  1.1071
   30TCq2    H3  470   0.364   4.164  14.428 -2.1058 -0.7377 -0.4845
   30TCq2    H4  471   0.685   3.891  14.410  0.5727 -1.0216  0.6950
   31MPD2     C  472   2.648   2.461  14.889  0.9540  0.2392  0.4173
   31MPD2    C1  473   2.775   2.512  14.889 -0.7529  0.6834  0.5252
   31MPD2    C2  474   2.871   2.458  14.977 -0.0764  0.3683 -0.5379
   31MPD2    C3  475   2.845   2.340  15.048  0.1615  0.1281 -0.2271
   31MPD2    C4  476   2.721   2.281  15.030 -0.5803 -0.0992  0.1795
   31MPD2    C5  477   2.625   2.343  14.960 -0.2632  0.3962 -0.3352
   31MPD2     H  478   2.967   2.508  14.980  0.9041 -1.5576  0.6300
   31MPD2    H1  479   2.689   2.191  15.081 -0.4635  1.1898  2.5134
   31MPD2    H2  480   2.570   2.502  14.825 -1.8727 -2.3349  2.1625
   31MPD2    H3  481   2.523   2.306  14.957 -0.6404  1.4090  0.0342
   31MPD2     N  482   2.940   2.264  15.118  0.2457  0.2069 -0.0058
   31MPD2    H5  483   2.911   2.171  15.147  0.7964  0.2059  0.5562
   31MPD2    N1  484   2.803   2.612  14.788 -0.4074  0.0131 -0.5599
   31MPD2    H7  485   2.718   2.646  14.744  0.4155  1.4199 -1.0786
   32TCq2    C1  486   3.074   2.287  15.105 -0.2005  0.2333 -0.1381
   32TCq2    O2  487   3.137   2.372  15.039 -0.3068 -0.3111  0.4789
   32TCq2    C2  488   3.143   2.169  15.154 -0.2888 -0.1200  0.6855
   32TCq2    C3  489   3.267   2.154  15.091 -0.0386 -0.5800 -0.0535
   32TCq2    C4  490   3.346   2.048  15.125 -0.1229 -0.2049 -0.0146
   32TCq2    C5  491   3.318   1.974  15.234  0.2204 -0.6250  0.4193
   32TCq2    C6  492   3.211   2.006  15.310 -0.5349  0.0333  0.4767
   32TCq2    C7  493   3.115   2.098  15.266 -0.2010 -0.0547 -0.3003
   32TCq2    C8  494   3.219   1.950  15.448  0.1923 -0.0338  0.7228
   32TCq2    O4  495   3.284   1.847  15.461  0.1576 -0.0334 -0.4170
   32TCq2    C9  496   3.462   2.033  15.048  0.0041 -0.1224  0.5971
   32TCq2    O5  497   3.462   2.105  14.941 -0.1459  0.2557 -0.0819
   32TCq2    O6  498   3.556   1.967  15.096  0.1311 -0.4133  0.2029
   32TCq2    H2  499   3.288   2.218  15.006  2.2774 -1.5245 -0.2051
   32TCq2    H3  500   3.393   1.899  15.258  1.2925  1.4370  3.5934
   32TCq2    H4  501   3.020   2.093  15.318  0.2736 -3.6866  0.2343
   33MPD2     C  502   3.897   0.611  10.411  0.3384 -0.6749  0.0622
   33MPD2    C1  503   3.990   0.512  10.358  0.2880 -0.3924  0.2968
   33MPD2    C2  504   4.050   0.548  10.239  0.0231 -0.1607 -0.3916
   33MPD2    C3  505   4.035   0.668  10.177 -0.5050 -0.5890  0.0030
   33MPD2    C4  506   3.950   0.761  10.234 -0.3028 -0.2721 -0.4988
   33MPD2    C5  507   3.890   0.739  10.355 -0.4823  0.1638  0.7015
   33MPD2     H  508   4.117   0.475  10.194  0.0806 -0.6159  0.4421
   33MPD2    H1  509   3.953   0.859  10.188 -2.3594  0.9106  1.9029
   33MPD2    H2  510   3.838   0.589  10.499 -1.3138  0.2434 -0.8026
   33MPD2    H3  511   3.819   0.808  10.398 -1.0969 -0.8667  1.3440
   33MPD2     N  512   4.090   0.685  10.045  1.1106 -0.2108  0.2310
   33MPD2    H5  513   4.154   0.613  10.014 -0.1042 -2.1826  2.3363
   33MPD2    N1  514   4.004   0.389  10.433  0.2378 -0.0239  0.6662
   33MPD2    H7  515   3.955   0.389  10.522 -1.3716 -0.7101 -0.2080
   34TCq2    C1  516   4.098   0.797   9.962  0.4102 -0.2529 -0.3898
   34TCq2    O2  517   4.052   0.910   9.985  0.0216  0.5699 -0.7547
   34TCq2    C2  518   4.137   0.768   9.830 -1.4363  0.3989 -0.8648
   34TCq2    C3  519   4.054   0.667   9.779  0.6030  0.0270  0.6931
   34TCq2    C4  520   4.018   0.669   9.645  0.3751 -0.2522 -0.4965
   34TCq2    C5  521   4.063   0.777   9.573 -0.3456  0.2305 -0.1265
   34TCq2    C6  522   4.148   0.874   9.623 -0.2162 -0.2381 -0.1767
   34TCq2    C7  523   4.170   0.875   9.755  0.2411 -0.3058  0.3254
   34TCq2    C8  524   4.221   0.950   9.521  0.1149  0.3031 -0.4108
   34TCq2    O4  525   4.170   0.958   9.410  0.3197  0.1680  0.0260
   34TCq2    C9  526   3.932   0.582   9.582  0.0273  0.2478 -0.7302
   34TCq2    O5  527   3.944   0.569   9.456 -0.0050 -0.5859  0.2677
   34TCq2    O6  528   3.862   0.514   9.657 -0.6021 -0.1444  0.0238
   34TCq2    H2  529   4.023   0.580   9.836 -1.1386  1.7788  2.4586
   34TCq2    H3  530   4.041   0.782   9.467 -3.1330 -0.0734  0.4488
   34TCq2    H4  531   4.225   0.954   9.804 -0.5141  1.1922 -1.2568
   35MPD2     C  532   0.269   2.272  11.894  0.1040 -0.9251 -0.4135
   35MPD2    C1  533   0.252   2.160  11.976  0.7493 -0.1925  0.0221
   35MPD2    C2  534   0.201   2.043  11.921 -0.4910  0.2649 -0.9631
   35MPD2    C3  535   0.155   2.040  11.791  0.7636 -0.7556 -0.4098
   35MPD2    C4  536   0.170   2.154  11.716 -0.1784  0.2207  0.6582
   35MPD2    C5  537   0.227   2.265  11.765 -0.6271 -0.0554  1.0498
   35MPD2     H  538   0.189   1.959  11.988 -0.0757  0.4741 -0.6217
   35MPD2    H1  539   0.129   2.155  11.615  4.6725  2.1752 -1.2786
   35MPD2    H2  540   0.313   2.363  11.933  0.2163 -0.6472 -1.2046
   35MPD2    H3  541   0.247   2.352  11.703 -1.9419  0.8451  1.9077
   35MPD2     N  542   0.093   1.927  11.744 -0.4652  0.1118 -0.2088
   35MPD2    H5  543   0.077   1.855  11.814 -0.2564 -0.5471 -0.8448
   35MPD2    N1  544   0.293   2.155  12.111 -0.5507  0.1654  0.3866
   35MPD2    H7  545   0.313   2.244  12.155 -1.3622  0.4307  0.2034
   36TCq2    C1  546   0.047   1.905  11.614 -0.3423 -0.4717 -0.0358
   36TCq2    O2  547   0.066   1.972  11.511 -0.0834 -0.1703  0.3077
   36TCq2    C2  548   4.696   1.785  11.594  0.2429 -0.3722  0.4422
   36TCq2    C3  549   4.599   1.783  11.492 -0.4604 -0.1336  0.2525
   36TCq2    C4  550   4.499   1.685  11.495  0.6566 -0.3149 -0.7215
   36TCq2    C5  551   4.509   1.582  11.590  0.8219  0.3752 -0.0659
   36TCq2    C6  552   4.608   1.590  11.678  0.4625 -0.0469  0.1986
   36TCq2    C7  553   4.707   1.686  11.680  0.5927 -0.9714 -0.1395
   36TCq2    C8  554   4.644   1.464  11.749 -0.2723 -0.5902  0.0861
   36TCq2    O4  555   4.555   1.380  11.766 -0.0392 -0.1878 -0.0740
   36TCq2    C9  556   4.383   1.688  11.404 -0.4545 -0.0104 -0.3553
   36TCq2    O5  557   4.314   1.581  11.402  0.4902  0.1106  0.1923
   36TCq2    O6  558   4.360   1.796  11.347  0.1556  0.0964  0.3602
   36TCq2    H2  559   4.588   1.859  11.416 -0.5077 -0.7840 -0.4009
   36TCq2    H3  560   4.429   1.509  11.597  2.3181 -1.0843  1.9951
   36TCq2    H4  561   0.063   1.694  11.752  0.3022 -1.0431  0.1992
   37TMC2    C1  562   2.171   1.621  12.453  0.2517 -0.3244 -0.0534
   37TMC2    C2  563   2.062   1.683  12.494 -0.3368  0.0440  0.2507
   37TMC2    C3  564   2.023   1.782  12.399  0.1804  0.2543 -0.0967
   37TMC2    C4  565   2.237   1.634  12.338  0.1681 -0.0996 -0.3694
   37TMC2    C5  566   2.190   1.722  12.243 -0.3549 -0.2012  0.3191
   37TMC2    C6  567   2.083   1.799  12.273 -0.1662 -0.5598 -0.2889
   37TMC2     C  568   2.234   1.542  12.559 -0.1305 -0.1399 -0.7562
   37TMC2     O  569   2.164   1.486  12.647 -0.0611  0.2528 -0.1543
   37TMC2     H  570   2.037   1.678  12.599  1.5288  1.8749  0.7805
   37TMC2    H1  571   2.314   1.562  12.309  0.8562  0.5920 -0.2463
   37TMC2    H2  572   2.040   1.881  12.216 -0.2278  0.1476  0.7695
   37TMC2    C7  573   2.286   1.754  12.143  0.3421 -0.4629 -0.6707
   37TMC2    C8  574   1.885   1.845  12.419 -0.4256 -0.0341  0.1537
   37TMC2    O1  575   2.396   1.702  12.154 -0.5320 -0.4321 -0.9803
   37TMC2    O2  576   1.846   1.886  12.310  0.2240 -0.0357 -0.3311
   37TMC2    O5  577   1.810   1.777  12.507  0.2238  0.3085 -0.3595
   37TMC2    H5  578   1.866   1.750  12.582  1.2905 -0.0354 -1.2694
   38MPD2     C  579   2.663   1.347  12.782 -0.4680  0.3651 -0.3853
   38MPD2    C1  580   2.693   1.398  12.661  0.3945 -0.3243 -0.5763
   38MPD2    C2  581   2.596   1.468  12.586  0.0298 -0.0205  0.1707
   38MPD2    C3  582   2.464   1.475  12.629  0.1676 -0.3737 -0.5153
   38MPD2    C4  583   2.438   1.422  12.754  0.2320  0.5453 -0.4943
   38MPD2    C5  584   2.532   1.356  12.828  0.0266 -0.1806  0.5361
   38MPD2     H  585   2.623   1.511  12.490  1.5484  0.2877  0.7382
   38MPD2    H1  586   2.336   1.416  12.789  0.8626  2.9307  1.7595
   38MPD2    H2  587   2.738   1.297  12.842 -1.4986  0.7605  1.2270
   38MPD2    H3  588   2.511   1.309  12.923  2.1230  0.8057  1.4785
   38MPD2     N  589   2.366   1.528  12.543 -0.0250 -0.4471 -0.0528
   38MPD2    H5  590   2.399   1.572  12.458  0.6326 -0.2317  0.3092
   38MPD2    N1  591   2.815   1.391  12.601  0.0911 -0.2065  0.1041
   38MPD2    H7  592   2.821   1.407  12.501  2.0683 -2.1580 -0.1097
   39MPD2     C  593   0.234   3.433   1.618  0.2566  0.0023  0.0781
   39MPD2    C1  594   0.203   3.563   1.657  0.2543 -0.0044  0.4963
   39MPD2    C2  595   0.095   3.623   1.605 -0.0504  0.2024  0.3638
   39MPD2    C3  596   0.011   3.550   1.517 -0.1804 -0.5625 -0.6482
   39MPD2    C4  597   0.042   3.422   1.488 -0.2287  0.4992  0.6067
   39MPD2    C5  598   0.160   3.363   1.531 -0.7367 -0.1004  0.0982
   39MPD2     H  599   0.071   3.727   1.622 -0.1713 -0.3499  3.6654
   39MPD2    H1  600   4.714   3.358   1.417 -1.3811  0.1746  1.7649
   39MPD2    H2  601   0.324   3.383   1.651  0.5810  0.6713  0.2101
   39MPD2    H3  602   0.184   3.261   1.503 -0.5779 -0.6513  2.2203
   39MPD2     N  603   4.621   3.597   1.448 -0.1444 -0.0035 -0.0101
   39MPD2    H5  604   4.567   3.535   1.388  0.5512  0.5680 -1.2395
   39MPD2    N1  605   0.290   3.618   1.749 -0.5812 -0.2755  0.0093
   39MPD2    H7  606   0.365   3.558   1.782 -1.2858 -0.5627  1.0787
   40TCq2    C1  607   0.280   3.744   1.809  0.2278  0.0814 -0.1120
   40TCq2    O2  608   0.190   3.827   1.790  0.3066 -0.6627 -0.1091
   40TCq2    C2  609   0.382   3.783   1.898 -0.2813  0.3234 -0.2513
   40TCq2    C3  610   0.448   3.676   1.948 -0.6532 -0.9220 -0.2593
   40TCq2    C4  611   0.497   3.678   2.076 -0.6523 -0.2559 -0.6377
   40TCq2    C5  612   0.482   3.784   2.153 -0.2167  1.2175 -0.2254
   40TCq2    C6  613   0.411   3.894   2.110  0.0461 -0.4681  0.5002
   40TCq2    C7  614   0.364   3.890   1.982  0.1092  0.3176 -0.3065
   40TCq2    C8  615   0.409   4.012   2.191 -0.3788  0.1573  0.6083
   40TCq2    O4  616   0.412   3.997   2.314 -0.0690 -0.4889 -0.0514
   40TCq2    C9  617   0.573   3.562   2.125 -0.3683  0.0276 -0.3790
   40TCq2    O5  618   0.639   3.583   2.227  0.1460 -0.1065 -0.2203
   40TCq2    O6  619   0.593   3.469   2.043 -0.4522 -0.3838 -0.0322
   40TCq2    H2  620   0.465   3.587   1.887 -0.2626 -0.8683 -0.2277
   40TCq2    H3  621   0.510   3.792   2.258 -1.6832  0.8844  0.1919
   40TCq2    H4  622   0.306   3.974   1.945 -0.7557  0.9130  2.4148
   41TMC2    C1  623   4.201   1.679  13.336  0.1531 -0.2021  0.1223
   41TMC2    C2  624   4.096   1.731  13.404 -0.3522 -0.2624 -0.6113
   41TMC2    C3  625   4.043   1.845  13.351  0.4003  0.4861 -0.4447
   41TMC2    C4  626   4.245   1.726  13.213  1.0266 -0.2798 -0.1371
   41TMC2    C5  627   4.179   1.841  13.163 -0.1413 -0.5389  0.6639
   41TMC2    C6  628   4.079   1.902  13.228 -0.1021  0.1398 -0.1529
   41TMC2     C  629   4.267   1.553  13.370  0.0275  0.3158  0.0054
   41TMC2     O  630   4.335   1.503  13.282  0.3344  0.1133 -0.0030
   41TMC2     H  631   4.068   1.705  13.506  0.1031  1.4454 -0.0618
   41TMC2    H1  632   4.336   1.689  13.166 -0.6531 -3.1641 -1.1181
   41TMC2    H2  633   4.034   1.992  13.188 -0.1838  0.1053 -0.1394
   41TMC2    C7  634   4.251   1.913  13.058  0.6855 -0.3387  0.1303
   41TMC2    C8  635   3.933   1.903  13.430  0.1322  0.7263 -0.0231
   41TMC2    O1  636   4.237   2.036  13.047  0.2916 -0.1109  0.1395
   41TMC2    O2  637   3.920   1.895  13.549  0.3423 -0.0073 -0.0458
   41TMC2    O5  638   3.833   1.882  13.351  0.2429  0.4236 -0.4614
   41TMC2    H5  639   3.849   1.850  13.259 -1.5634  0.5218 -0.8014
   42MPD2     C  640   4.370   1.295  13.497  0.3748  0.4508  0.4324
   42MPD2    C1  641   4.294   1.393  13.558  0.7006 -0.3882  0.5913
   42MPD2    C2  642   4.260   1.377  13.693 -0.0338 -0.5853 -0.1940
   42MPD2    C3  643   4.308   1.266  13.763 -0.5881 -0.8106 -0.0047
   42MPD2    C4  644   4.386   1.173  13.701  0.1369  0.1693  0.1258
   42MPD2    C5  645   4.422   1.203  13.575  0.0573 -0.7578  0.4502
   42MPD2     H  646   4.198   1.449  13.745  0.8167 -0.1951  0.2867
   42MPD2    H1  647   4.417   1.082  13.752  0.0569  0.1840  0.2011
   42MPD2    H2  648   4.408   1.299  13.395 -1.0436  0.7023 -0.0783
   42MPD2    H3  649   4.482   1.133  13.519 -2.5821 -4.1630  1.9039
   42MPD2     N  650   4.285   1.242  13.902 -0.1759  0.0495 -0.3348
   42MPD2    H5  651   4.328   1.161  13.947 -0.3553  0.7827  1.1475
   42MPD2    N1  652   4.237   1.505  13.499 -0.7096 -0.0921  0.3592
   42MPD2    H7  653   4.176   1.566  13.552  0.1238 -1.2310  2.6645
   43MPD2     C  654   0.329   0.054   0.857  0.1174  0.6191 -0.2157
   43MPD2    C1  655   0.455   0.095   0.870  0.2964  0.5256 -0.4606
   43MPD2    C2  656   0.483   0.197   0.962 -0.5560  0.1286 -0.0912
   43MPD2    C3  657   0.387   0.249   1.045 -0.1707  0.5367  0.4864
   43MPD2    C4  658   0.256   0.204   1.032  0.3474  0.2519  0.2255
   43MPD2    C5  659   0.234   0.110   0.940 -0.3987 -0.1369 -0.0246
   43MPD2     H  660   0.588   0.216   0.981 -0.6843  2.0603 -1.2604
   43MPD2    H1  661   0.183   0.249   1.098 -2.2781 -3.2094 -0.3238
   43MPD2    H2  662   0.294   4.711   0.781 -1.0380  2.0545 -0.9579
   43MPD2    H3  663   0.131   0.081   0.921 -0.0074 -1.6346  0.1110
   43MPD2     N  664   0.420   0.352   1.146  0.3367  0.6087  0.3672
   43MPD2    H5  665   0.338   0.381   1.199 -0.4051  1.6066 -1.3232
   43MPD2    N1  666   0.561   0.039   0.797 -0.5182  0.4925 -0.2309
   43MPD2    H7  667   0.655   0.070   0.822  0.0005  0.8016 -2.5601
   44TCq2    C1  668   0.673   0.853   1.252  0.0824 -0.4600  0.2998
   44TCq2    O2  669   0.761   0.810   1.180  0.0049 -0.1865  0.1683
   44TCq2    C2  670   0.560   0.753   1.264 -0.9006  0.1077  0.0964
   44TCq2    C3  671   0.482   0.753   1.377 -0.2436  0.6677 -0.5089
   44TCq2    C4  672   0.425   0.640   1.424  0.0223 -0.6362  0.4835
   44TCq2    C5  673   0.445   0.527   1.351  0.5029  0.1715 -0.3118
   44TCq2    C6  674   0.534   0.530   1.246  0.6151  0.4916 -0.0712
   44TCq2    C7  675   0.601   0.639   1.202  0.1714 -0.7121  0.0991
   44TCq2    C8  676   0.536   0.422   1.146  0.1643 -0.3069  0.8865
   44TCq2    O4  677   0.622   0.426   1.060 -0.1508  0.0855  0.1181
   44TCq2    C9  678   0.352   0.642   1.548  0.0639 -0.5764  0.2369
   44TCq2    O5  679   0.276   0.543   1.572 -0.0269 -0.1950 -0.8080
   44TCq2    O6  680   0.358   0.749   1.614 -0.0950 -0.0273  0.0393
   44TCq2    H2  681   0.455   0.842   1.433  0.0555  0.9233 -0.7684
   44TCq2    H3  682   0.394   0.436   1.382  1.2561  0.4856  1.8095
   44TCq2    H4  683   0.649   0.643   1.105 -0.0379  2.6787  0.1187
   45TMC2    C1  684   1.790   2.003   9.820  0.9266  0.0815 -0.4585
   45TMC2    C2  685   1.918   2.008   9.774  0.4638  0.0978  0.1115
   45TMC2    C3  686   1.993   2.119   9.812  0.5623  0.2301 -0.1276
   45TMC2    C4  687   1.731   2.101   9.891  0.4349 -0.3717  0.2630
   45TMC2    C5  688   1.812   2.199   9.936  0.3287 -0.3989  1.0227
   45TMC2    C6  689   1.940   2.216   9.893  0.3525 -0.4683 -0.0621
   45TMC2     C  690   1.729   1.872   9.825  0.6731 -0.0745 -0.7135
   45TMC2     O  691   1.610   1.868   9.806 -0.2963 -0.0193 -0.1449
   45TMC2     H  692   1.968   1.930   9.719  2.5036  0.7697  1.0060
   45TMC2    H1  693   1.628   2.093   9.926  0.8217 -1.0431  1.2510
   45TMC2    H2  694   1.996   2.302   9.928  0.2862 -1.4888  2.5732
   45TMC2    C7  695   1.757   2.318  10.000 -0.2579  0.6198  1.1247
   45TMC2    C8  696   2.133   2.094   9.796  0.0320  0.6054  0.0966
   45TMC2    O1  697   1.826   2.397  10.061  0.0210 -0.0250  0.8483
   45TMC2    O2  698   2.176   1.979   9.788  0.0292  0.3007  0.2343
   45TMC2    O5  699   2.192   2.214   9.762 -0.4252  0.0762  0.6906
   45TMC2    H5  700   2.129   2.288   9.751  1.3212  1.4380 -0.1675
   46MPD2     C  701   1.863   1.564   9.951 -0.0653  0.0360 -0.1624
   46MPD2    C1  702   1.772   1.639   9.883  0.6804 -0.3337 -0.6092
   46MPD2    C2  703   1.669   1.577   9.812  0.2989  0.3597 -0.4592
   46MPD2    C3  704   1.638   1.447   9.836  0.6557 -0.2435  0.2248
   46MPD2    C4  705   1.713   1.377   9.929 -0.1478  0.1399 -0.6565
   46MPD2    C5  706   1.829   1.433   9.969 -0.1708  0.4692  0.2008
   46MPD2     H  707   1.614   1.629   9.735  2.2817  3.2714  0.1210
   46MPD2    H1  708   1.681   1.283   9.971  1.1192  0.1874  0.4091
   46MPD2    H2  709   1.958   1.607   9.980  0.5003 -0.9772 -0.5130
   46MPD2    H3  710   1.903   1.366  10.012  0.3641 -0.9910 -3.0017
   46MPD2     N  711   1.516   1.401   9.792 -1.0448  0.1358  0.1893
   46MPD2    H5  712   1.449   1.462   9.746 -1.1938  0.4478  0.8172
   46MPD2    N1  713   1.817   1.773   9.864  0.0448  0.0594 -0.2368
   46MPD2    H7  714   1.905   1.799   9.907  0.1268 -0.8767  0.1442
   47TMC2    C1  715   3.989   2.762   9.269 -0.4910 -0.3860 -0.3115
   47TMC2    C2  716   4.034   2.650   9.191  0.3253  0.9300  0.2327
   47TMC2    C3  717   3.933   2.568   9.154 -0.5577 -0.3806 -0.6521
   47TMC2    C4  718   3.861   2.802   9.275 -0.4675 -0.7311  1.0612
   47TMC2    C5  719   3.768   2.727   9.212 -0.5267  0.8330  0.4330
   47TMC2    C6  720   3.803   2.602   9.158  0.5911  0.0204 -0.1168
   47TMC2     C  721   4.081   2.851   9.337 -0.6259 -0.2079  0.1993
   47TMC2     O  722   4.036   2.942   9.401 -0.5943  0.0080  0.0245
   47TMC2     H  723   4.137   2.621   9.175 -0.1659 -0.9956  0.4826
   47TMC2    H1  724   3.839   2.882   9.344 -0.4661  1.8819 -1.9832
   47TMC2    H2  725   3.720   2.548   9.114 -0.1265  0.4339  0.7196
   47TMC2    C7  726   3.625   2.750   9.234 -0.6213  1.1418 -0.3877
   47TMC2    C8  727   3.958   2.436   9.102  0.9642 -0.2143  0.6481
   47TMC2    O1  728   3.552   2.659   9.187 -0.5502  0.2018 -0.2503
   47TMC2    O2  729   3.874   2.373   9.033  0.4002  0.0911  0.2286
   47TMC2    O5  730   4.040   2.376   9.182  0.5065 -0.1522  0.1988
   47TMC2    H5  731   4.093   2.435   9.240 -0.4890  1.7966 -0.8555
   48MPD2     C  732   4.308   2.966   9.506  1.0883  0.6523  0.6315
   48MPD2    C1  733   4.317   2.848   9.432  0.6097  1.1075 -0.4221
   48MPD2    C2  734   4.439   2.771   9.449 -0.0562 -0.6155  0.0681
   48MPD2    C3  735   4.547   2.823   9.520  0.4015  0.3782 -0.1127
   48MPD2    C4  736   4.531   2.949   9.583 -0.6459  0.3567 -0.9491
   48MPD2    C5  737   4.412   3.019   9.570  0.5044 -0.5297  0.2240
   48MPD2     H  738   4.439   2.669   9.412 -0.3751 -0.4957 -0.2515
   48MPD2    H1  739   4.608   2.998   9.642 -0.5704  0.7406 -1.3718
   48MPD2    H2  740   4.220   3.029   9.511  1.7462  1.6818 -0.8891
   48MPD2    H3  741   4.410   3.114   9.622  0.4503 -0.1817 -0.4157
   48MPD2     N  742   4.668   2.745   9.531 -0.1741  0.5963 -0.0788
   48MPD2    H5  743   4.680   2.670   9.464 -0.6096  0.5054 -0.0593
   48MPD2    N1  744   4.213   2.799   9.349  0.1437  0.0707 -0.2429
   48MPD2    H7  745   4.221   2.704   9.316 -0.8679 -0.2553  0.4562
   49MPD2     C  746   1.914   4.143  10.507  0.0990 -0.5087  0.4720
   49MPD2    C1  747   1.830   4.157  10.617 -0.5080 -0.1423 -0.3085
   49MPD2    C2  748   1.866   4.227  10.728 -0.6877  0.3028  0.0761
   49MPD2    C3  749   1.988   4.289  10.734  0.2053 -0.0669 -0.4778
   49MPD2    C4  750   2.073   4.272  10.634 -0.1864  0.6014 -0.4160
   49MPD2    C5  751   2.040   4.200  10.518 -0.6308 -0.6795  0.1657
   49MPD2     H  752   1.797   4.222  10.811  0.1317 -0.2173  0.7251
   49MPD2    H1  753   2.176   4.303  10.645  0.5972 -1.5298 -1.8210
   49MPD2    H2  754   1.907   4.078  10.421 -2.8763  0.2344  0.1438
   49MPD2    H3  755   2.115   4.191  10.439 -0.1902 -1.4999  0.6853
   49MPD2     N  756   2.029   4.358  10.847 -0.3085 -0.2495  0.6354
   49MPD2    H5  757   2.121   4.400  10.836 -0.9225  0.7060 -0.8441
   49MPD2    N1  758   1.711   4.084  10.626 -1.0946  0.6087 -0.0031
   49MPD2    H7  759   1.655   4.091  10.711  0.6342  1.5940  1.0811
   50TCq2    C1  760   1.649   4.028  10.521 -0.5812  0.0691 -0.6268
   50TCq2    O2  761   1.679   4.032  10.405  0.6292  0.0985  0.0399
   50TCq2    C2  762   1.533   3.946  10.568  0.2630 -0.4107 -0.7515
   50TCq2    C3  763   1.458   3.898  10.466 -0.6146 -0.7532 -0.1604
   50TCq2    C4  764   1.352   3.822  10.498  0.3091  1.0220 -0.2982
   50TCq2    C5  765   1.319   3.800  10.628  0.9303  0.5236  0.3859
   50TCq2    C6  766   1.396   3.852  10.727 -0.1054 -0.1973 -0.2750
   50TCq2    C7  767   1.511   3.923  10.697 -0.5150 -0.3487  0.1499
   50TCq2    C8  768   1.359   3.834  10.868  0.8554 -0.5023  0.0235
   50TCq2    O4  769   1.283   3.743  10.894 -0.7795  0.5246 -0.0017
   50TCq2    C9  770   1.280   3.768  10.385  0.3770 -0.5483 -0.9539
   50TCq2    O5  771   1.317   3.815  10.273 -0.0473 -0.0354 -0.7167
   50TCq2    O6  772   1.189   3.680  10.410  0.8037 -0.4754  0.4306
   50TCq2    H2  773   1.482   3.901  10.361  0.7748  1.8439  0.2118
   50TCq2    H3  774   1.225   3.750  10.649  3.2401 -2.7168  2.9442
   50TCq2    H4  775   1.588   3.949  10.769  0.9851  0.7735 -1.8742
   51MPD2     C  776   3.025   3.431   0.886 -0.9061 -0.9742  0.8156
   51MPD2    C1  777   3.025   3.296   0.900 -0.2555 -0.1377  0.1605
   51MPD2    C2  778   3.142   3.223   0.889  0.3641 -0.1573  0.0041
   51MPD2    C3  779   3.261   3.287   0.878 -0.4936  0.0021 -1.2138
   51MPD2    C4  780   3.257   3.423   0.877  0.0720 -0.7838  0.6132
   51MPD2    C5  781   3.141   3.492   0.870  0.3101  0.4708  0.0909
   51MPD2     H  782   3.132   3.115   0.885 -0.8351 -0.1100  1.8344
   51MPD2    H1  783   3.356   3.468   0.877  0.6612 -2.0894 -0.7896
   51MPD2    H2  784   2.938   3.494   0.866  1.0843  1.4550 -0.2030
   51MPD2    H3  785   3.138   3.600   0.860  1.4760  0.7602  2.7358
   51MPD2     N  786   3.380   3.219   0.895 -0.1464 -0.3867  0.4781
   51MPD2    H5  787   3.465   3.274   0.901  0.8142 -2.0351  1.4873
   51MPD2    N1  788   2.902   3.222   0.888 -0.4343 -0.0449 -0.0515
   51MPD2    H7  789   2.914   3.122   0.878 -1.0988 -0.1882  0.5929
   52TCq2    C1  790   3.396   3.085   0.900  0.3576 -0.4874 -0.1606
   52TCq2    O2  791   3.322   2.993   0.876  0.5213  0.5466  0.1019
   52TCq2    C2  792   3.543   3.056   0.921  0.1218 -0.2106 -0.4835
   52TCq2    C3  793   3.588   2.940   0.873  0.2633  0.3163 -0.2840
   52TCq2    C4  794   3.714   2.905   0.911  0.0760 -0.5262  0.2511
   52TCq2    C5  795   3.783   2.974   1.010  0.2296 -0.9073 -0.3884
   52TCq2    C6  796   3.726   3.089   1.063 -0.2188  0.6325 -0.5211
   52TCq2    C7  797   3.603   3.135   1.017 -0.4276 -1.0420  0.0650
   52TCq2    C8  798   3.788   3.162   1.168  0.4707 -0.4233  0.1316
   52TCq2    O4  799   3.735   3.262   1.218  0.1449  0.0094  0.1388
   52TCq2    C9  800   3.779   2.785   0.869  0.2836 -0.5046 -1.1900
   52TCq2    O5  801   3.885   2.747   0.922  0.2784  0.4467  0.4017
   52TCq2    O6  802   3.700   2.717   0.798 -0.0351 -0.4632  0.1233
   52TCq2    H2  803   3.538   2.883   0.796 -0.2641 -2.5128  2.1696
   52TCq2    H3  804   3.889   2.955   1.023  0.5576  0.5652 -0.9594
   52TCq2    H4  805   3.556   3.216   1.072  2.4840  1.8976 -1.7454
   53TMC2    C1  806   2.925   1.990  11.852 -0.1103  0.2213  0.5021
   53TMC2    C2  807   3.016   2.088  11.868 -0.2402 -0.2166  0.0212
   53TMC2    C3  808   3.108   2.075  11.969  0.0246  0.1116 -0.3181
   53TMC2    C4  809   2.938   1.873  11.921  0.2612  0.8252  0.1372
   53TMC2    C5  810   3.032   1.858  12.014 -0.3855 -0.5021 -0.6721
   53TMC2    C6  811   3.122   1.959  12.044 -1.2127  0.2200 -0.0933
   53TMC2     C  812   2.796   2.032  11.815  0.3996 -0.3541  0.0150
   53TMC2     O  813   2.771   2.133  11.752  0.1260 -0.7129 -0.7603
   53TMC2     H  814   2.991   2.181  11.817 -0.2521  0.0845  0.5725
   53TMC2    H1  815   2.876   1.786  11.903  3.0035 -1.0830 -0.0587
   53TMC2    H2  816   3.185   1.961  12.132  0.3603  0.8092 -1.2340
   53TMC2    C7  817   2.989   1.770  12.116 -0.2452 -0.4812 -0.6140
   53TMC2    C8  818   3.163   2.192  12.035  0.5942 -0.3361  0.7829
   53TMC2    O1  819   2.868   1.775  12.142  0.1327  0.3287  0.1438
   53TMC2    O2  820   3.202   2.194  12.150 -0.1706 -0.3326 -0.2592
   53TMC2    O5  821   3.199   2.283  11.940  0.3442  0.0999  0.1200
   53TMC2    H5  822   3.202   2.260  11.845 -3.4953  1.3019 -0.2882
   54MPD2     C  823   2.498   2.055  11.773 -0.1242 -0.3324  0.0085
   54MPD2    C1  824   2.561   1.970  11.868  0.4357  0.0269  0.7852
   54MPD2    C2  825   2.487   1.897  11.957 -0.3134  0.8394  0.0105
   54MPD2    C3  826   2.344   1.915  11.957 -0.0819  0.3514 -0.2459
   54MPD2    C4  827   2.285   2.008  11.874 -0.3039 -0.6995  0.0937
   54MPD2    C5  828   2.359   2.080  11.782  0.4001 -0.4297  0.5641
   54MPD2     H  829   2.536   1.822  12.017 -0.9850  0.4427  0.0639
   54MPD2    H1  830   2.180   2.030  11.888  0.2049  0.5416  1.8928
   54MPD2    H2  831   2.553   2.108  11.696  2.0713  1.1467  2.5520
   54MPD2    H3  832   2.320   2.148  11.707  1.2459  0.7714  1.2113
   54MPD2     N  833   2.253   1.860  12.053 -0.9014  0.0037 -0.2871
   54MPD2    H5  834   2.155   1.888  12.048 -1.8537 -3.4253 -1.1030
   54MPD2    N1  835   2.701   1.957  11.880 -0.3221  0.4339 -0.1738
   54MPD2    H7  836   2.728   1.893  11.954 -1.1102  2.0256  1.4814
   55MPD2     C  837   3.646   4.142   0.048  0.1518 -0.4685  0.1027
   55MPD2    C1  838   3.540   4.134   0.132 -0.8458 -0.1725 -0.5149
   55MPD2    C2  839   3.462   4.247   0.168 -0.8517 -0.1643 -0.1767
   55MPD2    C3  840   3.498   4.370   0.120  0.0776  0.2265  0.0456
   55MPD2    C4  841   3.600   4.375   0.030  0.2074  0.1564  0.1496
   55MPD2    C5  842   3.683   4.267   0.004  0.2120 -0.1251  0.5072
   55MPD2     H  843   3.374   4.240   0.230  0.7972  2.0948  2.4002
   55MPD2    H1  844   3.618   4.470  17.685  0.2022  0.6276  1.1015
   55MPD2    H2  845   3.702   4.054   0.018 -1.8552 -1.4602 -0.7447
   55MPD2    H3  846   3.759   4.265  17.629 -1.0602 -1.2417 -0.7289
   55MPD2     N  847   3.411   4.476   0.144 -0.1485 -0.2826 -0.0140
   55MPD2    H5  848   3.335   4.451   0.206 -1.6723 -0.6908 -2.0211
   55MPD2    N1  849   3.520   4.006   0.189 -0.2439 -0.3109 -0.3660
   55MPD2    H7  850   3.585   3.931   0.166  1.1459  0.3986  1.2291
   56TCq2    C1  851   3.426   3.960   0.275  0.5777 -0.0324  0.0774
   56TCq2    O2  852   3.335   4.026   0.319 -0.3376  0.8483  0.1321
   56TCq2    C2  853   3.449   3.828   0.326 -0.6762 -0.2012  0.8043
   56TCq2    C3  854   3.522   3.734   0.256  0.1325  0.0658 -0.1184
   56TCq2    C4  855   3.522   3.611   0.313 -0.2274  0.1432 -0.2238
   56TCq2    C5  856   3.469   3.584   0.439 -0.1497  0.7472  0.0245
   56TCq2    C6  857   3.419   3.687   0.515  0.6116  0.4890  0.8535
   56TCq2    C7  858   3.405   3.809   0.455  0.3104  0.4563 -0.2875
   56TCq2    C8  859   3.412   3.682   0.658 -0.4076  0.3499  0.3833
   56TCq2    O4  860   3.492   3.612   0.719  0.7624 -0.1220 -0.9619
   56TCq2    C9  861   3.590   3.498   0.251  1.0694  0.4318 -0.7427
   56TCq2    O5  862   3.577   3.388   0.317  0.1841 -0.6274  0.8921
   56TCq2    O6  863   3.582   3.494   0.124 -0.2580 -1.0207  0.1217
   56TCq2    H2  864   3.559   3.755   0.156  0.0659 -0.0732 -0.1719
   56TCq2    H3  865   3.478   3.488   0.490  1.2375  0.7832 -0.1578
   56TCq2    H4  866   3.370   3.894   0.512  0.6322  0.1193  0.4091
   57TMC2    C1  867   2.748   0.780  13.821  0.5022 -1.0038 -0.0276
   57TMC2    C2  868   2.798   0.760  13.952 -0.5704 -0.5512 -0.2249
   57TMC2    C3  869   2.909   0.690  13.964 -0.2767 -0.5258 -0.2489
   57TMC2    C4  870   2.821   0.752  13.706 -0.2632 -0.3544 -0.2282
   57TMC2    C5  871   2.937   0.688  13.731  0.1390 -0.3874 -0.6199
   57TMC2    C6  872   2.978   0.649  13.855 -0.1240 -0.0786 -0.2206
   57TMC2     C  873   2.600   0.765  13.814  0.2086 -0.4800  0.1081
   57TMC2     O  874   2.542   0.788  13.918 -0.3363 -0.4895  0.1396
   57TMC2     H  875   2.735   0.773  14.039  0.9631  0.0305  0.8100
   57TMC2    H1  876   2.786   0.762  13.604  1.2773  0.0209 -0.7200
   57TMC2    H2  877   3.060   0.580  13.868 -0.2892 -0.0148  1.1892
   57TMC2    C7  878   3.018   0.647  13.615 -0.3077 -0.2463 -0.0173
   57TMC2    C8  879   2.943   0.624  14.083 -0.1521  0.5556  0.5144
   57TMC2    O1  880   3.023   0.728  13.525 -0.0759  0.4344 -0.0708
   57TMC2    O2  881   2.968   0.504  14.086  0.9022  0.6481  0.3417
   57TMC2    O5  882   2.981   0.723  14.172  0.3755 -0.4876  0.0288
   57TMC2    H5  883   2.963   0.815  14.143 -0.5961 -0.1146  1.7788
   58MPD2     C  884   2.144   0.667  13.571 -0.4819  0.0711 -0.2419
   58MPD2    C1  885   2.172   0.705  13.705  0.0699  0.5328  0.2600
   58MPD2    C2  886   2.306   0.726  13.746  0.2458  0.3573  0.4067
   58MPD2    C3  887   2.412   0.703  13.658 -0.7601  0.0127 -0.2774
   58MPD2    C4  888   2.381   0.679  13.532 -0.3856 -0.6190  1.0278
   58MPD2    C5  889   2.252   0.654  13.486 -0.4006 -0.8376 -0.0862
   58MPD2     H  890   2.323   0.734  13.853 -1.6701 -0.0657  0.7456
   58MPD2    H1  891   2.454   0.646  13.458  0.6554  0.9839  1.3414
   58MPD2    H2  892   2.042   0.655  13.535 -0.0710 -0.2458 -1.2916
   58MPD2    H3  893   2.243   0.611  13.387 -2.0667 -1.8295  0.5064
   58MPD2     N  894   2.552   0.726  13.689 -0.0956  0.3103 -0.0011
   58MPD2    H5  895   2.623   0.706  13.619 -1.2705  1.3024 -1.4644
   58MPD2    N1  896   2.068   0.729  13.802  0.3342 -0.1279 -0.0464
   58MPD2    H7  897   2.098   0.769  13.890  2.0752 -1.3214 -0.1050
   59MPD2     C  898   0.383   0.783  12.801  0.0751 -0.9865  0.0220
   59MPD2    C1  899   0.515   0.809  12.750 -0.5539  0.1655  0.2536
   59MPD2    C2  900   0.622   0.802  12.835  0.3594  0.1114  0.3120
   59MPD2    C3  901   0.609   0.770  12.966  0.2517 -0.6806  0.3832
   59MPD2    C4  902   0.485   0.754  13.023 -0.1031 -0.3273  0.2763
   59MPD2    C5  903   0.373   0.749  12.939  0.1133  0.1714  0.6812
   59MPD2     H  904   0.723   0.809  12.797  0.5632  2.4766  1.2909
   59MPD2    H1  905   0.455   0.731  13.124  0.0097 -0.7033  0.2259
   59MPD2    H2  906   0.293   0.793  12.742  2.1806  1.2852 -2.7918
   59MPD2    H3  907   0.276   0.732  12.983 -0.3157  0.9326  0.0325
   59MPD2     N  908   0.721   0.762  13.059 -0.4297  0.4134  0.1327
   59MPD2    H5  909   0.677   0.761  13.150 -2.1436  2.1781 -0.6809
   59MPD2    N1  910   0.534   0.865  12.628  0.4165  0.2588  0.0479
   59MPD2    H7  911   0.627   0.897  12.604  0.5489 -0.2872 -0.1817
   60TCq2    C1  912   0.441   0.885  12.527 -0.2130 -0.1075 -0.2180
   60TCq2    O2  913   0.333   0.831  12.514  0.4053 -0.4651 -0.1110
   60TCq2    C2  914   0.491   0.951  12.414 -0.3184 -0.4444  0.5744
   60TCq2    C3  915   0.480   0.888  12.291  0.6779  0.5126  0.0229
   60TCq2    C4  916   0.576   0.916  12.194  0.1687  0.2688 -0.2177
   60TCq2    C5  917   0.658   1.026  12.213  0.6299 -0.3265  0.5989
   60TCq2    C6  918   0.664   1.084  12.342 -0.6518 -0.1313  0.8009
   60TCq2    C7  919   0.582   1.043  12.443  0.1187 -0.5633 -0.7416
   60TCq2    C8  920   0.733   1.214  12.354 -0.3245 -0.7246  0.2382
   60TCq2    O4  921   0.826   1.222  12.276 -0.0841 -0.5253  0.1145
   60TCq2    C9  922   0.575   0.856  12.059 -0.0979  0.6989  0.6840
   60TCq2    O5  923   0.482   0.774  12.031  0.6269  0.1177 -0.0501
   60TCq2    O6  924   0.677   0.878  11.985 -0.2015 -0.0484  0.1077
   60TCq2    H2  925   0.417   0.804  12.266 -1.2120  1.3944  1.7992
   60TCq2    H3  926   0.702   1.070  12.124  0.4299  0.3197  0.8201
   60TCq2    H4  927   0.596   1.072  12.547  1.2865 -0.6587 -0.8786
   61MPD2     C  928   0.077   1.815  15.922  0.0758  0.7657  0.2403
   61MPD2    C1  929   4.693   1.896  15.887  0.3313  0.8135 -0.0785
   61MPD2    C2  930   4.665   1.903  15.752  0.4336 -0.6484 -0.0487
   61MPD2    C3  931   0.009   1.827  15.658 -0.8454  0.6781 -0.6419
   61MPD2    C4  932   0.109   1.749  15.694 -0.5656 -0.2222  0.4011
   61MPD2    C5  933   0.138   1.739  15.824  0.7808 -0.8264  0.3303
   61MPD2     H  934   4.590   1.974  15.719 -0.7061 -0.8291  2.1796
   61MPD2    H1  935   0.176   1.696  15.628  0.3486 -0.9959  1.9371
   61MPD2    H2  936   0.105   1.796  16.025  0.9107  0.1302 -0.1023
   61MPD2    H3  937   0.217   1.672  15.857  1.2339  0.3417  1.6506
   61MPD2     N  938   4.703   1.826  15.522 -0.2015 -0.9936 -0.5386
   61MPD2    H5  939   0.038   1.770  15.462  1.9445  0.3207  0.3738
   61MPD2    N1  940   4.617   1.969  15.980 -0.2652  0.3843  0.0521
   61MPD2    H7  941   4.545   2.024  15.934 -0.6909  1.0891  1.5552
   62TCq2    C1  942   4.624   1.957  16.122  0.3801 -0.7363 -0.5915
   62TCq2    O2  943   4.685   1.874  16.191 -0.2829 -0.3061  0.0344
   62TCq2    C2  944   4.540   2.057  16.187  0.3533  0.4436  0.5221
   62TCq2    C3  945   4.460   2.015  16.293  0.4026 -0.4975  0.2771
   62TCq2    C4  946   4.381   2.109  16.352 -0.2934  0.0270 -0.3874
   62TCq2    C5  947   4.385   2.237  16.310  0.1221  0.1642  0.7229
   62TCq2    C6  948   4.463   2.275  16.206  0.2680 -0.6552 -1.0761
   62TCq2    C7  949   4.548   2.182  16.143 -0.5296  0.5177 -0.3536
   62TCq2    C8  950   4.421   2.382  16.128  0.2667 -0.0715  0.6114
   62TCq2    O4  951   4.511   2.433  16.063  0.6351  0.0400  0.6569
   62TCq2    C9  952   4.290   2.072  16.455 -0.2900  0.0454 -0.0695
   62TCq2    O5  953   4.183   2.140  16.462 -0.4864  0.0636 -0.5607
   62TCq2    O6  954   4.323   1.979  16.533  0.5194  0.6881  0.1697
   62TCq2    H2  955   4.454   1.912  16.327  1.1468 -0.8136 -0.5505
   62TCq2    H3  956   4.315   2.299  16.364 -0.8086 -0.4585  0.2203
   62TCq2    H4  957   4.614   2.211  16.062 -0.1803 -0.0364 -0.2686
   63TMC2    C1  958   4.375   2.764  10.533  0.4750  0.2620  0.6310
   63TMC2    C2  959   4.487   2.827  10.554  0.3869 -0.0819  0.3202
   63TMC2    C3  960   4.529   2.912  10.453  0.2574 -0.1657  0.4522
   63TMC2    C4  961   4.298   2.764  10.421 -0.2914 -0.5246 -0.0278
   63TMC2    C5  962   4.345   2.848  10.322 -0.0379  0.0053  0.1898
   63TMC2    C6  963   4.460   2.916  10.330 -0.3953 -0.1497 -0.0358
   63TMC2     C  964   4.338   2.680  10.641 -0.5554 -0.3948  0.1482
   63TMC2     O  965   4.388   2.700  10.754 -0.0837  0.2934  0.3365
   63TMC2     H  966   4.539   2.825  10.649 -0.3153 -0.1277  0.7049
   63TMC2    H1  967   4.199   2.721  10.410 -0.2253 -1.0003  1.1730
   63TMC2    H2  968   4.496   2.983  10.253 -4.5921  0.8761 -1.1486
   63TMC2    C7  969   4.268   2.846  10.198 -0.3848  0.6345 -0.1093
   63TMC2    C8  970   4.653   2.991  10.465 -0.2360 -0.2409 -0.3234
   63TMC2    O1  971   4.208   2.746  10.163  0.0753  0.4935 -0.2401
   63TMC2    O2  972   4.723   3.027  10.368  0.0864  0.5772  0.1982
   63TMC2    O5  973   4.625   3.082  10.560  0.1559 -0.6104 -0.3281
   63TMC2    H5  974   4.547   3.058  10.615 -1.0559  0.6987 -1.4643
   64MPD2     C  975   4.050   2.283  10.803 -0.3169  0.4840  0.4575
   64MPD2    C1  976   4.082   2.258  10.669 -0.0019  0.8907 -0.7146
   64MPD2    C2  977   4.159   2.360  10.608  0.0301  0.7977 -0.4786
   64MPD2    C3  978   4.210   2.472  10.673  0.2177 -0.1627  0.1242
   64MPD2    C4  979   4.184   2.479  10.809 -0.0849  0.0520  0.8784
   64MPD2    C5  980   4.101   2.386  10.871  0.3983 -0.2523 -0.0121
   64MPD2     H  981   4.184   2.333  10.506 -1.8449  0.8317 -0.9567
   64MPD2    H1  982   4.218   2.564  10.866 -0.3594  2.7025 -2.9300
   64MPD2    H2  983   3.996   2.214  10.867  0.4732  0.3344  0.9545
   64MPD2    H3  984   4.065   2.404  10.972 -0.1102  0.4706 -0.3124
   64MPD2     N  985   4.272   2.575  10.596 -0.6066  0.4027 -0.5354
   64MPD2    H5  986   4.273   2.562  10.496 -2.6428 -1.9335 -0.2659
   64MPD2    N1  987   4.051   2.138  10.602 -0.5343 -0.6287 -0.2413
   64MPD2    H7  988   4.104   2.113  10.520  2.8793  2.6480  0.9327
   65MPD2     C  989   0.411   1.250  16.144  1.1483  0.1133  0.1141
   65MPD2    C1  990   0.392   1.332  16.035  0.1423  0.0365  0.4188
   65MPD2    C2  991   0.329   1.274  15.927 -0.5345  0.2245 -0.1900
   65MPD2    C3  992   0.301   1.136  15.924  0.2144  0.6261 -0.1023
   65MPD2    C4  993   0.343   1.057  16.031 -0.1281  0.2115  0.6645
   65MPD2    C5  994   0.393   1.116  16.139  0.2201  0.9379  0.1262
   65MPD2     H  995   0.308   1.329  15.836  2.5039  1.3246 -0.2195
   65MPD2    H1  996   0.329   0.950  16.038 -0.2426  0.1460 -0.5495
   65MPD2    H2  997   0.461   1.282  16.235  4.2047  0.9606 -1.8717
   65MPD2    H3  998   0.441   1.051  16.211  0.6962 -0.9010 -1.8761
   65MPD2     N  999   0.226   1.070  15.825  0.2571  1.0628  0.0427
   65MPD2    H5 1000   0.201   0.975  15.849 -3.1744  2.3944  1.7969
   65MPD2    N1 1001   0.420   1.473  16.028  0.4277  0.1464  0.3353
   65MPD2    H7 1002   0.400   1.516  15.938  0.7774  1.8890  1.0916
   66TCq2    C1 1003   0.501   1.536  16.120  0.3451  0.2719 -0.1929
   66TCq2    O2 1004   0.554   1.496  16.223  0.2695 -0.6496  0.4238
   66TCq2    C2 1005   0.559   1.648  16.052  0.3576 -0.4895  0.2488
   66TCq2    C3 1006   0.688   1.635  16.013 -0.8142 -0.6888 -0.0880
   66TCq2    C4 1007   0.746   1.723  15.925 -0.3231 -0.3024 -0.1626
   66TCq2    C5 1008   0.664   1.809  15.863 -0.0497  0.4743  0.1604
   66TCq2    C6 1009   0.533   1.815  15.900 -0.0351  0.1204  0.1401
   66TCq2    C7 1010   0.473   1.732  15.993 -0.4439 -0.2931  0.2111
   66TCq2    C8 1011   0.468   1.943  15.869 -0.5177  0.1619 -0.3571
   66TCq2    O4 1012   0.501   1.994  15.762  0.6217 -0.2281 -0.6730
   66TCq2    C9 1013   0.883   1.705  15.877  0.3586 -0.3629  0.2585
   66TCq2    O5 1014   0.967   1.650  15.953 -0.2691 -0.3723  0.2830
   66TCq2    O6 1015   0.910   1.789  15.789  0.1680  0.1204  0.0095
   66TCq2    H2 1016   0.751   1.561  16.061 -0.8166 -0.5905  0.0641
   66TCq2    H3 1017   0.698   1.892  15.801 -1.5748  1.6868  0.9705
   66TCq2    H4 1018   0.375   1.737  16.037 -1.1094  0.1788 -1.3158
   67MPD2     C 1019   0.692   0.890  13.678 -0.1099  0.2081  0.2877
   67MPD2    C1 1020   0.605   0.939  13.770 -0.1586  0.2397 -0.3719
   67MPD2    C2 1021   0.466   0.934  13.745 -0.2858  0.1224 -0.6370
   67MPD2    C3 1022   0.406   0.874  13.642  0.2243 -0.4196 -1.1373
   67MPD2    C4 1023   0.498   0.834  13.549 -0.1016 -0.4124 -0.0588
   67MPD2    C5 1024   0.634   0.836  13.568 -0.1180  0.1602 -0.2892
   67MPD2     H 1025   0.406   0.983  13.821  2.0120  1.3513  0.3993
   67MPD2    H1 1026   0.451   0.791  13.461 -0.3418 -0.6597  0.1927
   67MPD2    H2 1027   0.797   0.877  13.699 -0.0584  3.6030  2.2283
   67MPD2    H3 1028   0.705   0.812  13.489  2.1306  2.6008  0.9911
   67MPD2     N 1029   0.265   0.869  13.626 -0.3521 -0.5022  0.7724
   67MPD2    H5 1030   0.229   0.833  13.538 -0.2303  1.0462  0.0801
   67MPD2    N1 1031   0.653   0.992  13.893  0.0453  0.1261  0.1184
   67MPD2    H7 1032   0.583   1.035  13.952 -1.3627  0.3114 -1.6915
   68TCq2    C1 1033   0.784   1.006  13.935  0.5699 -0.2948 -0.5519
   68TCq2    O2 1034   0.893   0.970  13.890 -0.1202 -0.0650 -0.0708
   68TCq2    C2 1035   0.780   1.064  14.064 -0.2967 -0.1943  1.3726
   68TCq2    C3 1036   0.677   1.149  14.102 -0.3331  0.1011  0.1146
   68TCq2    C4 1037   0.670   1.182  14.238 -0.2483 -0.6881 -0.1690
   68TCq2    C5 1038   0.755   1.137  14.331  0.1332  0.4208  0.4958
   68TCq2    C6 1039   0.852   1.048  14.299 -0.8039  0.5428  0.0294
   68TCq2    C7 1040   0.874   1.023  14.162 -0.7953  0.3683  0.1455
   68TCq2    C8 1041   0.865   0.930  14.383 -0.3260 -0.0171 -0.3728
   68TCq2    O4 1042   0.922   0.834  14.337  0.2183 -0.2032 -0.6689
   68TCq2    C9 1043   0.569   1.270  14.276 -0.0313  0.3454 -0.5410
   68TCq2    O5 1044   0.525   1.348  14.190 -0.3208  0.2803  0.1024
   68TCq2    O6 1045   0.557   1.298  14.397 -0.1999  0.6691 -0.0750
   68TCq2    H2 1046   0.614   1.199  14.030 -0.1732  0.4971  0.2456
   68TCq2    H3 1047   0.747   1.187  14.427 -0.3472 -0.2496  0.8072
   68TCq2    H4 1048   0.953   0.952  14.141 -0.7261  0.4219  0.2265
   69TMC2    C1 1049   2.771   2.505  12.834 -0.3407  0.4107 -0.0362
   69TMC2    C2 1050   2.634   2.510  12.829 -0.3465  0.2669  0.3301
   69TMC2    C3 1051   2.576   2.626  12.789 -0.1580 -0.3044 -0.1219
   69TMC2    C4 1052   2.851   2.614  12.791 -0.2489  0.0839  0.0884
   69TMC2    C5 1053   2.794   2.726  12.756  0.7915 -0.3269 -0.4687
   69TMC2    C6 1054   2.656   2.733  12.749 -0.5309  0.2008 -0.2287
   69TMC2     C 1055   2.830   2.385  12.895 -0.0863  0.5064  0.9421
   69TMC2     O 1056   2.770   2.316  12.976  0.0750 -0.3642  0.1609
   69TMC2     H 1057   2.578   2.425  12.864  0.1849 -0.2716 -0.1370
   69TMC2    H1 1058   2.960   2.611  12.794 -0.3328 -2.0682  1.1774
   69TMC2    H2 1059   2.604   2.825  12.722  1.9163  1.5241 -0.4487
   69TMC2    C7 1060   2.869   2.840  12.695  0.5482 -0.6574 -0.3851
   69TMC2    C8 1061   2.432   2.636  12.773 -1.2672  0.0139 -0.1071
   69TMC2    O1 1062   2.822   2.955  12.703 -0.0309  0.0788  0.2774
   69TMC2    O2 1063   2.357   2.561  12.832 -0.1904  0.4902 -0.1687
   69TMC2    O5 1064   2.423   2.660  12.639  0.1434  0.5367  0.2519
   69TMC2    H5 1065   2.503   2.704  12.604  0.8458  0.6585  2.0258
   70MPD2     C 1066   3.178   2.317  12.871 -0.0320 -0.5189  0.0114
   70MPD2    C1 1067   3.050   2.281  12.896  0.2954  0.6123  0.0823
   70MPD2    C2 1068   3.026   2.165  12.967  0.4262 -0.0923 -0.5059
   70MPD2    C3 1069   3.129   2.079  13.000 -0.3773 -0.0528  0.0754
   70MPD2    C4 1070   3.261   2.127  12.975  0.8783  0.2515  0.4650
   70MPD2    C5 1071   3.281   2.242  12.909 -0.5523  0.1868 -0.2075
   70MPD2     H 1072   2.923   2.143  12.993 -0.0754  2.0694 -0.6510
   70MPD2    H1 1073   3.345   2.065  13.002  1.1048  0.2921 -0.1477
   70MPD2    H2 1074   3.191   2.409  12.815  1.2570 -1.0406 -0.5455
   70MPD2    H3 1075   3.379   2.278  12.878 -0.4066 -0.4293 -0.4805
   70MPD2     N 1076   3.115   1.945  13.041 -0.5438  0.1315 -0.5247
   70MPD2    H5 1077   3.203   1.894  13.043  0.2344  1.4378 -0.6176
   70MPD2    N1 1078   2.955   2.374  12.853  0.3556  0.4839 -0.0926
   70MPD2    H7 1079   2.987   2.445  12.788 -0.6105 -0.8124 -1.9810
   71TMC2    C1 1080   1.238   2.642   1.064  0.1871 -0.6217  0.1545
   71TMC2    C2 1081   1.281   2.516   1.036 -0.1246 -0.3148 -1.2156
   71TMC2    C3 1082   1.303   2.442   1.148 -0.2879 -0.4609  0.2568
   71TMC2    C4 1083   1.224   2.698   1.189 -0.2852  0.0082  0.0945
   71TMC2    C5 1084   1.243   2.613   1.294  0.6219 -0.7993 -0.1045
   71TMC2    C6 1085   1.286   2.489   1.280 -0.2042  0.4904 -0.2117
   71TMC2     C 1086   1.199   2.729   0.941 -0.3898  0.8535 -0.0251
   71TMC2     O 1087   1.131   2.826   0.967 -0.3204  0.1065 -0.3788
   71TMC2     H 1088   1.294   2.472   0.938 -0.6895 -4.1792  0.4288
   71TMC2    H1 1089   1.195   2.801   1.206 -0.5412  0.2138 -1.6162
   71TMC2    H2 1090   1.287   2.422   1.365 -2.0468  0.2312 -0.3969
   71TMC2    C7 1091   1.180   2.657   1.419  0.0405  0.1453 -0.5543
   71TMC2    C8 1092   1.361   2.307   1.133  0.0449 -0.1514 -0.5608
   71TMC2    O1 1093   1.240   2.615   1.517 -0.6507  0.0254 -0.7578
   71TMC2    O2 1094   1.355   2.242   1.029 -0.0585 -0.2451 -0.0186
   71TMC2    O5 1095   1.464   2.305   1.214 -0.0550 -0.0189 -0.9309
   71TMC2    H5 1096   1.460   2.377   1.280 -1.2537 -0.7000 -0.2518
   72MPD2     C 1097   1.163   2.852   0.452  0.5252  0.0421  0.1618
   72MPD2    C1 1098   1.115   2.910   0.564 -0.1933 -0.2756  0.0915
   72MPD2    C2 1099   1.153   2.861   0.683  0.1899  0.0001 -0.2226
   72MPD2    C3 1100   1.222   2.738   0.696 -0.4975  0.5470 -0.3860
   72MPD2    C4 1101   1.262   2.668   0.584 -0.2012  0.0770  0.2533
   72MPD2    C5 1102   1.230   2.733   0.466 -0.7790  0.4747  0.2659
   72MPD2     H 1103   1.141   2.927   0.768  1.9330 -0.8223  0.6467
   72MPD2    H1 1104   1.301   2.567   0.584 -1.3961 -0.3777  0.1091
   72MPD2    H2 1105   1.131   2.885   0.354  1.9740  0.6756 -0.1004
   72MPD2    H3 1106   1.254   2.694   0.368  1.4581 -0.4845  1.1959
   72MPD2     N 1107   1.233   2.670   0.818  0.7049 -0.2495  0.2664
   72MPD2    H5 1108   1.268   2.575   0.818  0.0835 -0.4792  2.9992
   72MPD2    N1 1109   1.038   3.028   0.562  0.0741  0.0098  0.0658
   72MPD2    H7 1110   0.989   3.042   0.649 -0.1224  1.4075 -0.2708
   73TMC2    C1 1111   4.257   3.852  14.117  0.5438  0.5078 -0.5231
   73TMC2    C2 1112   4.140   3.890  14.065  0.1587 -0.2668  0.1347
   73TMC2    C3 1113   4.078   4.008  14.099  0.5590 -0.8333 -0.4709
   73TMC2    C4 1114   4.321   3.930  14.209  0.2738 -0.1843 -0.3922
   73TMC2    C5 1115   4.267   4.052  14.228  0.0501  0.1254  0.0721
   73TMC2    C6 1116   4.143   4.093  14.187  0.0920 -0.4321  0.0926
   73TMC2     C 1117   4.362   3.829  14.016  0.5671  0.2241 -0.7471
   73TMC2     O 1118   4.472   3.870  14.039 -0.2021  0.8133  0.6745
   73TMC2     H 1119   4.079   3.830  13.999 -0.3871  0.6187 -0.1733
   73TMC2    H1 1120   4.413   3.900  14.258  0.6865 -1.4142 -1.9257
   73TMC2    H2 1121   4.099   4.190  14.205 -2.4400 -1.1172 -2.3019
   73TMC2    C7 1122   4.358   4.160  14.263  0.0001 -0.2298 -0.0097
   73TMC2    C8 1123   3.957   4.039  14.023  0.2303  0.5033 -0.3940
   73TMC2    O1 1124   4.315   4.267  14.308 -0.1366 -0.7265 -0.6680
   73TMC2    O2 1125   3.907   3.981  13.929  0.1826  0.4500 -0.5757
   73TMC2    O5 1126   3.896   4.143  14.082 -0.3083  0.3132  0.0425
   73TMC2    H5 1127   3.917   4.167  14.175 -0.8776  1.6697 -0.1707
   74MPD2     C 1128   4.511   3.719  13.542 -0.2158  1.0977  0.1174
   74MPD2    C1 1129   4.553   3.824  13.625 -0.3038  0.3307  0.3294
   74MPD2    C2 1130   4.492   3.831  13.751  0.4750  0.1467 -0.5097
   74MPD2    C3 1131   4.375   3.762  13.778  0.1796  0.0288 -0.3115
   74MPD2    C4 1132   4.323   3.683  13.680  0.3711 -1.5038 -0.0448
   74MPD2    C5 1133   4.397   3.646  13.570 -0.3429 -0.1925 -0.2267
   74MPD2     H 1134   4.523   3.909  13.819  1.1369 -1.4170  0.9906
   74MPD2    H1 1135   4.231   3.630  13.700 -1.0954  1.2195  0.2705
   74MPD2    H2 1136   4.569   3.693  13.455 -1.6878 -2.1753  0.1122
   74MPD2    H3 1137   4.362   3.568  13.503 -0.7623 -2.3063  2.4564
   74MPD2     N 1138   4.307   3.774  13.908  0.3498 -0.6233  0.3829
   74MPD2    H5 1139   4.223   3.719  13.925 -1.0287  1.5395  0.6087
   74MPD2    N1 1140   4.664   3.903  13.584 -0.0641 -0.9159  0.6652
   74MPD2    H7 1141   4.716   3.869  13.503  0.8111  0.2149  0.7479
   75TCq2    C1 1142   0.174   0.889  13.729  0.4623 -0.4821 -0.8335
   75TCq2    O2 1143   0.197   0.895  13.851 -0.1290  0.3544  0.1923
   75TCq2    C2 1144   0.033   0.867  13.688 -0.5533 -0.2777 -0.6981
   75TCq2    C3 1145   4.680   0.827  13.789  1.0149  0.2550 -0.4343
   75TCq2    C4 1146   4.564   0.774  13.761 -0.5111 -0.1208 -0.6207
   75TCq2    C5 1147   4.520   0.763  13.634  0.2670  0.2515 -0.1945
   75TCq2    C6 1148   4.603   0.792  13.531 -0.2382  0.3539 -0.0169
   75TCq2    C7 1149   0.002   0.846  13.555  0.3669  0.4677  0.2102
   75TCq2    C8 1150   4.544   0.837  13.405 -0.3268 -0.5081 -0.6472
   75TCq2    O4 1151   4.580   0.937  13.349 -0.3584 -0.0468 -0.1954
   75TCq2    C9 1152   4.493   0.724  13.875 -0.2814  0.0165 -0.1850
   75TCq2    O5 1153   4.524   0.769  13.989 -0.2380  0.3303  0.1258
   75TCq2    O6 1154   4.440   0.607  13.854  0.3255 -0.4685 -0.0080
   75TCq2    H2 1155   4.705   0.840  13.894 -0.8890  1.2019 -0.1008
   75TCq2    H3 1156   4.419   0.725  13.621  1.1728 -2.2314  0.0056
   75TCq2    H4 1157   0.062   0.882  13.472 -0.6124  1.8325  0.0960
   76MPD2     C 1158   3.896   2.098  12.320  0.5823  0.3093  0.0169
   76MPD2    C1 1159   3.779   2.115  12.249  0.3981 -0.5509  0.3044
   76MPD2    C2 1160   3.754   2.034  12.140 -0.4095  0.6015  0.5435
   76MPD2    C3 1161   3.845   1.939  12.110  1.3067  0.0008 -0.5739
   76MPD2    C4 1162   3.966   1.924  12.179  0.3516 -0.1925  0.6467
   76MPD2    C5 1163   3.989   2.003  12.289  0.1781  0.0115  0.5881
   76MPD2     H 1164   3.662   2.056  12.088 -0.1388  1.1062  0.2698
   76MPD2    H1 1165   4.028   1.842  12.146  0.9549  0.4169  0.2743
   76MPD2    H2 1166   3.916   2.158  12.409 -2.8936 -1.7866  2.2464
   76MPD2    H3 1167   4.075   1.991  12.354  2.0515  0.3262 -1.8606
   76MPD2     N 1168   3.827   1.845  12.003  0.5091 -0.2414  0.0655
   76MPD2    H5 1169   3.889   1.765  11.992  1.3700  0.1507  2.1083
   76MPD2    N1 1170   3.688   2.226  12.270 -0.7676 -0.2525  0.3524
   76MPD2    H7 1171   3.618   2.248  12.199 -0.8340 -0.4531  0.3539
   77TCq2    C1 1172   3.721   1.841  11.910 -0.0136  0.8011  0.1159
   77TCq2    O2 1173   3.630   1.923  11.896  0.0859 -0.4194 -0.5884
   77TCq2    C2 1174   3.731   1.734  11.810  0.1456 -0.4418 -0.2714
   77TCq2    C3 1175   3.632   1.730  11.722 -0.3879  0.2224 -0.2812
   77TCq2    C4 1176   3.597   1.621  11.645 -0.2321 -0.3662  0.1131
   77TCq2    C5 1177   3.673   1.510  11.647 -0.1549 -0.0495  0.3343
   77TCq2    C6 1178   3.785   1.518  11.732  0.0008  0.0959  0.0329
   77TCq2    C7 1179   3.820   1.629  11.811  0.5816  0.3397 -0.6057
   77TCq2    C8 1180   3.876   1.408  11.713 -0.4380  0.2580  0.0071
   77TCq2    O4 1181   3.876   1.353  11.605 -0.0460  0.1407 -0.5313
   77TCq2    C9 1182   3.487   1.625  11.559  0.0814  0.0547  0.8907
   77TCq2    O5 1183   3.397   1.709  11.577 -0.3892  0.2009  0.2317
   77TCq2    O6 1184   3.483   1.540  11.467 -0.2905  0.0685  0.2579
   77TCq2    H2 1185   3.580   1.824  11.705 -0.7307 -0.1107 -1.0550
   77TCq2    H3 1186   3.649   1.422  11.589  1.0079 -0.6309  0.7356
   77TCq2    H4 1187   3.910   1.643  11.871  0.1298 -1.4399  0.4593
   78MPD1     C 1188   0.777   1.950   0.864 -0.5036  0.3684 -0.3537
   78MPD1    C1 1189   0.678   2.007   0.791  0.0381 -0.0962 -0.4014
   78MPD1    C2 1190   0.714   2.055   0.660  0.3770 -0.0691 -0.5333
   78MPD1    C3 1191   0.838   2.031   0.611  0.1687  0.4966 -0.2034
   78MPD1    C4 1192   0.931   1.968   0.688 -0.1381 -0.1681  0.1659
   78MPD1    C5 1193   0.901   1.937   0.815  0.0307 -0.2083  0.3455
   78MPD1     H 1194   0.634   2.100   0.601 -0.3434  0.3260  0.7428
   78MPD1    H1 1195   1.027   1.936   0.648 -1.8168 -2.3396 -2.1232
   78MPD1    H2 1196   0.758   1.916   0.965 -0.6518 -0.4008 -0.6429
   78MPD1    H3 1197   0.974   1.891   0.880 -0.3071 -2.3471 -0.7768
   78MPD1     N 1198   0.883   2.047   0.478 -0.4140 -0.1882  0.4255
   78MPD1    H5 1199   0.970   2.001   0.455  0.8074  1.5062  1.6823
   78MPD1    N1 1200   0.560   2.058   0.858 -0.3151 -0.1608 -0.3454
   78MPD1    H6 1201   0.523   1.998   0.932 -0.3780  1.7365  1.1566
   78MPD1    H7 1202   0.481   2.063   0.793 -0.6098 -1.6296 -0.1145
   79TCq2    C1 1203   0.808   2.120   0.389 -0.2223  0.0003 -0.5313
   79TCq2    O2 1204   0.718   2.200   0.397 -0.6146  0.0354  0.0978
   79TCq2    C2 1205   0.868   2.115   0.263  0.1292 -0.8597 -0.2453
   79TCq2    C3 1206   0.778   2.110   0.158  0.6527  0.1618  0.1141
   79TCq2    C4 1207   0.827   2.152   0.039  0.3199 -0.0481 -1.2897
   79TCq2    C5 1208   0.945   2.208   0.024  0.5143 -0.2660  0.7352
   79TCq2    C6 1209   1.028   2.216   0.129 -0.8041  0.3101 -0.2797
   79TCq2    C7 1210   0.994   2.168   0.252  0.6074  0.4573  0.2840
   79TCq2    C8 1211   1.128   2.314   0.121  0.1049 -0.0331  0.3278
   79TCq2    O4 1212   1.224   2.310   0.199  0.2929  0.1893 -0.3345
   79TCq2    C9 1213   0.751   2.121  17.627 -0.5998 -0.1984 -0.8030
   79TCq2    O5 1214   0.631   2.081  17.634  0.9079  0.2359 -0.0152
   79TCq2    O6 1215   0.788   2.173  17.520 -0.1086 -0.0320 -0.0084
   79TCq2    H2 1216   0.682   2.064   0.176  0.6626  0.4611  0.9467
   79TCq2    H3 1217   0.973   2.227  17.623  2.5718  0.3504  1.4071
   79TCq2    H4 1218   1.050   2.177   0.345  0.6911  0.5465  0.2254
   80MPD2     C 1219   3.217   1.477  11.750  0.1347  0.4387 -0.6719
   80MPD2    C1 1220   3.096   1.502  11.808  0.4892 -0.2804 -0.1664
   80MPD2    C2 1221   3.070   1.447  11.932  0.3939 -0.1886 -0.6921
   80MPD2    C3 1222   3.162   1.369  11.998  0.2489 -0.6444 -0.4018
   80MPD2    C4 1223   3.288   1.342  11.936 -0.1848  0.3375  0.1551
   80MPD2    C5 1224   3.314   1.403  11.816 -0.2647 -0.0975  0.4518
   80MPD2     H 1225   2.973   1.468  11.976  1.9212 -0.6339  2.8591
   80MPD2    H1 1226   3.357   1.261  11.959  1.7214  2.1452  0.8320
   80MPD2    H2 1227   3.251   1.528  11.661 -0.5458  1.0486 -0.5844
   80MPD2    H3 1228   3.408   1.390  11.763  0.0464 -0.6341  1.1206
   80MPD2     N 1229   3.137   1.311  12.125 -0.5853  0.1019 -0.1112
   80MPD2    H5 1230   3.217   1.259  12.160  1.2482  1.8213 -1.7561
   80MPD2    N1 1231   2.994   1.570  11.744  0.8473  0.3458  0.2431
   80MPD2    H7 1232   2.913   1.591  11.802 -0.6960  1.2636 -2.2335
   81TCq2    C1 1233   2.994   1.616  11.614  0.3111  0.1401  0.1470
   81TCq2    O2 1234   3.085   1.621  11.536  0.2698  0.4175  0.2703
   81TCq2    C2 1235   2.869   1.684  11.585 -0.3231 -0.4155  0.8909
   81TCq2    C3 1236   2.877   1.806  11.527 -0.6322  1.4297  0.6206
   81TCq2    C4 1237   2.768   1.885  11.522 -0.0612  0.6057  0.3178
   81TCq2    C5 1238   2.651   1.836  11.568  0.5318 -0.3584  0.2649
   81TCq2    C6 1239   2.649   1.717  11.643 -0.3151 -0.6108  0.3505
   81TCq2    C7 1240   2.757   1.642  11.649  0.1622  0.3718 -0.7428
   81TCq2    C8 1241   2.520   1.660  11.661 -0.6987  0.4054 -0.0106
   81TCq2    O4 1242   2.433   1.696  11.580  0.5358  0.0794  0.6662
   81TCq2    C9 1243   2.774   2.009  11.442  0.9492  0.5503  0.4613
   81TCq2    O5 1244   2.663   2.071  11.430  0.4056  0.1587  0.0302
   81TCq2    O6 1245   2.891   2.065  11.425  0.3927  0.6213 -0.1491
   81TCq2    H2 1246   2.972   1.835  11.484  0.4554 -0.3402  1.8233
   81TCq2    H3 1247   2.564   1.900  11.565 -0.7477 -2.0133  2.5978
   81TCq2    H4 1248   2.759   1.539  11.683 -2.0438  0.0735 -1.4829
   82MPD2     C 1249   0.850   1.130  11.213 -0.2682 -0.2041 -0.0606
   82MPD2    C1 1250   0.830   1.012  11.146  0.4861  0.2137 -0.4858
   82MPD2    C2 1251   0.880   0.895  11.201  0.1523 -0.7743  0.2164
   82MPD2    C3 1252   0.948   0.900  11.315  0.8353  0.0669 -0.2252
   82MPD2    C4 1253   0.960   1.018  11.387  0.5903  0.2137 -0.6667
   82MPD2    C5 1254   0.911   1.132  11.333  0.8649 -0.1643  0.4644
   82MPD2     H 1255   0.875   0.797  11.155  0.8656 -1.1784  1.0071
   82MPD2    H1 1256   1.015   1.033  11.480  0.4242 -0.2262 -0.5019
   82MPD2    H2 1257   0.812   1.226  11.179  0.5139  0.8091  1.9096
   82MPD2    H3 1258   0.929   1.229  11.378 -0.5948 -0.2861  1.3176
   82MPD2     N 1259   1.013   0.793  11.372 -0.5663 -0.7233 -0.0495
   82MPD2    H5 1260   1.039   0.799  11.470  1.3146 -0.6121 -0.5530
   82MPD2    N1 1261   0.763   1.018  11.021  0.1311  0.2030 -0.0229
   82MPD2    H7 1262   0.733   1.109  10.987 -0.2879  0.7409  1.8120
   83TCq2    C1 1263   1.004   0.657  11.344  0.0014  0.1055  0.7633
   83TCq2    O2 1264   0.963   0.604  11.244  0.6847  0.4426  0.1647
   83TCq2    C2 1265   1.041   0.581  11.457 -0.6307  0.6239 -0.5027
   83TCq2    C3 1266   1.138   0.627  11.539 -0.3888 -0.0662 -0.2158
   83TCq2    C4 1267   1.148   0.567  11.664  0.7247 -0.2320  1.1456
   83TCq2    C5 1268   1.063   0.466  11.709  0.0751  0.7105  0.6647
   83TCq2    C6 1269   0.972   0.418  11.621 -0.4639 -0.5456 -0.6025
   83TCq2    C7 1270   0.964   0.475  11.495  0.9556  0.0047 -0.4252
   83TCq2    C8 1271   0.864   0.336  11.680  0.4400 -0.2335  0.0069
   83TCq2    O4 1272   0.888   0.290  11.791 -0.0414 -0.3529  1.0809
   83TCq2    C9 1273   1.254   0.613  11.748 -0.1880  0.0788  0.2478
   83TCq2    O5 1274   1.336   0.699  11.706  0.9193  0.5462  0.1246
   83TCq2    O6 1275   1.272   0.539  11.848 -0.1537 -0.0313  0.3129
   83TCq2    H2 1276   1.203   0.712  11.523  3.1240 -2.3297  1.9681
   83TCq2    H3 1277   1.078   0.417  11.804  1.0272 -3.2473 -1.5207
   83TCq2    H4 1278   0.890   0.442  11.423 -0.1628  0.3686  0.5390
   84TCq2    C1 1279   1.957   4.391  10.962  0.0010  0.5231 -0.0305
   84TCq2    O2 1280   1.844   4.367  10.995  0.3885  0.4810  0.2507
   84TCq2    C2 1281   2.050   4.461  11.055  0.4746 -1.4640  0.4490
   84TCq2    C3 1282   2.191   4.442  11.050  0.3136  0.6179 -0.0172
   84TCq2    C4 1283   2.260   4.518  11.142 -0.1055  0.2641  0.4265
   84TCq2    C5 1284   2.205   4.592  11.245 -0.1558 -0.9203  0.7015
   84TCq2    C6 1285   2.066   4.604  11.252  0.0967 -0.1687 -0.5198
   84TCq2    C7 1286   1.987   4.530  11.158  0.1748 -0.1965  0.0720
   84TCq2    C8 1287   2.000   4.693  11.346 -1.1643  0.3869  0.0300
   84TCq2    O4 1288   2.078   0.050  11.393 -0.2024  0.4831 -0.6582
   84TCq2    C9 1289   2.404   4.509  11.141 -0.1258  0.4879 -0.3033
   84TCq2    O5 1290   2.457   4.436  11.051 -0.6762  0.1125  0.3362
   84TCq2    O6 1291   2.465   4.556  11.237  0.0323 -0.2473 -0.8692
   84TCq2    H2 1292   2.239   4.383  10.973  1.9287  2.7127 -0.5873
   84TCq2    H3 1293   2.265   4.653  11.311 -0.7642  1.5558 -1.0387
   84TCq2    H4 1294   1.879   4.534  11.160  0.2378  2.4976 -1.9425
   85MPD2     C 1295   2.500   2.253  16.436  0.0633 -0.9438  0.3239
   85MPD2    C1 1296   2.469   2.242  16.300 -0.5749  0.4411 -0.0599
   85MPD2    C2 1297   2.484   2.356  16.218  0.3256  0.8825 -0.2669
   85MPD2    C3 1298   2.514   2.476  16.269  0.1273  0.6168  0.3065
   85MPD2    C4 1299   2.528   2.490  16.407  0.3367 -0.5520  0.5716
   85MPD2    C5 1300   2.527   2.377  16.484 -0.2829 -0.1825 -0.2791
   85MPD2     H 1301   2.468   2.340  16.112  0.0905 -0.5392 -0.0205
   85MPD2    H1 1302   2.548   2.585  16.453 -0.2112  1.3951 -3.1976
   85MPD2    H2 1303   2.502   2.169  16.505 -1.1043 -0.8732  0.4359
   85MPD2    H3 1304   2.545   2.392  16.589 -0.8161 -0.5022 -0.1389
   85MPD2     N 1305   2.538   2.583  16.187  0.3211  0.0379 -0.5229
   85MPD2    H5 1306   2.565   2.553  16.094  0.2166 -2.2308  0.1637
   85MPD2    N1 1307   2.422   2.125  16.231 -0.8850 -0.7169  0.2325
   85MPD2    H7 1308   2.415   2.127  16.130 -1.5453  2.2741  0.3616
   86TCq2    C1 1309   2.524   2.721  16.221 -0.6672 -0.4954  0.0058
   86TCq2    O2 1310   2.464   2.772  16.311  0.1461  0.3085 -0.0242
   86TCq2    C2 1311   2.543   2.806  16.102  0.4710 -0.7538 -0.2150
   86TCq2    C3 1312   2.446   2.897  16.073  0.4076 -0.2221  0.2422
   86TCq2    C4 1313   2.442   2.967  15.958 -0.2829 -0.3600  0.1936
   86TCq2    C5 1314   2.542   2.937  15.868 -0.8334 -0.3204 -0.4474
   86TCq2    C6 1315   2.633   2.835  15.894  0.3889  0.0133 -0.2463
   86TCq2    C7 1316   2.632   2.765  16.010 -0.0195  0.6402  0.3793
   86TCq2    C8 1317   2.717   2.778  15.786 -0.2235  0.6685  0.6707
   86TCq2    O4 1318   2.806   2.697  15.815  0.5471  0.7122  0.1247
   86TCq2    C9 1319   2.341   3.069  15.928 -0.0354 -0.4093 -0.2355
   86TCq2    O5 1320   2.356   3.147  15.830 -0.9173  0.1413 -0.3412
   86TCq2    O6 1321   2.263   3.090  16.026 -0.1668  0.5647  0.8568
   86TCq2    H2 1322   2.363   2.900  16.143 -0.0834  0.5570 -0.3731
   86TCq2    H3 1323   2.545   2.994  15.775  0.6513  1.1584  0.5039
   86TCq2    H4 1324   2.704   2.686  16.030  0.1302  0.4523 -0.9488
   87MPD2     C 1325   0.230   1.947   1.505 -0.3440 -0.5439 -0.3271
   87MPD2    C1 1326   0.337   1.920   1.421  0.1345  0.1579  0.4634
   87MPD2    C2 1327   0.448   2.006   1.431  0.0585  0.3994  0.1630
   87MPD2    C3 1328   0.461   2.100   1.533  0.1671  0.1197  0.0106
   87MPD2    C4 1329   0.356   2.115   1.612  0.1109  0.3668  0.0089
   87MPD2    C5 1330   0.242   2.043   1.598 -0.4579  0.2679 -0.7441
   87MPD2     H 1331   0.534   1.994   1.366 -0.1134 -0.1345  0.0323
   87MPD2    H1 1332   0.361   2.180   1.699  1.7381 -2.0406  1.7326
   87MPD2    H2 1333   0.143   1.881   1.507 -0.1161 -0.8671 -1.0532
   87MPD2    H3 1334   0.164   2.056   1.673  1.1363  1.5644  0.6943
   87MPD2     N 1335   0.570   2.192   1.548  0.6694 -0.4510  0.4538
   87MPD2    H5 1336   0.562   2.253   1.629 -0.0682 -1.5303  1.1887
   87MPD2    N1 1337   0.325   1.804   1.346  0.7461 -0.5778 -0.4900
   87MPD2    H7 1338   0.247   1.743   1.372 -2.6608  3.9245 -0.2116
   88TCq2    C1 1339   0.403   1.797   1.231 -0.1612 -0.2201 -0.6711
   88TCq2    O2 1340   0.466   1.882   1.172 -0.0740 -0.4140 -0.2434
   88TCq2    C2 1341   0.364   1.684   1.152 -0.7351 -0.5593  0.1083
   88TCq2    C3 1342   0.279   1.585   1.201 -0.3788 -0.0219  0.0769
   88TCq2    C4 1343   0.261   1.470   1.132  0.0537 -0.0017 -0.1102
   88TCq2    C5 1344   0.317   1.457   1.007  0.3417 -1.0876 -0.1843
   88TCq2    C6 1345   0.403   1.556   0.967 -0.0159  0.5877  0.3404
   88TCq2    C7 1346   0.437   1.665   1.038  0.4313  0.3869  0.0519
   88TCq2    C8 1347   0.482   1.536   0.842 -0.9053  0.0876  0.8175
   88TCq2    O4 1348   0.562   1.620   0.808  0.0215  0.0500  0.4288
   88TCq2    C9 1349   0.164   1.372   1.177  0.4699  0.1468  0.3785
   88TCq2    O5 1350   0.112   1.315   1.079  0.0179  0.3053  0.2340
   88TCq2    O6 1351   0.140   1.365   1.303  0.4803  0.4611 -0.0270
   88TCq2    H2 1352   0.213   1.598   1.286 -0.5087 -1.5457  0.2209
   88TCq2    H3 1353   0.281   1.367   0.960 -0.7245 -0.3475 -0.7713
   88TCq2    H4 1354   0.512   1.738   1.009  2.3211 -1.1820  1.0321
   89MPD2     C 1355   0.405   4.285   2.307 -0.1633  0.6204  0.2041
   89MPD2    C1 1356   0.430   4.256   2.177  0.0520  1.0011  0.9375
   89MPD2    C2 1357   0.474   4.365   2.097 -1.1047  0.2861 -0.2292
   89MPD2    C3 1358   0.484   4.497   2.148 -0.3392  0.1590 -0.5147
   89MPD2    C4 1359   0.453   4.513   2.275  0.7386  0.2806  0.0369
   89MPD2    C5 1360   0.416   4.413   2.360 -0.0908 -0.0318  0.0778
   89MPD2     H 1361   0.483   4.348   1.991 -0.5822 -1.1780  0.0437
   89MPD2    H1 1362   0.470   4.609   2.321 -0.8788 -0.5728  2.4158
   89MPD2    H2 1363   0.375   4.208   2.377 -1.5392  0.0806 -0.9850
   89MPD2    H3 1364   0.386   4.431   2.462  2.6348 -3.1565  1.4631
   89MPD2     N 1365   0.514   4.607   2.063  0.2713  0.4344  0.1259
   89MPD2    H5 1366   0.541   4.579   1.970 -1.5872 -1.3813  0.1203
   89MPD2    N1 1367   0.424   4.131   2.120 -0.4303 -0.3503 -1.1621
   89MPD2    H7 1368   0.443   4.120   2.021 -3.0822 -2.8606 -1.3893
   90TCq2    C1 1369   0.523   0.015   2.099 -0.3100 -0.5822 -0.1450
   90TCq2    O2 1370   0.524   0.068   2.207 -0.9032  0.1825 -0.1464
   90TCq2    C2 1371   0.562   0.099   1.986 -0.7529  0.5328  0.1461
   90TCq2    C3 1372   0.626   0.215   2.017  0.0493 -0.0187  0.1255
   90TCq2    C4 1373   0.656   0.294   1.911  0.0799 -0.1712  0.0384
   90TCq2    C5 1374   0.621   0.257   1.786 -0.1154 -0.4012 -1.0807
   90TCq2    C6 1375   0.551   0.146   1.756  0.2026  0.8432 -0.2956
   90TCq2    C7 1376   0.519   0.063   1.858  0.3640 -0.2317 -0.7144
   90TCq2    C8 1377   0.532   0.107   1.621 -0.1260 -0.3399  0.3357
   90TCq2    O4 1378   0.458   0.013   1.611 -0.2620 -0.2127 -0.4860
   90TCq2    C9 1379   0.749   0.400   1.932  0.3908 -0.2659 -0.1591
   90TCq2    O5 1380   0.758   0.444   2.047  0.1241 -0.5676  0.1219
   90TCq2    O6 1381   0.805   0.443   1.827  0.5419 -0.0815 -0.0916
   90TCq2    H2 1382   0.649   0.245   2.118  1.5687  1.7367 -0.7324
   90TCq2    H3 1383   0.625   0.334   1.709 -0.4556  1.5199  0.8213
   90TCq2    H4 1384   0.442   4.715   1.836 -0.8066  0.0682  2.3485
   91TMC2    C1 1385   2.423   4.008  17.161 -0.5273 -0.1212  0.1437
   91TMC2    C2 1386   2.435   4.136  17.120 -0.0066 -0.3763 -0.2205
   91TMC2    C3 1387   2.327   4.200  17.074  0.0825 -0.5595  0.3763
   91TMC2    C4 1388   2.299   3.941  17.161 -0.4591  0.0837  0.5520
   91TMC2    C5 1389   2.190   4.014  17.121 -0.3064 -0.1215 -0.2312
   91TMC2    C6 1390   2.204   4.144  17.080 -0.5097 -0.5274 -0.3278
   91TMC2     C 1391   2.534   3.924  17.198  0.0850  0.4499 -0.2868
   91TMC2     O 1392   2.515   3.805  17.212  0.2942  0.0395 -0.0260
   91TMC2     H 1393   2.527   4.194  17.124 -0.2624  0.0446 -0.5528
   91TMC2    H1 1394   2.287   3.836  17.186 -0.5257 -0.6107 -2.4077
   91TMC2    H2 1395   2.119   4.203  17.045 -0.3620 -1.1312 -1.7315
   91TMC2    C7 1396   2.090   3.937  17.060 -0.3856  0.3902  0.0008
   91TMC2    C8 1397   2.344   4.341  17.035  0.8360  0.1430 -0.4190
   91TMC2    O1 1398   2.048   3.840  17.123 -0.5237 -0.1608 -0.5893
   91TMC2    O2 1399   2.244   4.414  17.043 -0.3009  0.6691 -0.5855
   91TMC2    O5 1400   2.430   4.338  16.934  0.2418 -0.0274  0.1544
   91TMC2    H5 1401   2.476   4.251  16.936 -1.8186 -1.1761 -1.8571
   92MPD2     C 1402   2.766   3.826  17.337 -0.5853  0.2698  0.1317
   92MPD2    C1 1403   2.768   3.936  17.253 -0.7999  0.0462  0.6942
   92MPD2    C2 1404   2.891   3.998  17.223 -0.3080  0.3158 -0.8727
   92MPD2    C3 1405   3.010   3.944  17.263  1.2473 -0.8569 -0.1051
   92MPD2    C4 1406   3.007   3.829  17.337 -1.0314  0.1545  0.2139
   92MPD2    C5 1407   2.885   3.777  17.380  0.2480 -0.1839  0.2651
   92MPD2     H 1408   2.889   4.092  17.170  0.6597  1.0441  0.3800
   92MPD2    H1 1409   3.096   3.778  17.373 -0.7810  2.1415  2.3912
   92MPD2    H2 1410   2.684   3.766  17.376 -0.1730 -1.0429 -0.9995
   92MPD2    H3 1411   2.886   3.694  17.450 -1.1065  1.0833  1.7707
   92MPD2     N 1412   3.134   4.004  17.234 -0.2525  0.7141 -0.2653
   92MPD2    H5 1413   3.133   4.103  17.212  3.2774  0.7361 -0.2726
   92MPD2    N1 1414   2.655   3.991  17.190 -0.3348 -0.3815 -0.5758
   92MPD2    H7 1415   2.659   4.078  17.138  1.6507 -1.6658 -2.6157
   93MPD2     C 1416   4.047   3.516  14.378  0.2263  0.1167 -0.1637
   93MPD2    C1 1417   4.060   3.431  14.263  0.3760  0.2191 -0.4635
   93MPD2    C2 1418   3.953   3.366  14.217  0.7885  0.1343  0.0508
   93MPD2    C3 1419   3.820   3.383  14.274  0.1939  0.6692 -0.3351
   93MPD2    C4 1420   3.814   3.468  14.378 -0.3453  0.5274  0.4474
   93MPD2    C5 1421   3.922   3.534  14.426 -0.0616 -0.8542  0.3316
   93MPD2     H 1422   3.959   3.296  14.134  1.1668 -0.0985  0.2753
   93MPD2    H1 1423   3.717   3.501  14.413 -0.6506  0.2358 -0.1195
   93MPD2    H2 1424   4.129   3.575  14.418 -0.8772  2.2904 -1.0879
   93MPD2    H3 1425   3.911   3.606  14.506  1.7868  1.9976 -1.9677
   93MPD2     N 1426   3.706   3.330  14.222 -1.0905 -0.5941 -0.0934
   93MPD2    H5 1427   3.619   3.353  14.269 -0.9572 -1.3061  0.5038
   93MPD2    N1 1428   4.179   3.412  14.189  0.2514  0.2204 -0.0830
   93MPD2    H7 1429   4.178   3.333  14.125  0.8232  2.7602 -3.2176
   94TCq2    C1 1430   4.304   3.467  14.217  0.2498  0.4973  0.1935
   94TCq2    O2 1431   4.332   3.553  14.298  0.2910 -0.3904  0.0021
   94TCq2    C2 1432   4.410   3.442  14.120  0.0800  0.2902  0.7722
   94TCq2    C3 1433   4.394   3.340  14.026 -0.1374  0.7571 -0.8066
   94TCq2    C4 1434   4.476   3.338  13.922 -0.3396  0.5933  0.5897
   94TCq2    C5 1435   4.576   3.427  13.910 -0.3905 -0.3416  0.6668
   94TCq2    C6 1436   4.596   3.520  14.010  0.1577 -0.0307 -0.1764
   94TCq2    C7 1437   4.514   3.533  14.118  0.6429 -0.1219  0.4742
   94TCq2    C8 1438   4.720   3.595  14.020 -0.6796  0.2353  0.2466
   94TCq2    O4 1439   0.091   3.540  13.957  0.2325  0.0086  0.2031
   94TCq2    C9 1440   4.444   3.253  13.809  0.0989  0.3539 -0.6914
   94TCq2    O5 1441   4.538   3.220  13.730  0.0044 -0.3200 -0.9493
   94TCq2    O6 1442   4.320   3.223  13.796  0.1532  0.9608 -0.5814
   94TCq2    H2 1443   4.320   3.261  14.036  2.0615 -1.3053 -0.8886
   94TCq2    H3 1444   4.644   3.421  13.826 -1.4049 -0.5357 -0.1465
   94TCq2    H4 1445   4.530   3.592  14.208 -1.6248 -1.4947  1.7739
   95TMC2    C1 1446   3.993   1.012  16.032 -0.5320 -0.0924 -0.2295
   95TMC2    C2 1447   3.859   1.002  16.006  0.0887 -0.0842  0.0832
   95TMC2    C3 1448   3.784   1.094  16.072 -0.0287 -0.0672 -0.4808
   95TMC2    C4 1449   4.047   1.099  16.119 -0.1587  0.2695 -0.9363
   95TMC2    C5 1450   3.967   1.191  16.175 -0.2047  0.1554  0.1390
   95TMC2    C6 1451   3.830   1.189  16.153  0.0181 -0.3559  0.4685
   95TMC2     C 1452   4.086   0.942  15.945  0.2050 -0.9055 -1.0821
   95TMC2     O 1453   4.202   0.960  15.970  0.1803 -0.5273  0.4932
   95TMC2     H 1454   3.806   0.925  15.950  0.8539 -1.1316  0.8162
   95TMC2    H1 1455   4.154   1.104  16.129 -0.2168 -0.0270 -0.1650
   95TMC2    H2 1456   3.773   1.264  16.206 -0.4220 -0.2190 -0.1881
   95TMC2    C7 1457   4.017   1.331  16.196  0.1538  0.1872 -0.3554
   95TMC2    C8 1458   3.636   1.082  16.043 -0.1248 -0.4424  0.2323
   95TMC2    O1 1459   3.935   1.418  16.229  0.4389 -0.3184 -0.5141
   95TMC2    O2 1460   3.581   0.974  16.061  0.4567  0.1933  0.1339
   95TMC2    O5 1461   3.581   1.201  16.000 -0.4102 -0.1116 -0.5581
   95TMC2    H5 1462   3.643   1.275  15.984 -0.7466  0.1101 -0.8264
   96MPD2     C 1463   4.215   0.709  15.507  0.1768  0.2810  0.2437
   96MPD2    C1 1464   4.290   0.792  15.588  0.8458  0.4639  0.6713
   96MPD2    C2 1465   4.222   0.850  15.695  0.0761 -0.4424 -0.2343
   96MPD2    C3 1466   4.091   0.825  15.723  0.3018 -0.0753  0.4778
   96MPD2    C4 1467   4.019   0.742  15.636 -0.3860  0.7540 -0.2002
   96MPD2    C5 1468   4.083   0.685  15.533  0.1563 -0.2537  0.4949
   96MPD2     H 1469   4.267   0.936  15.744 -1.0262 -1.0965  1.9566
   96MPD2    H1 1470   3.913   0.722  15.654 -0.0814 -2.4537 -1.9159
   96MPD2    H2 1471   4.258   0.662  15.419 -0.3761 -1.0964  0.7109
   96MPD2    H3 1472   4.026   0.621  15.467 -0.1523  0.1730  0.3423
   96MPD2     N 1473   4.022   0.889  15.832  0.4214  0.2242  0.3840
   96MPD2    H5 1474   3.921   0.887  15.826  0.5447  2.3218 -2.1946
   96MPD2    N1 1475   4.427   0.814  15.560  0.4722 -0.3588  0.3807
   96MPD2    H7 1476   4.473   0.768  15.482  1.1182 -2.9244  2.2656
   97MPD2     C 1477   2.077   2.837   0.853 -0.6954 -0.8521  0.1513
   97MPD2    C1 1478   2.018   2.952   0.897  1.1739 -0.0730  0.0179
   97MPD2    C2 1479   1.971   3.041   0.797 -0.4841  0.3018 -1.0821
   97MPD2    C3 1480   1.992   3.010   0.664  0.7952 -0.2146 -0.0132
   97MPD2    C4 1481   2.066   2.898   0.628 -1.2064 -0.0907 -0.5573
   97MPD2    C5 1482   2.108   2.809   0.722  0.0822  0.5850 -0.9461
   97MPD2     H 1483   1.923   3.133   0.829  2.2924  1.5580 -0.5396
   97MPD2    H1 1484   2.085   2.885   0.523  0.8906  3.1450 -0.5884
   97MPD2    H2 1485   2.103   2.757   0.920  0.9766 -0.1565  0.3311
   97MPD2    H3 1486   2.165   2.720   0.695  0.5901  0.7180 -0.3277
   97MPD2     N 1487   1.937   3.092   0.564 -0.1183 -0.0122 -0.2561
   97MPD2    H5 1488   1.947   3.052   0.471  0.7299 -2.7681  1.0039
   97MPD2    N1 1489   1.996   2.968   1.036 -0.4227 -0.2024 -0.1571
   97MPD2    H7 1490   2.011   2.889   1.097  0.0567  1.1274  1.4392
   98TCq2    C1 1491   1.893   3.224   0.579  0.2581 -0.4945 -0.0150
   98TCq2    O2 1492   1.905   3.297   0.679  0.1712  0.0088 -0.0761
   98TCq2    C2 1493   1.848   3.278   0.451  0.0966  0.7037  0.4703
   98TCq2    C3 1494   1.731   3.228   0.392 -0.6201 -0.5153 -0.5080
   98TCq2    C4 1495   1.674   3.309   0.291  0.3614 -0.1996  0.6451
   98TCq2    C5 1496   1.721   3.434   0.270  0.6254  0.1687  0.1953
   98TCq2    C6 1497   1.835   3.474   0.336 -0.2207 -0.3248  0.4943
   98TCq2    C7 1498   1.898   3.407   0.433  0.4401  0.6571 -0.5646
   98TCq2    C8 1499   1.890   3.609   0.311  0.8022 -0.4922 -0.3382
   98TCq2    O4 1500   2.009   3.617   0.324  0.3560 -0.0452  0.0807
   98TCq2    C9 1501   1.548   3.265   0.234  0.5505 -0.2926 -0.6205
   98TCq2    O5 1502   1.474   3.352   0.177  0.4588 -0.0432 -0.3301
   98TCq2    O6 1503   1.506   3.154   0.276  0.1134 -0.0144 -0.1902
   98TCq2    H2 1504   1.681   3.137   0.424  3.0049 -1.6675  1.9589
   98TCq2    H3 1505   1.672   3.495   0.195 -2.5681 -2.3839  0.2296
   98TCq2    H4 1506   1.986   3.436   0.489 -0.9186  1.2600  1.2795
   99MPD2     C 1507   0.961   1.229   1.444  0.1275 -0.3017  0.1111
   99MPD2    C1 1508   0.837   1.225   1.509  0.1236 -0.1608 -0.1263
   99MPD2    C2 1509   0.740   1.132   1.478  0.3641  0.3566 -0.1020
   99MPD2    C3 1510   0.768   1.040   1.386 -0.5761 -0.7426 -0.8961
   99MPD2    C4 1511   0.887   1.045   1.308  0.2513 -0.6482 -0.3022
   99MPD2    C5 1512   0.976   1.145   1.341 -0.5194  0.7297 -0.4330
   99MPD2     H 1513   0.640   1.135   1.519  0.5025 -0.8135  0.3063
   99MPD2    H1 1514   0.904   0.985   1.220  0.9999 -0.5325 -0.2424
   99MPD2    H2 1515   1.039   1.303   1.457 -0.1366 -0.1296  0.7216
   99MPD2    H3 1516   1.070   1.143   1.286 -0.6172  2.3522 -0.6592
   99MPD2     N 1517   0.667   0.949   1.353  0.3902 -0.9791  0.1430
   99MPD2    H5 1518   0.578   0.960   1.401  0.9130 -0.5923  1.0249
   99MPD2    N1 1519   0.811   1.309   1.615 -0.0209 -0.0199  0.3434
   99MPD2    H7 1520   0.724   1.286   1.663 -0.9187 -1.0528 -1.7735
  100TCq2    C1 1521   0.880   1.426   1.654 -0.6409 -0.1859  0.4557
  100TCq2    O2 1522   0.983   1.475   1.611  0.4996  0.1010  0.1280
  100TCq2    C2 1523   0.827   1.486   1.778  0.0285 -0.4609  0.0793
  100TCq2    C3 1524   0.910   1.559   1.848 -0.1195  0.1600 -0.1775
  100TCq2    C4 1525   0.873   1.629   1.960 -0.0314  0.0539 -0.0317
  100TCq2    C5 1526   0.744   1.609   2.000  0.2221  0.4082  0.0906
  100TCq2    C6 1527   0.664   1.522   1.925 -0.5838 -0.4329 -0.7420
  100TCq2    C7 1528   0.701   1.461   1.811 -0.4764 -0.0504  0.2233
  100TCq2    C8 1529   0.536   1.477   1.991  0.6184  0.5049 -0.0776
  100TCq2    O4 1530   0.504   1.541   2.090 -0.0549 -0.4585  0.3291
  100TCq2    C9 1531   0.968   1.713   2.032 -0.1391  0.1821  0.2491
  100TCq2    O5 1532   0.942   1.721   2.158  0.1576 -0.3026 -0.1596
  100TCq2    O6 1533   1.087   1.709   1.996  0.0935  0.1453 -1.0095
  100TCq2    H2 1534   1.008   1.575   1.804  1.9909 -1.4280  3.9655
  100TCq2    H3 1535   0.705   1.660   2.087  2.1943 -0.3091  1.3920
  100TCq2    H4 1536   0.628   1.420   1.742 -2.9698  3.2187  0.9690
  101MPD2     C 1537   1.718   1.082  13.175  0.2202  0.7634  0.1135
  101MPD2    C1 1538   1.648   1.132  13.284  0.0812  0.2430  0.2064
  101MPD2    C2 1539   1.526   1.067  13.316 -0.2544  0.0751  0.9284
  101MPD2    C3 1540   1.471   0.976  13.230  0.2873 -0.4979 -0.0937
  101MPD2    C4 1541   1.541   0.940  13.116 -0.6458  1.0730  0.4719
  101MPD2    C5 1542   1.667   0.985  13.086 -0.1201  0.4021  0.0693
  101MPD2     H 1543   1.469   1.090  13.405 -1.8586 -0.4439  0.0496
  101MPD2    H1 1544   1.500   0.875  13.040  0.8349  1.9242 -1.0531
  101MPD2    H2 1545   1.816   1.121  13.148  0.7666  1.2981  2.8270
  101MPD2    H3 1546   1.730   0.955  13.003 -0.2866  1.2356 -0.3551
  101MPD2     N 1547   1.350   0.915  13.271  0.3457  0.0942  0.8058
  101MPD2    H5 1548   1.311   0.959  13.354  0.7438 -1.5611  1.8780
  101MPD2    N1 1549   1.702   1.244  13.357  0.4088 -0.2664  0.1586
  101MPD2    H7 1550   1.793   1.271  13.322  0.7643 -0.9713  0.5455
  102TCq2    C1 1551   2.029   1.593  13.404 -0.3533 -0.2851 -0.1166
  102TCq2    O2 1552   2.024   1.581  13.283  0.1093  0.3198  0.0737
  102TCq2    C2 1553   1.903   1.576  13.475  0.4808  0.9498  0.0583
  102TCq2    C3 1554   1.913   1.592  13.615 -0.6335 -0.3776 -0.0812
  102TCq2    C4 1555   1.838   1.516  13.697  0.1430  0.0461  0.3466
  102TCq2    C5 1556   1.747   1.432  13.642  0.9438  0.9276  0.7142
  102TCq2    C6 1557   1.740   1.404  13.514  0.0146  0.1553 -0.3267
  102TCq2    C7 1558   1.811   1.484  13.424 -0.3971 -0.5347 -0.6342
  102TCq2    C8 1559   1.648   1.299  13.469  0.1226  0.6435  0.3018
  102TCq2    O4 1560   1.563   1.248  13.543 -0.0861  0.2113 -0.4439
  102TCq2    C9 1561   1.846   1.541  13.844 -0.4031  0.1839 -0.3523
  102TCq2    O5 1562   1.793   1.467  13.926 -0.5307  0.7655  0.5446
  102TCq2    O6 1563   1.931   1.627  13.882 -0.0181  0.2992  0.3629
  102TCq2    H2 1564   1.974   1.667  13.664 -2.7631  1.1684  0.1677
  102TCq2    H3 1565   1.681   1.383  13.714 -1.2727 -2.7237 -3.8225
  102TCq2    H4 1566   1.800   1.468  13.317 -0.2394  0.5171 -0.8036
  103TMC2    C1 1567   4.438   1.352  12.246 -0.6693 -0.4192 -0.6283
  103TMC2    C2 1568   4.549   1.378  12.176  0.0560  0.1975 -0.1956
  103TMC2    C3 1569   4.641   1.460  12.237 -0.1137  0.2801  0.4924
  103TMC2    C4 1570   4.413   1.426  12.358 -0.4123  0.2693  0.3909
  103TMC2    C5 1571   4.508   1.503  12.420  0.7952 -0.4616 -0.0552
  103TMC2    C6 1572   4.629   1.517  12.361 -0.1043  0.6145  0.6741
  103TMC2     C 1573   4.328   1.297  12.171 -0.2492 -0.6564 -0.0277
  103TMC2     O 1574   4.216   1.318  12.214  0.1352  0.3260 -0.7077
  103TMC2     H 1575   4.574   1.350  12.074 -0.9118  1.3940 -0.7558
  103TMC2    H1 1576   4.319   1.401  12.407 -0.0273  0.7426  1.3767
  103TMC2    H2 1577   4.717   1.567  12.400  0.2100  0.4398  0.1906
  103TMC2    C7 1578   4.460   1.555  12.542 -0.5006 -0.6815  0.1401
  103TMC2    C8 1579   0.041   1.473  12.165 -0.1771  0.9068 -0.0286
  103TMC2    O1 1580   4.378   1.498  12.610  0.2176  0.3973 -0.2676
  103TMC2    O2 1581   0.120   1.564  12.183 -0.2960 -0.2591 -0.1811
  103TMC2    O5 1582   0.078   1.344  12.181 -0.9930 -0.2976  0.1011
  103TMC2    H5 1583   0.011   1.277  12.206 -1.2821  0.8433  2.4549
  104MPD2     C 1584   4.321   1.167  11.838  0.2874  0.0646  0.4703
  104MPD2    C1 1585   4.275   1.237  11.945 -0.9410  0.2461  0.1832
  104MPD2    C2 1586   4.155   1.308  11.938  0.2157  0.3735  0.0820
  104MPD2    C3 1587   4.084   1.316  11.819 -0.3876 -0.3873  0.1056
  104MPD2    C4 1588   4.134   1.243  11.711  0.0010 -0.0082 -0.7959
  104MPD2    C5 1589   4.239   1.155  11.731 -0.2450  0.1313  0.1961
  104MPD2     H 1590   4.112   1.357  12.025  1.4124 -1.2649  1.5954
  104MPD2    H1 1591   4.070   1.236  11.624  0.3248 -0.2077 -1.0172
  104MPD2    H2 1592   4.409   1.105  11.853 -0.7884 -1.3016  1.1473
  104MPD2    H3 1593   4.277   1.101  11.645  0.7089  1.2985 -0.1118
  104MPD2     N 1594   3.970   1.397  11.813  0.1503  0.3283  0.3345
  104MPD2    H5 1595   3.951   1.446  11.900  0.2113  2.6750 -0.9982
  104MPD2    N1 1596   4.362   1.239  12.054 -0.3748  0.0500  0.0443
  104MPD2    H7 1597   4.447   1.183  12.055 -0.6752 -0.4041  0.9864
  105MPD2     C 1598   1.294   0.857  17.455  0.1545 -0.3256 -0.6628
  105MPD2    C1 1599   1.256   0.983  17.411  0.0160 -0.4467  0.1673
  105MPD2    C2 1600   1.251   1.085  17.499  0.6459  0.2418 -0.7545
  105MPD2    C3 1601   1.292   1.068  17.634 -0.5152  0.1213  0.0169
  105MPD2    C4 1602   1.319   0.935  17.676  0.4366  0.9156  0.4282
  105MPD2    C5 1603   1.328   0.832  17.585  0.4457 -0.2659 -0.4394
  105MPD2     H 1604   1.206   1.178  17.466  1.9356  0.6275 -1.4380
  105MPD2    H1 1605   1.335   0.891   0.072 -1.6646  0.7038  0.6748
  105MPD2    H2 1606   1.276   0.767  17.399  1.1080 -0.8953 -0.0522
  105MPD2    H3 1607   1.343   0.732  17.625  1.1344 -0.9024 -2.2866
  105MPD2     N 1608   1.258   1.166   0.022  0.1524 -0.0728 -0.2851
  105MPD2    H5 1609   1.244   1.257  17.683  1.1589  1.0108  1.7940
  105MPD2    N1 1610   1.202   1.008  17.286  0.1139 -0.6887  0.0879
  105MPD2    H7 1611   1.164   1.100  17.270  2.3381  0.7473  3.1630
  106TCq2    C1 1612   1.260   1.154   0.158  1.2145 -0.1821 -0.0569
  106TCq2    O2 1613   1.298   1.063   0.232 -0.3189 -0.0933 -0.1413
  106TCq2    C2 1614   1.184   1.258   0.224  0.3136  0.5189 -0.1831
  106TCq2    C3 1615   1.200   1.387   0.193 -0.0944  0.3446  0.1676
  106TCq2    C4 1616   1.100   1.472   0.239  0.5421  0.7720  0.1850
  106TCq2    C5 1617   0.996   1.433   0.323  0.2398 -0.2789  0.9212
  106TCq2    C6 1618   0.989   1.303   0.345 -0.0961 -0.1941  0.2737
  106TCq2    C7 1619   1.084   1.211   0.303 -0.5375  0.1763 -0.0293
  106TCq2    C8 1620   0.869   1.248   0.399 -0.1528 -0.3693  0.0600
  106TCq2    O4 1621   0.862   1.129   0.386 -0.1010 -0.5802  0.6325
  106TCq2    C9 1622   1.119   1.614   0.215  0.3627  0.3847  0.1613
  106TCq2    O5 1623   1.034   1.701   0.258 -0.0545 -0.5986  0.2878
  106TCq2    O6 1624   1.233   1.644   0.175 -0.1903  0.3495  0.4077
  106TCq2    H2 1625   1.292   1.414   0.142 -0.0330 -0.1325  0.0297
  106TCq2    H3 1626   0.930   1.506   0.367  0.2751  0.8764 -0.9400
  106TCq2    H4 1627   1.078   1.105   0.322 -1.1305 -0.1046 -1.7863
  107TMC2    C1 1628   1.722   0.524  12.088  0.4388  0.2364 -0.9173
  107TMC2    C2 1629   1.739   0.626  11.993 -0.1552  0.2925 -0.4318
  107TMC2    C3 1630   1.828   0.598  11.894  0.7299 -0.4234  0.0886
  107TMC2    C4 1631   1.765   0.398  12.070 -0.1978 -0.0228  0.2794
  107TMC2    C5 1632   1.837   0.366  11.956  0.0790  0.3377  0.3612
  107TMC2    C6 1633   1.873   0.475  11.874 -0.1821  0.0613 -0.1756
  107TMC2     C 1634   1.622   0.538  12.197  0.4231  0.4269  0.5299
  107TMC2     O 1635   1.616   0.454  12.283  0.1243 -0.1751 -0.2335
  107TMC2     H 1636   1.716   0.730  12.011 -1.0395  0.0808 -0.3577
  107TMC2    H1 1637   1.727   0.328  12.143 -0.1975  0.7603  1.0165
  107TMC2    H2 1638   1.913   0.461  11.774  1.0095 -0.8862  0.4366
  107TMC2    C7 1639   1.785   0.238  11.903  0.6982 -0.1893  0.1662
  107TMC2    C8 1640   1.874   0.698  11.807 -0.1741 -0.4207 -0.6074
  107TMC2    O1 1641   1.697   0.179  11.965 -0.2093 -0.5087 -0.2702
  107TMC2    O2 1642   1.819   0.807  11.803  0.0262 -0.5410 -0.1084
  107TMC2    O5 1643   2.003   0.674  11.773 -0.2416  0.4494  0.2966
  107TMC2    H5 1644   2.047   0.600  11.820  1.0930  0.8127 -0.3602
  108MPD2     C 1645   1.379   0.808  12.229 -0.2970 -0.1279 -0.0942
  108MPD2    C1 1646   1.436   0.690  12.268  0.2671  0.5712 -0.8170
  108MPD2    C2 1647   1.386   0.616  12.369 -0.4008  0.1555 -0.5215
  108MPD2    C3 1648   1.272   0.657  12.436 -0.5506 -0.6177 -0.0422
  108MPD2    C4 1649   1.204   0.771  12.391 -0.3664 -0.4384  0.5367
  108MPD2    C5 1650   1.258   0.847  12.285  0.3334  0.4540  0.5974
  108MPD2     H 1651   1.431   0.520  12.393 -1.1619  0.1968  1.0841
  108MPD2    H1 1652   1.111   0.796  12.440  0.1137 -0.0857  1.2649
  108MPD2    H2 1653   1.414   0.866  12.145  0.8535 -0.1915  0.3515
  108MPD2    H3 1654   1.202   0.935  12.255 -0.6803 -0.4119 -0.0182
  108MPD2     N 1655   1.216   0.595  12.550  0.2583 -0.1853 -0.3050
  108MPD2    H5 1656   1.136   0.644  12.591  0.9693  0.6549  0.0673
  108MPD2    N1 1657   1.542   0.649  12.184 -0.3316 -0.3761 -0.7443
  108MPD2    H7 1658   1.558   0.706  12.102  0.0694 -0.7190 -0.9044
  109MPD2     C 1659   1.303   3.314   0.534 -0.3203  0.3972  0.1630
  109MPD2    C1 1660   1.339   3.192   0.609  0.1949 -0.1855 -0.5943
  109MPD2    C2 1661   1.296   3.180   0.741  0.2831 -0.1677 -0.1407
  109MPD2    C3 1662   1.204   3.268   0.793  0.0631  0.0200  0.0169
  109MPD2    C4 1663   1.161   3.375   0.719 -0.5279  0.3356 -0.3800
  109MPD2    C5 1664   1.215   3.399   0.590  0.3914  0.4939  0.2195
  109MPD2     H 1665   1.326   3.096   0.802  0.1123 -1.2030 -1.4782
  109MPD2    H1 1666   1.081   3.443   0.743 -2.0538 -1.6313  0.0981
  109MPD2    H2 1667   1.324   3.314   0.428 -0.0101  0.4648  0.2245
  109MPD2    H3 1668   1.180   3.480   0.527  0.6701  0.5085  0.0832
  109MPD2     N 1669   1.153   3.256   0.931  0.5175  0.0169 -0.0617
  109MPD2    H5 1670   1.191   3.180   0.986  0.2855  1.0969  1.6167
  109MPD2    N1 1671   1.419   3.100   0.543 -0.5554 -0.5210 -0.2871
  109MPD2    H7 1672   1.431   3.110   0.443 -1.0808 -1.5590 -0.4544
  110TCq2    C1 1673   1.074   3.343   0.995  0.2631  0.4441  0.6650
  110TCq2    O2 1674   1.034   3.456   0.959 -0.1838 -0.0426  0.0819
  110TCq2    C2 1675   1.039   3.289   1.123 -0.1318  0.2970 -0.3327
  110TCq2    C3 1676   0.990   3.387   1.205  0.4180 -0.3572  0.7958
  110TCq2    C4 1677   0.999   3.357   1.339 -0.7460 -0.1120  0.2865
  110TCq2    C5 1678   1.063   3.246   1.391  0.6585 -0.1136  0.0784
  110TCq2    C6 1679   1.110   3.155   1.295 -0.6880 -0.8538  0.6013
  110TCq2    C7 1680   1.099   3.169   1.161 -0.7825  0.1941  0.2224
  110TCq2    C8 1681   1.201   3.054   1.349 -0.5502  0.3692  0.0454
  110TCq2    O4 1682   1.281   3.005   1.267  0.0263 -0.2002  0.4834
  110TCq2    C9 1683   0.956   3.458   1.432  0.5192 -0.0208  0.3012
  110TCq2    O5 1684   0.914   3.566   1.388 -0.0519 -0.0423  0.2387
  110TCq2    O6 1685   0.968   3.431   1.555 -0.5238 -0.1979 -0.1268
  110TCq2    H2 1686   0.934   3.476   1.179 -1.2790 -2.0218 -1.1572
  110TCq2    H3 1687   1.074   3.235   1.498  0.8723 -0.4091  0.0259
  110TCq2    H4 1688   1.121   3.079   1.106  3.2282  1.0864  0.3474
  111TMC2    C1 1689   1.626   2.318  12.338  0.1195  0.5530 -0.1673
  111TMC2    C2 1690   1.563   2.336  12.454  0.5519  0.6381 -0.5080
  111TMC2    C3 1691   1.616   2.287  12.569  0.2992 -0.4168 -0.1816
  111TMC2    C4 1692   1.754   2.263  12.329  0.0333 -0.2505  0.4246
  111TMC2    C5 1693   1.806   2.224  12.454 -0.8007 -0.3646 -0.2996
  111TMC2    C6 1694   1.735   2.223  12.572 -0.2017  0.1426  1.0575
  111TMC2     C 1695   1.550   2.332  12.217  0.5770 -0.1849 -0.5743
  111TMC2     O 1696   1.607   2.355  12.117 -0.5497 -0.0491  0.0831
  111TMC2     H 1697   1.470   2.392  12.457 -1.0893 -2.0193 -1.2444
  111TMC2    H1 1698   1.807   2.261  12.234  0.1156 -0.4072  0.4729
  111TMC2    H2 1699   1.779   2.197  12.668  0.0128  0.4231  1.0367
  111TMC2    C7 1700   1.942   2.170  12.469  0.3687 -0.1632 -0.2994
  111TMC2    C8 1701   1.548   2.335  12.692 -0.0177 -0.0374  0.2428
  111TMC2    O1 1702   1.971   2.139  12.583 -0.2434 -0.2418  0.5377
  111TMC2    O2 1703   1.489   2.442  12.694 -0.8541  0.5819 -0.7052
  111TMC2    O5 1704   1.589   2.260  12.805  0.1510 -0.3821 -0.1855
  111TMC2    H5 1705   1.634   2.172  12.798  0.0401 -0.4324 -0.2660
  112MPD2     C 1706   1.098   2.336  11.969  0.3034 -0.2888 -0.2263
  112MPD2    C1 1707   1.220   2.385  11.941  0.3688 -0.0232  0.4988
  112MPD2    C2 1708   1.328   2.360  12.026 -0.5501  0.2676 -0.2794
  112MPD2    C3 1709   1.318   2.298  12.145  0.0149 -0.2795  0.0124
  112MPD2    C4 1710   1.194   2.252  12.180 -0.1296 -0.1090  0.4221
  112MPD2    C5 1711   1.086   2.269  12.093 -0.1198  0.3670 -0.3437
  112MPD2     H 1712   1.419   2.403  11.986  0.3150 -1.2520  0.0447
  112MPD2    H1 1713   1.176   2.196  12.272 -0.2566  0.7951  0.9520
  112MPD2    H2 1714   1.013   2.346  11.902 -2.2030 -2.5547  2.5768
  112MPD2    H3 1715   0.984   2.246  12.121  0.0686 -0.7935 -0.6105
  112MPD2     N 1716   1.420   2.290  12.235 -0.5278  0.0412 -0.4558
  112MPD2    H5 1717   1.404   2.235  12.319 -1.4643 -1.0342 -1.3194
  112MPD2    N1 1718   1.240   2.461  11.817  0.5132 -0.0631  0.9691
  112MPD2    H7 1719   1.336   2.462  11.785  0.5513  1.1946  1.1273
  113MPD2     C 1720   3.914   1.037   0.463 -0.6186  0.2675  0.1033
  113MPD2    C1 1721   3.922   1.026   0.597 -0.3400  0.1189 -0.3969
  113MPD2    C2 1722   3.809   0.998   0.673 -0.5806  0.0803 -0.3554
  113MPD2    C3 1723   3.688   0.992   0.612  0.8641  0.4116 -0.9498
  113MPD2    C4 1724   3.673   1.017   0.482  0.9026 -0.4466  0.5058
  113MPD2    C5 1725   3.789   1.026   0.406  0.5784 -0.0196 -0.1465
  113MPD2     H 1726   3.817   0.980   0.780 -2.2832 -2.2838 -0.6378
  113MPD2    H1 1727   3.577   1.008   0.433  1.0302  0.9292 -0.0133
  113MPD2    H2 1728   4.000   1.058   0.400  0.1334 -3.3105 -0.0613
  113MPD2    H3 1729   3.782   1.037   0.298  0.3003  0.6956 -0.0538
  113MPD2     N 1730   3.575   0.955   0.685 -0.1978  0.1189  0.0184
  113MPD2    H5 1731   3.493   0.925   0.633  0.8164 -2.8499  0.1345
  113MPD2    N1 1732   4.041   1.024   0.665 -0.3309 -0.2931  0.2381
  113MPD2    H7 1733   4.032   1.028   0.766  0.3414  0.5214  0.2740
  114TCq2    C1 1734   3.544   0.929   0.818 -0.2822  0.7702 -0.2202
  114TCq2    O2 1735   3.615   0.958   0.914 -0.2903  0.2751  0.0196
  114TCq2    C2 1736   3.404   0.896   0.837  0.1811 -0.2730 -0.4487
  114TCq2    C3 1737   3.317   0.949   0.751 -0.9809 -0.4231  0.4324
  114TCq2    C4 1738   3.185   0.906   0.754  0.2657 -0.3339  0.5855
  114TCq2    C5 1739   3.147   0.802   0.840  0.3883  0.0146 -0.0194
  114TCq2    C6 1740   3.238   0.752   0.922 -0.2049  1.3032  0.4084
  114TCq2    C7 1741   3.365   0.799   0.927 -0.5398  0.7607  0.6906
  114TCq2    C8 1742   3.186   0.651   1.011  0.2253  0.2458  0.6255
  114TCq2    O4 1743   3.066   0.643   1.033 -0.3215 -0.0963 -0.4677
  114TCq2    C9 1744   3.087   0.963   0.671 -0.3984 -0.4233  0.1269
  114TCq2    O5 1745   2.974   0.906   0.672 -0.4372  0.3284  0.3503
  114TCq2    O6 1746   3.113   1.077   0.621 -1.0405  0.3383  0.4451
  114TCq2    H2 1747   3.349   1.015   0.671  2.3403 -1.6468  0.7316
  114TCq2    H3 1748   3.048   0.758   0.842  0.2931  0.2481  0.3397
  114TCq2    H4 1749   3.438   0.774   1.003 -0.4216 -0.2320  0.2518
  115TMC2    C1 1750   0.499   3.067  17.701  0.3047  0.2167 -0.0354
  115TMC2    C2 1751   0.625   3.044  17.648 -0.4961  0.4718 -0.2249
  115TMC2    C3 1752   0.673   3.146  17.570 -0.0856 -0.3083  0.3858
  115TMC2    C4 1753   0.421   3.175  17.671 -0.6727  0.0033  0.3614
  115TMC2    C5 1754   0.476   3.274  17.597 -0.2573 -0.2851 -0.2520
  115TMC2    C6 1755   0.597   3.256  17.536  0.9132 -0.3894  0.1205
  115TMC2     C 1756   0.436   2.942   0.028  0.0555  0.3827 -0.2250
  115TMC2     O 1757   0.499   2.851  17.671  0.1011 -0.4068 -0.4903
  115TMC2     H 1758   0.688   2.966  17.691 -1.0822 -0.8488 -1.7639
  115TMC2    H1 1759   0.325   3.195   0.015 -0.0072 -0.6682  2.0424
  115TMC2    H2 1760   0.649   3.340  17.491 -0.9987 -0.2035 -1.7634
  115TMC2    C7 1761   0.395   3.393  17.561 -0.3244 -0.5328  0.3311
  115TMC2    C8 1762   0.812   3.145  17.521 -0.2415 -0.8030 -0.6039
  115TMC2    O1 1763   0.307   3.437  17.636 -0.4313 -0.2272  0.0296
  115TMC2    O2 1764   0.869   3.252  17.516  0.8775 -0.2839  0.6200
  115TMC2    O5 1765   0.878   3.030  17.558 -0.4858 -0.6367 -0.2324
  115TMC2    H5 1766   0.824   2.950  17.543 -0.0156 -0.7366 -1.3530
  116MPD2     C 1767   0.056   2.658   0.211 -0.7507  0.0924 -0.5511
  116MPD2    C1 1768   0.138   2.635   0.107 -0.3276 -0.5185 -0.6008
  116MPD2    C2 1769   0.248   2.718   0.085 -0.0359  0.3179 -0.0085
  116MPD2    C3 1770   0.249   2.836   0.155 -0.4634  0.0515 -0.9438
  116MPD2    C4 1771   0.154   2.865   0.249 -0.0891 -0.4492 -0.4477
  116MPD2    C5 1772   0.074   2.768   0.288  0.3063 -0.3913  0.5859
  116MPD2     H 1773   0.326   2.699   0.012  0.2599 -1.1225  0.6855
  116MPD2    H1 1774   0.158   2.956   0.308 -0.8121 -1.9411  1.8882
  116MPD2    H2 1775   4.688   2.603   0.219 -2.1014  2.6002  0.8471
  116MPD2    H3 1776   0.017   2.774   0.380  0.5126  0.5068  0.6565
  116MPD2     N 1777   0.328   2.944   0.117 -0.9174 -0.6951  0.8457
  116MPD2    H5 1778   0.290   3.030   0.156  2.7107  0.2871  2.1928
  116MPD2    N1 1779   0.107   2.510   0.034 -0.1058  0.0129  0.2060
  116MPD2    H7 1780   0.032   2.455   0.073 -0.0321  1.4235  2.3727
  117TMC2    C1 1781   3.395   3.935  14.069  0.7577  0.6727  0.4281
  117TMC2    C2 1782   3.459   3.877  13.962  0.4356 -0.0095  0.5775
  117TMC2    C3 1783   3.569   3.939  13.907  0.3692 -0.1896 -0.2520
  117TMC2    C4 1784   3.454   4.040  14.124 -0.6598 -0.3430 -0.3727
  117TMC2    C5 1785   3.571   4.099  14.071 -0.2773  0.3183  0.8624
  117TMC2    C6 1786   3.626   4.052  13.956  0.1619 -0.6271 -0.2257
  117TMC2     C 1787   3.260   3.969  14.015  0.0434  0.2267 -0.4273
  117TMC2     O 1788   3.192   3.885  13.956 -0.0721 -0.5634 -0.5099
  117TMC2     H 1789   3.423   3.795  13.901  1.0356  0.9939 -1.1398
  117TMC2    H1 1790   3.420   4.075  14.220  1.7133  0.4230  0.1805
  117TMC2    H2 1791   3.707   4.099  13.903  0.5061 -2.9817 -1.7760
  117TMC2    C7 1792   3.548   4.248  14.077  0.2139  0.0208  0.0892
  117TMC2    C8 1793   3.602   3.901  13.771 -0.0278  0.6882  0.0478
  117TMC2    O1 1794   3.436   4.281  14.123 -0.5697  0.4898 -0.5869
  117TMC2    O2 1795   3.515   3.867  13.691 -0.4711 -0.3534  0.0655
  117TMC2    O5 1796   3.734   3.889  13.760  0.3944  0.3095  0.0841
  117TMC2    H5 1797   3.782   3.917  13.841  0.4462  1.3979 -0.3214
  118MPD2     C 1798   3.549   4.544  14.053 -0.5757  0.3572  0.0111
  118MPD2    C1 1799   3.657   4.461  14.029 -0.3958  0.4260 -0.1626
  118MPD2    C2 1800   3.771   4.526  13.992 -0.2369 -0.6664 -0.0082
  118MPD2    C3 1801   3.783   4.664  13.966  0.2880  0.5427 -0.1600
  118MPD2    C4 1802   3.672   0.013  14.001  0.0210  0.9385 -0.2059
  118MPD2    C5 1803   3.555   4.680  14.042 -0.2321  0.1974 -0.1917
  118MPD2     H 1804   3.858   4.463  13.974  1.1930  1.6133 -1.0642
  118MPD2    H1 1805   3.682   0.117  13.973  0.8587  1.2137  1.1004
  118MPD2    H2 1806   3.448   4.508  14.067 -0.3462 -0.3128 -0.0321
  118MPD2    H3 1807   3.466   0.018  14.046 -0.8644 -0.7808  1.1384
  118MPD2     N 1808   3.890   4.722  13.902  0.0505  0.3580 -0.8055
  118MPD2    H5 1809   3.889   0.098  13.900 -0.8076  0.4171  2.2832
  118MPD2    N1 1810   3.658   4.319  14.043  0.6787  0.0796 -0.2699
  118MPD2    H7 1811   3.741   4.261  14.032  0.8862  0.5391 -1.1017
  119MPD2     C 1812   2.079   1.250  13.767  0.1820 -0.2618 -0.3715
  119MPD2    C1 1813   1.962   1.183  13.795  0.1910 -0.0337 -0.3101
  119MPD2    C2 1814   1.908   1.104  13.696 -0.1716  0.6927  0.4130
  119MPD2    C3 1815   1.964   1.087  13.569 -0.6967  0.0380 -0.2525
  119MPD2    C4 1816   2.074   1.161  13.547  0.9355 -0.2691  0.2746
  119MPD2    C5 1817   2.128   1.245  13.640  0.7354 -0.9222  0.3151
  119MPD2     H 1818   1.807   1.066  13.713 -0.4437  0.3081 -2.0398
  119MPD2    H1 1819   2.119   1.161  13.449 -0.5454  0.9826 -0.3986
  119MPD2    H2 1820   2.131   1.313  13.838  0.2211 -2.7678  1.8036
  119MPD2    H3 1821   2.218   1.298  13.610  0.4862 -0.6661  0.0247
  119MPD2     N 1822   1.927   0.983  13.479 -0.2221 -0.5136 -0.0095
  119MPD2    H5 1823   1.981   0.962  13.396 -0.5045  2.1704 -0.8671
  119MPD2    N1 1824   1.908   1.201  13.925 -0.2729 -0.2687  0.8034
  119MPD2    H7 1825   1.946   1.282  13.974 -0.8247  0.9159 -0.7272
  120TCq2    C1 1826   1.823   0.894  13.497  0.6093 -0.1172 -0.3365
  120TCq2    O2 1827   1.747   0.881  13.595 -0.4987  0.1868 -0.8069
  120TCq2    C2 1828   1.816   0.786  13.398 -0.3882  0.3009  0.2193
  120TCq2    C3 1829   1.908   0.788  13.289  0.6763 -0.6586 -0.2335
  120TCq2    C4 1830   1.958   0.666  13.242  0.1399 -0.1274 -0.5963
  120TCq2    C5 1831   1.923   0.550  13.299 -0.5087  0.1862 -0.0265
  120TCq2    C6 1832   1.833   0.556  13.403 -0.4647  0.4230 -0.2366
  120TCq2    C7 1833   1.777   0.668  13.455  0.0504 -0.8406  0.4726
  120TCq2    C8 1834   1.775   0.427  13.443  0.0624 -0.4975 -0.7811
  120TCq2    O4 1835   1.802   0.333  13.368 -0.1061 -0.0794 -0.3547
  120TCq2    C9 1836   2.029   0.658  13.121  0.3813  0.4945  0.1902
  120TCq2    O5 1837   2.082   0.551  13.086 -0.5469 -0.1998  0.1568
  120TCq2    O6 1838   1.993   0.747  13.038 -0.2273  0.6124  0.3560
  120TCq2    H2 1839   1.921   0.883  13.238  2.0305 -0.0653  1.2032
  120TCq2    H3 1840   1.948   0.460  13.244 -2.3616 -0.2472 -0.1818
  120TCq2    H4 1841   1.708   0.663  13.539 -0.0550 -1.6512  0.3342
  121TMC2    C1 1842   3.422   2.473  14.105 -0.2619  0.3445 -1.0354
  121TMC2    C2 1843   3.382   2.344  14.103  0.1252 -0.8172 -1.0918
  121TMC2    C3 1844   3.252   2.319  14.061  0.1810  0.0183  0.4630
  121TMC2    C4 1845   3.349   2.573  14.062 -0.0034  0.7607  0.5834
  121TMC2    C5 1846   3.223   2.542  14.016  0.2867  0.2241 -0.2626
  121TMC2    C6 1847   3.172   2.414  14.012  0.2528 -0.3033  0.4019
  121TMC2     C 1848   3.563   2.494  14.117 -0.4329  0.6826  0.3902
  121TMC2     O 1849   3.628   2.420  14.189  0.3861  0.0758  0.7293
  121TMC2     H 1850   3.440   2.272  14.159  0.6397  0.6047  0.2014
  121TMC2    H1 1851   3.385   2.675  14.062 -0.8695  1.0693 -0.7763
  121TMC2    H2 1852   3.078   2.379  13.971  0.1359  0.5374 -0.0411
  121TMC2    C7 1853   3.141   2.661  13.979 -0.1101  0.2925  0.8878
  121TMC2    C8 1854   3.216   2.173  14.051  1.1726  0.0047 -0.4002
  121TMC2    O1 1855   3.201   2.765  13.968  0.7652 -0.3700 -0.1048
  121TMC2    O2 1856   3.102   2.141  14.064  0.3745 -0.1454 -0.7373
  121TMC2    O5 1857   3.322   2.102  13.997  0.1823  0.4637 -0.2848
  121TMC2    H5 1858   3.388   2.154  13.948 -0.1042  1.2509  0.1633
  122MPD2     C 1859   3.832   2.622  14.128 -0.2288 -0.0516  0.4026
  122MPD2    C1 1860   3.737   2.642  14.031 -0.0463  0.3537 -0.0035
  122MPD2    C2 1861   3.762   2.740  13.931  0.1735 -0.0512 -0.4844
  122MPD2    C3 1862   3.885   2.799  13.913  0.2367 -0.8598 -0.3842
  122MPD2    C4 1863   3.978   2.781  14.015  0.0013 -0.0130  0.2924
  122MPD2    C5 1864   3.948   2.694  14.121 -0.2393 -0.0565  0.3826
  122MPD2     H 1865   3.677   2.761  13.867 -0.5163 -0.4188  0.3123
  122MPD2    H1 1866   4.082   2.807  13.996 -1.3882  3.5891 -2.2442
  122MPD2    H2 1867   3.810   2.561  14.215 -1.1640 -1.0466 -0.5474
  122MPD2    H3 1868   4.026   2.678  14.194 -0.3185  0.7497  0.6448
  122MPD2     N 1869   3.913   2.894  13.821  0.7181  0.3102  0.3725
  122MPD2    H5 1870   3.995   2.954  13.828  0.3953  0.7753  0.1311
  122MPD2    N1 1871   3.610   2.581  14.029 -0.0057 -0.9439  0.3776
  122MPD2    H7 1872   3.551   2.617  13.954 -0.0570  0.0443  0.8983
  123MPD2     C 1873   2.622   0.582   9.550 -0.0269  0.0666  0.0871
  123MPD2    C1 1874   2.614   0.469   9.627 -0.6037  0.3494 -0.1509
  123MPD2    C2 1875   2.728   0.434   9.696 -0.0011 -0.0961  0.5951
  123MPD2    C3 1876   2.842   0.508   9.697  0.6967 -0.2836 -0.2084
  123MPD2    C4 1877   2.844   0.624   9.614  0.0554 -0.0698  0.1178
  123MPD2    C5 1878   2.738   0.650   9.544  0.7059 -0.1976 -0.6938
  123MPD2     H 1879   2.724   0.354   9.768 -1.6868  0.2363  0.8893
  123MPD2    H1 1880   2.927   0.692   9.605  0.0083  0.3060  2.5586
  123MPD2    H2 1881   2.540   0.619   9.490 -0.8678  2.2264  2.5246
  123MPD2    H3 1882   2.737   0.743   9.488  1.2246 -0.3005 -0.8658
  123MPD2     N 1883   2.945   0.468   9.789 -0.0708 -0.3037 -0.0414
  123MPD2    H5 1884   2.922   0.391   9.851 -1.8528  1.5699  1.6367
  123MPD2    N1 1885   2.491   0.398   9.632 -0.2191 -0.7341  0.0076
  123MPD2    H7 1886   2.418   0.451   9.586 -1.1259  0.0419  2.3399
  124TCq2    C1 1887   3.065   0.529   9.795 -0.0042  0.4885  0.6252
  124TCq2    O2 1888   3.118   0.605   9.713 -0.5612 -0.2050 -0.5491
  124TCq2    C2 1889   3.155   0.475   9.897 -0.5710  0.0534 -0.3370
  124TCq2    C3 1890   3.290   0.471   9.869 -0.0652 -0.1131 -0.2500
  124TCq2    C4 1891   3.377   0.410   9.955 -0.1588  0.6665  0.9245
  124TCq2    C5 1892   3.333   0.352  10.065  0.5943  0.5025 -0.3369
  124TCq2    C6 1893   3.202   0.355  10.096  0.1785  0.0255 -0.0402
  124TCq2    C7 1894   3.109   0.416  10.009 -0.0327  0.1306  0.1180
  124TCq2    C8 1895   3.154   0.286  10.217  0.3582 -0.5151 -0.0772
  124TCq2    O4 1896   3.035   0.255  10.220 -0.1060 -0.0642 -0.2318
  124TCq2    C9 1897   3.521   0.406   9.927  0.6107 -0.5104 -0.0317
  124TCq2    O5 1898   3.601   0.362  10.017  0.2808  0.0520  0.4973
  124TCq2    O6 1899   3.559   0.473   9.830 -0.3369 -0.6982  0.1770
  124TCq2    H2 1900   3.336   0.516   9.782  1.3594 -1.6306 -0.2827
  124TCq2    H3 1901   3.405   0.304  10.131  2.3649  2.3029 -0.9441
  124TCq2    H4 1902   3.001   0.421  10.021 -0.0784 -0.6927  0.0838
  125TMC2    C1 1903   2.801   2.593   9.281  0.1017  0.4594 -1.0280
  125TMC2    C2 1904   2.684   2.656   9.293  0.4143  0.5869  0.1208
  125TMC2    C3 1905   2.673   2.779   9.355 -0.4105 -0.4916  0.1841
  125TMC2    C4 1906   2.920   2.645   9.326  0.3420 -0.4540 -0.2588
  125TMC2    C5 1907   2.902   2.767   9.393 -0.5533  0.2719  0.0463
  125TMC2    C6 1908   2.782   2.843   9.397 -0.8262  0.9060 -0.5443
  125TMC2     C 1909   2.796   2.450   9.236 -0.3261 -0.3142  0.2074
  125TMC2     O 1910   2.904   2.403   9.200 -0.1980  0.1498 -0.1518
  125TMC2     H 1911   2.597   2.611   9.247 -0.0205 -0.5457  2.0567
  125TMC2    H1 1912   3.016   2.596   9.323  0.9952  0.7553  0.7668
  125TMC2    H2 1913   2.779   2.939   9.448  0.2134 -0.0187  1.2764
  125TMC2    C7 1914   3.009   2.844   9.449 -0.4508 -0.4570 -0.0453
  125TMC2    C8 1915   2.560   2.870   9.306 -0.4322  0.3472 -0.4555
  125TMC2    O1 1916   2.974   2.918   9.544  0.0902 -0.2947  0.4385
  125TMC2    O2 1917   2.485   2.829   9.222  0.4791  0.0956 -0.0495
  125TMC2    O5 1918   2.520   2.916   9.424  0.0889  0.6415  0.1702
  125TMC2    H5 1919   2.585   2.904   9.497  1.3503  0.8623 -0.9043
  126MPD1     C 1920   2.589   1.999   9.124 -0.0559 -0.1303 -0.1012
  126MPD1    C1 1921   2.488   2.084   9.148 -0.1461  0.2808 -0.4767
  126MPD1    C2 1922   2.516   2.215   9.168  0.2480 -0.2153  0.7733
  126MPD1    C3 1923   2.646   2.254   9.182 -0.6718  0.2162 -0.2020
  126MPD1    C4 1924   2.752   2.169   9.162 -0.5807 -0.4114  0.1871
  126MPD1    C5 1925   2.722   2.044   9.128  0.7594  0.8310  1.3089
  126MPD1     H 1926   2.445   2.296   9.178 -0.8975 -1.0353 -0.7051
  126MPD1    H1 1927   2.856   2.195   9.181 -0.6005  1.4761 -2.2735
  126MPD1    H2 1928   2.560   1.895   9.113 -0.3724  0.0213 -0.6959
  126MPD1    H3 1929   2.808   1.979   9.115 -1.7531 -2.0716 -0.8937
  126MPD1     N 1930   2.667   2.393   9.222 -0.4525  0.2217 -0.8561
  126MPD1    H5 1931   2.587   2.449   9.252  0.5675 -0.0840  2.4969
  126MPD1    N1 1932   2.357   2.045   9.108  0.0166 -0.2858 -0.3709
  126MPD1    H6 1933   2.348   1.947   9.133 -1.7955  0.9730  3.7904
  126MPD1    H7 1934   2.287   2.102   9.155 -0.4813 -1.3500  0.1653
  127MPD2     C 1935   0.351   1.878   9.322 -0.0080  0.2879 -1.3470
  127MPD2    C1 1936   0.347   1.880   9.459  0.8859 -0.0108  0.0043
  127MPD2    C2 1937   0.319   1.999   9.526  0.1054 -0.6410  0.0519
  127MPD2    C3 1938   0.308   2.116   9.460 -0.2554  0.2271 -0.3767
  127MPD2    C4 1939   0.320   2.117   9.325 -0.4606  0.3729  0.5840
  127MPD2    C5 1940   0.334   1.993   9.262 -0.0634  0.1455 -0.8355
  127MPD2     H 1941   0.296   1.991   9.632 -1.8900 -1.6185 -0.4418
  127MPD2    H1 1942   0.294   2.197   9.257 -0.1973 -1.8530 -2.1165
  127MPD2    H2 1943   0.368   1.788   9.265  1.9397  0.2317 -0.6822
  127MPD2    H3 1944   0.347   1.997   9.154 -3.4829 -1.2028 -1.2802
  127MPD2     N 1945   0.259   2.225   9.529  0.0629 -0.6932  0.3458
  127MPD2    H5 1946   0.232   2.206   9.625 -1.4288  0.0884  0.0883
  127MPD2    N1 1947   0.355   1.761   9.529  0.0448  0.1552 -0.2697
  127MPD2    H7 1948   0.379   1.677   9.478 -2.4534 -0.0258 -1.1200
  128TCq2    C1 1949   0.365   1.743   9.665  0.5122 -0.2685 -0.4745
  128TCq2    O2 1950   0.372   1.830   9.752  0.3725 -0.0991 -0.2835
  128TCq2    C2 1951   0.302   1.623   9.711 -0.1023 -0.4863 -0.3799
  128TCq2    C3 1952   0.226   1.635   9.828  0.3128 -0.0729 -0.4212
  128TCq2    C4 1953   0.141   1.536   9.863  0.4852  0.1380 -0.5094
  128TCq2    C5 1954   0.109   1.433   9.778 -0.4581 -0.0895  0.1789
  128TCq2    C6 1955   0.168   1.434   9.658  1.0963  0.0603  0.5549
  128TCq2    C7 1956   0.263   1.527   9.620 -0.4044 -0.2435 -0.4128
  128TCq2    C8 1957   0.089   1.381   9.548 -0.3227  0.3111  0.4089
  128TCq2    O4 1958   0.122   1.407   9.434  0.1673 -0.0056  0.0862
  128TCq2    C9 1959   0.063   1.555   9.986  0.6998  0.0365 -0.5332
  128TCq2    O5 1960   4.696   1.467   9.999  0.2171 -0.4685 -0.1657
  128TCq2    O6 1961   0.057   1.664  10.051  0.0966 -0.4201 -0.1083
  128TCq2    H2 1962   0.234   1.721   9.893 -0.7667 -0.8132  0.6720
  128TCq2    H3 1963   0.044   1.353   9.809  0.4098 -0.9232 -0.1431
  128TCq2    H4 1964   0.318   1.523   9.527 -1.2996  3.6636 -1.1226
  129MPD2     C 1965   2.172   2.973   1.539  0.0701 -0.1506 -0.1621
  129MPD2    C1 1966   2.191   2.854   1.465  0.4038 -1.0720 -0.1374
  129MPD2    C2 1967   2.254   2.864   1.346 -0.3366  0.3217  0.0955
  129MPD2    C3 1968   2.292   2.983   1.290  1.0381  0.5914  0.1381
  129MPD2    C4 1969   2.267   3.098   1.368 -0.3650  0.6419 -0.1305
  129MPD2    C5 1970   2.201   3.093   1.487  1.4365  0.0444 -0.0694
  129MPD2     H 1971   2.283   2.774   1.293 -0.3434  0.5826 -0.3517
  129MPD2    H1 1972   2.311   3.193   1.340 -0.9530  0.8026 -0.5019
  129MPD2    H2 1973   2.121   2.970   1.634  2.0264 -0.7913  0.8635
  129MPD2    H3 1974   2.183   3.181   1.547 -4.2526 -1.8592  1.0158
  129MPD2     N 1975   2.350   2.981   1.162  0.3718 -0.1823  0.2626
  129MPD2    H5 1976   2.375   2.890   1.125 -0.1886  0.1404 -0.9080
  129MPD2    N1 1977   2.143   2.726   1.502  0.4755  0.0991 -0.2178
  129MPD2    H7 1978   2.173   2.651   1.440  0.8186  1.1565 -1.3218
  130TCq2    C1 1979   2.069   2.703   1.618  0.2329  0.0229 -0.0304
  130TCq2    O2 1980   2.046   2.781   1.710  0.0123 -0.0998 -0.3285
  130TCq2    C2 1981   2.017   2.570   1.625  0.2408 -0.5347 -0.0941
  130TCq2    C3 1982   2.084   2.462   1.577  0.5370  0.0267  0.1677
  130TCq2    C4 1983   2.040   2.336   1.606 -0.1889  0.3426 -0.2730
  130TCq2    C5 1984   1.925   2.321   1.682 -0.1580 -0.0896 -0.0702
  130TCq2    C6 1985   1.861   2.431   1.739 -0.7204  0.2537  0.1795
  130TCq2    C7 1986   1.913   2.557   1.707  0.0856  0.0834 -0.6366
  130TCq2    C8 1987   1.717   2.423   1.748 -0.3684  0.4607 -0.8619
  130TCq2    O4 1988   1.675   2.329   1.690 -0.2118  0.2415 -0.2703
  130TCq2    C9 1989   2.101   2.215   1.549 -0.1820  0.1062  0.9039
  130TCq2    O5 1990   2.071   2.104   1.603  0.3226  0.1674  0.5880
  130TCq2    O6 1991   2.165   2.230   1.445 -0.4921 -0.3034  0.4628
  130TCq2    H2 1992   2.184   2.462   1.533  0.9773 -0.8083  1.1512
  130TCq2    H3 1993   1.881   2.223   1.694  1.5319 -0.8293 -0.0406
  130TCq2    H4 1994   1.865   2.649   1.738  0.4436  0.0887 -0.1084
  131MPD2     C 1995   1.812   0.826   9.439  0.0236  0.8479  0.1013
  131MPD2    C1 1996   1.946   0.836   9.424 -0.6870  0.1452  0.3249
  131MPD2    C2 1997   2.019   0.719   9.432 -0.4155 -0.5146  0.4188
  131MPD2    C3 1998   1.955   0.600   9.466  0.5886  0.5785 -0.1460
  131MPD2    C4 1999   1.818   0.598   9.481  0.2592 -0.7529 -0.3067
  131MPD2    C5 2000   1.745   0.713   9.465 -0.2364  0.5973 -0.2992
  131MPD2     H 2001   2.123   0.720   9.404 -0.2277  0.1161  1.1340
  131MPD2    H1 2002   1.758   0.508   9.484  1.0271 -1.4148 -3.7221
  131MPD2    H2 2003   1.756   0.918   9.437  0.4036  1.0426 -1.9518
  131MPD2    H3 2004   1.640   0.723   9.487 -0.5888  0.4515 -1.9121
  131MPD2     N 2005   2.038   0.493   9.504  0.0511  0.5174 -0.5830
  131MPD2    H5 2006   2.133   0.522   9.525 -0.8117  2.9019  0.1007
  131MPD2    N1 2007   2.001   0.963   9.395 -0.4373  0.2555  0.1513
  131MPD2    H7 2008   1.939   1.043   9.400 -0.4461  0.4415 -2.9137
  132TCq2    C1 2009   2.425   1.356   9.264  0.2633  0.0071 -0.3310
  132TCq2    O2 2010   2.517   1.284   9.225  0.6946  0.0992 -0.0423
  132TCq2    C2 2011   2.289   1.302   9.259 -0.5221  0.5198 -0.8368
  132TCq2    C3 2012   2.189   1.386   9.235 -0.4486  0.5326  0.1353
  132TCq2    C4 2013   2.061   1.338   9.247 -0.3531 -0.0747 -0.3255
  132TCq2    C5 2014   2.031   1.210   9.292  0.1060  0.1560  0.6455
  132TCq2    C6 2015   2.141   1.132   9.317  0.2605  0.6594 -0.2846
  132TCq2    C7 2016   2.275   1.171   9.299 -0.7217 -0.0468  0.0989
  132TCq2    C8 2017   2.129   0.995   9.355  0.1092 -0.3012  0.0299
  132TCq2    O4 2018   2.224   0.925   9.349 -0.4778  0.0022  0.1093
  132TCq2    C9 2019   1.943   1.416   9.212  0.2537  0.3289 -0.3596
  132TCq2    O5 2020   1.968   1.524   9.155 -0.2512  0.0658  0.0931
  132TCq2    O6 2021   1.832   1.379   9.251 -0.0406  0.2386  0.7402
  132TCq2    H2 2022   2.192   1.483   9.187  0.1455  0.5196  0.1477
  132TCq2    H3 2023   1.929   1.173   9.285  0.2663 -0.3193  0.8736
  132TCq2    H4 2024   2.352   1.106   9.340  0.3343  0.0373 -1.7390
  133MPD2     C 2025   1.128   0.516  10.049 -0.5545  0.2651  0.1674
  133MPD2    C1 2026   1.027   0.581   9.985 -0.4080  0.0350  0.1222
  133MPD2    C2 2027   1.053   0.699   9.913 -0.4303  0.0938 -0.1985
  133MPD2    C3 2028   1.175   0.760   9.915  0.2961  0.6077  0.3366
  133MPD2    C4 2029   1.278   0.692   9.980  0.7236  0.1450 -1.0809
  133MPD2    C5 2030   1.252   0.575  10.042 -0.0642  0.5591 -0.8031
  133MPD2     H 2031   0.966   0.759   9.886  0.6253  1.3903 -0.7437
  133MPD2    H1 2032   1.377   0.737   9.981 -0.4676  2.7495 -0.1828
  133MPD2    H2 2033   1.108   0.426  10.108  0.9359 -0.8219 -0.9960
  133MPD2    H3 2034   1.332   0.529  10.099 -1.1408 -1.3213 -0.8367
  133MPD2     N 2035   1.192   0.891   9.868 -0.3500  0.2383  0.0031
  133MPD2    H5 2036   1.282   0.935   9.883 -1.8125  3.0300  0.6039
  133MPD2    N1 2037   0.898   0.538  10.006  0.2044  0.4593 -0.3168
  133MPD2    H7 2038   0.882   0.468  10.078  0.5583  1.3448  0.6219
  134TCq2    C1 2039   0.791   0.581   9.928  0.2629 -0.0518  0.1947
  134TCq2    O2 2040   0.797   0.618   9.812 -0.1078 -1.0087 -0.5272
  134TCq2    C2 2041   0.667   0.528   9.979 -0.6001 -0.4948  0.4493
  134TCq2    C3 2042   0.557   0.525   9.898 -0.2853 -0.7234  0.5905
  134TCq2    C4 2043   0.430   0.528   9.949 -0.4487  0.0993  0.5798
  134TCq2    C5 2044   0.417   0.533  10.084 -0.2963 -0.8389 -0.2764
  134TCq2    C6 2045   0.526   0.540  10.164 -0.0555 -0.4703 -0.3653
  134TCq2    C7 2046   0.657   0.539  10.113  0.4746 -0.4036 -0.3456
  134TCq2    C8 2047   0.509   0.577  10.310  0.7787  0.2638 -0.3057
  134TCq2    O4 2048   0.594   0.563  10.391 -0.5034 -0.3292  0.4226
  134TCq2    C9 2049   0.318   0.523   9.853  0.7011 -0.8839  0.2825
  134TCq2    O5 2050   0.346   0.499   9.733  0.1936 -0.6736 -0.5914
  134TCq2    O6 2051   0.211   0.574   9.896  0.2199 -0.3724 -0.0396
  134TCq2    H2 2052   0.567   0.543   9.791 -0.3106  1.2698  0.9195
  134TCq2    H3 2053   0.318   0.541  10.127 -0.5524  1.0436 -1.2424
  134TCq2    H4 2054   0.739   0.576  10.173 -0.2246 -0.8813  0.9078
  135MPD2     C 2055   3.243   3.394   9.658 -0.0915  0.1169  1.1627
  135MPD2    C1 2056   3.160   3.287   9.624  0.1225  0.6204  0.2967
  135MPD2    C2 2057   3.115   3.268   9.497  0.5441 -0.5654  0.6106
  135MPD2    C3 2058   3.184   3.333   9.398  0.4530  0.1611  0.0767
  135MPD2    C4 2059   3.275   3.428   9.427  0.1824  0.2902  0.0543
  135MPD2    C5 2060   3.305   3.466   9.560 -0.6397  0.4413 -0.4471
  135MPD2     H 2061   3.053   3.180   9.484  0.2913 -0.3301  0.2413
  135MPD2    H1 2062   3.332   3.484   9.354 -1.8047  1.9328 -0.2549
  135MPD2    H2 2063   3.265   3.430   9.758  0.5124  0.1729  1.0094
  135MPD2    H3 2064   3.387   3.535   9.580  0.7638 -1.3734  0.0263
  135MPD2     N 2065   3.179   3.278   9.272 -0.3549  0.2710  0.0925
  135MPD2    H5 2066   3.249   3.303   9.202  2.0778 -1.4814  1.8973
  135MPD2    N1 2067   3.088   3.210   9.721  0.0003 -0.0002  0.5316
  135MPD2    H7 2068   3.025   3.140   9.682 -1.6183  1.1590  1.0747
  136TCq2    C1 2069   3.133   3.197   9.853  0.1302  0.0098 -0.1775
  136TCq2    O2 2070   3.226   3.261   9.902  0.0284 -0.2610 -0.3800
  136TCq2    C2 2071   3.067   3.086   9.927 -0.0880 -0.0608  0.3259
  136TCq2    C3 2072   2.938   3.047   9.899  0.0160  0.9143  0.3454
  136TCq2    C4 2073   2.883   2.946   9.964  0.4917  0.4889  0.2316
  136TCq2    C5 2074   2.958   2.873  10.050 -0.1715  0.0772  0.3054
  136TCq2    C6 2075   3.079   2.926  10.092  0.6833  0.3059  0.4980
  136TCq2    C7 2076   3.137   3.028  10.024 -0.0114 -0.2038 -0.1365
  136TCq2    C8 2077   3.169   2.827  10.144 -0.0042  0.0554  0.1716
  136TCq2    O4 2078   3.279   2.813  10.096  0.3787  0.4194 -0.1145
  136TCq2    C9 2079   2.744   2.906   9.944  0.7332 -0.3480  0.0909
  136TCq2    O5 2080   2.681   2.991   9.871 -0.3939 -0.3535 -0.3698
  136TCq2    O6 2081   2.700   2.793   9.989 -0.5525  0.0953  0.2515
  136TCq2    H2 2082   2.879   3.107   9.830 -0.2015  0.5479  0.2147
  136TCq2    H3 2083   2.917   2.786  10.100 -0.3877  1.2574  2.1784
  136TCq2    H4 2084   3.240   3.046  10.053 -0.2281  1.3914 -0.3760
  137MPD2     C 2085   3.908   1.837   9.564  0.1072 -0.1272  0.7089
  137MPD2    C1 2086   3.866   1.951   9.631  0.1382 -0.1101  0.1536
  137MPD2    C2 2087   3.831   1.947   9.762 -1.4203 -0.7220  0.4273
  137MPD2    C3 2088   3.824   1.824   9.824  0.1646  0.8505  0.2610
  137MPD2    C4 2089   3.874   1.710   9.759  0.2602 -0.2314  1.0886
  137MPD2    C5 2090   3.915   1.722   9.626 -0.1583 -0.0330  0.1606
  137MPD2     H 2091   3.793   2.033   9.815  1.0961  0.4588  0.3438
  137MPD2    H1 2092   3.870   1.610   9.801 -2.0185 -1.0015 -0.9663
  137MPD2    H2 2093   3.959   1.844   9.469  1.6263  1.8962  1.6695
  137MPD2    H3 2094   3.944   1.636   9.568  0.1189  0.2335 -0.1001
  137MPD2     N 2095   3.771   1.819   9.950 -0.0122  0.3681  0.2832
  137MPD2    H5 2096   3.740   1.910   9.982  1.8493  0.6944  1.1470
  137MPD2    N1 2097   3.870   2.068   9.553 -1.3534 -0.4715  0.1146
  137MPD2    H7 2098   3.890   2.048   9.456 -2.0710  2.0024 -0.5697
  138TCq2    C1 2099   3.824   2.196   9.594 -0.2269 -0.0732 -0.3612
  138TCq2    O2 2100   3.822   2.239   9.710  0.1377 -0.4673 -0.6183
  138TCq2    C2 2101   3.745   2.270   9.497  0.1640 -1.4015  0.9802
  138TCq2    C3 2102   3.718   2.208   9.377  0.1462  0.0950 -0.0030
  138TCq2    C4 2103   3.629   2.268   9.293  0.3653 -0.4509  0.8678
  138TCq2    C5 2104   3.560   2.382   9.333  0.3676  0.0224 -0.1687
  138TCq2    C6 2105   3.594   2.444   9.450 -0.1039 -0.0978  0.4401
  138TCq2    C7 2106   3.685   2.387   9.536 -0.2924  1.0672 -0.3393
  138TCq2    C8 2107   3.500   2.536   9.521 -0.5842 -0.4132 -0.7355
  138TCq2    O4 2108   3.551   2.620   9.590  0.4548 -0.2125 -0.2208
  138TCq2    C9 2109   3.593   2.200   9.171  0.3166 -0.7355  0.0424
  138TCq2    O5 2110   3.644   2.085   9.150 -0.3653  0.0936  0.5494
  138TCq2    O6 2111   3.523   2.268   9.089  1.1925  0.2382 -0.5565
  138TCq2    H2 2112   3.753   2.109   9.348  0.2549 -0.0673  0.6937
  138TCq2    H3 2113   3.478   2.427   9.278 -0.2581  0.5759  1.2091
  138TCq2    H4 2114   3.708   2.434   9.631 -0.8982 -1.1989  0.8999
  139TMC2    C1 2115   3.618   0.312  13.528  0.2754  0.4389 -0.3643
  139TMC2    C2 2116   3.652   0.354  13.400  0.0973  0.0318 -0.9637
  139TMC2    C3 2117   3.639   0.486  13.365  0.1180 -0.0989 -0.5018
  139TMC2    C4 2118   3.544   0.395  13.610  0.7017 -0.0410 -0.9756
  139TMC2    C5 2119   3.533   0.522  13.570 -0.0553  0.3326 -0.0458
  139TMC2    C6 2120   3.572   0.569  13.445 -0.3975  0.0725  0.6973
  139TMC2     C 2121   3.635   0.169  13.549  0.1379 -1.2069  0.2763
  139TMC2     O 2122   3.702   0.107  13.463  0.0221  0.1939  0.2618
  139TMC2     H 2123   3.695   0.287  13.326 -2.1983 -1.1634 -1.2235
  139TMC2    H1 2124   3.527   0.364  13.713 -3.0271  1.7459 -1.0581
  139TMC2    H2 2125   3.566   0.675  13.423 -2.4516  0.2237  1.9120
  139TMC2    C7 2126   3.459   0.616  13.646 -0.0410  0.0119  0.5939
  139TMC2    C8 2127   3.650   0.529  13.229  0.5405  0.3643 -0.0954
  139TMC2    O1 2128   3.413   0.712  13.585  0.8810 -0.0058 -0.3635
  139TMC2    O2 2129   3.572   0.617  13.189 -0.0772 -0.8601  0.1605
  139TMC2    O5 2130   3.703   0.431  13.147  0.9699 -0.4701 -0.7612
  139TMC2    H5 2131   3.781   0.396  13.196 -0.3507  1.7953  2.9397
  140MPD2     C 2132   3.422   4.681  13.753 -0.1647 -0.0830 -0.3218
  140MPD2    C1 2133   3.534   4.704  13.675 -0.3595 -0.2830  0.0763
  140MPD2    C2 2134   3.621   4.608  13.640  0.0272  0.4477  0.1704
  140MPD2    C3 2135   3.588   4.476  13.660 -0.7435 -0.0258  0.0895
  140MPD2    C4 2136   3.479   4.450  13.734 -0.2100  0.7450  0.1212
  140MPD2    C5 2137   3.396   4.550  13.777  0.0651  0.1773  0.5330
  140MPD2     H 2138   3.698   4.625  13.566 -1.9972  0.0841 -2.0450
  140MPD2    H1 2139   3.458   4.358  13.788  0.8609  0.1785 -0.4418
  140MPD2    H2 2140   3.355   0.033  13.789  0.4561  0.6301 -0.6968
  140MPD2    H3 2141   3.312   4.525  13.841 -0.7853  1.5589 -0.0441
  140MPD2     N 2142   3.664   4.369  13.590  0.4869 -0.3656 -0.2200
  140MPD2    H5 2143   3.742   4.391  13.528 -0.9429  0.3946 -1.7476
  140MPD2    N1 2144   3.546   0.117  13.638  0.5206 -0.4772 -0.0518
  140MPD2    H7 2145   3.486   0.182  13.688  0.4765  0.7393 -1.6703
  141TCq2    C1 2146   4.217   1.333  13.983 -0.2967  0.3181  0.0090
  141TCq2    O2 2147   4.169   1.442  13.959 -0.4785 -0.5032 -0.2424
  141TCq2    C2 2148   4.219   1.299  14.128  0.3189 -0.1914 -0.0245
  141TCq2    C3 2149   4.292   1.192  14.175 -0.2989  0.0006  0.4892
  141TCq2    C4 2150   4.317   1.195  14.311  0.4333 -0.4496 -0.1162
  141TCq2    C5 2151   4.277   1.296  14.394  0.5552  0.8374  0.0112
  141TCq2    C6 2152   4.202   1.399  14.341 -0.3921  0.2763 -0.3467
  141TCq2    C7 2153   4.170   1.396  14.213  0.0812 -0.2421 -0.5587
  141TCq2    C8 2154   4.141   1.503  14.425  0.2282  0.2748  0.3968
  141TCq2    O4 2155   4.044   1.557  14.380  0.0598 -0.4041  0.6093
  141TCq2    C9 2156   4.406   1.085  14.367  0.5076  0.3792  0.0270
  141TCq2    O5 2157   4.415   0.980  14.305  0.0706 -0.2832  0.3453
  141TCq2    O6 2158   4.460   1.096  14.485 -0.0395 -0.1416 -0.0156
  141TCq2    H2 2159   4.331   1.113  14.112 -0.1927  1.1939 -0.9292
  141TCq2    H3 2160   4.297   1.294  14.501 -2.1470 -0.1521  0.4967
  141TCq2    H4 2161   4.126   1.485  14.169  1.1202 -0.4823 -2.0884
  142MPD2     C 2162   1.945   0.109  10.919  0.3216 -0.4426  0.5120
  142MPD2    C1 2163   2.002   0.032  10.818  0.1503 -0.0674  0.1293
  142MPD2    C2 2164   2.141   0.027  10.811 -0.0562 -0.0864 -0.2469
  142MPD2    C3 2165   2.216   0.079  10.910  0.2854 -0.7767  0.1536
  142MPD2    C4 2166   2.156   0.149  11.012  0.7038 -0.3024  0.3337
  142MPD2    C5 2167   2.025   0.164  11.015 -0.1427 -1.0081  0.7281
  142MPD2     H 2168   2.189   4.706  10.726  1.5291  2.5171 -0.7586
  142MPD2    H1 2169   2.206   0.188  11.100  0.3460  0.5762  0.1420
  142MPD2    H2 2170   1.839   0.131  10.910  0.6227  0.3219 -1.3568
  142MPD2    H3 2171   1.969   0.221  11.088  0.5395  1.4267 -0.6831
  142MPD2     N 2172   2.356   0.063  10.903  0.5574  0.1973 -0.3500
  142MPD2    H5 2173   2.411   0.088  10.985 -2.6016  0.0276  1.8210
  142MPD2    N1 2174   1.906   4.694  10.732 -0.1624 -0.1603  0.1467
  142MPD2    H7 2175   1.811   4.683  10.765  0.3257 -0.1104  1.5804
  143TCq2    C1 2176   2.436   0.037  10.792 -0.9546  0.0595  0.0977
  143TCq2    O2 2177   2.417   0.016  10.673  0.3329 -0.6119  0.1480
  143TCq2    C2 2178   2.575   0.041  10.826 -0.8781 -0.9861 -0.0660
  143TCq2    C3 2179   2.618   0.007  10.952  0.0882 -0.6868  0.0354
  143TCq2    C4 2180   2.746   0.038  10.982 -0.1304 -0.5282 -0.1756
  143TCq2    C5 2181   2.835   0.081  10.892  0.2462 -0.5035  0.2225
  143TCq2    C6 2182   2.788   0.094  10.761 -0.1255  0.0974  0.2610
  143TCq2    C7 2183   2.659   0.091  10.729  0.6893 -0.1229  0.7605
  143TCq2    C8 2184   2.871   0.093  10.648 -0.0704 -0.2195 -0.0334
  143TCq2    O4 2185   2.826   0.128  10.543 -0.1259 -0.7860 -0.2194
  143TCq2    C9 2186   2.803   0.002  11.110 -0.1107 -0.9292  0.3240
  143TCq2    O5 2187   2.728   4.674  11.193  0.2213 -0.6613 -0.2110
  143TCq2    O6 2188   2.932   4.725  11.125 -0.2264 -0.3959 -0.4002
  143TCq2    H2 2189   2.558   4.696  11.035 -0.1267  1.1575  0.6861
  143TCq2    H3 2190   2.940   0.084  10.919  0.1416 -3.5296  1.0282
  143TCq2    H4 2191   2.621   0.110  10.629  0.6436  0.8159  0.9503
  144MPD2     C 2192   3.789   0.556   0.989 -1.1696 -0.2292  0.9007
  144MPD2    C1 2193   3.798   0.463   0.887 -0.2297  0.5536 -0.9810
  144MPD2    C2 2194   3.926   0.406   0.860 -0.0163  0.8150  0.2402
  144MPD2    C3 2195   4.034   0.424   0.944  0.9409 -0.3903 -0.0299
  144MPD2    C4 2196   4.012   0.508   1.054  0.2945  0.0420 -0.4247
  144MPD2    C5 2197   3.893   0.574   1.074 -0.1234  1.0586  0.3773
  144MPD2     H 2198   3.919   0.326   0.787  0.5716  1.3236 -0.3596
  144MPD2    H1 2199   4.092   0.506   1.126 -0.8525  0.0606  0.8431
  144MPD2    H2 2200   3.700   0.607   1.024 -1.5371 -0.7803  0.7667
  144MPD2    H3 2201   3.885   0.646   1.154  0.1154  1.2477  0.2304
  144MPD2     N 2202   4.157   0.354   0.934  0.1522 -0.5543 -0.6891
  144MPD2    H5 2203   4.223   0.393   1.000 -0.9676  0.6191 -0.2812
  144MPD2    N1 2204   3.686   0.427   0.805 -0.1543 -0.0066 -0.1694
  144MPD2    H7 2205   3.697   0.361   0.729  0.7979  1.1510 -1.0446
  145TCq2    C1 2206   4.184   0.248   0.851 -0.0096  0.1337  0.0540
  145TCq2    O2 2207   4.109   0.193   0.776 -0.0151  0.7736 -0.1412
  145TCq2    C2 2208   4.328   0.200   0.852 -0.0288 -0.1466 -0.4720
  145TCq2    C3 2209   4.348   0.066   0.803  0.0733  0.2285 -0.3856
  145TCq2    C4 2210   4.479   0.028   0.782 -0.3345  0.2785  0.2039
  145TCq2    C5 2211   4.572   0.118   0.812 -0.5066  0.3657 -0.4303
  145TCq2    C6 2212   4.550   0.237   0.881 -0.1702 -0.1883  0.1488
  145TCq2    C7 2213   4.425   0.287   0.896  0.1125 -0.0129  0.0355
  145TCq2    C8 2214   4.673   0.315   0.892 -0.0467 -0.6943  0.4945
  145TCq2    O4 2215   0.033   0.304   0.802  0.7116 -0.9320  0.0113
  145TCq2    C9 2216   4.502   4.618   0.735  0.1991  0.2427  0.2148
  145TCq2    O5 2217   4.404   4.544   0.738 -0.7831  0.5084  0.2023
  145TCq2    O6 2218   4.620   4.573   0.731  0.0595 -0.1932  0.0094
  145TCq2    H2 2219   4.271   4.716   0.790 -0.5272  0.8344 -0.2829
  145TCq2    H3 2220   4.673   0.088   0.783 -0.0911  0.7592  0.5999
  145TCq2    H4 2221   4.407   0.390   0.922  0.8024  0.7444 -2.4973
  146TMC2    C1 2222   1.485   2.906  12.338 -0.1749  0.2681  0.2144
  146TMC2    C2 2223   1.396   2.894  12.235  0.3192  0.4176  0.0480
  146TMC2    C3 2224   1.412   2.797  12.137 -0.6039  0.1401  0.0560
  146TMC2    C4 2225   1.599   2.826  12.335 -0.0295  0.4859 -0.3667
  146TMC2    C5 2226   1.604   2.727  12.240 -0.5566 -0.2652  0.1324
  146TMC2    C6 2227   1.514   2.710  12.141 -0.0410 -0.3589 -0.0799
  146TMC2     C 2228   1.464   2.991  12.444 -0.0898 -0.0044 -0.1165
  146TMC2     O 2229   1.413   3.098  12.413  0.1132 -0.0434 -0.2203
  146TMC2     H 2230   1.306   2.955  12.228  0.0506  0.1886  1.7057
  146TMC2    H1 2231   1.674   2.842  12.412 -0.3785  0.9290 -0.1207
  146TMC2    H2 2232   1.514   2.629  12.068  0.1059 -0.9499  0.5812
  146TMC2    C7 2233   1.733   2.685  12.202  0.7328  0.3911  0.6698
  146TMC2    C8 2234   1.298   2.776  12.050 -0.3736 -0.2210  0.5367
  146TMC2    O1 2235   1.750   2.676  12.083  0.2681 -0.0030 -0.3451
  146TMC2    O2 2236   1.187   2.811  12.085  0.2002  0.3658  0.1298
  146TMC2    O5 2237   1.330   2.729  11.929  0.4671  0.1538 -0.0039
  146TMC2    H5 2238   1.425   2.707  11.919  0.5914  0.2203  0.9632
  147MPD2     C 2239   2.211   2.502  12.281 -0.2061 -0.0066  0.3160
  147MPD2    C1 2240   2.141   2.495  12.396  0.0034 -0.3850  0.6645
  147MPD2    C2 2241   2.010   2.539  12.401 -0.0473 -0.3782 -0.1108
  147MPD2    C3 2242   1.941   2.582  12.284 -0.1113  0.2820  0.6338
  147MPD2    C4 2243   2.014   2.575  12.165  0.3240  0.4597 -0.7804
  147MPD2    C5 2244   2.151   2.550  12.167  0.1554 -0.7125  0.2116
  147MPD2     H 2245   1.960   2.537  12.497 -1.2645  0.7997 -0.7214
  147MPD2    H1 2246   1.972   2.596  12.068 -2.2118 -0.6867  0.0844
  147MPD2    H2 2247   2.315   2.473  12.269 -0.2252 -0.4176  1.1628
  147MPD2    H3 2248   2.206   2.562  12.074  1.0146 -0.3079  0.7777
  147MPD2     N 2249   1.815   2.640  12.300 -0.4643  0.5904  0.0718
  147MPD2    H5 2250   1.787   2.654  12.397  1.3505 -1.0668  0.8228
  147MPD2    N1 2251   2.199   2.428  12.497  0.6962 -0.0261  0.2267
  147MPD2    H7 2252   2.289   2.399  12.458  0.7594  0.5267 -0.0543
  148MPD2     C 2253   1.123   1.998  10.527 -0.0757 -0.1183  0.2645
  148MPD2    C1 2254   1.185   1.877  10.565  0.2364  0.6918 -0.6377
  148MPD2    C2 2255   1.155   1.766  10.488  0.4004 -0.5982  0.1363
  148MPD2    C3 2256   1.093   1.765  10.370  0.0364 -0.0720  0.2355
  148MPD2    C4 2257   1.034   1.878  10.331  0.1094 -0.2220 -0.6023
  148MPD2    C5 2258   1.055   1.990  10.409 -0.0665 -0.1084  0.1487
  148MPD2     H 2259   1.194   1.676  10.535 -0.9118 -1.5680 -0.6566
  148MPD2    H1 2260   0.981   1.882  10.237 -0.5691  0.3680 -0.1931
  148MPD2    H2 2261   1.129   2.092  10.580 -0.3226  0.5629 -0.9168
  148MPD2    H3 2262   1.012   2.078  10.364 -1.3950 -0.5539  0.5624
  148MPD2     N 2263   1.090   1.646  10.288 -0.1231 -0.0262  0.4474
  148MPD2    H5 2264   1.015   1.642  10.221  0.3458 -0.7843 -0.0319
  148MPD2    N1 2265   1.239   1.854  10.693 -0.6787  0.0723 -0.8286
  148MPD2    H7 2266   1.282   1.762  10.701  1.7570  1.0985 -2.1746
  149TCq2    C1 2267   1.221   1.935  10.804 -0.1915  0.6070 -0.9461
  149TCq2    O2 2268   1.192   2.051  10.799 -0.0356 -0.8004 -0.2181
  149TCq2    C2 2269   1.269   1.875  10.927 -0.5256 -0.0866  0.4996
  149TCq2    C3 2270   1.296   1.962  11.025 -0.9075  0.6275 -0.1050
  149TCq2    C4 2271   1.342   1.910  11.147 -0.0657  0.4006  0.5123
  149TCq2    C5 2272   1.324   1.778  11.185  0.4623  0.6197 -0.4060
  149TCq2    C6 2273   1.283   1.692  11.084 -0.0186  0.2026  0.1883
  149TCq2    C7 2274   1.260   1.738  10.954  0.8090  0.1036  0.1463
  149TCq2    C8 2275   1.265   1.557  11.108  0.8366 -1.3381  0.5516
  149TCq2    O4 2276   1.278   1.472  11.021  0.0771 -0.3181  0.3565
  149TCq2    C9 2277   1.390   1.998  11.249  0.7032 -0.3655 -0.2569
  149TCq2    O5 2278   1.436   1.954  11.358  0.4833 -0.5302 -0.1768
  149TCq2    O6 2279   1.405   2.115  11.215  0.1435 -0.1386  0.3280
  149TCq2    H2 2280   1.298   2.069  11.005 -2.3462  0.6789  0.0124
  149TCq2    H3 2281   1.353   1.745  11.283 -2.9589 -1.1795 -0.0011
  149TCq2    H4 2282   1.237   1.663  10.879 -1.6908  2.9912 -1.9502
  150MPD2     C 2283   2.949   0.427  12.037 -0.5218 -0.4693 -0.1892
  150MPD2    C1 2284   2.931   0.543  11.962 -0.7399  0.4994  0.3155
  150MPD2    C2 2285   3.038   0.603  11.900 -0.3179 -0.5212 -0.4976
  150MPD2    C3 2286   3.167   0.567  11.938 -0.2722 -0.1517  0.3163
  150MPD2    C4 2287   3.184   0.461  12.026  0.2371 -0.0079 -0.2287
  150MPD2    C5 2288   3.073   0.389  12.077 -0.4141  0.5007 -0.4294
  150MPD2     H 2289   3.023   0.685  11.830 -3.2053 -0.3864  0.3042
  150MPD2    H1 2290   3.273   0.438  12.082  0.6493  0.1384 -0.8288
  150MPD2    H2 2291   2.865   0.381  12.086 -0.2624 -1.1983 -0.4274
  150MPD2    H3 2292   3.089   0.308  12.147 -1.4026  1.6342  1.1074
  150MPD2     N 2293   3.274   0.631  11.873 -0.2948  0.1579 -0.3704
  150MPD2    H5 2294   3.249   0.694  11.798  0.4280  0.0804 -0.6758
  150MPD2    N1 2295   2.799   0.575  11.937  0.1066 -0.1373  0.5748
  150MPD2    H7 2296   2.728   0.509  11.968 -0.4644  0.6140  0.8530
  151TCq2    C1 2297   3.406   0.610  11.896 -0.7563  0.4925 -0.5307
  151TCq2    O2 2298   3.465   0.533  11.977 -0.2377 -0.6803 -0.1288
  151TCq2    C2 2299   3.486   0.690  11.803  0.6535 -0.1524  0.0572
  151TCq2    C3 2300   3.483   0.660  11.669 -0.3048  0.3664  0.0726
  151TCq2    C4 2301   3.579   0.704  11.587  0.9105 -0.0142  0.3268
  151TCq2    C5 2302   3.697   0.759  11.635  0.4750  0.5123  0.1983
  151TCq2    C6 2303   3.708   0.788  11.767 -0.3874 -0.4550  1.0988
  151TCq2    C7 2304   3.603   0.744  11.852 -0.1183 -1.0736 -0.1633
  151TCq2    C8 2305   3.838   0.824  11.822 -0.4793  0.2018  0.1914
  151TCq2    O4 2306   3.939   0.835  11.753  0.6496  0.5851  0.0185
  151TCq2    C9 2307   3.569   0.711  11.444 -0.3854 -0.4655 -0.0695
  151TCq2    O5 2308   3.453   0.692  11.390  0.3647  0.5217 -0.1596
  151TCq2    O6 2309   3.666   0.746  11.385 -0.5342  0.0597  0.1667
  151TCq2    H2 2310   3.393   0.619  11.624 -0.2678  0.2025  0.1475
  151TCq2    H3 2311   3.777   0.797  11.572  1.4221 -0.6976  0.6681
  151TCq2    H4 2312   3.585   0.773  11.955  0.2265  0.9149 -0.6513
  152MPD2     C 2313   2.706   0.527  12.310 -1.0312 -0.6599  0.0506
  152MPD2    C1 2314   2.754   0.653  12.284  0.3670  0.4720 -0.0791
  152MPD2    C2 2315   2.665   0.759  12.282  0.6510 -0.2603  0.0176
  152MPD2    C3 2316   2.529   0.735  12.307 -0.2395 -0.3462  0.2879
  152MPD2    C4 2317   2.481   0.606  12.319  0.4941  0.4121 -0.5614
  152MPD2    C5 2318   2.576   0.503  12.335 -1.3150  0.4566 -0.2956
  152MPD2     H 2319   2.687   0.863  12.264 -0.6382 -0.0449 -0.3165
  152MPD2    H1 2320   2.374   0.601  12.338  0.4727  1.1770 -0.4671
  152MPD2    H2 2321   2.777   0.447  12.324 -0.9220 -0.2830  1.6726
  152MPD2    H3 2322   2.550   0.399  12.347  0.4692 -0.1515 -1.7746
  152MPD2     N 2323   2.437   0.846  12.301  0.1912  0.7867  0.7624
  152MPD2    H5 2324   2.475   0.930  12.259 -1.3946  0.3890 -1.4513
  152MPD2    N1 2325   2.897   0.667  12.273 -0.3861  0.2334 -0.3921
  152MPD2    H7 2326   2.957   0.585  12.284 -1.0960 -0.1370  0.7380
  153TCq2    C1 2327   2.963   0.790  12.252  0.4986  0.3569  0.5666
  153TCq2    O2 2328   2.915   0.899  12.220 -0.0030 -0.1194 -0.2653
  153TCq2    C2 2329   3.112   0.767  12.249 -0.4154  0.0180  0.5243
  153TCq2    C3 2330   3.165   0.685  12.340 -0.1990 -0.1231 -0.1420
  153TCq2    C4 2331   3.296   0.651  12.335  0.0916  0.2671  0.4371
  153TCq2    C5 2332   3.374   0.736  12.258  0.4296  0.0954 -0.1354
  153TCq2    C6 2333   3.321   0.835  12.184  0.2124  0.3505 -0.6004
  153TCq2    C7 2334   3.187   0.850  12.172  0.0651  0.6067 -0.3488
  153TCq2    C8 2335   3.411   0.935  12.124  0.0942 -0.1679  0.7373
  153TCq2    O4 2336   3.367   1.017  12.043 -0.4084 -0.0891  0.5423
  153TCq2    C9 2337   3.354   0.552  12.418  0.8584  0.7877  0.3289
  153TCq2    O5 2338   3.280   0.497  12.501 -0.0010  0.7175  0.4348
  153TCq2    O6 2339   3.477   0.559  12.428  0.4082  0.7711  0.1227
  153TCq2    H2 2340   3.109   0.623  12.409 -1.1826 -0.6874 -1.4495
  153TCq2    H3 2341   3.480   0.713  12.261  0.4807  0.4406  0.6543
  153TCq2    H4 2342   3.153   0.922  12.099 -0.2455  1.3419  0.5298
  154MPD2     C 2343   0.439   1.853   0.366  0.4343  0.1377  0.0941
  154MPD2    C1 2344   0.366   1.748   0.418  0.5665  0.4348  0.8477
  154MPD2    C2 2345   0.295   1.768   0.537  0.6483 -0.4587  0.1808
  154MPD2    C3 2346   0.301   1.884   0.608 -0.2823  0.9010  0.3559
  154MPD2    C4 2347   0.378   1.988   0.554 -0.3500  0.6950  0.2485
  154MPD2    C5 2348   0.436   1.969   0.431 -0.0972  0.3923 -0.5723
  154MPD2     H 2349   0.239   1.688   0.584 -0.6927 -0.5728 -1.6198
  154MPD2    H1 2350   0.387   2.092   0.585 -2.2479  1.3007 -1.1772
  154MPD2    H2 2351   0.492   1.846   0.272  2.5493  1.3609  1.1732
  154MPD2    H3 2352   0.482   2.052   0.379 -1.1762  0.6186 -1.1660
  154MPD2     N 2353   0.212   1.899   0.717  0.3606  0.1233  0.2600
  154MPD2    H5 2354   0.145   1.827   0.739 -1.3854  1.5939 -0.1761
  154MPD2    N1 2355   0.375   1.619   0.356 -0.0209  0.2328  0.2538
  154MPD2    H7 2356   0.448   1.610   0.286 -0.7240 -0.6696 -0.3446
  155TCq2    C1 2357   0.295   1.512   0.380  0.1043  0.0594  0.0527
  155TCq2    O2 2358   0.184   1.520   0.433 -0.5414 -0.3807 -0.2083
  155TCq2    C2 2359   0.337   1.388   0.331 -0.0340  0.5559  0.3492
  155TCq2    C3 2360   0.243   1.290   0.344  0.0951  0.0641 -0.1769
  155TCq2    C4 2361   0.278   1.162   0.299 -0.7868  0.1786 -0.6748
  155TCq2    C5 2362   0.394   1.136   0.236 -0.1981 -0.7710  0.3592
  155TCq2    C6 2363   0.485   1.235   0.227  0.2609 -0.2543 -0.9113
  155TCq2    C7 2364   0.457   1.357   0.282  1.0148  0.4811 -0.3574
  155TCq2    C8 2365   0.599   1.224   0.132  0.4344 -0.0214  0.1818
  155TCq2    O4 2366   0.599   1.119   0.069  0.3167  0.3830  0.4901
  155TCq2    C9 2367   0.189   1.057   0.325 -0.3546  0.4803  0.3906
  155TCq2    O5 2368   0.090   1.085   0.396 -0.7079 -0.5137 -0.1991
  155TCq2    O6 2369   0.221   0.942   0.307  0.0058 -0.6470  0.6121
  155TCq2    H2 2370   0.142   1.303   0.382 -0.4398  0.1754 -1.6460
  155TCq2    H3 2371   0.413   1.034   0.204  0.7884  0.2590 -2.3997
  155TCq2    H4 2372   0.539   1.429   0.280  1.1685  0.3101 -0.1239
  156MPD2     C 2373   3.453   2.984  11.565  0.2066  0.3025  0.4905
  156MPD2    C1 2374   3.405   3.106  11.523  0.4343  0.2180 -0.3194
  156MPD2    C2 2375   3.362   3.189  11.625 -0.0037 -0.2288  0.3622
  156MPD2    C3 2376   3.353   3.152  11.758  0.2596 -0.0599 -0.0459
  156MPD2    C4 2377   3.387   3.021  11.792  0.3882 -0.4509 -0.7216
  156MPD2    C5 2378   3.450   2.948  11.696  0.6137  0.4655 -0.4338
  156MPD2     H 2379   3.344   3.294  11.606  3.0983  0.2144 -0.1869
  156MPD2    H1 2380   3.394   2.983  11.894 -1.1746  0.3374 -0.3268
  156MPD2    H2 2381   3.495   2.916  11.492 -1.3538 -0.0731 -0.0451
  156MPD2    H3 2382   3.490   2.850  11.717  2.8296  1.8051  1.5110
  156MPD2     N 2383   3.302   3.246  11.846  0.0595 -0.1841  0.4659
  156MPD2    H5 2384   3.271   3.330  11.797  1.4577  1.6707  2.7548
  156MPD2    N1 2385   3.392   3.134  11.381 -0.1486 -0.0668 -0.3365
  156MPD2    H7 2386   3.424   3.064  11.316  0.6028 -0.6747  0.6996
  157TCq2    C1 2387   3.321   3.244  11.343  0.0531  0.0285 -0.2744
  157TCq2    O2 2388   3.262   3.333  11.403  0.4401 -1.1007 -0.1653
  157TCq2    C2 2389   3.309   3.258  11.201  0.1367 -0.0530 -0.3989
  157TCq2    C3 2390   3.413   3.220  11.118 -0.3631  0.7571 -0.4492
  157TCq2    C4 2391   3.413   3.262  10.986  0.1966  0.7809  0.2435
  157TCq2    C5 2392   3.319   3.348  10.944  0.4721  0.4155  0.3210
  157TCq2    C6 2393   3.210   3.364  11.024 -0.7494  0.8573  0.1325
  157TCq2    C7 2394   3.204   3.327  11.153 -0.9320 -0.0653 -0.1999
  157TCq2    C8 2395   3.122   3.465  10.978 -0.2890  0.9652 -0.0742
  157TCq2    O4 2396   3.166   3.566  10.924 -0.4225 -0.0018 -0.1853
  157TCq2    C9 2397   3.526   3.236  10.906  0.0079  0.2472 -0.2303
  157TCq2    O5 2398   3.572   3.121  10.915 -0.0614 -0.1915 -0.5005
  157TCq2    O6 2399   3.568   3.319  10.823  0.7866 -0.1068  0.4929
  157TCq2    H2 2400   3.504   3.198  11.172 -0.9515  0.6140  0.4758
  157TCq2    H3 2401   3.318   3.367  10.837 -0.4297  0.5572  0.3539
  157TCq2    H4 2402   3.138   3.379  11.222  2.3640  0.0868  2.8144
  158TMC2    C1 2403   4.096   1.085  13.478  0.3074 -0.5889 -0.1726
  158TMC2    C2 2404   4.165   1.062  13.365  0.5081 -0.0379  0.1479
  158TMC2    C3 2405   4.145   1.141  13.256  0.6256  0.1998  0.3573
  158TMC2    C4 2406   4.015   1.190  13.492  0.2449 -0.3387 -0.1247
  158TMC2    C5 2407   3.994   1.267  13.380 -0.4338 -0.1387  0.0725
  158TMC2    C6 2408   4.056   1.243  13.258 -0.5506  0.8043  0.1897
  158TMC2     C 2409   4.122   0.998  13.588 -0.1470  0.0849  0.1987
  158TMC2     O 2410   4.219   0.928  13.572  0.3297  0.1169 -0.0588
  158TMC2     H 2411   4.222   0.971  13.358  1.7544  0.7748 -0.1536
  158TMC2    H1 2412   3.979   1.223  13.589 -0.8710 -2.2305  0.1061
  158TMC2    H2 2413   4.069   1.313  13.176 -0.5600  0.1513 -0.3663
  158TMC2    C7 2414   3.910   1.382  13.393 -0.1239  0.1148  0.6842
  158TMC2    C8 2415   4.253   1.157  13.164  0.1500 -0.6394 -0.1714
  158TMC2    O1 2416   3.921   1.467  13.308 -0.0675 -0.3464  0.1394
  158TMC2    O2 2417   4.244   1.198  13.047 -1.2747  0.2430 -0.1147
  158TMC2    O5 2418   4.367   1.138  13.234  0.3585 -0.2756  0.2729
  158TMC2    H5 2419   4.339   1.097  13.318 -0.2410 -0.7885 -0.1709
  159MPD2     C 2420   4.105   0.868  14.085  0.0601  0.3078 -0.2312
  159MPD2    C1 2421   4.033   0.987  14.067  0.7552 -0.5510 -0.6949
  159MPD2    C2 2422   4.022   1.041  13.943  0.4977  0.0892 -0.2122
  159MPD2    C3 2423   4.081   0.980  13.836  0.7734  0.1149  0.0125
  159MPD2    C4 2424   4.151   0.865  13.848 -0.5665  0.2047  0.3329
  159MPD2    C5 2425   4.166   0.813  13.977 -0.1367  0.2987  0.7939
  159MPD2     H 2426   3.986   1.140  13.922  1.5372  0.6637  0.7268
  159MPD2    H1 2427   4.189   0.803  13.768 -0.6830  0.0113  0.4290
  159MPD2    H2 2428   4.118   0.829  14.185 -1.8941  1.1898  0.3742
  159MPD2    H3 2429   4.240   0.736  13.994  0.4485  1.0092  1.4560
  159MPD2     N 2430   4.055   1.036  13.706 -0.6421  0.0984 -0.0480
  159MPD2    H5 2431   3.997   1.118  13.696  1.0954  1.3829  0.4687
  159MPD2    N1 2432   3.974   1.040  14.184 -0.6208 -0.1868 -0.3276
  159MPD2    H7 2433   3.991   0.981  14.265 -1.6156 -2.2871 -1.6462
  160TMC2    C1 2434   2.771   0.651   1.419 -1.3044  0.6149  0.3625
  160TMC2    C2 2435   2.689   0.682   1.521  0.3479  0.5836  0.0600
  160TMC2    C3 2436   2.690   0.808   1.575 -0.5080 -0.3032 -0.6595
  160TMC2    C4 2437   2.849   0.745   1.363 -0.6676 -0.0273 -0.4820
  160TMC2    C5 2438   2.847   0.871   1.418  0.1391  0.0494 -0.2357
  160TMC2    C6 2439   2.768   0.906   1.521  0.1385 -0.3128  0.8171
  160TMC2     C 2440   2.775   0.513   1.370  0.5000  0.9726  0.1048
  160TMC2     O 2441   2.745   0.421   1.446 -0.2753 -0.8297 -0.1058
  160TMC2     H 2442   2.628   0.602   1.562 -0.0946  1.7487  1.6598
  160TMC2    H1 2443   2.907   0.719   1.275  0.1351  2.2068 -0.6216
  160TMC2    H2 2444   2.781   1.005   1.565 -1.8404 -0.0016  0.6732
  160TMC2    C7 2445   2.900   0.982   1.342 -0.1593 -0.0973  1.2011
  160TMC2    C8 2446   2.623   0.819   1.706  0.6682 -0.6889  0.4686
  160TMC2    O1 2447   2.842   1.084   1.356 -0.2129  0.2866  0.4290
  160TMC2    O2 2448   2.530   0.741   1.730 -0.0544  0.1849 -0.0355
  160TMC2    O5 2449   2.715   0.856   1.800 -0.5028 -0.4863 -0.1534
  160TMC2    H5 2450   2.806   0.868   1.767  0.2091 -1.7117  1.3640
  161MPD2     C 2451   2.775   0.274   1.216  0.2559  0.4986 -0.4831
  161MPD2    C1 2452   2.779   0.395   1.156 -0.0254 -0.1221  0.2678
  161MPD2    C2 2453   2.777   0.393   1.021 -0.9627  0.7494 -0.3727
  161MPD2    C3 2454   2.767   0.278   0.944 -0.4560  0.2024  0.5459
  161MPD2    C4 2455   2.760   0.157   1.007 -0.1283  0.2696 -0.2635
  161MPD2    C5 2456   2.764   0.161   1.144 -0.4567 -0.0721  0.1342
  161MPD2     H 2457   2.793   0.490   0.975  1.3484  0.2724 -0.5301
  161MPD2    H1 2458   2.750   0.064   0.953  1.2838 -0.0927  0.0994
  161MPD2    H2 2459   2.787   0.260   1.322 -0.8137 -0.5181 -0.4978
  161MPD2    H3 2460   2.770   0.070   1.204 -1.3291  0.2579  0.7124
  161MPD2     N 2461   2.777   0.272   0.800 -0.3816 -0.2690  0.1314
  161MPD2    H5 2462   2.782   0.181   0.756 -2.1328  0.3304 -1.3190
  161MPD2    N1 2463   2.780   0.512   1.235 -0.3179  0.6682  0.0419
  161MPD2    H7 2464   2.782   0.605   1.194 -2.8168 -0.0534 -1.6817
  162TMC2    C1 2465   1.694   2.097   0.594 -0.0687  0.3733 -0.2309
  162TMC2    C2 2466   1.668   2.228   0.586  0.2882  0.2406 -0.1003
  162TMC2    C3 2467   1.548   2.275   0.646 -0.1883  0.0204  0.8302
  162TMC2    C4 2468   1.605   2.010   0.655  0.0402  0.5753  0.6291
  162TMC2    C5 2469   1.500   2.053   0.720 -0.1715 -0.1860 -0.0120
  162TMC2    C6 2470   1.472   2.188   0.722  0.7014 -0.2133 -0.3551
  162TMC2     C 2471   1.774   2.029   0.493  0.3760 -0.3965  0.2233
  162TMC2     O 2472   1.786   1.905   0.501 -0.0975 -0.2787 -0.4118
  162TMC2     H 2473   1.740   2.295   0.542  0.5656  1.3972  2.1484
  162TMC2    H1 2474   1.620   1.903   0.647  0.4533  0.6554  0.3105
  162TMC2    H2 2475   1.393   2.230   0.783  0.9664 -1.5204  0.9095
  162TMC2    C7 2476   1.427   1.951   0.789  0.9722  0.8217  0.3844
  162TMC2    C8 2477   1.536   2.410   0.688  0.0484 -0.3707 -0.1524
  162TMC2    O1 2478   1.433   1.842   0.736 -0.0505  0.2711 -0.3603
  162TMC2    O2 2479   1.479   2.442   0.790 -0.1033  0.2159  0.6885
  162TMC2    O5 2480   1.547   2.490   0.576 -0.1126 -0.3714  0.0313
  162TMC2    H5 2481   1.601   2.448   0.505  1.0594  0.0981  0.6387
  163MPD2     C 2482   1.940   2.033   0.005 -0.0457  0.3675  0.3341
  163MPD2    C1 2483   1.940   1.931   0.098 -0.0649 -0.2036 -0.5471
  163MPD2    C2 2484   1.886   1.957   0.221 -0.1853  0.1942 -0.3421
  163MPD2    C3 2485   1.845   2.082   0.262  0.3949  0.1592  0.7449
  163MPD2    C4 2486   1.857   2.189   0.171  0.6743  0.0911 -0.3948
  163MPD2    C5 2487   1.910   2.155   0.048  0.2869 -0.1037 -0.0942
  163MPD2     H 2488   1.876   1.878   0.294  0.2028  0.7677  0.3352
  163MPD2    H1 2489   1.820   2.290   0.177  3.8044  1.1197  1.3123
  163MPD2    H2 2490   1.985   2.014  17.610 -1.3863  1.9145 -0.5712
  163MPD2    H3 2491   1.910   2.232  17.673 -3.2968 -0.4279 -0.4545
  163MPD2     N 2492   1.783   2.116   0.385  0.2028  0.7021 -0.1117
  163MPD2    H5 2493   1.757   2.214   0.388  1.3406  0.9712  1.2575
  163MPD2    N1 2494   1.981   1.803   0.056 -0.3383  0.5385 -0.0727
  163MPD2    H7 2495   2.001   1.791  17.659  2.7930  0.4008  0.5774
  164TCq2    C1 2496   1.928   1.777  11.624  0.2057  0.0717  0.2784
  164TCq2    O2 2497   1.867   1.701  11.700 -0.4397  0.1300 -0.3556
  164TCq2    C2 2498   1.910   1.926  11.642 -0.2238  0.6667  0.5978
  164TCq2    C3 2499   1.985   2.027  11.580 -0.2018  0.9156  0.2853
  164TCq2    C4 2500   1.947   2.155  11.591  0.9778 -0.2452  0.1132
  164TCq2    C5 2501   1.846   2.192  11.671 -0.3836  0.1737  0.3045
  164TCq2    C6 2502   1.775   2.099  11.737 -0.2900  0.1436 -0.1487
  164TCq2    C7 2503   1.803   1.963  11.716 -0.0988 -0.3061 -0.3207
  164TCq2    C8 2504   1.628   2.127  11.742  0.6351 -0.1771 -0.7255
  164TCq2    O4 2505   1.596   2.209  11.664  0.3620  0.1062 -0.4182
  164TCq2    C9 2506   2.029   2.269  11.542 -0.2440  0.2894 -1.0377
  164TCq2    O5 2507   2.007   2.388  11.579  0.2232 -0.6267 -1.0448
  164TCq2    O6 2508   2.135   2.245  11.474 -0.0638  0.4831  0.1200
  164TCq2    H2 2509   2.079   2.004  11.531 -0.8474  1.8655 -1.4179
  164TCq2    H3 2510   1.835   2.299  11.685  1.1361  0.4091 -0.2632
  164TCq2    H4 2511   1.744   1.884  11.762 -1.2349  1.1751  0.7658
  165MPD2     C 2512   4.046   3.005   1.389 -0.4664 -0.0054 -0.3243
  165MPD2    C1 2513   3.970   3.110   1.334 -0.3012  0.1624  0.1557
  165MPD2    C2 2514   3.952   3.220   1.406  0.6962  0.4544 -0.6849
  165MPD2    C3 2515   4.007   3.238   1.534 -1.0910  0.4436 -0.4464
  165MPD2    C4 2516   4.081   3.139   1.592  0.1571 -0.0411 -0.1014
  165MPD2    C5 2517   4.098   3.020   1.520 -0.6515 -0.0718  0.5721
  165MPD2     H 2518   3.887   3.301   1.376  0.9301  0.7114 -0.4939
  165MPD2    H1 2519   4.127   3.159   1.687  0.9545 -0.9096 -0.3067
  165MPD2    H2 2520   4.047   2.910   1.336  2.1855 -0.3056  0.2568
  165MPD2    H3 2521   4.146   2.936   1.568 -1.2667 -0.3543  0.7022
  165MPD2     N 2522   3.987   3.354   1.612  0.3965 -1.0200 -0.4290
  165MPD2    H5 2523   4.045   3.357   1.695 -0.7535 -0.7094  0.3546
  165MPD2    N1 2524   3.897   3.085   1.216  0.0346  0.6265 -0.3459
  165MPD2    H7 2525   3.893   2.993   1.173  1.1195  1.5262 -2.3382
  166TCq2    C1 2526   3.886   3.449   1.591 -0.0887 -0.5417  0.6954
  166TCq2    O2 2527   3.803   3.453   1.500  0.1526 -0.5002 -0.0163
  166TCq2    C2 2528   3.894   3.559   1.691 -0.2158 -0.3879 -0.8304
  166TCq2    C3 2529   3.985   3.569   1.789  0.3877  0.6077  0.2146
  166TCq2    C4 2530   3.985   3.675   1.868 -0.2012 -0.9299  0.1055
  166TCq2    C5 2531   3.891   3.778   1.864 -0.7809  0.0200 -0.1499
  166TCq2    C6 2532   3.796   3.761   1.770 -0.3735 -0.2309 -0.9560
  166TCq2    C7 2533   3.790   3.649   1.686 -0.5306  0.2638  0.2210
  166TCq2    C8 2534   3.731   3.879   1.727  0.1850  0.4422  0.2413
  166TCq2    O4 2535   3.773   3.990   1.759 -0.8209 -0.1567  0.2083
  166TCq2    C9 2536   4.087   3.675   1.963 -0.0165  0.2716  0.1239
  166TCq2    O5 2537   4.134   3.566   2.001  0.3558  0.0885  0.0835
  166TCq2    O6 2538   4.112   3.786   2.020  0.1049  0.2655 -0.4411
  166TCq2    H2 2539   4.071   3.503   1.796 -0.0591  0.1629  1.4776
  166TCq2    H3 2540   3.909   3.868   1.921 -1.6120 -1.2006  2.0443
  166TCq2    H4 2541   3.721   3.639   1.603  0.6083  0.9785 -0.8136
  167TMC2    C1 2542   1.465   1.635  13.530  0.2364 -0.0366  0.6030
  167TMC2    C2 2543   1.456   1.626  13.665 -0.5550 -0.1356  0.2723
  167TMC2    C3 2544   1.386   1.522  13.713 -0.0121 -0.3574 -0.4143
  167TMC2    C4 2545   1.412   1.541  13.449  1.0989 -0.1074 -1.3334
  167TMC2    C5 2546   1.330   1.443  13.505 -0.8641 -0.5502  0.6249
  167TMC2    C6 2547   1.315   1.434  13.638 -0.2212 -0.1898 -0.0388
  167TMC2     C 2548   1.562   1.729  13.473 -0.2079  0.2328  0.3355
  167TMC2     O 2549   1.605   1.811  13.554  0.0597 -0.6053 -0.0589
  167TMC2     H 2550   1.503   1.690  13.738  0.4367 -2.0507  1.3115
  167TMC2    H1 2551   1.422   1.548  13.341  0.1642  0.4234 -1.3894
  167TMC2    H2 2552   1.240   1.374  13.688 -0.5841 -0.6332 -1.1032
  167TMC2    C7 2553   1.257   1.349  13.428 -0.2418  0.7230  1.3108
  167TMC2    C8 2554   1.387   1.510  13.859 -0.4323 -0.1022  1.0690
  167TMC2    O1 2555   1.163   1.290  13.484  0.1966  1.1378  0.3763
  167TMC2    O2 2556   1.488   1.524  13.929  0.3646 -0.2997 -0.2264
  167TMC2    O5 2557   1.263   1.562  13.885 -0.4787  0.3336  0.3668
  167TMC2    H5 2558   1.200   1.566  13.810 -0.0814 -1.6226 -0.0977
  168MPD2     C 2559   1.759   1.878  13.281  0.6232 -0.3887  0.2889
  168MPD2    C1 2560   1.660   1.785  13.251  0.5927 -0.2461 -0.4320
  168MPD2    C2 2561   1.627   1.769  13.121 -0.1441 -0.0285 -0.3353
  168MPD2    C3 2562   1.682   1.843  13.023  0.9889 -0.2407  0.9066
  168MPD2    C4 2563   1.777   1.940  13.054  0.2381 -0.3649 -0.6579
  168MPD2    C5 2564   1.816   1.957  13.188  0.2344 -0.3502  0.3198
  168MPD2     H 2565   1.558   1.691  13.089 -0.2917  0.3677 -0.9845
  168MPD2    H1 2566   1.825   2.006  12.984 -0.9666 -0.0848 -1.2126
  168MPD2    H2 2567   1.795   1.890  13.383  0.9271 -2.7857  0.4584
  168MPD2    H3 2568   1.885   2.037  13.215 -1.1817  1.5107 -1.5163
  168MPD2     N 2569   1.628   1.821  12.899 -0.4017 -0.2887  0.2140
  168MPD2    H5 2570   1.562   1.744  12.891 -2.1473  1.3307 -0.7517
  168MPD2    N1 2571   1.593   1.701  13.341 -0.7117 -0.6782  0.4152
  168MPD2    H7 2572   1.562   1.617  13.293  0.1459 -0.3194 -0.7698
  169MPD1     C 2573   4.594   4.300   9.697  0.2189  0.6435 -0.1518
  169MPD1    C1 2574   4.671   4.378   9.615  0.3171  0.5531  0.3148
  169MPD1    C2 2575   4.613   4.486   9.544  0.0143  0.6647 -0.2656
  169MPD1    C3 2576   4.489   4.528   9.566 -0.2683  0.7990 -0.7855
  169MPD1    C4 2577   4.412   4.449   9.655 -0.0397  0.4207  0.0228
  169MPD1    C5 2578   4.462   4.339   9.715 -0.8758  0.9126 -0.1524
  169MPD1     H 2579   4.678   4.534   9.472  2.2251 -0.9491  0.6707
  169MPD1    H1 2580   4.306   4.460   9.671 -0.1168 -1.5598  0.9350
  169MPD1    H2 2581   4.639   4.211   9.738  2.6320  2.1298  0.3839
  169MPD1    H3 2582   4.399   4.276   9.776  1.0444 -1.2541 -0.3791
  169MPD1     N 2583   4.448   4.647   9.508  0.7092 -0.2721 -0.2833
  169MPD1    H5 2584   4.510   4.683   9.437 -2.5035  1.4695 -2.2353
  169MPD1    N1 2585   0.073   4.343   9.588 -0.3234 -0.4466  0.1804
  169MPD1    H6 2586   0.124   4.285   9.655 -0.8750 -1.9251 -0.6884
  169MPD1    H7 2587   0.135   4.417   9.557 -2.6608  1.0314 -0.9600
  170MPD1     C 2588   1.114   3.597  13.778 -0.1238 -1.0476  0.6620
  170MPD1    C1 2589   1.217   3.566  13.859 -0.4110 -0.6097  0.5387
  170MPD1    C2 2590   1.344   3.591  13.819 -0.1321  0.1923  0.3321
  170MPD1    C3 2591   1.364   3.651  13.698 -0.5581  0.4758  0.3028
  170MPD1    C4 2592   1.266   3.679  13.614 -0.5600 -0.9980 -0.3194
  170MPD1    C5 2593   1.137   3.653  13.652 -0.3610  0.0120  0.6010
  170MPD1     H 2594   1.429   3.559  13.879  1.1876  0.9276 -1.1522
  170MPD1    H1 2595   1.277   3.738  13.523  2.6494  0.4691  1.0323
  170MPD1    H2 2596   1.009   3.579  13.795 -0.9011  2.0189 -0.9004
  170MPD1    H3 2597   1.049   3.672  13.592 -1.2854 -0.3600  1.8472
  170MPD1     N 2598   1.498   3.669  13.659 -0.2017 -0.2228 -0.3992
  170MPD1    H5 2599   1.565   3.633  13.726  0.7910  2.4129  0.0217
  170MPD1    N1 2600   1.197   3.483  13.970 -0.4804  0.5519 -0.3106
  170MPD1    H6 2601   1.110   3.510  14.015 -0.1746  1.4659 -0.2773
  170MPD1    H7 2602   1.265   3.498  14.045  0.5979 -0.7684 -1.0236
  171MPD1     C 2603   0.367   4.271  14.710  0.2565  0.5766 -0.1058
  171MPD1    C1 2604   0.265   4.235  14.795 -0.3012  0.3512 -0.2507
  171MPD1    C2 2605   0.293   4.232  14.932 -0.9532 -0.0189 -0.3248
  171MPD1    C3 2606   0.415   4.236  14.984 -0.7914 -0.0887  1.4149
  171MPD1    C4 2607   0.523   4.244  14.897  0.0960 -0.2115  0.0043
  171MPD1    C5 2608   0.498   4.264  14.763  0.0002  0.4913 -0.3358
  171MPD1     H 2609   0.202   4.234  14.992 -1.0188  0.3693 -0.4372
  171MPD1    H1 2610   0.629   4.242  14.922  0.3190  2.6667 -0.6778
  171MPD1    H2 2611   0.355   4.279  14.602 -0.8022 -0.4393 -0.0696
  171MPD1    H3 2612   0.585   4.258  14.699  0.8610  3.3598  0.6063
  171MPD1     N 2613   0.449   4.240  15.121  0.2084 -0.0016  0.1397
  171MPD1    H5 2614   0.549   4.234  15.138  0.1069 -1.8894  0.0998
  171MPD1    N1 2615   0.130   4.237  14.747  0.1088 -0.0385  0.2757
  171MPD1    H6 2616   0.127   4.188  14.658 -0.5460  0.5940 -0.0516
  171MPD1    H7 2617   0.063   4.190  14.808  1.1285  1.1053  2.2603
  172MPD1     C 2618   3.429   4.295   0.956  0.1310  0.1728 -0.6949
  172MPD1    C1 2619   3.535   4.227   0.895 -0.1721  0.3420 -0.4777
  172MPD1    C2 2620   3.637   4.306   0.836  0.4187  0.0604  0.5646
  172MPD1    C3 2621   3.651   4.442   0.874 -0.1482 -0.4468 -0.1781
  172MPD1    C4 2622   3.555   4.509   0.952  0.3938  0.2020  0.0521
  172MPD1    C5 2623   3.449   4.431   0.993  0.7046  0.2084 -0.5097
  172MPD1     H 2624   3.706   4.248   0.775 -0.2423 -0.2384  0.1034
  172MPD1    H1 2625   3.548   4.612   0.986  0.7357  0.5400 -0.9123
  172MPD1    H2 2626   3.333   4.250   0.979  0.3803  0.1133  0.2385
  172MPD1    H3 2627   3.374   4.471   1.061  0.4629 -0.7126 -0.2229
  172MPD1     N 2628   3.761   4.519   0.819 -0.2105 -0.2703 -0.2197
  172MPD1    H5 2629   3.758   4.619   0.837  0.5798 -0.5072  1.2148
  172MPD1    N1 2630   3.520   4.093   0.850  0.4273 -0.9027 -0.2869
  172MPD1    H6 2631   3.461   4.041   0.915  0.6167 -2.0513 -1.0342
  172MPD1    H7 2632   3.483   4.090   0.755 -0.9769 -1.5897  0.2835
  173MPD1     C 2633   1.201   4.097  14.233  0.1207 -0.6206 -0.5310
  173MPD1    C1 2634   1.082   4.101  14.299  0.0619  0.2534 -0.0540
  173MPD1    C2 2635   1.043   3.988  14.371 -0.0564  0.1501  0.4746
  173MPD1    C3 2636   1.112   3.872  14.368 -0.3319  0.4047 -1.1392
  173MPD1    C4 2637   1.226   3.866  14.294  0.5809 -0.7068  0.0429
  173MPD1    C5 2638   1.273   3.976  14.227 -0.4832 -0.0053 -0.4822
  173MPD1     H 2639   0.962   3.998  14.443 -0.2729 -2.0605  0.5404
  173MPD1    H1 2640   1.282   3.773  14.299 -1.3742 -1.7895  1.8154
  173MPD1    H2 2641   1.236   4.191  14.192 -1.6125  0.2660  0.0564
  173MPD1    H3 2642   1.361   3.972  14.164 -0.3450  2.0779 -0.4119
  173MPD1     N 2643   1.071   3.764  14.450 -1.1585  0.8935  0.2213
  173MPD1    H5 2644   1.128   3.681  14.440 -0.9333  1.0609  0.0954
  173MPD1    N1 2645   1.018   4.230  14.310 -0.0932  0.8776 -0.4728
  173MPD1    H6 2646   0.926   4.207  14.347  0.0923  0.2490 -0.3862
  173MPD1    H7 2647   1.012   4.271  14.218  0.2349 -3.1834 -2.3320
  174MPD1     C 2648   1.273   2.989  14.222 -0.2706  0.5067 -0.2840
  174MPD1    C1 2649   1.163   2.952  14.297 -0.0569 -0.6001  0.5017
  174MPD1    C2 2650   1.099   3.047  14.364  0.2983 -0.6241  0.6840
  174MPD1    C3 2651   1.145   3.182  14.369  0.2122 -0.3772  0.2865
  174MPD1    C4 2652   1.248   3.219  14.285 -0.1342  0.8594 -0.3045
  174MPD1    C5 2653   1.316   3.120  14.218  0.1749  0.1685 -0.0934
  174MPD1     H 2654   1.002   3.032  14.412 -1.0528  1.6859 -1.3098
  174MPD1    H1 2655   1.284   3.321  14.270  3.3307 -0.1300  1.3205
  174MPD1    H2 2656   1.339   2.921  14.169  0.5009  0.1320  1.1632
  174MPD1    H3 2657   1.397   3.156  14.156 -0.5187  2.8926  0.6071
  174MPD1     N 2658   1.083   3.291  14.435 -0.2147 -0.6334 -0.3714
  174MPD1    H5 2659   1.116   3.377  14.393  0.8383 -0.8198  0.0660
  174MPD1    N1 2660   1.132   2.814  14.310  0.4342  0.0242  0.4579
  174MPD1    H6 2661   1.143   2.767  14.221 -1.9651  0.2724  0.0419
  174MPD1    H7 2662   1.035   2.816  14.341 -0.0444  1.4104 -1.0945
  175MPD1     C 2663   3.777   4.010  15.703  0.0626 -0.9340  1.1079
  175MPD1    C1 2664   3.664   4.072  15.766 -0.6850  0.4899  0.0220
  175MPD1    C2 2665   3.687   4.154  15.874 -0.6382 -1.2257  0.4089
  175MPD1    C3 2666   3.820   4.186  15.911  0.6786 -0.1364  0.0409
  175MPD1    C4 2667   3.923   4.135  15.839  0.2738 -0.9442  0.1175
  175MPD1    C5 2668   3.900   4.039  15.742  0.3346 -0.4107  0.4249
  175MPD1     H 2669   3.600   4.193  15.925 -0.2354 -0.5350  0.5708
  175MPD1    H1 2670   4.025   4.152  15.873  0.3993  0.2509 -0.8637
  175MPD1    H2 2671   3.758   3.925  15.639  3.1408 -0.3926 -0.5655
  175MPD1    H3 2672   3.985   3.989  15.697 -0.9484  1.2175 -3.8133
  175MPD1     N 2673   3.862   4.276  16.015  0.0862 -0.1247  0.2594
  175MPD1    H5 2674   3.959   4.304  16.015 -0.2135  0.9399  0.9969
  175MPD1    N1 2675   3.528   4.029  15.748  0.1905  0.3539 -0.2717
  175MPD1    H6 2676   3.515   4.009  15.649 -0.3439  1.9919 -0.5209
  175MPD1    H7 2677   3.451   4.090  15.773 -1.8497 -1.3369 -2.3821
  176MPD1     C 2678   2.370   3.219   0.396  0.0137 -0.6191 -0.4168
  176MPD1    C1 2679   2.323   3.342   0.367  0.4856  0.2383 -0.8343
  176MPD1    C2 2680   2.233   3.357   0.266 -0.0307  0.3343  0.0784
  176MPD1    C3 2681   2.164   3.254   0.214 -0.3372  0.0610 -0.2460
  176MPD1    C4 2682   2.207   3.129   0.252 -0.0169  0.0310 -0.1516
  176MPD1    C5 2683   2.314   3.108   0.334  0.6126 -0.2667  0.6329
  176MPD1     H 2684   2.207   3.457   0.235  0.1999  0.0517 -1.0199
  176MPD1    H1 2685   2.168   3.038   0.208 -0.9184 -0.6109  1.9802
  176MPD1    H2 2686   2.448   3.207   0.470 -1.8013  1.3321  1.8616
  176MPD1    H3 2687   2.341   3.009   0.368 -0.2766 -0.6813  0.1382
  176MPD1     N 2688   2.063   3.276   0.115  0.1517 -0.2838 -0.0252
  176MPD1    H5 2689   2.048   3.371   0.082  2.9430  0.8713  2.0062
  176MPD1    N1 2690   2.396   3.455   0.414 -0.3515 -0.1779  1.2965
  176MPD1    H6 2691   2.335   3.534   0.432  1.1837  1.3260 -0.0316
  176MPD1    H7 2692   2.436   3.422   0.502 -1.7140  0.9058  2.3205
  177MPD1     C 2693   0.295   2.255  10.406 -0.1051  0.1859 -0.0951
  177MPD1    C1 2694   0.292   2.154  10.312  0.7832  0.3236  0.5747
  177MPD1    C2 2695   0.279   2.193  10.178  0.3009  0.1853  0.3222
  177MPD1    C3 2696   0.274   2.324  10.146 -0.0711  0.0346 -0.0483
  177MPD1    C4 2697   0.302   2.422  10.243 -0.0409 -0.6859 -0.1141
  177MPD1    C5 2698   0.315   2.388  10.376  0.3661 -0.2166 -0.3166
  177MPD1     H 2699   0.264   2.123  10.097 -0.0563  0.4913  0.1179
  177MPD1    H1 2700   0.301   2.530  10.236  3.5307 -0.7643 -1.5574
  177MPD1    H2 2701   0.310   2.236  10.512 -1.3167  0.8889  0.1980
  177MPD1    H3 2702   0.320   2.467  10.450  0.3459 -0.6683  0.1736
  177MPD1     N 2703   0.256   2.355  10.010  0.5088  0.4957  0.0928
  177MPD1    H5 2704   0.233   2.282   9.945 -1.2491 -1.2495  2.6691
  177MPD1    N1 2705   0.282   2.020  10.356 -0.3639 -0.1288  0.5276
  177MPD1    H6 2706   0.311   1.945  10.294  1.9480  0.2413  1.1697
  177MPD1    H7 2707   0.331   2.009  10.444  0.9464  1.6366  0.0211
  178MPD1     C 2708   2.239   2.769   0.043 -0.2289 -1.1853  0.0584
  178MPD1    C1 2709   2.234   2.649  17.675 -0.5221 -0.4577  0.6424
  178MPD1    C2 2710   2.219   2.654  17.539  0.2105 -0.0894  0.9214
  178MPD1    C3 2711   2.240   2.775  17.465  0.4397  0.2958 -0.0613
  178MPD1    C4 2712   2.257   2.894  17.539  0.2306 -0.2959 -0.3987
  178MPD1    C5 2713   2.256   2.887  17.676 -0.3757 -0.0228  0.1670
  178MPD1     H 2714   2.216   2.561  17.483 -1.3625 -0.3203  1.3961
  178MPD1    H1 2715   2.283   2.988  17.492 -1.0150  0.9359  1.3743
  178MPD1    H2 2716   2.265   2.780   0.148 -0.7477 -2.4879  0.3330
  178MPD1    H3 2717   2.285   2.977   0.028  0.4289  0.4297 -1.0415
  178MPD1     N 2718   2.255   2.782  17.329  0.4019  0.3217  0.2679
  178MPD1    H5 2719   2.275   2.877  17.299 -0.6337  0.3352 -0.3765
  178MPD1    N1 2720   2.210   2.527   0.038  0.1174  0.7681 -0.2534
  178MPD1    H6 2721   2.261   2.525   0.127  0.7941 -3.0324 -0.7420
  178MPD1    H7 2722   2.235   2.451  17.678  1.9407  1.6658 -0.6314
  179MPD1     C 2723   1.455   0.861  15.288  0.2492  0.0442 -0.0006
  179MPD1    C1 2724   1.503   0.869  15.417  0.3520 -0.1343  0.4544
  179MPD1    C2 2725   1.416   0.866  15.524 -0.2815 -0.1993  0.1048
  179MPD1    C3 2726   1.280   0.864  15.501  0.7661  0.8801  0.3372
  179MPD1    C4 2727   1.235   0.854  15.371  0.9041 -0.5158  0.0660
  179MPD1    C5 2728   1.320   0.860  15.273 -0.2769  0.0466  0.3598
  179MPD1     H 2729   1.452   0.852  15.625 -0.5014  2.8764  0.6074
  179MPD1    H1 2730   1.131   0.841  15.344  1.3211 -1.2725 -1.1924
  179MPD1    H2 2731   1.522   0.856  15.203  0.2566 -1.9793  0.1166
  179MPD1    H3 2732   1.280   0.852  15.173  1.7918 -0.8568 -0.3947
  179MPD1     N 2733   1.189   0.849  15.604  0.7395 -0.6955  0.2994
  179MPD1    H5 2734   1.094   0.824  15.578  0.1087  1.1084  0.8991
  179MPD1    N1 2735   1.639   0.849  15.427  0.2481  0.2334  0.0013
  179MPD1    H6 2736   1.681   0.890  15.510 -1.0744  1.0598  0.2677
  179MPD1    H7 2737   1.677   0.883  15.339  0.3335  1.1632  0.3960
  180MPD1     C 2738   1.498   1.793  15.410  0.4472  0.1208  0.4064
  180MPD1    C1 2739   1.380   1.841  15.355  0.3341 -0.4458  0.0795
  180MPD1    C2 2740   1.386   1.931  15.250  0.0476 -0.1154  0.0688
  180MPD1    C3 2741   1.502   1.986  15.210 -0.5583 -0.0716 -0.6499
  180MPD1    C4 2742   1.625   1.945  15.268  0.2587 -0.2930 -0.1490
  180MPD1    C5 2743   1.616   1.853  15.369 -1.2381  0.1531 -0.0647
  180MPD1     H 2744   1.293   1.962  15.204  0.7607 -0.4004 -1.5887
  180MPD1    H1 2745   1.725   1.981  15.244  0.3255 -0.8980 -0.8001
  180MPD1    H2 2746   1.511   1.715  15.485  2.2184  0.3038  0.3019
  180MPD1    H3 2747   1.712   1.830  15.413 -0.3108  1.1126 -1.6075
  180MPD1     N 2748   1.502   2.067  15.093  0.2836 -0.0841 -0.3594
  180MPD1    H5 2749   1.409   2.093  15.061  1.1705  2.3350 -0.9775
  180MPD1    N1 2750   1.260   1.777  15.385 -0.0196  0.0976  0.4441
  180MPD1    H6 2751   1.246   1.769  15.486  1.4612 -0.3545  0.6101
  180MPD1    H7 2752   1.185   1.833  15.345 -0.4749 -0.3793  0.6313
  181MPD1     C 2753   3.338   0.653  10.437  0.1723  0.4331 -0.0545
  181MPD1    C1 2754   3.380   0.553  10.515  0.9335  0.2729  0.6186
  181MPD1    C2 2755   3.472   0.465  10.465  0.4928 -0.0164  0.2644
  181MPD1    C3 2756   3.527   0.481  10.340 -0.0668 -0.0796  0.2907
  181MPD1    C4 2757   3.484   0.577  10.263  0.0301 -0.0137  0.3166
  181MPD1    C5 2758   3.387   0.663  10.307  0.6029  0.3596 -0.1394
  181MPD1     H 2759   3.516   0.394  10.534 -1.1744 -2.8146 -1.5439
  181MPD1    H1 2760   3.526   0.581  10.163 -1.3831 -1.8674 -0.3487
  181MPD1    H2 2761   3.279   0.735  10.477  0.6154  0.3273  0.8313
  181MPD1    H3 2762   3.354   0.735  10.234 -1.3866  1.0126  1.3970
  181MPD1     N 2763   3.623   0.396  10.292  0.1757 -0.8339 -0.8438
  181MPD1    H5 2764   3.643   0.403  10.193  2.7879 -0.4150 -0.2872
  181MPD1    N1 2765   3.359   0.566  10.656 -0.1998 -0.4611  0.4618
  181MPD1    H6 2766   3.365   0.477  10.706  1.0279 -0.5551  0.1519
  181MPD1    H7 2767   3.283   0.621  10.695 -0.2082  0.5590 -0.9755
  182MPD1     C 2768   0.307   3.160   1.005  0.6753 -0.1074  0.5439
  182MPD1    C1 2769   0.214   3.148   0.901  0.6045  0.6111 -0.2605
  182MPD1    C2 2770   0.079   3.147   0.926 -0.7663  0.0680  0.2313
  182MPD1    C3 2771   0.041   3.153   1.057  0.1678 -0.1490  0.3110
  182MPD1    C4 2772   0.126   3.153   1.160 -0.3906  0.0040 -0.5461
  182MPD1    C5 2773   0.260   3.163   1.134  0.6918 -0.4073  0.4726
  182MPD1     H 2774   0.009   3.156   0.844  1.0368 -0.0485 -1.3301
  182MPD1    H1 2775   0.084   3.160   1.259 -1.0883  0.0177 -0.8405
  182MPD1    H2 2776   0.414   3.161   0.988  0.3073 -0.2263 -1.7606
  182MPD1    H3 2777   0.336   3.179   1.210  0.9472  0.6794 -0.0167
  182MPD1     N 2778   4.625   3.172   1.096  0.0031  0.3858  0.0732
  182MPD1    H5 2779   4.606   3.173   1.196  0.3067 -0.8199  0.1546
  182MPD1    N1 2780   0.257   3.154   0.765 -0.1041 -0.2721 -0.3335
  182MPD1    H6 2781   0.354   3.127   0.748  0.0490 -1.0256  1.7385
  182MPD1    H7 2782   0.201   3.102   0.698 -0.2735  1.3419 -1.4466
  183MPD1     C 2783   0.048   3.258   8.950 -0.0464 -0.1280 -0.4629
  183MPD1    C1 2784   0.100   3.225   9.074 -0.0079  0.9854  0.0409
  183MPD1    C2 2785   0.049   3.301   9.172  0.5544  0.7463  0.6957
  183MPD1    C3 2786   4.670   3.394   9.163  0.0430  0.0552 -0.2072
  183MPD1    C4 2787   4.621   3.418   9.035 -0.5062 -0.5476 -0.0455
  183MPD1    C5 2788   4.672   3.346   8.932 -0.5763 -0.3897 -0.1196
  183MPD1     H 2789   0.087   3.282   9.272 -0.0572 -1.1883  0.5714
  183MPD1    H1 2790   4.536   3.483   9.017  1.5398  1.7881 -1.3027
  183MPD1    H2 2791   0.101   3.217   8.865 -0.7606  0.8157 -1.3591
  183MPD1    H3 2792   4.651   3.373   8.829  1.3080  0.9306 -0.1731
  183MPD1     N 2793   4.610   3.463   9.279  0.5319 -0.1550  0.3013
  183MPD1    H5 2794   4.640   3.445   9.374 -1.4426 -1.6362  0.6555
  183MPD1    N1 2795   0.211   3.131   9.073 -0.7603  0.4995  0.3169
  183MPD1    H6 2796   0.189   3.058   9.005  0.6743  0.7844 -0.4525
  183MPD1    H7 2797   0.213   3.082   9.162 -0.8218 -2.2997 -1.2257
  184MPD1     C 2798   4.021   1.348   9.745  0.5146  0.6064  0.4262
  184MPD1    C1 2799   4.106   1.419   9.829 -0.1832  0.3494  0.5988
  184MPD1    C2 2800   4.235   1.463   9.779 -0.1195  0.1385  0.1032
  184MPD1    C3 2801   4.255   1.470   9.646  0.3651 -0.4625 -0.9229
  184MPD1    C4 2802   4.169   1.405   9.561 -0.3288 -0.2000  0.3022
  184MPD1    C5 2803   4.062   1.341   9.614 -0.3047  0.6393 -0.4879
  184MPD1     H 2804   4.310   1.496   9.850  0.6432  0.0256 -0.6524
  184MPD1    H1 2805   4.183   1.410   9.453  0.8768 -0.4717  0.4378
  184MPD1    H2 2806   3.929   1.297   9.774 -0.0880  0.7881 -1.1761
  184MPD1    H3 2807   3.999   1.281   9.549 -1.5975  2.3336 -0.8098
  184MPD1     N 2808   4.365   1.540   9.589  0.7056 -0.1112  0.0884
  184MPD1    H5 2809   4.383   1.534   9.489 -0.1962 -0.0991 -0.0746
  184MPD1    N1 2810   4.080   1.423   9.970  0.3981 -0.0378  0.2689
  184MPD1    H6 2811   4.129   1.485  10.033  1.7462  0.3469 -1.1501
  184MPD1    H7 2812   3.983   1.452   9.976  0.7218  1.5228 -2.1857
  185MPD1     C 2813   4.702   1.326   8.866  0.5747  0.1607 -0.4385
  185MPD1    C1 2814   0.081   1.385   8.927 -0.0543 -0.4748 -0.3229
  185MPD1    C2 2815   0.063   1.471   9.040  0.3944  0.2040  0.3755
  185MPD1    C3 2816   4.664   1.488   9.090  0.2676 -0.1005 -0.2376
  185MPD1    C4 2817   4.561   1.418   9.026 -0.4832 -0.1455  0.7777
  185MPD1    C5 2818   4.570   1.339   8.915  0.3496  0.0927  0.2854
  185MPD1     H 2819   0.155   1.518   9.072  0.8119 -0.4997  0.2112
  185MPD1    H1 2820   4.459   1.430   9.062 -0.1602 -0.6615  1.8341
  185MPD1    H2 2821   4.711   1.258   8.782  0.7684  0.8490 -0.9816
  185MPD1    H3 2822   4.480   1.310   8.864 -1.0875  1.6760  1.9293
  185MPD1     N 2823   4.640   1.554   9.214 -0.5641  0.5141  0.6125
  185MPD1    H5 2824   4.547   1.545   9.254 -0.1674  0.8285  1.6037
  185MPD1    N1 2825   0.207   1.336   8.891  0.3927 -0.3321 -0.2644
  185MPD1    H6 2826   0.272   1.414   8.896  0.0526  0.1772 -3.6600
  185MPD1    H7 2827   0.204   1.302   8.795  1.7996 -2.6999  0.5277
  186MPD1     C 2828   2.170   0.602  15.403  0.6838 -0.1837  0.6289
  186MPD1    C1 2829   2.042   0.620  15.444  0.1916 -0.4011  0.7044
  186MPD1    C2 2830   2.002   0.728  15.525  0.7473 -0.0129  0.6295
  186MPD1    C3 2831   2.092   0.826  15.546  0.0100  0.1367  0.0013
  186MPD1    C4 2832   2.224   0.806  15.516 -0.1133 -0.8309 -0.3686
  186MPD1    C5 2833   2.263   0.694  15.448  0.2742 -0.0341  0.2947
  186MPD1     H 2834   1.897   0.734  15.550  0.2279  1.3570 -1.9371
  186MPD1    H1 2835   2.306   0.875  15.532 -2.0240  1.8759 -2.1942
  186MPD1    H2 2836   2.201   0.512  15.350 -0.4314  0.3155 -0.8789
  186MPD1    H3 2837   2.367   0.680  15.422  0.7476  0.6091  1.8774
  186MPD1     N 2838   2.060   0.948  15.604  0.1548 -0.8484  0.0382
  186MPD1    H5 2839   2.138   1.007  15.631  1.2314 -2.5949  0.7119
  186MPD1    N1 2840   1.940   0.530  15.403 -0.4977 -0.4487 -0.4392
  186MPD1    H6 2841   1.849   0.553  15.442 -0.8545 -0.6508 -1.1484
  186MPD1    H7 2842   1.952   0.429  15.404  0.6678 -0.3049  0.6811
  187MPD1     C 2843   1.866   3.486  16.632 -0.1688 -0.5408  0.3650
  187MPD1    C1 2844   1.833   3.413  16.747 -0.0591  0.2607  0.2161
  187MPD1    C2 2845   1.701   3.395  16.782 -0.3939 -0.3404 -0.4020
  187MPD1    C3 2846   1.596   3.434  16.696 -0.2848  0.2804 -0.0791
  187MPD1    C4 2847   1.630   3.505  16.579  0.1647  0.1039  0.1808
  187MPD1    C5 2848   1.765   3.532  16.551 -0.5847  0.0295  0.0677
  187MPD1     H 2849   1.674   3.340  16.871 -0.8270 -1.1799 -1.0562
  187MPD1    H1 2850   1.552   3.539  16.512 -0.0198  1.6188  1.1648
  187MPD1    H2 2851   1.970   3.509  16.609  0.0947 -0.6823  1.4321
  187MPD1    H3 2852   1.795   3.592  16.466 -1.0082 -0.1610 -0.2143
  187MPD1     N 2853   1.458   3.434  16.742  0.5313  0.0008  0.0315
  187MPD1    H5 2854   1.395   3.481  16.677  1.0949  2.3386  1.1942
  187MPD1    N1 2855   1.936   3.381  16.839 -0.9967 -0.0320 -0.3868
  187MPD1    H6 2856   1.950   3.462  16.900 -0.3534 -3.2925  3.7862
  187MPD1    H7 2857   1.903   3.303  16.895 -1.7669 -0.2241 -1.1175
  188MPD1     C 2858   0.939   2.765  11.091  0.0024 -0.1303  0.2084
  188MPD1    C1 2859   1.024   2.827  11.011 -0.3885  0.4523 -0.4340
  188MPD1    C2 2860   1.120   2.752  10.942 -0.4231  0.8505  0.7713
  188MPD1    C3 2861   1.132   2.614  10.968 -0.3120 -0.4031 -0.0134
  188MPD1    C4 2862   1.059   2.564  11.076 -0.6575 -0.2116  0.0706
  188MPD1    C5 2863   0.957   2.629  11.133  0.2799 -0.7301  0.1282
  188MPD1     H 2864   1.179   2.796  10.862 -2.3882  0.7104 -0.7439
  188MPD1    H1 2865   1.064   2.457  11.091 -2.2224 -0.1033  1.3070
  188MPD1    H2 2866   0.869   2.818  11.154  1.6922  2.1341  0.1986
  188MPD1    H3 2867   0.890   2.582  11.204 -1.5350  0.7658 -0.5991
  188MPD1     N 2868   1.198   2.524  10.879  0.3280  0.3491  0.0843
  188MPD1    H5 2869   1.215   2.431  10.914 -0.0362  0.7785  1.4147
  188MPD1    N1 2870   0.992   2.953  10.959 -0.2529  0.1726  0.0533
  188MPD1    H6 2871   0.943   3.003  11.033  2.1809  2.9527 -0.2265
  188MPD1    H7 2872   1.074   3.000  10.920  0.4773  0.5692  2.0496
  189MPD1     C 2873   2.810   3.788   0.782  0.0894  0.7338  0.2327
  189MPD1    C1 2874   2.745   3.699   0.698  0.0604  0.5723  0.5616
  189MPD1    C2 2875   2.691   3.749   0.578 -0.0195 -0.5452  0.1957
  189MPD1    C3 2876   2.723   3.876   0.534 -0.2813  0.7590  0.0695
  189MPD1    C4 2877   2.794   3.960   0.617  0.6017 -0.4334 -0.1607
  189MPD1    C5 2878   2.823   3.913   0.741  0.1932  0.3485  0.3160
  189MPD1     H 2879   2.628   3.695   0.508  1.4950  0.7039 -2.1534
  189MPD1    H1 2880   2.818   4.061   0.588 -0.7997 -0.4242 -1.2759
  189MPD1    H2 2881   2.839   3.760   0.883  1.1711 -0.6860 -0.4701
  189MPD1    H3 2882   2.876   3.980   0.808  1.6446  1.6634 -2.1493
  189MPD1     N 2883   2.670   3.918   0.413 -0.1539  0.2210  0.5800
  189MPD1    H5 2884   2.606   3.856   0.364 -0.4350  0.9730 -0.0003
  189MPD1    N1 2885   2.704   3.578   0.746  0.0045 -0.2392  0.1245
  189MPD1    H6 2886   2.758   3.538   0.822  1.5671 -0.1476 -0.9432
  189MPD1    H7 2887   2.691   3.511   0.670  2.6097  2.4068 -2.6362
  190MPD1     C 2888   1.660   2.802  15.437  0.4875  0.3034 -0.3433
  190MPD1    C1 2889   1.625   2.701  15.523 -0.3105 -0.6823 -0.1920
  190MPD1    C2 2890   1.718   2.614  15.572  0.4973  0.4369  0.1973
  190MPD1    C3 2891   1.848   2.616  15.526 -0.8188  0.1056  1.0959
  190MPD1    C4 2892   1.880   2.702  15.424 -0.6109  1.3498  0.5204
  190MPD1    C5 2893   1.783   2.799  15.380 -0.4403  0.1472  0.7418
  190MPD1     H 2894   1.701   2.544  15.653 -1.4087  0.6017 -0.0761
  190MPD1    H1 2895   1.981   2.704  15.382 -1.8765  0.8358 -2.5681
  190MPD1    H2 2896   1.589   2.868  15.390  0.0691 -0.5118 -0.8583
  190MPD1    H3 2897   1.802   2.865  15.296  0.6373 -2.5074 -1.0686
  190MPD1     N 2898   1.937   2.527  15.582  0.1280  0.8635  0.8425
  190MPD1    H5 2899   1.904   2.477  15.664 -0.8974 -1.7118 -1.1476
  190MPD1    N1 2900   1.499   2.711  15.580  0.4388  0.1702 -0.5953
  190MPD1    H6 2901   1.430   2.741  15.511 -0.8119  1.0204  1.0229
  190MPD1    H7 2902   1.451   2.629  15.616  0.3878  0.9299  1.0583
  191MPD1     C 2903   1.334   3.842  13.156  0.3933 -0.1902 -1.2882
  191MPD1    C1 2904   1.194   3.837  13.164 -0.0792 -0.8754 -0.7223
  191MPD1    C2 2905   1.123   3.875  13.056  0.4323 -0.3133  0.4071
  191MPD1    C3 2906   1.180   3.924  12.942  0.0206  0.4079  0.5254
  191MPD1    C4 2907   1.323   3.927  12.932 -0.1873  0.8352  0.2642
  191MPD1    C5 2908   1.399   3.895  13.046  0.6989 -0.2806 -0.2002
  191MPD1     H 2909   1.015   3.879  13.062  0.4856  2.5714 -0.5180
  191MPD1    H1 2910   1.381   3.965  12.849  0.5311  1.3281  0.9992
  191MPD1    H2 2911   1.397   3.806  13.236 -0.4196  0.8132 -0.1938
  191MPD1    H3 2912   1.507   3.894  13.041  0.6016  0.9690 -2.6515
  191MPD1     N 2913   1.095   3.960  12.838  0.0740  0.0824  0.1720
  191MPD1    H5 2914   0.997   3.958  12.865 -0.1191  0.9451 -0.4731
  191MPD1    N1 2915   1.139   3.820  13.288  0.0936  0.0634 -0.5627
  191MPD1    H6 2916   1.051   3.768  13.290 -0.1045  0.3922 -0.8406
  191MPD1    H7 2917   1.201   3.789  13.362  1.6593  0.1734 -1.8339
  192MPD1     C 2918   0.457   4.697  12.781 -0.0113 -0.2099 -0.2785
  192MPD1    C1 2919   0.597   4.707  12.798 -0.1288 -0.1350  1.1964
  192MPD1    C2 2920   0.667   4.596  12.750 -0.0897  0.1510  0.5792
  192MPD1    C3 2921   0.608   4.496  12.671  0.0683  0.1594  0.3064
  192MPD1    C4 2922   0.478   4.507  12.634  0.5661 -0.7331 -0.2985
  192MPD1    C5 2923   0.403   4.604  12.689  0.6477  0.6298 -0.0559
  192MPD1     H 2924   0.770   4.592  12.783 -0.2190 -2.3222  0.6258
  192MPD1    H1 2925   0.436   4.432  12.568  1.9122 -1.0929 -0.7502
  192MPD1    H2 2926   0.389   0.046  12.819  0.3380  0.8511 -1.7207
  192MPD1    H3 2927   0.302   4.614  12.653  1.2081  1.5880 -1.3510
  192MPD1     N 2928   0.673   4.377  12.640 -0.5615  0.0449  0.2813
  192MPD1    H5 2929   0.632   4.321  12.566 -1.1978  0.7015  0.1411
  192MPD1    N1 2930   0.649   0.078  12.889 -0.5441  0.5141 -0.1638
  192MPD1    H6 2931   0.750   0.093  12.884 -0.1957 -1.5930  0.2613
  192MPD1    H7 2932   0.594   0.162  12.876 -0.0834  0.5759 -1.6783
  193MPD1     C 2933   4.484   4.492  16.971 -0.9234 -0.3844 -0.0164
  193MPD1    C1 2934   4.565   4.400  16.908 -0.7563  0.4934 -0.0078
  193MPD1    C2 2935   4.680   4.453  16.851  0.2264 -0.7525 -0.0500
  193MPD1    C3 2936   4.716   4.584  16.863 -0.7794 -0.5609 -0.5092
  193MPD1    C4 2937   4.635   4.673  16.934 -0.4424 -0.8001  0.8486
  193MPD1    C5 2938   4.515   4.622  16.985  0.3095 -0.3965  1.0602
  193MPD1     H 2939   0.016   4.382  16.797  0.0642 -1.7075  1.0090
  193MPD1    H1 2940   4.648   0.056  16.934 -1.1237 -0.7247  1.5048
  193MPD1    H2 2941   4.391   4.461  17.016 -0.8161 -2.2920 -1.0898
  193MPD1    H3 2942   4.439   4.678  17.037  0.4087  0.3663  0.3815
  193MPD1     N 2943   0.110   4.636  16.808 -0.1538  0.4134 -0.0213
  193MPD1    H5 2944   0.115   0.008  16.834 -0.5568  0.6886 -0.9730
  193MPD1    N1 2945   4.531   4.267  16.880  0.1790 -0.1249 -0.0635
  193MPD1    H6 2946   4.464   4.231  16.948 -0.5006  2.6076  0.7336
  193MPD1    H7 2947   4.612   4.206  16.881  0.6947  0.5616 -0.0428
  194MPD1     C 2948   3.204   2.404  16.105  0.1848 -0.3373  0.5220
  194MPD1    C1 2949   3.325   2.432  16.164  0.8959 -0.0102  0.9088
  194MPD1    C2 2950   3.388   2.345  16.249  0.1486  0.2719  0.2984
  194MPD1    C3 2951   3.337   2.218  16.274  0.0948 -0.0947 -0.7583
  194MPD1    C4 2952   3.209   2.188  16.225 -0.0542 -0.3658 -0.1246
  194MPD1    C5 2953   3.151   2.278  16.138 -0.4911  0.2887  0.0220
  194MPD1     H 2954   3.489   2.367  16.282 -0.2985  1.8096  0.6276
  194MPD1    H1 2955   3.173   2.087  16.239  0.4261 -0.6670 -1.0539
  194MPD1    H2 2956   3.164   2.453  16.017 -0.6476  0.5025  1.3659
  194MPD1    H3 2957   3.057   2.250  16.092  0.3167 -2.2036 -0.1005
  194MPD1     N 2958   3.398   2.123  16.357 -0.4965  0.9971 -0.2170
  194MPD1    H5 2959   3.359   2.030  16.357  0.1138  0.7400  0.3166
  194MPD1    N1 2960   3.376   2.563  16.145  0.1463 -0.3691 -0.1650
  194MPD1    H6 2961   3.326   2.616  16.073 -0.9253  1.5083  1.9375
  194MPD1    H7 2962   3.476   2.566  16.131 -0.0939 -2.2092 -2.2815
  195MPD1     C 2963   0.262   4.228  17.439 -0.0766 -0.9226 -0.1114
  195MPD1    C1 2964   0.231   4.130  17.530 -1.0074  0.6176 -0.3429
  195MPD1    C2 2965   0.328   4.051  17.576  0.3228 -0.8583  0.1662
  195MPD1    C3 2966   0.450   4.050  17.517  0.3059  0.0572  0.3809
  195MPD1    C4 2967   0.486   4.154  17.428 -0.2957  0.5980 -0.6501
  195MPD1    C5 2968   0.386   4.242  17.388  0.2578  0.2152  0.2015
  195MPD1     H 2969   0.298   3.963  17.633 -0.9799 -0.3066  0.3386
  195MPD1    H1 2970   0.585   4.166  17.384  0.4580  0.5928  1.0519
  195MPD1    H2 2971   0.186   4.298  17.407 -2.2133 -2.3394  1.8666
  195MPD1    H3 2972   0.413   4.315  17.312 -1.5781 -1.7200 -2.3092
  195MPD1     N 2973   0.547   3.941  17.523  0.8652  1.1267 -0.0394
  195MPD1    H5 2974   0.628   3.952  17.464  1.4432 -0.6314  0.4015
  195MPD1    N1 2975   0.104   4.118  17.577  0.1467  0.1454 -0.3886
  195MPD1    H6 2976   0.083   4.031  17.625  1.8504  0.9361  1.8211
  195MPD1    H7 2977   0.049   4.124  17.492 -1.3515  1.1840  0.6624
  196MPD1     C 2978   0.996   3.941   0.120  0.3950  0.1940  0.0438
  196MPD1    C1 2979   0.875   3.897   0.154  0.2691 -0.2078 -0.9458
  196MPD1    C2 2980   0.864   3.782   0.226  0.3805  0.0146 -0.4539
  196MPD1    C3 2981   0.976   3.705   0.259  0.3162  1.0654  0.6415
  196MPD1    C4 2982   1.100   3.744   0.218 -0.5076  1.3493 -0.6667
  196MPD1    C5 2983   1.106   3.867   0.147  0.1314  0.0700 -0.3286
  196MPD1     H 2984   0.764   3.751   0.253  0.3758  0.2205 -0.2358
  196MPD1    H1 2985   1.185   3.679   0.236 -1.5212 -0.5872 -2.7501
  196MPD1    H2 2986   1.004   4.045   0.092 -1.3555  0.2847 -0.0899
  196MPD1    H3 2987   1.200   3.911   0.117 -1.0361  2.7299 -0.0973
  196MPD1     N 2988   0.959   3.585   0.331  0.4794 -0.2805 -0.0763
  196MPD1    H5 2989   1.044   3.529   0.338  0.0972 -0.8900 -0.3187
  196MPD1    N1 2990   0.762   3.986   0.142 -0.4748  0.3793  0.5464
  196MPD1    H6 2991   0.669   3.945   0.138 -1.4370  2.7193 -1.4537
  196MPD1    H7 2992   0.769   4.047   0.061 -1.7413 -0.0888  0.0846
  197MPD1     C 2993   4.197   0.370   0.108 -0.0315  0.3853  0.6159
  197MPD1    C1 2994   4.327   0.414   0.125  0.6929 -0.2255  0.1111
  197MPD1    C2 2995   4.400   0.453   0.013  0.5075  0.2451  0.3862
  197MPD1    C3 2996   4.348   0.449  17.585  0.4169  0.5792 -0.2130
  197MPD1    C4 2997   4.224   0.396  17.576 -0.3313  0.5919  0.6191
  197MPD1    C5 2998   4.150   0.353  17.685 -0.0822  0.0092  0.0025
  197MPD1     H 2999   4.501   0.489   0.029 -0.0851  0.8847  2.6492
  197MPD1    H1 3000   4.168   0.398  17.484 -1.3570  0.2187  1.2327
  197MPD1    H2 3001   4.133   0.344   0.191  0.0950 -0.4707  0.4505
  197MPD1    H3 3002   4.047   0.325  17.669  0.1870 -0.5917 -0.6807
  197MPD1     N 3003   4.420   0.495  17.471 -0.1397  0.8838  0.6668
  197MPD1    H5 3004   4.389   0.468  17.378 -1.9754  0.0928  1.4962
  197MPD1    N1 3005   4.374   0.436   0.253 -0.4828 -0.0524 -1.0112
  197MPD1    H6 3006   4.475   0.426   0.254 -0.2767  1.8477 -2.2149
  197MPD1    H7 3007   4.333   0.374   0.322  0.4680  0.3748 -0.0668
  198MPD1     C 3008   1.539   4.072  15.481 -0.3457 -0.8522  0.0969
  198MPD1    C1 3009   1.614   3.960  15.498 -0.4260 -0.0276  0.2269
  198MPD1    C2 3010   1.687   3.952  15.615 -0.7303  0.6834  0.0220
  198MPD1    C3 3011   1.685   4.045  15.715 -0.3574  0.7935 -0.8406
  198MPD1    C4 3012   1.627   4.168  15.689  0.1178  0.1877  0.0254
  198MPD1    C5 3013   1.557   4.178  15.570  0.3255 -0.7467  0.0289
  198MPD1     H 3014   1.723   3.851  15.631 -0.8838  0.4148 -1.3166
  198MPD1    H1 3015   1.622   4.250  15.760 -2.1009  0.2789 -0.2208
  198MPD1    H2 3016   1.477   4.092  15.395  0.3648 -0.3587 -0.3046
  198MPD1    H3 3017   1.510   4.273  15.548 -0.3939 -0.5594  2.3535
  198MPD1     N 3018   1.748   4.013  15.836 -0.2324  0.0020  0.0470
  198MPD1    H5 3019   1.812   3.934  15.834 -1.3095 -0.8853  0.4081
  198MPD1    N1 3020   1.594   3.853  15.412  0.4617 -0.0665  0.3247
  198MPD1    H6 3021   1.571   3.886  15.318 -0.2750  1.7635  1.1369
  198MPD1    H7 3022   1.678   3.795  15.405  0.5291 -0.0463  1.0014
  199MPD1     C 3023   3.360   4.527  10.360 -0.4518  0.0390  0.3126
  199MPD1    C1 3024   3.235   4.553  10.309 -0.7519 -0.5811  0.5541
  199MPD1    C2 3025   3.219   4.610  10.184  0.6881  0.6928 -0.2033
  199MPD1    C3 3026   3.333   4.647  10.114  0.3563 -0.3645  0.0585
  199MPD1    C4 3027   3.456   4.634  10.178 -0.3255  0.0892 -0.2937
  199MPD1    C5 3028   3.471   4.571  10.297 -0.2558 -0.6542  0.4271
  199MPD1     H 3029   3.123   4.643  10.146 -0.4631 -0.8741  1.3652
  199MPD1    H1 3030   3.543   4.689  10.144  1.0014 -2.0134 -0.2753
  199MPD1    H2 3031   3.364   4.473  10.454  1.0150 -2.1398 -1.0013
  199MPD1    H3 3032   3.567   4.555  10.343 -0.2447 -1.0390  0.2767
  199MPD1     N 3033   3.337   4.701   9.986  0.1114 -0.2661 -0.1465
  199MPD1    H5 3034   3.423   0.016   9.950  0.5525 -0.4943  0.6298
  199MPD1    N1 3035   3.120   4.527  10.385  0.3260 -0.4608  0.3858
  199MPD1    H6 3036   3.141   4.554  10.481 -1.6702  0.0750  0.6776
  199MPD1    H7 3037   3.050   4.593  10.355  1.1135 -0.0700 -0.5655
  200MPD1     C 3038   2.549   4.052  15.723  0.9023 -0.0171 -0.3212
  200MPD1    C1 3039   2.471   3.956  15.657 -0.3052 -0.5764  0.2511
  200MPD1    C2 3040   2.453   3.971  15.522  0.0652  0.5179 -0.9836
  200MPD1    C3 3041   2.515   4.070  15.449  0.3248  0.8265 -0.1872
  200MPD1    C4 3042   2.597   4.166  15.517  0.0475 -0.3390 -0.7379
  200MPD1    C5 3043   2.614   4.149  15.653  0.1271 -0.0935  0.3196
  200MPD1     H 3044   2.395   3.902  15.462  0.1634 -2.3727  2.2638
  200MPD1    H1 3045   2.643   4.251  15.470 -1.7075  1.1035  0.1596
  200MPD1    H2 3046   2.546   4.057  15.831  1.4765 -0.7297 -0.2767
  200MPD1    H3 3047   2.678   4.218  15.706  0.3501  0.2681 -0.4338
  200MPD1     N 3048   2.497   4.071  15.310 -0.8125 -0.4573  0.2118
  200MPD1    H5 3049   2.431   4.000  15.280  0.6497 -2.2509  1.2199
  200MPD1    N1 3050   2.393   3.870  15.738 -0.4403 -0.2625 -0.1537
  200MPD1    H6 3051   2.442   3.840  15.822 -1.0646  0.3594  0.4317
  200MPD1    H7 3052   2.351   3.796  15.683  0.3010 -1.4475  0.8683
  201MPD1     C 3053   0.395   3.823  13.733  0.1326 -0.5960 -0.1672
  201MPD1    C1 3054   0.313   3.717  13.734  0.7696  0.2687  0.6389
  201MPD1    C2 3055   0.354   3.602  13.665  0.1004 -0.2374 -0.1033
  201MPD1    C3 3056   0.476   3.584  13.601  0.1396 -0.7566  0.3112
  201MPD1    C4 3057   0.561   3.697  13.611 -0.7301  0.6620  0.0094
  201MPD1    C5 3058   0.517   3.814  13.674 -0.2529  0.3439  0.4383
  201MPD1     H 3059   0.302   3.508  13.670  0.8294 -0.6388 -0.1053
  201MPD1    H1 3060   0.661   3.695  13.570 -1.3523 -2.3116 -1.3762
  201MPD1    H2 3061   0.365   3.921  13.768  2.3487  0.7239 -1.9963
  201MPD1    H3 3062   0.579   3.903  13.675  1.5060 -0.8652 -0.8174
  201MPD1     N 3063   0.504   3.463  13.543  0.9231  0.4065 -1.1024
  201MPD1    H5 3064   0.438   3.387  13.554  0.8967  0.5483 -0.2437
  201MPD1    N1 3065   0.188   3.732  13.792  0.4416 -0.2324 -1.0033
  201MPD1    H6 3066   0.195   3.787  13.877 -1.6990 -1.6192  0.0955
  201MPD1    H7 3067   0.149   3.642  13.821 -1.2910  0.7811 -0.1778
  202MPD1     C 3068   0.562   2.441   9.224 -0.1167  1.0204 -0.0373
  202MPD1    C1 3069   0.562   2.579   9.217 -0.0541 -0.6471  0.4961
  202MPD1    C2 3070   0.529   2.641   9.338  0.4451  0.1620  0.5225
  202MPD1    C3 3071   0.556   2.581   9.463  0.6930 -0.0257 -0.1420
  202MPD1    C4 3072   0.584   2.447   9.459 -0.0276  0.5472  0.1135
  202MPD1    C5 3073   0.567   2.376   9.344  0.1082  0.7707  0.3698
  202MPD1     H 3074   0.518   2.748   9.329  3.1918  0.4212  0.3715
  202MPD1    H1 3075   0.591   2.392   9.552 -0.0470 -0.7203 -0.6451
  202MPD1    H2 3076   0.573   2.382   9.134 -2.1954  2.5100 -1.2643
  202MPD1    H3 3077   0.564   2.267   9.347  0.4245  0.7253 -1.0037
  202MPD1     N 3078   0.530   2.639   9.597  0.0083  0.3470 -0.3027
  202MPD1    H5 3079   0.550   2.585   9.680 -1.6363 -0.6312 -0.5445
  202MPD1    N1 3080   0.523   2.656   9.100  0.1056  0.1868  0.2964
  202MPD1    H6 3081   0.579   2.619   9.023 -0.1005  0.2275  0.1239
  202MPD1    H7 3082   0.549   2.754   9.114 -1.3254  0.2775  2.2537
  203MPD1     C 3083   3.547   4.340  12.844 -0.6349 -0.6525 -0.3972
  203MPD1    C1 3084   3.522   4.225  12.772  0.1465  0.4497  0.4435
  203MPD1    C2 3085   3.616   4.120  12.781  0.4711 -0.2572  0.3481
  203MPD1    C3 3086   3.726   4.130  12.867 -0.2672 -0.0774 -0.2004
  203MPD1    C4 3087   3.740   4.241  12.944 -0.1073 -0.2704  0.0440
  203MPD1    C5 3088   3.646   4.343  12.930 -0.2544 -0.2088  0.3103
  203MPD1     H 3089   3.602   4.033  12.718  0.4164  0.8093 -1.1203
  203MPD1    H1 3090   3.828   4.262  13.004 -0.6693  0.5074  0.5971
  203MPD1    H2 3091   3.486   4.426  12.817 -0.2217 -0.2926 -0.1723
  203MPD1    H3 3092   3.668   4.430  12.992  1.3299 -0.4193  0.0414
  203MPD1     N 3093   3.821   4.016  12.870  0.4871 -0.0069 -0.1838
  203MPD1    H5 3094   3.787   3.929  12.830  0.1289 -0.2104  0.5546
  203MPD1    N1 3095   3.435   4.239  12.662  0.4551  0.5082 -0.8048
  203MPD1    H6 3096   3.406   4.145  12.634  1.3029 -0.3672  1.3019
  203MPD1    H7 3097   3.358   4.295  12.697 -0.4920 -0.5738 -1.1622
  204MPD1     C 3098   2.310   0.498  17.104 -0.5037  0.0645 -0.3775
  204MPD1    C1 3099   2.319   0.378  17.184 -0.0403  0.3410  0.0378
  204MPD1    C2 3100   2.432   0.314  17.205  0.2318 -0.4150 -0.3061
  204MPD1    C3 3101   2.547   0.347  17.133 -0.5732  0.2096  0.2107
  204MPD1    C4 3102   2.539   0.448  17.036  0.1720 -0.0482 -0.3080
  204MPD1    C5 3103   2.420   0.523  17.027 -0.4505 -0.0367 -0.5707
  204MPD1     H 3104   2.431   0.229  17.273  0.3317 -1.8460 -2.0849
  204MPD1    H1 3105   2.625   0.479  16.977  0.4894 -0.4683 -0.0585
  204MPD1    H2 3106   2.222   0.558  17.088 -1.1643 -0.8339 -0.1232
  204MPD1    H3 3107   2.414   0.598  16.949 -1.4860 -0.8104 -1.2314
  204MPD1     N 3108   2.663   0.274  17.153  0.0285  0.0575  0.1049
  204MPD1    H5 3109   2.663   0.215  17.235  2.6342 -1.4033 -0.9511
  204MPD1    N1 3110   2.205   0.345  17.259 -0.1637 -0.3535 -0.2499
  204MPD1    H6 3111   2.209   0.258  17.311  0.2957 -0.3682 -0.3050
  204MPD1    H7 3112   2.141   0.418  17.289  1.9087  1.6302 -0.6253
  205MPD1     C 3113   3.899   4.016  17.349  0.4904 -0.7465 -1.0773
  205MPD1    C1 3114   3.852   3.898  17.411 -0.3962 -0.1164 -0.5864
  205MPD1    C2 3115   3.727   3.889  17.468  0.1553  0.0156 -0.3343
  205MPD1    C3 3116   3.643   3.998  17.464  0.5923  0.1068  0.1434
  205MPD1    C4 3117   3.688   4.112  17.397  0.0800 -0.1910  0.7331
  205MPD1    C5 3118   3.809   4.119  17.344 -0.1162  0.3591 -0.7407
  205MPD1     H 3119   3.707   3.794  17.517  1.2090 -0.0635 -0.0617
  205MPD1    H1 3120   3.626   4.201  17.385  0.6392 -0.1101 -1.4633
  205MPD1    H2 3121   3.997   4.035  17.307  0.2371  0.4685 -1.1199
  205MPD1    H3 3122   3.841   4.212  17.297  0.9848  1.0151  1.3024
  205MPD1     N 3123   3.505   3.994  17.501  0.2710  0.6182 -0.7181
  205MPD1    H5 3124   3.462   4.085  17.489 -1.5952 -0.2863 -0.8810
  205MPD1    N1 3125   3.949   3.800  17.429  0.3533 -0.1505 -0.1050
  205MPD1    H6 3126   4.023   3.809  17.359  0.4485  1.2009  0.1619
  205MPD1    H7 3127   3.909   3.707  17.419  1.7425 -0.6116 -1.3430
  206MPD1     C 3128   4.060   1.627  16.746 -0.1163 -0.2583 -0.8240
  206MPD1    C1 3129   3.976   1.734  16.733 -0.1176 -0.0051 -0.1152
  206MPD1    C2 3130   3.919   1.760  16.603  0.2148  0.3069  0.2904
  206MPD1    C3 3131   3.924   1.659  16.508  0.1429 -0.7831 -0.0175
  206MPD1    C4 3132   3.990   1.543  16.532 -0.2439 -0.3495  1.0781
  206MPD1    C5 3133   4.069   1.536  16.646 -0.2111 -0.2325  0.1989
  206MPD1     H 3134   3.871   1.854  16.581  1.4320  1.0819  0.9234
  206MPD1    H1 3135   3.994   1.465  16.457  0.7875  1.8204 -1.0948
  206MPD1    H2 3136   4.113   1.601  16.837 -2.4338 -1.7295  0.1336
  206MPD1    H3 3137   4.135   1.453  16.665 -1.6321 -1.1661  1.0496
  206MPD1     N 3138   3.875   1.682  16.379 -0.5404 -0.2834 -0.5007
  206MPD1    H5 3139   3.873   1.601  16.317  0.1383 -0.2032 -0.6230
  206MPD1    N1 3140   3.983   1.829  16.831  0.5093  0.4314  0.3289
  206MPD1    H6 3141   4.005   1.794  16.924  2.1573 -1.4141 -0.7550
  206MPD1    H7 3142   3.901   1.889  16.826 -0.4172 -0.8484  0.2436
  207MPD1     C 3143   1.707   4.342   9.709  0.1912  0.3287 -0.1194
  207MPD1    C1 3144   1.615   4.286   9.799 -0.7042 -0.0600 -0.6754
  207MPD1    C2 3145   1.627   4.324   9.934 -0.9969  0.5829 -0.2079
  207MPD1    C3 3146   1.710   4.428   9.976 -1.1474  0.8690 -0.1041
  207MPD1    C4 3147   1.778   4.501   9.878  0.1120 -0.1697 -0.8659
  207MPD1    C5 3148   1.780   4.451   9.748  0.2408 -0.2384 -0.2630
  207MPD1     H 3149   1.567   4.280  10.012 -0.9402  0.0818 -0.4448
  207MPD1    H1 3150   1.843   4.582   9.909  1.2844 -1.1637 -0.7289
  207MPD1    H2 3151   1.716   4.307   9.607 -1.6644 -0.0277 -0.1660
  207MPD1    H3 3152   1.834   4.510   9.675  1.6372  1.7661  2.4039
  207MPD1     N 3153   1.721   4.444  10.117 -0.0214  0.2288 -0.0765
  207MPD1    H5 3154   1.667   4.380  10.174  1.7271 -0.0005  1.3146
  207MPD1    N1 3155   1.536   4.176   9.766 -0.2836  0.1273  0.3035
  207MPD1    H6 3156   1.503   4.193   9.672 -1.5369  0.8205  0.8663
  207MPD1    H7 3157   1.453   4.180   9.826 -1.2633  1.1973 -1.1128
  208MPD1     C 3158   3.055   2.322   0.410 -0.4904 -1.0725  0.3334
  208MPD1    C1 3159   2.995   2.442   0.362  0.4361 -0.2890  0.4771
  208MPD1    C2 3160   3.065   2.556   0.377  0.6833 -0.7121 -0.1434
  208MPD1    C3 3161   3.198   2.566   0.415 -0.3642 -0.1128 -0.3790
  208MPD1    C4 3162   3.257   2.447   0.445  0.1488 -0.1888 -0.0491
  208MPD1    C5 3163   3.190   2.333   0.446 -0.4490  0.0087 -0.1669
  208MPD1     H 3164   3.000   2.642   0.360  0.1319 -1.5027 -2.0599
  208MPD1    H1 3165   3.361   2.452   0.478  0.4238 -2.5034 -0.5389
  208MPD1    H2 3166   2.999   2.229   0.417 -1.4647 -0.5804 -0.9931
  208MPD1    H3 3167   3.251   2.247   0.473 -0.7258  0.1638  0.9506
  208MPD1     N 3168   3.265   2.693   0.405 -0.1940  0.3156  0.1716
  208MPD1    H5 3169   3.205   2.771   0.381 -0.1646  0.2690 -0.0580
  208MPD1    N1 3170   2.863   2.440   0.330 -0.4328 -0.4392  0.9663
  208MPD1    H6 3171   2.839   2.358   0.273  1.8988  1.2225 -2.4418
  208MPD1    H7 3172   2.843   2.523   0.275  1.3679  0.7396  2.1118
  209MPD1     C 3173   0.359   3.860  10.749  0.6014 -0.4774 -0.1495
  209MPD1    C1 3174   0.476   3.834  10.677  0.3298  0.2393  0.0546
  209MPD1    C2 3175   0.604   3.860  10.735 -0.1168 -0.0916  0.2919
  209MPD1    C3 3176   0.607   3.929  10.854  0.2837  0.0918  0.1630
  209MPD1    C4 3177   0.489   3.974  10.914  0.5983  0.8458  0.3564
  209MPD1    C5 3178   0.371   3.939  10.859  0.2457  0.0567  0.9448
  209MPD1     H 3179   0.694   3.812  10.696 -1.2450  0.9862 -3.6634
  209MPD1    H1 3180   0.494   4.037  11.002 -0.7029 -1.1536  1.8527
  209MPD1    H2 3181   0.264   3.853  10.696  1.6309  3.0027 -2.4330
  209MPD1    H3 3182   0.282   3.978  10.908  0.1578  0.5890  0.3607
  209MPD1     N 3183   0.733   3.951  10.909  0.2768 -0.0159 -0.3929
  209MPD1    H5 3184   0.811   3.923  10.851  0.2254 -3.1458  1.1015
  209MPD1    N1 3185   0.471   3.754  10.557  1.0740 -0.0366 -0.0775
  209MPD1    H6 3186   0.553   3.759  10.496  0.7487 -0.6378 -0.5584
  209MPD1    H7 3187   0.391   3.785  10.502  1.6821  0.5084 -0.6622
  210MPD1     C 3188   1.390   4.152  11.767 -0.6981  0.6483  0.0723
  210MPD1    C1 3189   1.303   4.044  11.742  0.4191 -0.0986 -0.1817
  210MPD1    C2 3190   1.236   4.049  11.627 -0.3561 -0.3464 -0.3477
  210MPD1    C3 3191   1.248   4.156  11.540 -0.0019 -0.4005  0.0581
  210MPD1    C4 3192   1.345   4.255  11.562 -0.1158  0.1841  0.0075
  210MPD1    C5 3193   1.408   4.260  11.683 -0.4855  1.7821  0.4683
  210MPD1     H 3194   1.170   3.967  11.599 -1.2599  0.0336  0.6466
  210MPD1    H1 3195   1.366   4.326  11.484 -3.1215  0.7416 -0.3061
  210MPD1    H2 3196   1.452   4.156  11.856 -1.6141 -0.5344  0.7621
  210MPD1    H3 3197   1.480   4.336  11.710  2.3673  0.5964 -3.8068
  210MPD1     N 3198   1.180   4.159  11.419  0.1405  0.2402  0.1573
  210MPD1    H5 3199   1.209   4.223  11.346  1.3049  1.2266  1.4615
  210MPD1    N1 3200   1.291   3.940  11.836  0.2062  0.6040 -0.1566
  210MPD1    H6 3201   1.194   3.918  11.858  0.4878  0.1299  0.6243
  210MPD1    H7 3202   1.339   3.972  11.920 -2.1195  2.1137  0.5981
  211MPD1     C 3203   4.069   3.586  17.057  0.3009 -0.0088  0.0277
  211MPD1    C1 3204   3.956   3.538  17.120 -0.2963 -0.4684  0.7965
  211MPD1    C2 3205   3.844   3.617  17.134  0.2477 -0.0048  0.7400
  211MPD1    C3 3206   3.848   3.744  17.080  0.3608  0.0763  0.0204
  211MPD1    C4 3207   3.963   3.797  17.030 -0.2772  0.0676 -0.1291
  211MPD1    C5 3208   4.076   3.720  17.018  0.3430 -0.0090 -0.3197
  211MPD1     H 3209   3.749   3.582  17.172  1.0714 -1.0698  1.7795
  211MPD1    H1 3210   3.974   3.897  16.989 -1.1802  0.2260  0.0184
  211MPD1    H2 3211   4.159   3.527  17.046  0.2037 -0.2716  0.5808
  211MPD1    H3 3212   4.169   3.759  16.980 -0.9705  1.6643 -1.8402
  211MPD1     N 3213   3.731   3.818  17.098  0.4897 -0.5791  0.2170
  211MPD1    H5 3214   3.653   3.779  17.150  1.6355  0.6531  2.8892
  211MPD1    N1 3215   3.962   3.412  17.181 -0.2690 -0.4573  0.5355
  211MPD1    H6 3216   4.028   3.350  17.135 -0.9066 -0.4009 -0.4764
  211MPD1    H7 3217   3.874   3.362  17.193 -1.3394  1.1767 -0.4533
  212MPD1     C 3218   3.629   1.157  17.179 -0.9620 -0.1722 -0.1903
  212MPD1    C1 3219   3.531   1.251  17.182  0.0477 -0.2031 -0.3085
  212MPD1    C2 3220   3.471   1.281  17.062 -0.5816 -0.2127  0.5119
  212MPD1    C3 3221   3.505   1.230  16.941 -0.1346  0.0288  0.1331
  212MPD1    C4 3222   3.606   1.138  16.941 -0.3453  0.5515 -0.7157
  212MPD1    C5 3223   3.666   1.093  17.057  0.1774  0.2999  0.4802
  212MPD1     H 3224   3.392   1.356  17.062  0.1073  0.5040  0.3990
  212MPD1    H1 3225   3.639   1.099  16.846  1.9815  0.9852 -0.0873
  212MPD1    H2 3226   3.675   1.123  17.271 -1.6127 -0.4484  0.0325
  212MPD1    H3 3227   3.744   1.020  17.042 -0.1807 -0.3251  1.7053
  212MPD1     N 3228   3.456   1.271  16.816  0.3156  0.2478  0.1473
  212MPD1    H5 3229   3.490   1.220  16.734  0.6393  1.6744 -0.6081
  212MPD1    N1 3230   3.480   1.296  17.310 -0.5534  0.3083 -0.2693
  212MPD1    H6 3231   3.546   1.285  17.386 -1.7254 -2.0080  0.3946
  212MPD1    H7 3232   3.397   1.246  17.341 -1.5490  1.5276 -0.9120
  213MPD1     C 3233   0.819   2.776  16.247 -0.5468 -0.0996  0.5856
  213MPD1    C1 3234   0.797   2.648  16.226  0.3050  0.1705  0.0852
  213MPD1    C2 3235   0.770   2.620  16.092  0.8866  0.0338  0.0726
  213MPD1    C3 3236   0.800   2.709  15.989  0.2926  0.4625  0.8577
  213MPD1    C4 3237   0.838   2.839  16.019 -0.7554 -0.2751 -0.4136
  213MPD1    C5 3238   0.837   2.871  16.149 -0.0800  0.6169  0.1310
  213MPD1     H 3239   0.724   2.524  16.072  1.3121  0.3194 -2.2167
  213MPD1    H1 3240   0.853   2.917  15.946 -0.0113  0.4334  0.4935
  213MPD1    H2 3241   0.843   2.806  16.349  0.0941 -1.1747  0.7558
  213MPD1    H3 3242   0.848   2.973  16.185  2.5850  1.4554 -3.0414
  213MPD1     N 3243   0.773   2.672  15.853  0.2763 -0.7828 -0.2876
  213MPD1    H5 3244   0.727   2.582  15.845 -1.3435  0.0236 -0.0640
  213MPD1    N1 3245   0.744   2.576  16.329  0.0401  0.2518 -0.1750
  213MPD1    H6 3246   0.785   2.602  16.418 -0.0220 -1.1299  0.2589
  213MPD1    H7 3247   0.763   2.476  16.322 -1.1219 -0.1043  1.6745
  214MPD1     C 3248   0.271   2.009  15.461  0.7750  0.0063  0.3356
  214MPD1    C1 3249   0.229   2.124  15.519 -0.2184  0.2131 -1.0222
  214MPD1    C2 3250   0.303   2.241  15.491  0.3246 -0.0806  0.3551
  214MPD1    C3 3251   0.432   2.225  15.435  0.3549 -0.9805 -0.0233
  214MPD1    C4 3252   0.477   2.103  15.387  0.5238 -0.1900 -0.1573
  214MPD1    C5 3253   0.392   1.997  15.395  0.3552  0.0969  0.6119
  214MPD1     H 3254   0.271   2.340  15.520 -1.5880 -1.4369  2.8434
  214MPD1    H1 3255   0.578   2.097  15.349  0.3971  0.5230 -0.6061
  214MPD1    H2 3256   0.204   1.924  15.465  0.6954  0.0399 -0.2015
  214MPD1    H3 3257   0.429   1.902  15.358  0.4031 -0.4463  2.0725
  214MPD1     N 3258   0.521   2.337  15.414 -0.6114 -0.3079  0.1736
  214MPD1    H5 3259   0.612   2.322  15.371 -0.6136 -1.7030  0.6791
  214MPD1    N1 3260   0.108   2.131  15.584  0.3025 -0.0104 -0.2572
  214MPD1    H6 3261   0.081   2.039  15.617  0.0478 -0.8916 -2.8562
  214MPD1    H7 3262   0.106   2.196  15.662 -0.2532 -0.1911 -0.1226
  215MPD1     C 3263   4.719   4.306  11.327 -0.1648  0.1523 -0.3178
  215MPD1    C1 3264   0.106   4.311  11.244 -0.7946 -0.5248 -0.4521
  215MPD1    C2 3265   0.229   4.279  11.301  0.4394  0.0571  0.0732
  215MPD1    C3 3266   0.246   4.255  11.440 -0.1423  0.1633  1.1791
  215MPD1    C4 3267   0.132   4.253  11.513  0.1483 -0.4303  0.1393
  215MPD1    C5 3268   0.006   4.283  11.456  0.8801  0.2575 -0.0003
  215MPD1     H 3269   0.326   4.278  11.253  0.3169 -0.8789 -0.1682
  215MPD1    H1 3270   0.137   4.238  11.620  2.5386  1.9762  0.3470
  215MPD1    H2 3271   4.621   4.317  11.283 -0.7177 -0.6252  0.7149
  215MPD1    H3 3272   4.645   4.272  11.521  0.7463 -0.1731 -0.2483
  215MPD1     N 3273   0.375   4.241  11.489  0.4693 -0.5410 -0.0168
  215MPD1    H5 3274   0.452   4.270  11.428 -0.1765  0.6433 -0.2742
  215MPD1    N1 3275   0.099   4.340  11.105 -0.3955 -1.1041  0.3373
  215MPD1    H6 3276   0.188   4.375  11.070 -0.6016 -1.0781 -0.1637
  215MPD1    H7 3277   0.026   4.409  11.096 -0.2265 -0.7491  1.7170
  216MPD1     C 3278   3.451   0.576  16.836 -0.2102  0.1628 -0.1037
  216MPD1    C1 3279   3.391   0.611  16.720  0.0326  0.3284  0.1398
  216MPD1    C2 3280   3.321   0.728  16.720 -0.2660 -0.1574  0.3146
  216MPD1    C3 3281   3.302   0.799  16.837 -0.1043 -0.3217  0.0354
  216MPD1    C4 3282   3.376   0.766  16.953  0.4500  0.3222 -0.0965
  216MPD1    C5 3283   3.452   0.654  16.947  0.6406  0.6279  0.4245
  216MPD1     H 3284   3.260   0.760  16.636  0.5442  0.2761 -0.1081
  216MPD1    H1 3285   3.386   0.825  17.043 -1.2506  1.1204 -0.4394
  216MPD1    H2 3286   3.513   0.490  16.859 -1.2314 -0.6377 -0.3605
  216MPD1    H3 3287   3.508   0.619  17.033  2.1991  1.5745 -0.2017
  216MPD1     N 3288   3.215   0.911  16.835  0.3354  0.0332 -0.0988
  216MPD1    H5 3289   3.169   0.923  16.745 -1.2354  0.0501  0.7106
  216MPD1    N1 3290   3.382   0.524  16.613  0.4111 -0.5964  0.3532
  216MPD1    H6 3291   3.375   0.577  16.527 -1.6483  0.5152  1.2059
  216MPD1    H7 3292   3.467   0.469  16.606 -1.3487 -2.9752 -2.1420
  217MPD1     C 3293   2.575   2.556   8.867 -1.0176 -0.2669 -0.7350
  217MPD1    C1 3294   2.701   2.509   8.873  0.0957  0.4211  0.1522
  217MPD1    C2 3295   2.809   2.596   8.891 -0.2994  0.1382  0.5138
  217MPD1    C3 3296   2.786   2.727   8.914  1.1020  0.1043 -0.7337
  217MPD1    C4 3297   2.657   2.779   8.920 -0.6473  0.1171  0.2994
  217MPD1    C5 3298   2.557   2.691   8.886  0.8861  0.3445  0.0592
  217MPD1     H 3299   2.907   2.551   8.887 -1.9111 -3.1510 -2.4853
  217MPD1    H1 3300   2.630   2.879   8.951  0.3670 -0.0750  1.7630
  217MPD1    H2 3301   2.493   2.494   8.833 -0.0193 -1.1053 -1.6363
  217MPD1    H3 3302   2.456   2.727   8.877  1.0115  1.0560  1.3977
  217MPD1     N 3303   2.894   2.820   8.944 -0.1902 -0.2270  0.0167
  217MPD1    H5 3304   2.873   2.919   8.947  1.5833  0.2081 -1.6769
  217MPD1    N1 3305   2.715   2.379   8.814 -0.0809 -0.0006  0.3816
  217MPD1    H6 3306   2.793   2.334   8.861 -0.0793  0.2638  0.6373
  217MPD1    H7 3307   2.630   2.325   8.828 -0.4516  0.5305  0.2114
  218MPD1     C 3308   0.136   3.614  13.302 -0.4046 -0.1435 -0.2617
  218MPD1    C1 3309   0.230   3.699  13.346  0.3971 -0.0306 -0.2721
  218MPD1    C2 3310   0.358   3.686  13.282 -0.1108 -0.1609 -0.0751
  218MPD1    C3 3311   0.388   3.583  13.190  0.7517  0.1171 -0.6534
  218MPD1    C4 3312   0.291   3.504  13.148  0.1770  0.2390  0.6312
  218MPD1    C5 3313   0.169   3.520  13.205  0.0376  0.9550  0.3059
  218MPD1     H 3314   0.438   3.759  13.291 -0.7523  0.4876  0.4018
  218MPD1    H1 3315   0.312   3.433  13.070 -2.9390  3.1304 -2.8559
  218MPD1    H2 3316   0.032   3.614  13.331 -0.0366  0.1288  1.0659
  218MPD1    H3 3317   0.087   3.458  13.173 -0.1115  1.2385  0.1374
  218MPD1     N 3318   0.521   3.581  13.133  0.0777  0.0140  0.4111
  218MPD1    H5 3319   0.580   3.654  13.173  0.9369 -1.3729  1.6835
  218MPD1    N1 3320   0.205   3.803  13.435  0.2559  0.3403  0.0583
  218MPD1    H6 3321   0.195   3.759  13.526 -1.3577  1.2244  0.3173
  218MPD1    H7 3322   0.284   3.867  13.443  0.6313  0.0609 -1.4009
  219MPD1     C 3323   0.588   3.721  12.236  0.3795 -0.2702  0.3940
  219MPD1    C1 3324   0.698   3.782  12.286 -0.0220  0.2274  0.0328
  219MPD1    C2 3325   0.759   3.730  12.396  0.2401 -0.6174  0.3067
  219MPD1    C3 3326   0.718   3.605  12.446  0.0207 -1.6057  0.4172
  219MPD1    C4 3327   0.615   3.540  12.384 -1.1854 -0.7669  0.1801
  219MPD1    C5 3328   0.552   3.596  12.281 -0.4111 -0.9236  0.9507
  219MPD1     H 3329   0.842   3.785  12.440  1.1046 -0.1778 -1.8967
  219MPD1    H1 3330   0.570   3.450  12.425 -1.4615 -1.3655 -1.4485
  219MPD1    H2 3331   0.541   3.758  12.145 -1.1558 -1.4108  0.7189
  219MPD1    H3 3332   0.475   3.540  12.230  0.6391 -0.0565 -1.5925
  219MPD1     N 3333   0.764   3.551  12.573  0.1299 -0.5050  1.0677
  219MPD1    H5 3334   0.722   3.461  12.595 -2.2843  0.0766 -1.1825
  219MPD1    N1 3335   0.732   3.912  12.250 -0.1764  0.1449 -0.1354
  219MPD1    H6 3336   0.693   3.919  12.156 -3.2283  0.1090  1.1039
  219MPD1    H7 3337   0.833   3.921  12.248 -0.1149 -0.3325  0.9319
  220MPD1     C 3338   1.379   4.517  10.023 -0.6468 -0.2283 -0.6554
  220MPD1    C1 3339   1.371   4.599  10.134  0.9378  0.8717  0.3831
  220MPD1    C2 3340   1.267   4.580  10.221  0.3245  0.0196  0.3145
  220MPD1    C3 3341   1.193   4.463  10.220  0.2773 -0.9556  0.0385
  220MPD1    C4 3342   1.207   4.377  10.117 -0.8000 -0.4339 -0.6610
  220MPD1    C5 3343   1.298   4.410  10.019 -0.6236  0.0336 -0.1098
  220MPD1     H 3344   1.240   4.651  10.298  2.6303 -0.4131  1.5298
  220MPD1    H1 3345   1.159   4.281  10.101  1.8540 -1.8699 -0.0546
  220MPD1    H2 3346   1.450   4.546   9.946 -0.3696 -1.7971 -0.9733
  220MPD1    H3 3347   1.304   4.343   9.933  0.7038  0.6921 -0.5359
  220MPD1     N 3348   1.087   4.454  10.317 -0.0201 -0.7092  0.4651
  220MPD1    H5 3349   1.083   4.523  10.391 -0.2116 -2.0306  1.6936
  220MPD1    N1 3350   1.438   4.721  10.129  0.5444  0.3498 -0.3920
  220MPD1    H6 3351   1.468   0.043  10.214  0.9689 -0.7545  0.0669
  220MPD1    H7 3352   1.516   4.711  10.064  0.4316 -1.2241 -0.2633
  221MPD1     C 3353   2.858   3.690  16.274  0.0713  0.3636  0.3852
  221MPD1    C1 3354   2.995   3.708  16.290  0.3022  1.0955  0.3584
  221MPD1    C2 3355   3.078   3.601  16.291  0.5433  0.0877  0.0659
  221MPD1    C3 3356   3.024   3.474  16.285 -0.4301  0.0781  0.4906
  221MPD1    C4 3357   2.888   3.460  16.312 -0.3562 -0.1193 -0.2756
  221MPD1    C5 3358   2.810   3.570  16.300  0.1256  1.2683 -0.0117
  221MPD1     H 3359   3.186   3.614  16.283  0.0683  2.7111 -2.3556
  221MPD1    H1 3360   2.844   3.365  16.341  1.5769 -0.7502  0.6166
  221MPD1    H2 3361   2.801   3.779  16.247 -0.5949 -0.5758 -1.3383
  221MPD1    H3 3362   2.703   3.560  16.313  0.6411 -3.6048  0.4086
  221MPD1     N 3363   3.099   3.354  16.289 -0.2386  0.1127  0.7098
  221MPD1    H5 3364   3.052   3.266  16.308  0.2564  0.0467  1.6143
  221MPD1    N1 3365   3.052   3.834  16.260  0.2536  0.0132 -0.0608
  221MPD1    H6 3366   2.983   3.907  16.277  0.3226  0.3946 -1.3834
  221MPD1    H7 3367   3.136   3.856  16.314  0.5517  0.3266 -0.6554
  222MPD1     C 3368   3.253   1.934  16.733  0.6497  0.2482  0.4908
  222MPD1    C1 3369   3.165   2.026  16.782  0.0365 -0.0644  0.1505
  222MPD1    C2 3370   3.035   1.980  16.820 -0.8174 -0.6557  0.3823
  222MPD1    C3 3371   3.004   1.840  16.833  0.1304  0.3688  0.2085
  222MPD1    C4 3372   3.108   1.753  16.801 -0.6678 -0.2777 -0.3775
  222MPD1    C5 3373   3.229   1.796  16.754  0.1267  0.6142 -1.0524
  222MPD1     H 3374   2.965   2.058  16.848 -1.0831  0.4443 -3.2823
  222MPD1    H1 3375   3.101   1.645  16.805 -0.1054 -0.2914  0.4109
  222MPD1    H2 3376   3.343   1.970  16.684  0.0295  0.7344 -0.2937
  222MPD1    H3 3377   3.305   1.724  16.727 -1.0513 -1.3042  0.8424
  222MPD1     N 3378   2.880   1.787  16.866  1.1518  0.2513  0.4804
  222MPD1    H5 3379   2.872   1.687  16.886  3.1219  0.0442  0.2313
  222MPD1    N1 3380   3.172   2.163  16.752 -0.1225  0.3722 -0.2230
  222MPD1    H6 3381   3.268   2.193  16.771  0.4486  0.1245 -2.8281
  222MPD1    H7 3382   3.116   2.216  16.818  0.2456  1.2303 -0.5928
  223MPD1     C 3383   2.859   1.446  17.656 -0.2389  0.4574 -0.1322
  223MPD1    C1 3384   2.939   1.524  17.579 -0.0825 -0.3662 -0.2088
  223MPD1    C2 3385   2.879   1.580  17.466 -0.6151  0.1345 -0.1657
  223MPD1    C3 3386   2.755   1.540  17.415 -0.5620  0.1148  0.2211
  223MPD1    C4 3387   2.677   1.456  17.496 -0.8295 -0.0998  0.1181
  223MPD1    C5 3388   2.738   1.403  17.607 -0.1905 -0.2854  0.3593
  223MPD1     H 3389   2.935   1.658  17.415  0.4644  0.5673  1.6621
  223MPD1    H1 3390   2.580   1.423  17.462 -1.5236  2.4348 -0.3660
  223MPD1    H2 3391   2.885   1.399   0.048  1.7059  0.8686 -0.4558
  223MPD1    H3 3392   2.691   1.322  17.662 -0.7855  0.4713  0.9653
  223MPD1     N 3393   2.716   1.594  17.285 -0.1098 -0.5071  0.3187
  223MPD1    H5 3394   2.767   1.671  17.241  0.0261 -0.8628 -0.1545
  223MPD1    N1 3395   3.063   1.575  17.633  0.1513  0.3418  0.0297
  223MPD1    H6 3396   3.127   1.589  17.555 -0.6042  0.7634 -0.5107
  223MPD1    H7 3397   3.110   1.504  17.689  3.3263  1.2432 -1.4784
  224MPD1     C 3398   3.364   4.266   8.821  0.1884  0.1341 -0.2633
  224MPD1    C1 3399   3.282   4.254   8.934 -0.3063  0.3855 -0.2296
  224MPD1    C2 3400   3.344   4.203   9.050  0.3724  0.2043  0.3839
  224MPD1    C3 3401   3.478   4.211   9.061 -0.2862  0.5276 -0.0677
  224MPD1    C4 3402   3.556   4.236   8.951 -0.5565  0.2479  0.2468
  224MPD1    C5 3403   3.500   4.254   8.830  0.4177  0.8753  0.3876
  224MPD1     H 3404   3.278   4.169   9.129 -0.2409 -2.3252 -1.2207
  224MPD1    H1 3405   3.664   4.229   8.955 -0.5295  0.3727 -0.2763
  224MPD1    H2 3406   3.325   4.298   8.725  4.0507  2.4161 -1.0591
  224MPD1    H3 3407   3.559   4.281   8.743 -0.0081 -1.3462 -0.5832
  224MPD1     N 3408   3.545   4.168   9.182 -0.4232  0.2289  0.7264
  224MPD1    H5 3409   3.640   4.135   9.169 -0.0512  2.1677 -1.3901
  224MPD1    N1 3410   3.145   4.249   8.919  0.2167 -0.4386 -1.0421
  224MPD1    H6 3411   3.098   4.292   8.839 -1.6564  1.0836  0.8423
  224MPD1    H7 3412   3.095   4.269   9.006  1.6874 -2.1101  0.1825
  225MPD1     C 3413   4.388   4.299  13.713  0.5048 -0.6199 -0.7211
  225MPD1    C1 3414   4.466   4.417  13.674 -0.2929  0.3067  0.4058
  225MPD1    C2 3415   4.475   4.449  13.541 -0.2041  0.3531 -0.0550
  225MPD1    C3 3416   4.427   4.360  13.443 -0.5307  0.0198  1.0180
  225MPD1    C4 3417   4.365   4.244  13.487 -1.2569  0.3170  0.0083
  225MPD1    C5 3418   4.332   4.217  13.619  0.3751 -0.4068 -0.2655
  225MPD1     H 3419   4.523   4.543  13.514  0.2875 -0.0472 -0.5895
  225MPD1    H1 3420   4.340   4.157  13.428 -3.5864 -0.5513  2.2371
  225MPD1    H2 3421   4.392   4.264  13.815  0.2714  1.2584 -0.0857
  225MPD1    H3 3422   4.285   4.122  13.641  0.9228 -0.8408 -0.9848
  225MPD1     N 3423   4.444   4.384  13.306  0.0655  0.5537  0.7991
  225MPD1    H5 3424   4.409   4.314  13.241 -0.4886  0.8274  0.8017
  225MPD1    N1 3425   4.515   4.505  13.775 -1.0011  0.9294 -0.2634
  225MPD1    H6 3426   4.599   4.559  13.757 -0.2562  0.1533  0.9096
  225MPD1    H7 3427   4.532   4.459  13.864  0.2965 -0.2757 -1.1300
  226MPD1     C 3428   3.080   4.413   9.740 -0.1922  0.1704 -0.3251
  226MPD1    C1 3429   3.190   4.402   9.824 -0.0908 -0.8971  0.4404
  226MPD1    C2 3430   3.315   4.412   9.767  0.4363 -0.2340 -0.0143
  226MPD1    C3 3431   3.325   4.456   9.634 -0.1052  0.2614 -0.4060
  226MPD1    C4 3432   3.206   4.487   9.558 -0.2887 -0.2745 -0.6036
  226MPD1    C5 3433   3.085   4.455   9.610 -0.5294 -0.1362 -0.5183
  226MPD1     H 3434   3.405   4.392   9.824  0.0223 -0.7652  0.4446
  226MPD1    H1 3435   3.203   4.515   9.453  1.0332  0.0580 -0.5588
  226MPD1    H2 3436   2.984   4.393   9.784  0.3329  0.2616  0.8586
  226MPD1    H3 3437   2.993   4.471   9.555 -1.4529 -2.7818  0.2092
  226MPD1     N 3438   3.452   4.481   9.577  0.7660  0.5983  0.2452
  226MPD1    H5 3439   3.530   4.452   9.635  0.1290 -2.1026 -0.2114
  226MPD1    N1 3440   3.183   4.361   9.957 -0.1028  0.7853 -0.6957
  226MPD1    H6 3441   3.102   4.400  10.005  0.9685  0.3651  1.4258
  226MPD1    H7 3442   3.266   4.385  10.010  0.3012  0.6384 -1.2536
  227MPD1     C 3443   3.769   4.607   8.646  1.1603  0.0466  0.2308
  227MPD1    C1 3444   3.650   4.582   8.708 -0.2646  0.2396  0.0843
  227MPD1    C2 3445   3.651   4.538   8.833 -0.0171 -0.6976 -0.8508
  227MPD1    C3 3446   3.762   4.538   8.913  0.6386 -0.5581  0.1832
  227MPD1    C4 3447   3.880   4.583   8.855  0.4936 -0.4798  0.0309
  227MPD1    C5 3448   3.882   4.613   8.721 -0.3458 -0.6988  0.0187
  227MPD1     H 3449   3.555   4.514   8.877  0.3106 -0.5709 -0.0627
  227MPD1    H1 3450   3.973   4.585   8.911  0.9075 -0.9629 -0.6274
  227MPD1    H2 3451   3.788   4.622   8.540 -2.8192 -0.7682 -0.5921
  227MPD1    H3 3452   3.975   4.639   8.671 -0.5897 -1.7545 -0.9825
  227MPD1     N 3453   3.748   4.497   9.043  0.1513  0.2724 -1.0793
  227MPD1    H5 3454   3.652   4.508   9.074  0.5182 -3.7130  1.5152
  227MPD1    N1 3455   3.529   4.570   8.635 -0.0747  0.1066 -0.0699
  227MPD1    H6 3456   3.452   4.597   8.695  0.8645 -0.1513  1.2685
  227MPD1    H7 3457   3.530   4.628   8.552 -0.0086  0.5624  0.2504
  228MPD1     C 3458   3.009   2.133  12.492  0.7953 -0.2289  0.6496
  228MPD1    C1 3459   2.948   2.245  12.445  0.0787  0.5746 -0.3038
  228MPD1    C2 3460   2.821   2.264  12.492  0.2422 -0.1366  0.0896
  228MPD1    C3 3461   2.760   2.192  12.598 -0.4421 -0.0173  0.2698
  228MPD1    C4 3462   2.842   2.093  12.660 -0.7369  0.1820 -0.7008
  228MPD1    C5 3463   2.959   2.067  12.601 -0.0643 -0.5055  0.2260
  228MPD1     H 3464   2.762   2.343  12.447  0.9651 -0.6561 -1.7588
  228MPD1    H1 3465   2.811   2.028  12.741  1.0551 -0.1886 -0.3094
  228MPD1    H2 3466   3.107   2.106  12.455  1.0657  2.3427 -0.5102
  228MPD1    H3 3467   3.003   1.973  12.633  0.1851 -0.8650 -1.1714
  228MPD1     N 3468   2.626   2.219  12.639 -0.1681  0.0258  0.4165
  228MPD1    H5 3469   2.576   2.287  12.582 -1.4245  0.3369  1.9012
  228MPD1    N1 3470   3.000   2.313  12.331 -0.6243  0.3008  0.5683
  228MPD1    H6 3471   2.968   2.409  12.327  0.8663  0.8856  2.2469
  228MPD1    H7 3472   3.101   2.309  12.318 -0.7371  0.4219 -0.3181
  229MPD1     C 3473   1.878   1.697  15.205  0.0979 -0.1256  0.8834
  229MPD1    C1 3474   1.934   1.679  15.079  0.3098  0.6575  0.5292
  229MPD1    C2 3475   1.928   1.559  15.015 -0.4679  0.2358  0.3771
  229MPD1    C3 3476   1.837   1.464  15.062 -0.9064 -0.6218 -0.5393
  229MPD1    C4 3477   1.776   1.483  15.184 -0.8770 -0.6765  0.0638
  229MPD1    C5 3478   1.806   1.595  15.257 -0.7970  0.2803  0.1586
  229MPD1     H 3479   1.978   1.544  14.920 -2.1299  2.3536 -0.8389
  229MPD1    H1 3480   1.704   1.415  15.228 -3.2168  0.8797 -1.3990
  229MPD1    H2 3481   1.909   1.788  15.256 -1.1742 -0.1912  1.7606
  229MPD1    H3 3482   1.750   1.613  15.348  0.4531 -0.0173  0.9903
  229MPD1     N 3483   1.797   1.344  14.993 -0.4342 -0.0956 -0.3068
  229MPD1    H5 3484   1.724   1.287  15.033 -0.9461  1.8069  1.4641
  229MPD1    N1 3485   2.035   1.767  15.035 -0.7736  0.2573 -0.2552
  229MPD1    H6 3486   2.038   1.775  14.933 -0.1873 -0.0009 -0.2586
  229MPD1    H7 3487   2.018   1.860  15.074  0.8863 -0.0990  1.3389
  230MPD1     C 3488   1.105   0.659  14.945  0.6612 -0.3787 -0.5080
  230MPD1    C1 3489   1.103   0.794  14.914  0.6118  0.1379 -0.1678
  230MPD1    C2 3490   1.226   0.857  14.898 -0.0331  0.6149  0.4777
  230MPD1    C3 3491   1.348   0.783  14.906 -0.0930 -0.4059  0.0047
  230MPD1    C4 3492   1.338   0.652  14.925 -0.3644  1.3237  0.0919
  230MPD1    C5 3493   1.221   0.589  14.943 -0.3669 -0.0271 -0.1498
  230MPD1     H 3494   1.229   0.961  14.867  0.6886 -0.3512 -2.6711
  230MPD1    H1 3495   1.428   0.593  14.925  0.9562  3.2996 -2.4178
  230MPD1    H2 3496   1.025   0.590  14.971 -0.9031  0.5473 -2.9086
  230MPD1    H3 3497   1.231   0.482  14.951  1.9445  0.4545  3.5981
  230MPD1     N 3498   1.476   0.848  14.906 -0.0323  0.4205 -0.2986
  230MPD1    H5 3499   1.556   0.787  14.922  0.4095  0.6099 -1.7925
  230MPD1    N1 3500   0.985   0.869  14.928 -0.7199  0.1573 -0.0183
  230MPD1    H6 3501   0.905   0.813  14.901 -0.6719 -0.7832  1.8256
  230MPD1    H7 3502   0.997   0.957  14.879  0.7837 -0.8746 -1.5001
  231MPD1     C 3503   4.519   2.407  15.694 -0.2536  0.2879 -0.8221
  231MPD1    C1 3504   4.493   2.450  15.566 -0.0569 -0.4548 -0.5870
  231MPD1    C2 3505   4.596   2.513  15.502 -0.1207 -0.6265  0.2913
  231MPD1    C3 3506   4.714   2.536  15.564 -0.1614  0.0413  0.4928
  231MPD1    C4 3507   0.008   2.519  15.696  0.1110  0.3534  0.1405
  231MPD1    C5 3508   4.631   2.456  15.764  0.0794 -0.2066  0.5069
  231MPD1     H 3509   4.594   2.521  15.394 -1.0062  0.8005  0.4203
  231MPD1    H1 3510   0.099   2.548  15.747 -0.6811 -1.3037  2.4731
  231MPD1    H2 3511   4.454   2.337  15.744  2.8775 -1.5193  0.7288
  231MPD1    H3 3512   4.648   2.432  15.869  1.3387 -0.7828  0.1675
  231MPD1     N 3513   0.088   2.601  15.483  0.1427 -0.5070  0.2071
  231MPD1    H5 3514   0.077   2.607  15.383  0.7356  0.2644  0.1875
  231MPD1    N1 3515   4.385   2.385  15.496 -0.1548 -0.4617 -0.0697
  231MPD1    H6 3516   4.311   2.365  15.563 -0.2607 -1.0087 -0.3514
  231MPD1    H7 3517   4.350   2.450  15.426 -1.7464  2.0248  2.9866
  232MPD1     C 3518   1.887   0.313  16.891 -0.2014  0.2789  0.3017
  232MPD1    C1 3519   1.980   0.301  16.995 -0.4533 -0.1997 -0.2009
  232MPD1    C2 3520   1.918   0.275  17.117  0.0644 -0.1462 -0.5405
  232MPD1    C3 3521   1.782   0.279  17.141 -0.0350 -0.3068  0.5302
  232MPD1    C4 3522   1.699   0.304  17.038  0.0280 -0.8431 -0.0522
  232MPD1    C5 3523   1.757   0.320  16.918  0.3114 -0.3916 -0.1438
  232MPD1     H 3524   1.975   0.252  17.206  0.8674  1.2062 -0.7059
  232MPD1    H1 3525   1.592   0.312  17.051 -0.0501 -0.9817 -0.6125
  232MPD1    H2 3526   1.908   0.331  16.786  1.3236 -0.2060  0.5207
  232MPD1    H3 3527   1.680   0.322  16.842  3.4554  0.2937 -3.3086
  232MPD1     N 3528   1.730   0.259  17.278 -0.0696  0.2635 -0.1467
  232MPD1    H5 3529   1.801   0.271  17.349 -0.0673  0.5670 -0.2003
  232MPD1    N1 3530   2.114   0.281  16.971 -0.4186 -0.2209  0.6251
  232MPD1    H6 3531   2.165   0.314  17.052  0.6285 -2.8039  0.9958
  232MPD1    H7 3532   2.153   0.329  16.890 -1.2793 -1.5131 -0.5492
  233MPD1     C 3533   0.052   4.429   2.301 -0.4717  0.3129 -0.7926
  233MPD1    C1 3534   0.073   4.411   2.168 -0.1108 -0.1070 -0.3154
  233MPD1    C2 3535   0.054   4.282   2.109 -0.1725 -0.0805 -0.0340
  233MPD1    C3 3536   0.023   4.176   2.189  0.1322  0.2084  1.2501
  233MPD1    C4 3537   0.017   4.186   2.328 -0.1392 -0.4507  0.3308
  233MPD1    C5 3538   0.025   4.315   2.380  0.3317 -0.2679 -0.2875
  233MPD1     H 3539   0.038   4.284   2.001  1.0150 -0.4487 -0.2099
  233MPD1    H1 3540   0.009   4.106   2.402  2.4308  0.6338  1.7693
  233MPD1    H2 3541   0.062   4.525   2.350 -0.7381 -0.9188  1.6671
  233MPD1    H3 3542   0.006   4.334   2.485 -1.0821  0.7141 -0.7219
  233MPD1     N 3543   4.724   4.047   2.136  0.5750  0.0379  0.5545
  233MPD1    H5 3544   0.014   3.974   2.204  0.9035  0.3541  0.8253
  233MPD1    N1 3545   0.090   4.511   2.074 -0.3937 -0.4399  0.4749
  233MPD1    H6 3546   0.122   4.478   1.984 -0.0912 -2.0298  1.1637
  233MPD1    H7 3547   0.151   4.585   2.109 -0.7302 -0.3347  0.8400
  234MPD1     C 3548   0.212   2.876   9.279 -0.0357  0.0433 -0.3153
  234MPD1    C1 3549   0.152   2.958   9.363  0.5184 -0.4271 -0.2211
  234MPD1    C2 3550   0.021   2.998   9.341  0.1613 -0.1317 -0.1843
  234MPD1    C3 3551   4.679   2.961   9.229 -0.2667  0.0303 -0.6388
  234MPD1    C4 3552   0.012   2.877   9.136 -0.6979 -0.2747 -0.0733
  234MPD1    C5 3553   0.141   2.828   9.166 -0.8569 -0.6177  0.0666
  234MPD1     H 3554   4.723   3.080   9.408  0.9312  0.0834 -0.1823
  234MPD1    H1 3555   4.689   2.855   9.042  0.1669  0.4532 -0.6715
  234MPD1    H2 3556   0.306   2.825   9.294 -1.3334 -1.8230  1.5539
  234MPD1    H3 3557   0.193   2.771   9.089  0.3673  0.7456 -0.1148
  234MPD1     N 3558   4.551   3.016   9.213 -0.2698 -0.0386 -0.2502
  234MPD1    H5 3559   4.529   3.085   9.283 -2.5532  0.2856 -1.2904
  234MPD1    N1 3560   0.228   3.019   9.459  0.9977 -0.1929 -0.2200
  234MPD1    H6 3561   0.312   2.966   9.481  1.4230  0.6192  0.1095
  234MPD1    H7 3562   0.182   3.018   9.549 -0.5822  0.1233 -1.0233
  235MPD1     C 3563   2.112   4.334  10.157  0.6008  0.0026 -0.4278
  235MPD1    C1 3564   2.142   4.454  10.215  0.8633  0.1819 -0.0120
  235MPD1    C2 3565   2.179   4.558  10.133 -0.0280 -0.1831 -0.0827
  235MPD1    C3 3566   2.147   4.562  10.001  0.1571 -0.3771 -0.1914
  235MPD1    C4 3567   2.092   4.445   9.949 -0.5830 -0.5499 -0.0700
  235MPD1    C5 3568   2.087   4.336  10.025 -0.2764 -0.6376  0.2860
  235MPD1     H 3569   2.207   4.651  10.181 -0.2672 -0.0646 -0.1723
  235MPD1    H1 3570   2.063   4.436   9.845 -0.7766  0.6325 -0.1275
  235MPD1    H2 3571   2.109   4.242  10.214 -2.4084  1.3112  1.5470
  235MPD1    H3 3572   2.070   4.243   9.972 -0.2235 -0.1919 -0.5162
  235MPD1     N 3573   2.168   4.680   9.920 -0.2242 -0.1808  0.2501
  235MPD1    H5 3574   2.220   0.030   9.963  0.6720 -0.8125  0.2689
  235MPD1    N1 3575   2.170   4.461  10.354  0.7897 -0.7385 -0.3520
  235MPD1    H6 3576   2.098   4.410  10.404  0.7176 -0.5415 -0.2579
  235MPD1    H7 3577   2.175   4.558  10.384 -1.9896 -0.4668 -0.8152
  236MPD1     C 3578   0.361   1.287   9.969  1.0265  0.2423  0.3097
  236MPD1    C1 3579   0.374   1.261  10.100 -0.8192 -0.0593 -0.2537
  236MPD1    C2 3580   0.501   1.277  10.161 -0.0386 -1.1380 -0.4856
  236MPD1    C3 3581   0.600   1.325  10.081 -0.5227 -0.0693  0.0646
  236MPD1    C4 3582   0.584   1.347   9.948 -0.4309 -0.4416  0.5221
  236MPD1    C5 3583   0.466   1.323   9.888 -0.5525  0.2077  0.1917
  236MPD1     H 3584   0.518   1.243  10.262  1.4750  0.8796 -0.0606
  236MPD1    H1 3585   0.668   1.367   9.881 -1.0168  0.4733  0.0682
  236MPD1    H2 3586   0.274   1.263   9.908  1.1238 -1.7433  0.9693
  236MPD1    H3 3587   0.452   1.329   9.781  0.8442  1.3752  0.0751
  236MPD1     N 3588   0.733   1.339  10.135 -0.3951  0.1855  0.3034
  236MPD1    H5 3589   0.808   1.358  10.069 -1.5528 -1.4821 -1.4799
  236MPD1    N1 3590   0.271   1.187  10.166  0.4004  0.0910 -1.0925
  236MPD1    H6 3591   0.275   1.094  10.126  1.9880 -0.8000  1.1372
  236MPD1    H7 3592   0.184   1.234  10.144  1.5899  2.3065 -1.0856
  237MPD1     C 3593   0.525   3.840  14.919  0.4553 -0.0078  0.8123
  237MPD1    C1 3594   0.487   3.761  15.022  0.1799 -0.4281 -0.4602
  237MPD1    C2 3595   0.350   3.747  15.048 -0.1539 -0.4459  0.7180
  237MPD1    C3 3596   0.255   3.815  14.976 -0.3354  0.3421  0.5069
  237MPD1    C4 3597   0.298   3.888  14.869  0.6042  0.2270 -0.4736
  237MPD1    C5 3598   0.431   3.905  14.842  0.7561  0.1163 -0.0805
  237MPD1     H 3599   0.309   3.697  15.135  0.1998 -0.0964  1.0857
  237MPD1    H1 3600   0.225   3.936  14.805  0.8260  0.2163 -0.7386
  237MPD1    H2 3601   0.630   3.836  14.890 -0.1637 -0.2950 -1.4186
  237MPD1    H3 3602   0.469   3.971  14.765  1.8563 -2.9007 -2.1175
  237MPD1     N 3603   0.114   3.804  14.999  0.8070  0.3541  0.4803
  237MPD1    H5 3604   0.054   3.839  14.924 -1.8966 -2.1273  1.4910
  237MPD1    N1 3605   0.585   3.707  15.108 -0.8208  0.4551 -0.0310
  237MPD1    H6 3606   0.541   3.629  15.157  0.1043 -0.1454 -0.1586
  237MPD1    H7 3607   0.664   3.671  15.055 -1.1235  0.3716 -0.4276
  238MPD1     C 3608   2.120   1.926  15.490 -0.8332 -0.4547 -0.2905
  238MPD1    C1 3609   2.038   1.956  15.595  1.2468 -0.3373 -0.5044
  238MPD1    C2 3610   1.925   2.033  15.571  0.2121 -0.0083 -0.2426
  238MPD1    C3 3611   1.920   2.117  15.457 -0.3510 -0.3254 -0.3172
  238MPD1    C4 3612   2.022   2.107  15.363  0.4792 -0.1980 -0.2293
  238MPD1    C5 3613   2.116   2.009  15.376  0.0043  0.6352  0.2999
  238MPD1     H 3614   1.859   2.054  15.655  0.8525  1.8291 -0.1996
  238MPD1    H1 3615   2.024   2.170  15.274  1.1099  2.1228  1.4138
  238MPD1    H2 3616   2.194   1.846  15.491 -0.7070 -0.3712 -2.3648
  238MPD1    H3 3617   2.194   2.001  15.302 -1.4253  0.0575 -1.1522
  238MPD1     N 3618   1.823   2.212  15.428  0.2900  0.4326  0.0230
  238MPD1    H5 3619   1.844   2.269  15.347 -1.0659  2.6617  1.2673
  238MPD1    N1 3620   2.040   1.881  15.714  0.1822 -0.2754  0.0683
  238MPD1    H6 3621   1.996   1.929  15.793  1.3606 -0.2381  0.7106
  238MPD1    H7 3622   2.137   1.867  15.743  0.2425  0.2834  0.1461
  239MPD1     C 3623   2.530   3.355  14.885 -0.2555 -0.9765  0.5372
  239MPD1    C1 3624   2.402   3.368  14.928 -0.6790  0.5628  0.4366
  239MPD1    C2 3625   2.328   3.464  14.858 -0.7921  0.3131  0.1650
  239MPD1    C3 3626   2.370   3.515  14.736  0.0404 -0.1392 -0.7904
  239MPD1    C4 3627   2.492   3.471  14.682 -0.0708 -0.3155 -0.0739
  239MPD1    C5 3628   2.575   3.405  14.765 -0.3588  0.3700  0.5142
  239MPD1     H 3629   2.231   3.483  14.902 -0.8327 -0.6799  0.5011
  239MPD1    H1 3630   2.522   3.506  14.584 -0.3651 -1.0207 -0.4107
  239MPD1    H2 3631   2.606   3.316  14.952 -0.8802 -1.1993  1.1146
  239MPD1    H3 3632   2.679   3.397  14.736 -0.6248 -2.3572  0.3909
  239MPD1     N 3633   2.303   3.617  14.659 -0.3311 -0.0668 -0.5091
  239MPD1    H5 3634   2.349   3.632  14.570 -0.0944  1.5538 -0.1094
  239MPD1    N1 3635   2.370   3.324  15.056 -0.4879  0.4374 -0.0316
  239MPD1    H6 3636   2.272   3.301  15.072  0.0164 -0.3738  1.9763
  239MPD1    H7 3637   2.430   3.249  15.091  0.8439  1.0638 -0.9826
  240MPD1     C 3638   1.906   3.249  14.800 -0.6698  0.8696  1.1738
  240MPD1    C1 3639   1.802   3.231  14.716 -0.1892  0.0195  0.6553
  240MPD1    C2 3640   1.688   3.180  14.766  0.7032 -0.1454  0.0406
  240MPD1    C3 3641   1.679   3.130  14.894 -0.0467  0.4663 -0.3972
  240MPD1    C4 3642   1.782   3.139  14.979  0.2300 -0.5192 -0.3064
  240MPD1    C5 3643   1.892   3.207  14.934  0.3824 -0.0365  0.1822
  240MPD1     H 3644   1.598   3.182  14.706  1.2796 -0.4706 -0.8360
  240MPD1    H1 3645   1.787   3.085  15.072  0.3730  0.2819  0.1478
  240MPD1    H2 3646   2.001   3.292  14.770 -0.3560 -1.7719 -1.5236
  240MPD1    H3 3647   1.983   3.215  14.992  0.3625  0.0742  0.1965
  240MPD1     N 3648   1.562   3.059  14.935  0.4396 -0.4634 -0.2059
  240MPD1    H5 3649   1.488   3.066  14.866  2.4536 -2.9074 -2.6107
  240MPD1    N1 3650   1.799   3.288  14.585 -0.1077  0.0949 -0.0654
  240MPD1    H6 3651   1.889   3.271  14.541 -0.1378 -0.2760  0.0087
  240MPD1    H7 3652   1.728   3.244  14.525  0.0639  0.5156 -0.5766
  241MPD1     C 3653   1.019   2.430  15.657 -0.0666 -0.2402 -0.0210
  241MPD1    C1 3654   1.085   2.554  15.675  0.3164 -0.2940  0.1111
  241MPD1    C2 3655   1.136   2.613  15.559  1.0938  0.2295 -0.1759
  241MPD1    C3 3656   1.108   2.571  15.431 -0.3522 -0.6926  0.3067
  241MPD1    C4 3657   1.031   2.453  15.415  0.0170  0.2995 -0.1346
  241MPD1    C5 3658   1.001   2.384  15.531 -0.0767 -0.5709 -0.2273
  241MPD1     H 3659   1.191   2.706  15.576 -0.7174  1.3792 -0.6102
  241MPD1    H1 3660   1.012   2.416  15.315 -1.2824  1.3343 -0.2655
  241MPD1    H2 3661   0.995   2.360  15.736 -1.4326 -1.1423 -1.2568
  241MPD1    H3 3662   0.956   2.285  15.529  1.8310 -1.4703  1.3782
  241MPD1     N 3663   1.152   2.635  15.312  0.2978 -0.6197  0.4828
  241MPD1    H5 3664   1.141   2.584  15.225 -0.5859  0.5697 -0.1019
  241MPD1    N1 3665   1.125   2.594  15.802  0.0934 -0.2014  0.1130
  241MPD1    H6 3666   1.052   2.556  15.863  1.6583 -1.7417  1.0476
  241MPD1    H7 3667   1.150   2.692  15.813  4.0319 -1.0208 -1.8137
  242MPD1     C 3668   0.674   0.952  15.770 -0.0179 -0.4624 -0.0919
  242MPD1    C1 3669   0.703   1.090  15.775 -0.5758  0.2559  0.6732
  242MPD1    C2 3670   0.786   1.128  15.675  0.3214 -0.5850 -0.3885
  242MPD1    C3 3671   0.834   1.037  15.567  0.3359  0.3219 -0.3331
  242MPD1    C4 3672   0.793   0.910  15.563 -0.0352  0.6482 -0.1743
  242MPD1    C5 3673   0.708   0.863  15.667  0.7576 -0.6325  0.6221
  242MPD1     H 3674   0.830   1.227  15.685 -2.2078  0.5262 -0.4197
  242MPD1    H1 3675   0.817   0.830  15.493 -0.2160 -0.2979  0.8370
  242MPD1    H2 3676   0.600   0.903  15.832 -0.0128 -1.7979 -1.1573
  242MPD1    H3 3677   0.669   0.762  15.669 -2.5709  0.7091  2.3937
  242MPD1     N 3678   0.909   1.077  15.462  0.1088 -0.6546 -0.0843
  242MPD1    H5 3679   0.916   1.032  15.372 -1.5042  1.0954 -1.0885
  242MPD1    N1 3680   0.669   1.172  15.879  0.0175 -0.1287 -0.7998
  242MPD1    H6 3681   0.588   1.144  15.935  1.4723 -0.8428  0.9548
  242MPD1    H7 3682   0.666   1.271  15.854 -1.4186 -0.3438 -1.4386
  243MPD1     C 3683   3.391   0.337  17.528  0.3708  0.1738  0.2034
  243MPD1    C1 3684   3.337   0.464  17.534  0.3742  0.0014 -0.4860
  243MPD1    C2 3685   3.265   0.503  17.421  0.2096  0.2382  0.0215
  243MPD1    C3 3686   3.241   0.420  17.309  0.2039  0.2158  0.0652
  243MPD1    C4 3687   3.296   0.291  17.308  0.0021 -0.4551 -0.4922
  243MPD1    C5 3688   3.369   0.257  17.417 -0.2548 -0.3399  0.2767
  243MPD1     H 3689   3.231   0.606  17.416  0.7390  0.6004  3.6413
  243MPD1    H1 3690   3.276   0.222  17.227 -0.5663 -1.7864  0.8116
  243MPD1    H2 3691   3.462   0.294  17.599 -0.2779  0.1653  0.8455
  243MPD1    H3 3692   3.417   0.160  17.410  0.6535  0.0627  0.9202
  243MPD1     N 3693   3.172   0.480  17.196  0.3920 -0.5407  0.1848
  243MPD1    H5 3694   3.134   0.573  17.207 -1.5010 -1.4392  1.1894
  243MPD1    N1 3695   3.385   0.562  17.632 -0.0581  0.0612 -0.1615
  243MPD1    H6 3696   3.408   0.516   0.019  1.7308  0.4573 -0.4257
  243MPD1    H7 3697   3.329   0.645  17.652  1.8810  1.1845  0.5732
  244MPD1     C 3698   2.746   1.205  17.229  0.3835 -0.7413 -0.0811
  244MPD1    C1 3699   2.843   1.115  17.280 -0.0969 -0.5345 -0.3619
  244MPD1    C2 3700   2.893   1.002  17.216  0.0896  0.2249  0.6908
  244MPD1    C3 3701   2.829   0.957  17.103 -0.6645  0.5870 -0.1978
  244MPD1    C4 3702   2.725   1.040  17.054  0.2125  0.2648 -0.7740
  244MPD1    C5 3703   2.694   1.163  17.114 -0.5060 -0.0015  0.9507
  244MPD1     H 3704   2.979   0.950  17.257 -0.5403 -0.5048  1.0757
  244MPD1    H1 3705   2.682   1.025  16.956 -0.8813 -0.9848 -0.1193
  244MPD1    H2 3706   2.718   1.303  17.266 -1.3858 -0.6898 -1.5859
  244MPD1    H3 3707   2.614   1.225  17.073 -0.0599 -0.4688 -0.6005
  244MPD1     N 3708   2.879   0.837  17.044 -0.4896  0.1665 -0.5694
  244MPD1    H5 3709   2.956   0.796  17.096 -0.0732  0.9039 -0.6152
  244MPD1    N1 3710   2.910   1.171  17.386 -0.5487 -0.2041  0.3481
  244MPD1    H6 3711   2.854   1.227  17.450 -0.6148 -0.2549  0.3348
  244MPD1    H7 3712   2.959   1.103  17.444 -0.4125  0.4650  1.0231
  245MPD1     C 3713   0.020   0.746  12.827  0.6340 -0.3991 -0.4817
  245MPD1    C1 3714   4.712   0.717  12.956  0.0365 -0.3380  0.0540
  245MPD1    C2 3715   4.706   0.824  13.045  0.5282 -0.9092 -0.3119
  245MPD1    C3 3716   4.705   0.956  13.003  0.0864  0.2011  0.1447
  245MPD1    C4 3717   0.010   0.988  12.870  0.5154 -0.3407 -0.0179
  245MPD1    C5 3718   0.035   0.881  12.781 -0.4396 -0.6274  0.3605
  245MPD1     H 3719   4.697   0.804  13.151 -1.3562  0.2885 -0.2454
  245MPD1    H1 3720   0.004   1.087  12.824 -1.9398 -0.7943 -0.6603
  245MPD1    H2 3721   0.043   0.671  12.752  0.3351  0.1535 -1.1326
  245MPD1    H3 3722   0.058   0.900  12.677 -3.2753 -0.5798 -0.2441
  245MPD1     N 3723   4.679   1.057  13.094  0.5035 -0.0877 -0.3563
  245MPD1    H5 3724   4.672   1.022  13.189  0.1808  0.8067 -0.0445
  245MPD1    N1 3725   0.002   0.581  13.000  0.3212 -0.3812  0.1284
  245MPD1    H6 3726   4.696   0.518  12.926  2.5766  1.6642 -2.5508
  245MPD1    H7 3727   4.665   0.555  13.076 -1.0398 -2.2949 -1.6225
  246MPD1     C 3728   0.257   0.895  10.631 -0.6286 -0.7042 -0.5760
  246MPD1    C1 3729   0.178   0.883  10.509 -0.0658  0.0297  0.5971
  246MPD1    C2 3730   0.237   0.803  10.408  0.4282  0.2049  0.6086
  246MPD1    C3 3731   0.350   0.725  10.431  0.5229  0.1061  0.3625
  246MPD1    C4 3732   0.408   0.721  10.559 -0.3901 -0.1520 -0.0738
  246MPD1    C5 3733   0.364   0.807  10.653  0.9667  0.9386 -1.0448
  246MPD1     H 3734   0.195   0.790  10.309  0.3481  1.3448  0.4869
  246MPD1    H1 3735   0.491   0.654  10.578 -1.7452 -1.3163  1.7680
  246MPD1    H2 3736   0.239   0.972  10.705 -0.0498 -2.5032  1.4282
  246MPD1    H3 3737   0.426   0.827  10.740  0.6134 -0.7126 -0.4165
  246MPD1     N 3738   0.401   0.661  10.318  0.2284  0.1186  0.3581
  246MPD1    H5 3739   0.362   0.695  10.230 -1.4660 -2.9201 -0.0744
  246MPD1    N1 3740   0.089   0.980  10.469 -0.0607  0.2550 -0.5347
  246MPD1    H6 3741   0.014   0.962  10.402 -0.0594  0.9563 -0.7206
  246MPD1    H7 3742   0.037   1.026  10.544  2.2324  0.6956  0.7599
  247MPD1     C 3743   4.424   1.648  16.309 -0.0002 -0.1018 -0.8812
  247MPD1    C1 3744   4.287   1.664  16.326  0.1625  0.0974  0.2360
  247MPD1    C2 3745   4.199   1.570  16.272  0.4850  0.0851 -0.3490
  247MPD1    C3 3746   4.241   1.448  16.220  0.1367 -0.1072  0.0823
  247MPD1    C4 3747   4.372   1.429  16.203 -0.1510  0.7975  0.2306
  247MPD1    C5 3748   4.462   1.536  16.236 -0.5308  0.2448  0.2096
  247MPD1     H 3749   4.095   1.601  16.267  0.9937  1.9292  0.3487
  247MPD1    H1 3750   4.414   1.345  16.149  1.3746 -0.0848  2.7932
  247MPD1    H2 3751   4.503   1.716  16.338  0.7349 -1.4053  0.2039
  247MPD1    H3 3752   4.567   1.517  16.222 -1.0500 -0.7009 -2.4845
  247MPD1     N 3753   4.153   1.337  16.199 -0.7862 -0.5139  0.1004
  247MPD1    H5 3754   4.204   1.254  16.169 -1.5283 -0.6008 -0.8987
  247MPD1    N1 3755   4.229   1.783  16.374 -0.2213 -0.7466  0.0203
  247MPD1    H6 3756   4.295   1.838  16.428  0.6233 -0.6479 -1.0909
  247MPD1    H7 3757   4.148   1.765  16.433 -0.9820 -1.2582 -1.1810
  248MPD1     C 3758   0.988   1.366  17.525 -0.9133  0.2217 -0.3695
  248MPD1    C1 3759   0.931   1.479  17.573  0.2499  0.4560  0.4274
  248MPD1    C2 3760   0.832   1.465  17.669 -0.1858 -0.0151  0.9789
  248MPD1    C3 3761   0.777   1.340   0.004 -0.5376  0.1396  0.5066
  248MPD1    C4 3762   0.834   1.227  17.645  0.8733 -0.6415 -0.3627
  248MPD1    C5 3763   0.938   1.245  17.562 -0.2926  0.0300 -0.6746
  248MPD1     H 3764   0.791   1.549   0.023 -0.5383  0.1622  0.4632
  248MPD1    H1 3765   0.800   1.127  17.669 -0.2075  0.0861  1.1558
  248MPD1    H2 3766   1.074   1.371  17.459 -0.6309 -1.1239 -0.0973
  248MPD1    H3 3767   0.971   1.155  17.510 -0.3010 -0.6116  0.4368
  248MPD1     N 3768   0.673   1.340   0.101 -0.2563 -0.2452 -0.0671
  248MPD1    H5 3769   0.650   1.420   0.158  0.0382  0.9574 -1.6296
  248MPD1    N1 3770   1.000   1.597  17.558 -0.3972 -0.4881 -0.3198
  248MPD1    H6 3771   0.948   1.678  17.592 -0.2039 -0.5541  0.1380
  248MPD1    H7 3772   1.031   1.614  17.463  5.3809  2.2791  2.0298
  249MPD1     C 3773   1.440   3.943  11.360  0.5401  0.3792  0.5370
  249MPD1    C1 3774   1.497   4.046  11.286  0.0229  0.3967  0.2028
  249MPD1    C2 3775   1.476   4.046  11.150  0.5468  0.3297 -0.2525
  249MPD1    C3 3776   1.405   3.942  11.086 -0.2370  0.2185 -0.2000
  249MPD1    C4 3777   1.346   3.849  11.165  0.3938  0.4494  0.0104
  249MPD1    C5 3778   1.366   3.848  11.304  0.0441  0.9687  0.6311
  249MPD1     H 3779   1.523   4.119  11.084 -0.7376  2.0312  0.7037
  249MPD1    H1 3780   1.286   3.765  11.132  0.5466 -0.4239  1.9078
  249MPD1    H2 3781   1.458   3.933  11.466  3.0418  1.6805  0.2350
  249MPD1    H3 3782   1.335   3.772  11.375 -2.4781  0.6952 -0.7805
  249MPD1     N 3783   1.398   3.943  10.947 -0.2469 -0.3300 -0.2936
  249MPD1    H5 3784   1.440   4.022  10.898 -1.2025 -0.1472 -0.8158
  249MPD1    N1 3785   1.565   4.151  11.351  0.0228  0.1982  0.2517
  249MPD1    H6 3786   1.646   4.186  11.300  0.3212 -1.4071 -0.3509
  249MPD1    H7 3787   1.591   4.129  11.447 -2.7903  0.6252  1.1182
  250MPD2     C 3788   2.774   4.282  13.502 -0.3725  0.6151 -0.1923
  250MPD2    C1 3789   2.879   4.235  13.423 -0.1749 -0.1857  0.4675
  250MPD2    C2 3790   2.871   4.116  13.351  0.5678 -0.0152 -0.1175
  250MPD2    C3 3791   2.761   4.033  13.375  0.7136 -0.2310 -0.0651
  250MPD2    C4 3792   2.662   4.074  13.460 -0.5722 -0.2765 -0.5641
  250MPD2    C5 3793   2.668   4.195  13.520  1.1390  0.2227 -0.1595
  250MPD2     H 3794   2.951   4.070  13.293  1.9381 -0.0263  1.7584
  250MPD2    H1 3795   2.574   4.013  13.475 -0.9156  0.5070  0.6226
  250MPD2    H2 3796   2.787   4.375  13.556 -1.5334  0.7161 -0.1001
  250MPD2    H3 3797   2.593   4.218  13.595  0.0523  0.7010 -1.3953
  250MPD2     N 3798   2.733   3.921  13.294  0.4073 -0.5891  0.8870
  250MPD2    H5 3799   2.639   3.882  13.304  0.4355 -0.3436  2.1067
  250MPD2    N1 3800   2.991   4.327  13.417  0.4127 -0.0218 -0.5251
  250MPD2    H7 3801   2.979   4.414  13.468  0.3372  0.1567 -0.8467
  251TMC3    C1 3802   3.205   4.414  13.368  0.3868  0.4289  0.5940
  251TMC3    C2 3803   3.174   4.531  13.432 -0.3547 -0.0820 -1.1022
  251TMC3    C3 3804   3.273   4.628  13.428 -0.5942 -0.4469 -0.0428
  251TMC3    C4 3805   3.330   4.391  13.320  0.2169 -0.1360  0.4410
  251TMC3    C5 3806   3.421   4.490  13.319  0.1674 -0.1389  0.2046
  251TMC3    C6 3807   3.398   4.609  13.382  0.5958 -0.4551 -0.0195
  251TMC3     C 3808   3.102   4.312  13.336  1.1549  0.1841  0.3231
  251TMC3     O 3809   3.138   4.224  13.263 -0.4590  0.2524  0.0059
  251TMC3     H 3810   3.079   4.550  13.479  0.1127 -0.2696 -0.0955
  251TMC3    H1 3811   3.351   4.294  13.275 -1.6267 -0.2010 -0.2860
  251TMC3    H2 3812   3.469   4.690  13.397  1.0784 -1.0564  0.9162
  251TMC3    C7 3813   3.558   4.450  13.275  0.3013 -0.2746 -0.2733
  251TMC3    C8 3814   3.237   0.026  13.482  0.1516 -0.0146  0.5136
  251TMC3    O1 3815   3.579   4.330  13.260  0.5632 -0.1701  0.7248
  251TMC3    O2 3816   3.154   0.024  13.571 -0.3579 -0.2352  0.0316
  252TMC3    C1 3817   4.302   0.065   9.411 -0.2666  0.2985  0.1997
  252TMC3    C2 3818   4.409   0.132   9.354 -0.6122 -0.1145 -0.5701
  252TMC3    C3 3819   4.405   0.184   9.228  0.4484  0.3355  0.2352
  252TMC3    C4 3820   4.185   0.060   9.347 -0.4268 -0.0824 -0.5198
  252TMC3    C5 3821   4.184   0.114   9.219 -0.2066 -0.4949 -0.2031
  252TMC3    C6 3822   4.291   0.159   9.150  0.3970  0.2448  0.3668
  252TMC3     C 3823   4.322   4.695   9.516  0.0368  0.5963 -0.4916
  252TMC3     O 3824   4.215   4.655   9.568 -0.0904 -0.0766  0.1537
  252TMC3     H 3825   4.497   0.144   9.416 -0.9243  0.3699 -0.2225
  252TMC3    H1 3826   4.103   0.004   9.392  1.4585 -3.2336 -1.0114
  252TMC3    H2 3827   4.279   0.217   9.059  1.4994 -1.8825 -1.1411
  252TMC3    C7 3828   4.052   0.134   9.160 -0.4754  0.5112  0.8386
  252TMC3    C8 3829   4.516   0.257   9.168  0.2544  0.0750  0.3052
  252TMC3    O1 3830   4.050   0.180   9.045 -0.1828 -0.1740 -0.3249
  252TMC3    O2 3831   4.538   0.259   9.045 -0.2402  0.2476  0.2041
  253MPD2     C 3832   4.672   4.011  15.337  0.7289  0.3690 -0.0790
  253MPD2    C1 3833   4.549   3.981  15.390  0.0075  0.6365  0.0974
  253MPD2    C2 3834   4.518   3.982  15.532 -0.1842  0.2078 -0.2042
  253MPD2    C3 3835   4.631   4.002  15.617 -0.2901  0.3235 -0.3781
  253MPD2    C4 3836   0.032   4.015  15.561 -0.7053  0.4049 -0.3905
  253MPD2    C5 3837   0.051   4.020  15.421 -0.3646  0.3809 -0.5221
  253MPD2     H 3838   4.422   3.949  15.570 -0.4498  1.5645  0.3259
  253MPD2    H1 3839   0.121   4.035  15.620 -1.7309  0.6811  1.0753
  253MPD2    H2 3840   4.699   4.007  15.232 -0.1707 -1.1066 -0.2518
  253MPD2    H3 3841   0.149   4.027  15.376 -0.0167  2.2981  0.5387
  253MPD2     N 3842   4.627   4.003  15.752  0.3655 -0.2826 -0.6727
  253MPD2    H5 3843   4.712   4.026  15.801  0.2530  1.1903 -1.1632
  253MPD2    N1 3844   4.430   3.971  15.310 -0.4602  0.7382  0.6489
  253MPD2    H7 3845   4.348   3.945  15.364 -0.3692 -1.2952 -0.1863
  254TMC3    C1 3846   4.542   3.974  15.967  0.3846  0.5332 -0.2000
  254TMC3    C2 3847   4.424   3.955  16.029 -0.3340  0.1589 -0.1665
  254TMC3    C3 3848   4.430   3.887  16.150  0.0053  0.3719 -0.4879
  254TMC3    C4 3849   4.665   3.946  16.019 -0.1780 -0.1736  0.0885
  254TMC3    C5 3850   4.669   3.890  16.145 -0.1473 -0.2647 -0.2944
  254TMC3    C6 3851   4.551   3.873  16.215 -0.0840 -0.5326 -0.6360
  254TMC3     C 3852   4.511   3.986  15.824 -0.0137  0.6265 -0.5364
  254TMC3     O 3853   4.392   3.989  15.787 -0.2976 -0.0506 -0.3107
  254TMC3     H 3854   4.332   3.979  15.977  0.6354 -0.6511 -2.2587
  254TMC3    H1 3855   0.032   3.973  15.970 -0.1432 -2.2904 -1.0135
  254TMC3    H2 3856   4.556   3.839  16.318  0.9943  1.3823 -0.0466
  254TMC3    C7 3857   0.074   3.882  16.212  0.1982  0.8828 -0.3540
  254TMC3    C8 3858   4.314   3.900  16.230  0.4214  0.1318 -0.4682
  254TMC3    O1 3859   0.171   3.853  16.143  0.4092 -0.1922  0.6915
  254TMC3    O2 3860   4.320   3.915  16.353  0.8968  0.0644  0.8351
  255MPD2     C 3861   2.974   1.641  10.629  0.2609 -0.1310  0.2856
  255MPD2    C1 3862   3.039   1.762  10.638  1.3519 -0.4661  0.1544
  255MPD2    C2 3863   3.153   1.789  10.564  0.1314  0.4421  0.1837
  255MPD2    C3 3864   3.215   1.685  10.485  0.5021  0.0293 -0.7997
  255MPD2    C4 3865   3.164   1.561  10.495 -0.2865  0.5584  0.4739
  255MPD2    C5 3866   3.040   1.541  10.560 -0.3536  0.5733  0.1485
  255MPD2     H 3867   3.206   1.882  10.578 -0.6829  0.9034  0.1580
  255MPD2    H1 3868   3.216   1.476  10.452 -0.7063  1.1732 -1.2103
  255MPD2    H2 3869   2.893   1.627  10.700 -0.3461  0.1984 -0.3431
  255MPD2    H3 3870   2.997   1.442  10.569  0.4715  0.2324  0.3410
  255MPD2     N 3871   3.338   1.707  10.421 -0.8030  0.2954 -0.7154
  255MPD2    H5 3872   3.372   1.802  10.430  0.7635 -0.2972 -0.4408
  255MPD2    N1 3873   2.965   1.869  10.699 -0.0819  0.2119  0.0841
  255MPD2    H7 3874   2.874   1.848  10.739 -0.7571  1.1014 -0.9937
  256TMC3    C1 3875   2.882   2.089  10.712  0.4033  0.0190 -0.4744
  256TMC3    C2 3876   2.921   2.216  10.709 -0.5295  0.2303 -0.3602
  256TMC3    C3 3877   2.830   2.307  10.647  0.3320  0.0930  0.6472
  256TMC3    C4 3878   2.759   2.046  10.660 -0.1740 -0.3107  0.7257
  256TMC3    C5 3879   2.673   2.142  10.608  0.0662  0.0872 -0.7513
  256TMC3    C6 3880   2.707   2.274  10.602  0.3016  1.0795 -0.3643
  256TMC3     C 3881   2.997   2.004  10.702 -0.0452 -0.5201 -0.0624
  256TMC3     O 3882   3.101   2.056  10.673 -0.6740 -0.0340  0.1538
  256TMC3     H 3883   3.017   2.248  10.749 -0.6555  0.7440 -0.4717
  256TMC3    H1 3884   2.724   1.943  10.656 -1.1244  0.1095 -1.3050
  256TMC3    H2 3885   2.646   2.348  10.552  1.9509  2.3584 -0.4746
  256TMC3    C7 3886   2.557   2.097  10.533 -0.7943 -0.7180  0.1991
  256TMC3    C8 3887   2.892   2.412  10.569 -0.2476 -0.4346  0.1219
  256TMC3    O1 3888   2.490   2.003  10.577  0.0199  0.0704  0.3026
  256TMC3    O2 3889   2.818   2.496  10.525 -0.0814 -0.8034  0.4351
  257MPD2     C 3890   1.977   4.494  13.424  0.4400 -0.4417  0.1854
  257MPD2    C1 3891   1.922   4.406  13.333  0.7656 -0.3493 -0.3321
  257MPD2    C2 3892   1.898   4.272  13.365 -0.0970  0.1361  0.0335
  257MPD2    C3 3893   1.931   4.226  13.491  0.6975 -0.7057  0.3068
  257MPD2    C4 3894   1.980   4.317  13.581  0.5871  0.1948  0.0366
  257MPD2    C5 3895   2.002   4.451  13.549  0.1319  0.1834  0.1629
  257MPD2     H 3896   1.863   4.207  13.285 -2.4991 -0.2592  1.4027
  257MPD2    H1 3897   2.006   4.288  13.682  1.8226 -3.0830 -1.2354
  257MPD2    H2 3898   1.994   4.598  13.396 -1.6702 -0.6769 -1.9661
  257MPD2    H3 3899   2.048   4.515  13.623  0.4356 -0.9671  0.9826
  257MPD2     N 3900   1.897   4.091  13.525  0.4180  0.0237  0.6196
  257MPD2    H5 3901   1.854   4.034  13.453 -3.8068  1.0195  2.3486
  257MPD2    N1 3902   1.897   4.461  13.207  0.8632 -0.2045 -0.6468
  257MPD2    H7 3903   1.943   4.547  13.180  0.3844 -0.0763 -1.0668
  258TMC3    C1 3904   1.839   3.907  13.661 -0.0714  0.1895 -0.7703
  258TMC3    C2 3905   1.734   3.873  13.580  0.1667 -0.2025  0.0740
  258TMC3    C3 3906   1.690   3.743  13.573  0.4204  0.1652  0.5436
  258TMC3    C4 3907   1.898   3.817  13.748 -0.2287  0.0850 -0.1777
  258TMC3    C5 3908   1.841   3.687  13.748 -0.3523 -0.1652 -0.8236
  258TMC3    C6 3909   1.750   3.647  13.659  0.3704  0.2252 -0.8046
  258TMC3     C 3910   1.904   4.034  13.651  0.3831  0.0868  0.3757
  258TMC3     O 3911   1.943   4.092  13.752 -0.2419  0.0284  0.0232
  258TMC3     H 3912   1.677   3.957  13.540  0.0786 -0.2264  0.1522
  258TMC3    H1 3913   1.964   3.852  13.827 -1.7840  0.2905  1.0414
  258TMC3    H2 3914   1.724   3.542  13.660  0.4544  0.2046 -0.7653
  258TMC3    C7 3915   1.820   3.632  13.883  0.5235  0.1350 -0.6296
  258TMC3    C8 3916   1.549   3.735  13.558 -0.2398  0.1929  0.8410
  258TMC3    O1 3917   1.707   3.602  13.920  0.0427  0.3648 -0.6009
  258TMC3    O2 3918   1.498   3.798  13.465 -0.0625 -0.2602  0.2860
  259MPD2     C 3919   1.016   1.536   0.707 -0.2511 -0.0244 -0.0253
  259MPD2    C1 3920   1.030   1.408   0.751 -0.1580 -0.9780  0.1621
  259MPD2    C2 3921   1.134   1.332   0.710 -0.3917  0.0554 -0.8573
  259MPD2    C3 3922   1.221   1.385   0.620 -0.7258  0.2922  0.0944
  259MPD2    C4 3923   1.213   1.519   0.587  0.6274 -0.4706 -0.5165
  259MPD2    C5 3924   1.112   1.598   0.632  0.2915 -0.2637 -0.6812
  259MPD2     H 3925   1.149   1.226   0.729 -0.7313 -0.0440 -1.1429
  259MPD2    H1 3926   1.291   1.559   0.524 -2.9847  2.9919 -2.8315
  259MPD2    H2 3927   0.931   1.599   0.732  0.7375  1.3791 -0.2032
  259MPD2    H3 3928   1.100   1.702   0.605  0.1289  0.0463  0.5892
  259MPD2     N 3929   1.328   1.302   0.570 -0.2112  0.0198 -0.2147
  259MPD2    H5 3930   1.321   1.202   0.587  3.1045 -0.2830 -0.6884
  259MPD2    N1 3931   0.934   1.369   0.847 -0.1961  0.3939 -0.9221
  259MPD2    H7 3932   0.886   1.446   0.893  0.0599 -0.0590  0.1017
  260TMC3    C1 3933   1.543   1.243   0.505 -0.0078  0.1996 -0.2048
  260TMC3    C2 3934   1.621   1.259   0.393 -0.6752  0.1407  0.7367
  260TMC3    C3 3935   1.699   1.149   0.364 -0.3654 -0.0553  0.0187
  260TMC3    C4 3936   1.551   1.140   0.594 -0.0912 -1.2188  0.0950
  260TMC3    C5 3937   1.632   1.036   0.563 -0.0640 -0.0062  0.4328
  260TMC3    C6 3938   1.716   1.044   0.447 -0.6873 -0.5789 -0.7897
  260TMC3     C 3939   1.437   1.339   0.498  0.0609  0.4607  0.2585
  260TMC3     O 3940   1.476   1.452   0.469  0.4257 -0.1030 -0.6583
  260TMC3     H 3941   1.606   1.343   0.325 -1.7730 -0.2826  0.4609
  260TMC3    H1 3942   1.487   1.130   0.681 -0.7052  1.2960 -0.0601
  260TMC3    H2 3943   1.787   0.967   0.419  2.0226  1.6923 -0.2985
  260TMC3    C7 3944   1.584   0.901   0.578  0.1566 -0.1068 -0.2089
  260TMC3    C8 3945   1.708   1.122   0.222  0.0543  0.6240  0.5937
  260TMC3    O1 3946   1.624   0.826   0.488  0.1545 -0.0976 -0.3831
  260TMC3    O2 3947   1.725   1.220   0.147 -0.0336 -0.0949 -0.8724
  261MPD2     C 3948   2.234   3.929  12.757  1.1663 -0.1469  0.1465
  261MPD2    C1 3949   2.365   3.919  12.712  0.2452  0.3507  0.7883
  261MPD2    C2 3950   2.405   3.992  12.602  0.1294 -0.0239  0.6351
  261MPD2    C3 3951   2.327   4.087  12.532 -0.2394 -0.5770 -0.7357
  261MPD2    C4 3952   2.199   4.087  12.578  0.2161  0.0579 -0.7252
  261MPD2    C5 3953   2.152   4.007  12.682 -0.9231  0.6773  0.2504
  261MPD2     H 3954   2.510   3.983  12.578  0.4293  2.0593  1.1618
  261MPD2    H1 3955   2.119   4.148  12.536 -0.3985  0.0098  0.3850
  261MPD2    H2 3956   2.192   3.882  12.845 -2.2014  0.3358 -1.2161
  261MPD2    H3 3957   2.047   4.011  12.708 -1.1908  2.0393 -1.0021
  261MPD2     N 3958   2.379   4.174  12.441 -0.2195 -0.7452 -0.0378
  261MPD2    H5 3959   2.475   4.164  12.409 -0.5529 -0.8474 -1.0048
  261MPD2    N1 3960   2.472   3.847  12.776  0.0731  0.1194 -0.1504
  261MPD2    H7 3961   2.556   3.844  12.719  0.8403 -1.4977  1.0762
  262TMC3    C1 3962   2.414   4.393  12.353 -0.0922  0.9460 -0.1419
  262TMC3    C2 3963   2.384   4.519  12.380 -0.5013 -0.0196 -0.0489
  262TMC3    C3 3964   2.482   4.616  12.388  0.2253  0.1207  0.4028
  262TMC3    C4 3965   2.542   4.361  12.316 -0.7670 -0.0228  0.3960
  262TMC3    C5 3966   2.640   4.457  12.308 -0.1709 -0.2527 -0.1536
  262TMC3    C6 3967   2.608   4.588  12.346  0.1284  0.2203 -0.1923
  262TMC3     C 3968   2.316   4.291  12.390 -0.4471  0.2494 -0.5409
  262TMC3     O 3969   2.201   4.323  12.401 -0.3009  0.4661  0.6571
  262TMC3     H 3970   2.287   4.540  12.422 -0.9869  1.0286 -1.7141
  262TMC3    H1 3971   2.563   4.262  12.279 -0.5343 -0.1887  0.9784
  262TMC3    H2 3972   2.679   4.670  12.342  1.3633 -0.9696 -2.8957
  262TMC3    C7 3973   2.759   4.422  12.239  0.2280  0.7569  0.3307
  262TMC3    C8 3974   2.442   0.023  12.348 -0.7113  0.2907 -0.1531
  262TMC3    O1 3975   2.765   4.305  12.208 -0.4559 -0.1119  0.3443
  262TMC3    O2 3976   2.528   0.103  12.338 -0.5376  0.3079 -0.2237
  263MPD2     C 3977   3.653   3.939  12.027  0.2090 -0.7114  0.9820
  263MPD2    C1 3978   3.746   3.908  11.932 -0.1742 -0.2469 -0.2127
  263MPD2    C2 3979   3.748   3.971  11.810 -0.4896 -0.5612  0.1759
  263MPD2    C3 3980   3.660   4.073  11.795  0.4216  0.2643  0.0764
  263MPD2    C4 3981   3.572   4.109  11.896  0.0636 -0.4467 -0.2092
  263MPD2    C5 3982   3.566   4.038  12.010 -0.3231  0.3405  0.0163
  263MPD2     H 3983   3.823   3.954  11.733 -2.0812 -3.4587 -0.7528
  263MPD2    H1 3984   3.511   4.198  11.894 -1.0011 -1.1789 -0.3805
  263MPD2    H2 3985   3.653   3.895  12.127  1.3210  0.0299  1.3033
  263MPD2    H3 3986   3.492   4.074  12.080 -0.9691 -0.1068 -0.4360
  263MPD2     N 3987   3.684   4.157  11.683 -0.0922  0.0723  0.0214
  263MPD2    H5 3988   3.752   4.122  11.616  0.5674 -1.2475  1.3888
  263MPD2    N1 3989   3.838   3.807  11.964  0.6548  0.0129  0.0840
  263MPD2    H7 3990   3.811   3.748  12.042 -0.7482  1.5939  0.7874
  264TMC3    C1 3991   3.666   4.332  11.528  0.6510  0.4829  0.3852
  264TMC3    C2 3992   3.595   4.442  11.507  0.1875  0.4458 -0.9418
  264TMC3    C3 3993   3.565   4.480  11.378 -0.7355  0.0594 -0.1670
  264TMC3    C4 3994   3.719   4.259  11.420 -0.1536 -0.4477  0.1852
  264TMC3    C5 3995   3.685   4.298  11.296  0.2824 -0.2083 -0.3973
  264TMC3    C6 3996   3.602   4.408  11.274  0.5719 -0.1722  0.0499
  264TMC3     C 3997   3.640   4.282  11.659  0.1312 -0.6515  0.0909
  264TMC3     O 3998   3.595   4.355  11.752 -0.2690 -0.1875 -0.1736
  264TMC3     H 3999   3.560   4.506  11.588 -0.5378  0.9403 -1.6339
  264TMC3    H1 4000   3.793   4.180  11.426 -0.0326 -0.1980  2.1600
  264TMC3    H2 4001   3.579   4.432  11.171  1.5814  1.0561  0.1182
  264TMC3    C7 4002   3.806   4.306  11.214  0.3192 -0.0201 -0.3651
  264TMC3    C8 4003   3.593   4.618  11.357 -0.3931 -0.7518 -0.2531
  264TMC3    O1 4004   3.866   4.202  11.202 -0.0772  0.1525 -0.0850
  264TMC3    O2 4005   3.644   4.636  11.245 -0.3365  0.1206 -0.2652
  265MPD2     C 4006   0.908   3.946  15.641 -0.0672  0.0540  0.3355
  265MPD2    C1 4007   0.845   3.952  15.519 -0.0976 -0.4643 -0.0519
  265MPD2    C2 4008   0.894   3.878  15.414  0.4366  0.0006 -0.1074
  265MPD2    C3 4009   1.000   3.784  15.433 -0.1085  0.5855  0.2144
  265MPD2    C4 4010   1.055   3.771  15.557 -0.0708 -0.4260  0.8064
  265MPD2    C5 4011   1.002   3.848  15.659  0.2759  0.5548 -0.1205
  265MPD2     H 4012   0.850   3.894  15.316 -0.4713  0.8212  0.4395
  265MPD2    H1 4013   1.136   3.703  15.584  0.1783 -1.1106 -1.6682
  265MPD2    H2 4014   0.897   3.997  15.736  3.1824  1.0088  0.2074
  265MPD2    H3 4015   1.045   3.827  15.757 -0.9276 -1.1203  0.0361
  265MPD2     N 4016   1.058   3.711  15.331 -0.1852 -0.2527  0.1082
  265MPD2    H5 4017   1.124   3.634  15.343  0.5065  0.0980 -1.4497
  265MPD2    N1 4018   0.743   4.043  15.491  0.2159  0.3731  0.0338
  265MPD2    H7 4019   0.697   4.043  15.401 -1.8055  2.7432  1.0777
  266TMC3    C1 4020   0.608   4.238  15.518 -0.1987  0.3968  0.5934
  266TMC3    C2 4021   0.540   4.315  15.614 -0.0444 -0.5895 -0.2890
  266TMC3    C3 4022   0.418   4.366  15.575 -0.7180  0.1503 -0.1831
  266TMC3    C4 4023   0.559   4.224  15.394 -0.0712  0.1078 -0.2751
  266TMC3    C5 4024   0.430   4.263  15.362 -0.7908  0.2792 -0.2354
  266TMC3    C6 4025   0.359   4.338  15.456 -0.2976 -0.3791  0.2378
  266TMC3     C 4026   0.712   4.151  15.569  1.1977 -0.6046  1.0128
  266TMC3     O 4027   0.739   4.184  15.685 -0.0386 -0.0685  0.6387
  266TMC3     H 4028   0.566   4.310  15.719  1.2918  2.2297 -0.4976
  266TMC3    H1 4029   0.631   4.183  15.324 -1.4164 -0.0244 -1.5750
  266TMC3    H2 4030   0.262   4.385  15.441  0.8973  1.6641 -1.0569
  266TMC3    C7 4031   0.363   4.262  15.227  0.1865  0.0788 -0.3562
  266TMC3    C8 4032   0.341   4.409  15.695 -1.1619 -0.0076  0.0849
  266TMC3    O1 4033   0.242   4.281  15.220  0.0169  0.0846 -0.5279
  266TMC3    O2 4034   0.217   4.401  15.694  0.0474 -0.2540 -0.4068
  267MPD2     C 4035   3.221   1.799  17.324 -0.2259  0.2193 -0.1340
  267MPD2    C1 4036   3.238   1.680  17.389  0.0393 -0.6821  0.0980
  267MPD2    C2 4037   3.195   1.561  17.329  0.1938 -0.2697  0.3214
  267MPD2    C3 4038   3.125   1.560  17.210  0.5786 -0.1606  0.5125
  267MPD2    C4 4039   3.086   1.683  17.167  0.0765  0.1580  0.0183
  267MPD2    C5 4040   3.122   1.800  17.227 -0.0823 -0.0970 -0.2766
  267MPD2     H 4041   3.226   1.464  17.366  1.2511 -0.0821 -0.0873
  267MPD2    H1 4042   3.041   1.707  17.071  0.8567 -1.1380 -0.6741
  267MPD2    H2 4043   3.241   1.894  17.372 -0.1422 -0.7278  1.7002
  267MPD2    H3 4044   3.083   1.891  17.183  0.6682  0.5933  0.4939
  267MPD2     N 4045   3.083   1.445  17.138  0.0419  0.6083  0.0968
  267MPD2    H5 4046   3.107   1.365  17.195  3.7811  1.3988 -0.3614
  267MPD2    N1 4047   3.322   1.676  17.503  0.0770  0.2305  0.2631
  267MPD2    H7 4048   3.379   1.760  17.504  0.7987 -0.2617  0.5485
  268TMC3    C1 4049   3.502   1.602  17.625 -0.5492 -0.4407 -0.0496
  268TMC3    C2 4050   3.586   1.682  17.561 -0.0028 -0.2495 -0.3977
  268TMC3    C3 4051   3.719   1.669  17.601 -0.6124  0.0750  0.1734
  268TMC3    C4 4052   3.537   1.528   0.031  0.8211 -1.0657 -0.1972
  268TMC3    C5 4053   3.669   1.525   0.074  0.9887 -0.3871 -0.0949
  268TMC3    C6 4054   3.765   1.594   0.007 -0.1487  0.1932  0.3353
  268TMC3     C 4055   3.377   1.570  17.567 -0.4788 -0.4124 -0.3506
  268TMC3     O 4056   3.321   1.461  17.593  1.2717 -0.3387  0.0100
  268TMC3     H 4057   3.553   1.771  17.509 -0.8267  0.4563  1.3505
  268TMC3    H1 4058   3.471   1.449   0.065  0.9213 -0.7599  0.7138
  268TMC3    H2 4059   3.861   1.622   0.048  0.1806  1.0323 -0.9990
  268TMC3    C7 4060   3.702   1.469   0.204 -0.8310 -0.8609 -0.0919
  268TMC3    C8 4061   3.824   1.719  17.517 -0.6053  0.0056 -0.0631
  268TMC3    O1 4062   3.611   1.482   0.292 -0.1760  0.5097  0.1509
  268TMC3    O2 4063   3.928   1.761  17.568 -0.3652 -0.3910  0.1420
  269MPD2     C 4064   3.236   4.123  15.933 -0.8842 -0.0685 -0.3999
  269MPD2    C1 4065   3.129   4.104  15.841  0.8203  0.0296  0.1856
  269MPD2    C2 4066   3.126   4.195  15.736 -0.4169  0.6383  0.3978
  269MPD2    C3 4067   3.220   4.290  15.713 -1.2497  0.1251 -0.1395
  269MPD2    C4 4068   3.324   4.307  15.804  0.0691 -0.1661 -0.0395
  269MPD2    C5 4069   3.331   4.221  15.911  0.1165 -0.3709 -0.5070
  269MPD2     H 4070   3.042   4.190  15.669 -0.1076  2.3046 -0.1354
  269MPD2    H1 4071   3.394   4.390  15.800 -0.1311  0.0073  0.0639
  269MPD2    H2 4072   3.234   4.071  16.028  0.3076  0.2528 -0.2140
  269MPD2    H3 4073   3.406   4.253  15.984 -1.2815  3.4256 -0.7386
  269MPD2     N 4074   3.211   4.383  15.603 -0.2078  0.3385 -0.1038
  269MPD2    H5 4075   3.119   4.391  15.560  0.8846 -0.1847 -2.5564
  269MPD2    N1 4076   3.036   4.002  15.873 -0.6892 -0.3857 -0.3908
  269MPD2    H7 4077   3.048   3.946  15.957 -1.8567 -0.2152 -0.1069
  270TMC3    C1 4078   2.850   3.837  15.818 -0.0528 -1.1007  0.4432
  270TMC3    C2 4079   2.767   3.798  15.719 -0.0784 -0.0915 -0.5568
  270TMC3    C3 4080   2.708   3.676  15.726 -0.4661  0.3420 -0.3175
  270TMC3    C4 4081   2.885   3.750  15.917  0.2902 -0.5300 -0.0993
  270TMC3    C5 4082   2.826   3.621  15.927 -0.4427  0.1001 -0.1196
  270TMC3    C6 4083   2.730   3.594  15.837  0.3261  0.9053 -0.5109
  270TMC3     C 4084   2.940   3.952  15.785 -0.5138 -0.2261  0.0075
  270TMC3     O 4085   2.927   3.977  15.668  0.2771 -0.0237 -0.8045
  270TMC3     H 4086   2.737   3.860  15.635 -0.4331 -0.6530 -0.8506
  270TMC3    H1 4087   2.961   3.773  15.991  0.7609  2.0462 -1.4053
  270TMC3    H2 4088   2.692   3.493  15.832  2.3730  0.1042 -0.0448
  270TMC3    C7 4089   2.932   3.528  15.925  0.3022  0.0310  0.4672
  270TMC3    C8 4090   2.699   3.599  15.607  0.8691  0.3059  0.1198
  270TMC3    O1 4091   3.046   3.567  15.897  0.1524 -0.4729 -0.5052
  270TMC3    O2 4092   2.617   3.511  15.601  0.4463 -0.3350  0.1603
  271MPD2     C 4093   2.672   4.124  13.973 -0.1534 -0.1812  0.0199
  271MPD2    C1 4094   2.610   4.070  14.086  0.1251 -0.1847  0.5630
  271MPD2    C2 4095   2.486   4.133  14.125  0.4655  0.3796  0.4542
  271MPD2    C3 4096   2.438   4.240  14.057  0.2202 -0.7071  0.5171
  271MPD2    C4 4097   2.506   4.286  13.947  0.7433 -0.2365  0.9867
  271MPD2    C5 4098   2.621   4.227  13.904  0.8092  0.7621  0.0872
  271MPD2     H 4099   2.431   4.100  14.213 -1.7260 -0.7068 -1.3318
  271MPD2    H1 4100   2.467   4.372  13.893 -0.9888 -0.8527  1.2661
  271MPD2    H2 4101   2.762   4.083  13.928 -0.8571 -1.5799 -0.1334
  271MPD2    H3 4102   2.664   4.271  13.814  1.4490  0.8838  0.4528
  271MPD2     N 4103   2.310   4.298  14.088 -0.4181  0.3562  0.0324
  271MPD2    H5 4104   2.278   4.366  14.020  1.7189  0.2941 -1.0519
  271MPD2    N1 4105   2.655   3.964  14.165 -0.3094  0.3336 -0.2520
  271MPD2    H7 4106   2.600   3.956  14.249 -1.2217 -0.8363 -0.9611
  272TMC3    C1 4107   2.808   3.807  14.252  0.1245  0.5357 -0.4039
  272TMC3    C2 4108   2.938   3.773  14.267  0.1895 -0.9209  0.7501
  272TMC3    C3 4109   2.978   3.723  14.390 -0.0028  0.0215  0.1238
  272TMC3    C4 4110   2.716   3.792  14.352 -0.2287  0.6019 -0.0863
  272TMC3    C5 4111   2.769   3.744  14.472  0.9854  0.7998 -0.0535
  272TMC3    C6 4112   2.899   3.708  14.496  0.0823 -0.0938  0.8065
  272TMC3     C 4113   2.770   3.888  14.139  0.5078 -0.9183  0.3441
  272TMC3     O 4114   2.839   3.894  14.037  0.0766 -0.1794  0.0038
  272TMC3     H 4115   3.010   3.788  14.187 -1.2163 -2.2679 -0.7549
  272TMC3    H1 4116   2.610   3.812  14.338 -0.4844 -0.5672  0.2259
  272TMC3    H2 4117   2.938   3.672  14.591 -0.8720  0.6530  1.4789
  272TMC3    C7 4118   2.685   3.764  14.592  0.0201  0.4009  0.3615
  272TMC3    C8 4119   3.121   3.700  14.401 -0.1995 -0.4886  0.1978
  272TMC3    O1 4120   2.564   3.760  14.572  0.4199  0.4046  0.0857
  272TMC3    O2 4121   3.189   3.749  14.308  0.4742 -0.4600 -0.3724
  273MPD2     C 4122   4.203   2.230  11.869 -0.9015  0.0599  0.3261
  273MPD2    C1 4123   4.278   2.345  11.861  0.0273  0.4724 -0.4760
  273MPD2    C2 4124   4.275   2.422  11.744  0.4097  0.2984  0.5565
  273MPD2    C3 4125   4.210   2.373  11.635 -0.2693  0.1744  1.1250
  273MPD2    C4 4126   4.130   2.257  11.645  0.1771 -0.0142 -0.6158
  273MPD2    C5 4127   4.133   2.183  11.763 -0.2086  0.8834 -0.7229
  273MPD2     H 4128   4.325   2.518  11.740 -1.4835  1.1033 -2.9106
  273MPD2    H1 4129   4.075   2.222  11.557 -2.0220  2.0903 -0.0904
  273MPD2    H2 4130   4.206   2.167  11.957  1.7623  0.8816  0.8240
  273MPD2    H3 4131   4.081   2.088  11.774 -2.4673  2.1930 -0.2514
  273MPD2     N 4132   4.199   2.450  11.514 -0.1713  0.0110  0.1736
  273MPD2    H5 4133   4.117   2.437  11.455  1.0553 -3.5624 -0.7682
  273MPD2    N1 4134   4.337   2.405  11.971 -0.0636 -0.2799  0.2617
  273MPD2    H7 4135   4.298   2.376  12.060  1.5690 -0.2422  0.9889
  274TMC3    C1 4136   4.269   2.618  11.364 -0.1313 -0.1776 -0.1239
  274TMC3    C2 4137   4.153   2.593  11.296 -0.5722 -0.2730 -0.1702
  274TMC3    C3 4138   4.093   2.695  11.238 -0.5547  0.8440 -0.4394
  274TMC3    C4 4139   4.320   2.741  11.374 -0.4502  0.4894 -0.0782
  274TMC3    C5 4140   4.252   2.844  11.320  0.1060 -0.3977  0.0314
  274TMC3    C6 4141   4.146   2.820  11.235  0.4839 -0.0755 -0.2475
  274TMC3     C 4142   4.301   2.538  11.482 -0.0891  0.3178  0.1463
  274TMC3     O 4143   4.411   2.543  11.531  0.1995 -0.4039  0.8027
  274TMC3     H 4144   4.116   2.491  11.290 -2.3050  0.2940  0.8522
  274TMC3    H1 4145   4.395   2.758  11.450 -3.3244 -0.9343  3.0907
  274TMC3    H2 4146   4.077   2.897  11.204  0.3170 -0.0473  0.1919
  274TMC3    C7 4147   4.234   2.961  11.402  0.5242 -0.2250  0.5701
  274TMC3    C8 4148   4.002   2.657  11.132  0.4339  0.2984  0.2874
  274TMC3    O1 4149   4.121   3.000  11.422  0.4806  0.3247  0.6144
  274TMC3    O2 4150   3.917   2.570  11.146 -0.3433  0.0670 -0.6358
  275MPD2     C 4151   4.216   0.182  14.322  0.3111  0.0586 -0.1658
  275MPD2    C1 4152   4.151   0.209  14.433  0.6621  0.4302 -0.3468
  275MPD2    C2 4153   4.019   0.167  14.440  0.0715 -0.4307 -0.0964
  275MPD2    C3 4154   3.963   0.086  14.343  0.6078 -0.0127 -0.5562
  275MPD2    C4 4155   4.033   0.039  14.238 -0.3506  1.1160 -0.2746
  275MPD2    C5 4156   4.159   0.100  14.221 -0.3341 -0.1670 -0.1452
  275MPD2     H 4157   3.964   0.207  14.525  1.4621 -1.0439  1.0930
  275MPD2    H1 4158   3.992   4.685  14.176 -2.9538  1.0200  1.5559
  275MPD2    H2 4159   4.314   0.219  14.293  1.0581 -0.7577  1.2681
  275MPD2    H3 4160   4.221   0.067  14.137  0.4456 -0.7321  0.6479
  275MPD2     N 4161   3.833   0.035  14.355 -0.9277 -0.1833 -0.5745
  275MPD2    H5 4162   3.789   0.002  14.270 -1.2877 -3.2943  0.8405
  275MPD2    N1 4163   4.192   0.288  14.543 -0.3381 -0.9019 -0.4289
  275MPD2    H7 4164   4.127   0.313  14.617 -0.9948 -0.0729 -1.2871
  276TMC3    C1 4165   4.328   0.295  14.719 -0.3087 -0.1764 -0.0109
  276TMC3    C2 4166   4.231   0.225  14.789  0.3936  0.0995  0.4339
  276TMC3    C3 4167   4.223   0.255  14.921  0.2133  0.2792 -0.1354
  276TMC3    C4 4168   4.408   0.387  14.771  1.0234 -0.6489  0.3051
  276TMC3    C5 4169   4.409   0.394  14.906 -0.2946  0.1022 -0.3547
  276TMC3    C6 4170   4.318   0.329  14.985  0.0063  0.1159 -0.5132
  276TMC3     C 4171   4.318   0.298  14.577  0.0076  0.2878 -0.0313
  276TMC3     O 4172   4.418   0.292  14.508  0.2800  0.6094  0.2750
  276TMC3     H 4173   4.155   0.163  14.743  2.1670 -2.0282  0.3894
  276TMC3    H1 4174   4.463   0.447  14.699  1.1152 -0.3873  0.5959
  276TMC3    H2 4175   4.316   0.340  15.093  0.3626  0.3664 -0.5312
  276TMC3    C7 4176   4.503   0.483  14.977 -0.7730 -0.5474  0.0335
  276TMC3    C8 4177   4.110   0.207  15.001  0.2785 -0.3030 -0.0067
  276TMC3    O1 4178   4.472   0.501  15.094 -0.2230 -0.7444 -0.4573
  276TMC3    O2 4179   4.076   0.278  15.095  0.4430 -0.1654  0.5518
  277MPD2     C 4180   1.435   4.075  13.666  0.3718 -0.6952 -0.2597
  277MPD2    C1 4181   1.303   4.076  13.625 -0.0870 -0.4317  0.8179
  277MPD2    C2 4182   1.213   4.027  13.713 -0.1233 -0.0132  0.1652
  277MPD2    C3 4183   1.246   3.981  13.838  0.0962 -0.4441  1.0118
  277MPD2    C4 4184   1.376   3.987  13.880  0.2585 -0.5024  0.1633
  277MPD2    C5 4185   1.472   4.036  13.797  0.7892  0.4784  0.3623
  277MPD2     H 4186   1.109   4.042  13.687 -0.1052 -0.4713 -0.1803
  277MPD2    H1 4187   1.405   3.951  13.978 -0.5210 -1.4398  0.0458
  277MPD2    H2 4188   1.518   4.100  13.601  0.1584 -1.0105 -0.6532
  277MPD2    H3 4189   1.577   4.035  13.824  1.0427 -0.0459 -0.6416
  277MPD2     N 4190   1.146   3.938  13.928 -1.0971  0.4124  0.0392
  277MPD2    H5 4191   1.184   3.913  14.019 -0.2813 -0.6862 -0.5998
  277MPD2    N1 4192   1.274   4.128  13.495  1.1240 -0.2914  0.7014
  277MPD2    H7 4193   1.354   4.155  13.439  1.5322 -0.5415  1.1641
  278TMC3    C1 4194   0.942   3.888  14.030  0.3914  0.0075 -0.1153
  278TMC3    C2 4195   0.977   3.764  14.082  0.9193 -0.6533  0.2012
  278TMC3    C3 4196   0.873   3.691  14.127  0.5699 -0.1216 -0.2427
  278TMC3    C4 4197   0.814   3.938  14.036  0.4856 -0.5505  0.0201
  278TMC3    C5 4198   0.709   3.853  14.064 -0.3913 -0.3787 -0.0227
  278TMC3    C6 4199   0.737   3.723  14.115 -0.6589  0.4725  0.1944
  278TMC3     C 4200   1.014   3.918  13.907  0.1032 -0.3190  0.3525
  278TMC3     O 4201   0.939   3.954  13.817  0.5726  0.1617 -0.6020
  278TMC3     H 4202   1.070   3.715  14.056 -0.0398 -2.4455  0.1702
  278TMC3    H1 4203   0.796   4.042  14.009 -0.5219  0.1548  3.4667
  278TMC3    H2 4204   0.658   3.656  14.145 -0.3913  0.3813  0.6896
  278TMC3    C7 4205   0.574   3.917  14.077 -0.8711  0.7464  0.4986
  278TMC3    C8 4206   0.907   3.554  14.124 -0.5134 -0.2269  0.4334
  278TMC3    O1 4207   0.574   4.038  14.077 -0.3419 -0.0050  0.2305
  278TMC3    O2 4208   1.008   3.520  14.182  0.4933  0.1645  0.2737
  279MPD2     C 4209   4.362   4.277   0.379 -0.4563  0.3086 -0.7470
  279MPD2    C1 4210   4.363   4.412   0.398 -0.6076  0.8847  0.1449
  279MPD2    C2 4211   4.468   4.488   0.346  0.2570 -0.5093  0.1322
  279MPD2    C3 4212   4.572   4.426   0.278  0.2735 -0.1075 -0.1261
  279MPD2    C4 4213   4.557   4.292   0.234 -0.2998 -0.2123  0.8564
  279MPD2    C5 4214   4.454   4.221   0.299  0.1586 -0.3800  0.3161
  279MPD2     H 4215   4.466   4.592   0.375 -1.8696 -0.1026 -1.3955
  279MPD2    H1 4216   4.624   4.244   0.164 -0.0746  0.9084  0.2945
  279MPD2    H2 4217   4.278   4.223   0.421  0.8189 -2.2233 -1.5091
  279MPD2    H3 4218   4.433   4.120   0.264  2.4086 -0.9040  0.4782
  279MPD2     N 4219   4.680   4.500   0.232 -0.1005  0.3107  0.9152
  279MPD2    H5 4220   0.001   4.464   0.149  1.4065  0.1920  1.8062
  279MPD2    N1 4221   4.243   4.464   0.445  1.0716  0.5256 -0.0912
  279MPD2    H7 4222   4.174   4.392   0.466  0.7048  1.0739  0.5979
  280TMC3    C1 4223   4.080   4.625   0.500 -0.2047 -1.3261  0.8578
  280TMC3    C2 4224   4.033   4.546   0.599  0.0589 -0.1449  0.8709
  280TMC3    C3 4225   3.921   4.583   0.672  0.4153  0.0374 -0.8119
  280TMC3    C4 4226   4.021   0.020   0.472 -0.4159 -0.3095  0.1558
  280TMC3    C5 4227   3.915   0.057   0.551  0.3157  0.1489 -0.7865
  280TMC3    C6 4228   3.857   4.703   0.649 -0.0492  0.0137 -0.9314
  280TMC3     C 4229   4.199   4.597   0.426 -0.0571  0.2780 -0.1942
  280TMC3     O 4230   4.262   4.699   0.400  0.5010  0.2612  0.1483
  280TMC3     H 4231   4.101   4.464   0.623 -1.0647 -2.0432 -2.4816
  280TMC3    H1 4232   4.067   0.094   0.408 -2.9509  0.5582 -0.6739
  280TMC3    H2 4233   3.767   0.014   0.698  0.6725  2.3871 -1.3825
  280TMC3    C7 4234   3.853   0.190   0.542  0.1207  0.2474  0.0437
  280TMC3    C8 4235   3.856   4.476   0.739 -0.5143  0.0290  0.4843
  280TMC3    O1 4236   3.786   0.224   0.638  0.4891 -0.2914  0.0231
  280TMC3    O2 4237   3.909   4.363   0.732 -0.1647  0.5552 -0.2391
  281TMC3    C1 4238   3.703   4.154  13.498 -0.1739 -0.1432 -0.8322
  281TMC3    C2 4239   3.824   4.191  13.461  0.8744  0.4183 -0.0605
  281TMC3    C3 4240   3.875   4.118  13.354  0.3717  0.0807 -0.6621
  281TMC3    C4 4241   3.643   4.033  13.460  0.0300  0.0466 -0.0084
  281TMC3    C5 4242   3.711   3.952  13.370  0.1125 -0.2144  0.4044
  281TMC3    C6 4243   3.827   3.997  13.315  0.0296 -0.8563 -0.1458
  281TMC3     C 4244   3.633   4.239  13.597 -0.3547  0.2898 -0.2024
  281TMC3     O 4245   3.542   4.182  13.656 -0.2615 -0.0648 -0.0753
  281TMC3     H 4246   3.872   4.283  13.492  1.0834 -0.2036  1.4496
  281TMC3    H1 4247   3.549   4.002  13.504 -0.4967  2.0958  0.2959
  281TMC3    H2 4248   3.873   3.931  13.243 -0.2454  1.9236 -2.8387
  281TMC3    C7 4249   3.666   3.820  13.343  0.4347 -0.5945 -0.4025
  281TMC3    C8 4250   4.009   4.137  13.311 -0.0489 -0.2494  0.3487
  281TMC3    O1 4251   3.686   3.783  13.229  0.4477 -0.2054  0.5618
  281TMC3    O2 4252   4.074   4.034  13.317  0.2032 -0.7155 -0.0529
  282MPD2     C 4253   0.737   0.667  14.816 -0.0955 -0.1954 -0.1537
  282MPD2    C1 4254   0.683   0.791  14.828  0.4180 -0.6934 -0.7541
  282MPD2    C2 4255   0.694   0.879  14.722  0.2511  1.3079  0.2512
  282MPD2    C3 4256   0.760   0.849  14.601 -0.4087 -0.2312  0.7193
  282MPD2    C4 4257   0.806   0.711  14.581 -0.9555 -0.3988  0.5691
  282MPD2    C5 4258   0.792   0.629  14.691 -0.5132  0.3125  0.0221
  282MPD2     H 4259   0.665   0.982  14.739  0.8296  1.2147  1.8004
  282MPD2    H1 4260   0.861   0.679  14.493  1.0280  3.0252  0.5421
  282MPD2    H2 4261   0.716   0.591  14.890 -0.2946  0.1830  0.1778
  282MPD2    H3 4262   0.842   0.534  14.675  0.4055  1.0495 -1.4451
  282MPD2     N 4263   0.791   0.946  14.497 -0.5233  0.2283  0.6795
  282MPD2    H5 4264   0.745   1.037  14.502 -0.8935  0.2683 -3.4000
  282MPD2    N1 4265   0.625   0.842  14.948  0.4751  0.1946  0.1421
  282MPD2    H7 4266   0.592   0.938  14.944 -2.3056 -0.6893  2.1120
  283TMC3    C1 4267   0.559   0.849  15.168 -0.2127 -1.0253  0.4067
  283TMC3    C2 4268   0.579   0.985  15.171 -0.4364 -0.3659  0.2573
  283TMC3    C3 4269   0.553   1.050  15.291  0.5009  0.8307  0.4893
  283TMC3    C4 4270   0.514   0.777  15.270  0.2838 -0.2478 -0.0018
  283TMC3    C5 4271   0.470   0.850  15.377  0.0811  0.2937  0.6430
  283TMC3    C6 4272   0.478   0.987  15.385  0.6547  0.1986 -0.3256
  283TMC3     C 4273   0.623   0.772  15.068 -0.2742  0.9608 -0.6129
  283TMC3     O 4274   0.665   0.663  15.103  0.2017 -0.3866 -0.8134
  283TMC3     H 4275   0.623   1.043  15.090  0.2573  1.3202  1.8339
  283TMC3    H1 4276   0.511   0.669  15.266  1.3819 -0.2754 -0.0350
  283TMC3    H2 4277   0.455   1.050  15.470  0.2735 -1.8984  1.1216
  283TMC3    C7 4278   0.401   0.785  15.490 -0.1226  0.3504 -0.0156
  283TMC3    C8 4279   0.521   1.185  15.272 -0.2491  0.2241 -0.4544
  283TMC3    O1 4280   0.391   0.849  15.594  0.4205  0.0233 -0.1139
  283TMC3    O2 4281   0.619   1.252  15.232 -0.1459  0.5524 -0.1612
  284MPD2     C 4282   4.225   0.431  12.288 -0.7730 -0.0283 -0.2271
  284MPD2    C1 4283   4.196   0.470  12.159  0.7996 -0.2695 -0.0380
  284MPD2    C2 4284   4.092   0.406  12.096  0.1968 -0.3252 -0.2399
  284MPD2    C3 4285   4.024   0.299  12.155  0.4176 -0.0278 -0.5511
  284MPD2    C4 4286   4.070   0.255  12.277  0.1612  0.7373 -0.0570
  284MPD2    C5 4287   4.174   0.317  12.338 -0.1279  1.1776 -0.2246
  284MPD2     H 4288   4.069   0.445  11.998 -0.0973 -0.9788 -0.4328
  284MPD2    H1 4289   4.012   0.177  12.325 -1.5585  1.0674 -1.5935
  284MPD2    H2 4290   4.309   0.467  12.346 -0.1318  1.8236 -2.2877
  284MPD2    H3 4291   4.206   0.289  12.437  0.9362 -1.7426 -1.3992
  284MPD2     N 4292   3.924   0.230  12.092 -0.0207 -0.3644 -0.0939
  284MPD2    H5 4293   3.895   0.142  12.133  0.1013 -0.0713  0.6275
  284MPD2    N1 4294   4.261   0.577  12.093 -0.1819  0.0794  0.2268
  284MPD2    H7 4295   4.232   0.599  11.998 -0.1395 -0.3180  0.1227
  285TMC3    C1 4296   4.434   0.720  12.039  0.5469  0.1961 -0.4040
  285TMC3    C2 4297   4.440   0.662  11.917 -0.1738 -0.0653 -0.2020
  285TMC3    C3 4298   4.528   0.723  11.824  0.8005 -0.3584 -0.6342
  285TMC3    C4 4299   4.508   0.825  12.076 -0.4386  0.0642 -0.1615
  285TMC3    C5 4300   4.594   0.872  11.986  0.3415  0.2171  0.0322
  285TMC3    C6 4301   4.613   0.828  11.857  0.4075 -0.4210 -0.1035
  285TMC3     C 4302   4.369   0.641  12.140 -0.1425 -0.0438  0.1114
  285TMC3     O 4303   4.419   0.633  12.254 -0.1088 -0.2548 -0.0733
  285TMC3     H 4304   4.392   0.571  11.882  2.3375 -1.4950  0.0609
  285TMC3    H1 4305   4.507   0.858  12.179 -0.0525  2.1618 -0.8394
  285TMC3    H2 4306   4.663   0.888  11.781  1.0790 -1.1614 -0.2441
  285TMC3    C7 4307   4.652   0.998  12.012  0.2988 -0.3602  0.8404
  285TMC3    C8 4308   4.514   0.683  11.680  0.7750 -0.0224 -0.6332
  285TMC3    O1 4309   4.592   1.085  12.074 -0.7053 -0.1359 -0.0720
  285TMC3    O2 4310   4.401   0.651  11.645  0.8627 -0.0907  0.0506
  286MPD2     C 4311   4.141   4.485   1.466 -0.0494 -0.0058 -0.4629
  286MPD2    C1 4312   4.082   4.416   1.367 -0.5337  0.0389 -0.1705
  286MPD2    C2 4313   4.130   4.287   1.336 -0.4985  0.6049 -0.9662
  286MPD2    C3 4314   4.245   4.240   1.386 -0.1457 -0.5734  0.1456
  286MPD2    C4 4315   4.305   4.316   1.486  0.4746 -0.4954  0.1919
  286MPD2    C5 4316   4.256   4.441   1.527 -0.4324 -0.4795 -0.1371
  286MPD2     H 4317   4.086   4.236   1.251 -0.6234  0.4609 -0.8136
  286MPD2    H1 4318   4.397   4.281   1.533 -0.1295 -0.6168  1.2765
  286MPD2    H2 4319   4.103   4.578   1.505  2.0827 -0.2316  2.1654
  286MPD2    H3 4320   4.308   4.495   1.605 -3.8293  0.4275  1.5267
  286MPD2     N 4321   4.298   4.115   1.347 -0.3082  0.8486  0.4787
  286MPD2    H5 4322   4.388   4.085   1.381  0.3753  0.2720 -1.7981
  286MPD2    N1 4323   3.964   4.458   1.300  0.2441  0.6413 -0.2214
  286MPD2    H7 4324   3.929   4.394   1.230  0.5329  1.4110 -1.0667
  287TMC3    C1 4325   4.331   3.904   1.254 -0.2184  0.8557 -0.9471
  287TMC3    C2 4326   4.305   3.824   1.144  0.1391  0.1516 -0.1849
  287TMC3    C3 4327   4.379   3.708   1.145 -0.7393  0.0636 -0.0400
  287TMC3    C4 4328   4.435   3.883   1.341 -0.2982 -0.0971 -0.0887
  287TMC3    C5 4329   4.492   3.760   1.341  0.2704 -0.4875 -0.3548
  287TMC3    C6 4330   4.485   3.681   1.232  0.4944 -0.2956  0.8124
  287TMC3     C 4331   4.248   4.029   1.258 -0.2972 -0.5700  0.1812
  287TMC3     O 4332   4.149   4.026   1.186 -0.2785 -0.3149 -0.5842
  287TMC3     H 4333   4.222   3.846   1.078 -0.1959  1.2730  0.6329
  287TMC3    H1 4334   4.434   3.940   1.433 -1.9390 -0.5764  0.1958
  287TMC3    H2 4335   4.549   3.595   1.215 -1.8729 -2.3425  2.1189
  287TMC3    C7 4336   4.585   3.727   1.448  0.4561  0.3563 -0.2755
  287TMC3    C8 4337   4.369   3.619   1.027  0.5726 -0.4455  0.0644
  287TMC3    O1 4338   4.619   3.818   1.525 -0.0198  0.6535 -0.3012
  287TMC3    O2 4339   4.452   3.528   1.032 -0.0718 -0.1172  0.2594
  288TMC3    C1 4340   0.955   3.408  14.601 -0.2145  1.5662  0.3993
  288TMC3    C2 4341   0.874   3.388  14.707 -0.1932 -0.2706  0.1919
  288TMC3    C3 4342   0.857   3.504  14.778 -0.6375  0.2958 -0.4161
  288TMC3    C4 4343   0.998   3.522  14.546  1.2946 -0.1813  0.3815
  288TMC3    C5 4344   0.966   3.638  14.610  0.3337  0.3705 -0.3368
  288TMC3    C6 4345   0.895   3.628  14.731 -0.2252 -0.3250 -0.0806
  288TMC3     C 4346   1.001   3.280  14.542  0.9311 -0.2265  0.3574
  288TMC3     O 4347   0.976   3.177  14.604 -0.0160  0.4649  0.0408
  288TMC3     H 4348   0.860   3.293  14.758  0.5816 -0.4425  0.0878
  288TMC3    H1 4349   1.044   3.514  14.448  2.5185  0.7382  0.8715
  288TMC3    H2 4350   0.856   3.714  14.784  2.6143  0.8916  0.0445
  288TMC3    C7 4351   0.964   3.761  14.538  0.0348 -0.0852  0.0926
  288TMC3    C8 4352   0.801   3.498  14.913  0.7223  0.2775  0.6522
  288TMC3    O1 4353   0.908   3.852  14.587 -0.1590  0.2772 -0.1310
  288TMC3    O2 4354   0.835   3.588  14.987 -0.5872  0.6000  0.7520
  289MPD2     C 4355   1.011   2.445  14.736 -0.6450 -0.1554  0.3343
  289MPD2    C1 4356   1.041   2.581  14.720 -0.2114  0.0645 -0.6920
  289MPD2    C2 4357   0.984   2.661  14.617  0.9791 -0.1837  0.6701
  289MPD2    C3 4358   0.910   2.603  14.519  0.0789  0.2173  0.5847
  289MPD2    C4 4359   0.886   2.465  14.527 -0.3216  0.2442  0.0707
  289MPD2    C5 4360   0.925   2.398  14.637  0.8902  0.2255 -0.2207
  289MPD2     H 4361   1.004   2.767  14.616 -1.6322  0.3003  0.4677
  289MPD2    H1 4362   0.832   2.407  14.453  0.3842 -0.7746  0.3493
  289MPD2    H2 4363   1.049   2.382  14.816  0.4720 -1.3625 -1.1422
  289MPD2    H3 4364   0.897   2.293  14.641  0.2666  0.4207  0.4033
  289MPD2     N 4365   0.846   2.665  14.413  0.5980  0.4497 -0.1714
  289MPD2    H5 4366   0.811   2.613  14.334 -2.0828  0.4976  1.0024
  289MPD2    N1 4367   1.119   2.640  14.822  0.6761  0.6826  0.6329
  289MPD2    H7 4368   1.122   2.583  14.906 -1.3003  0.4522  0.5559
  290TMC3    C1 4369   0.775   2.842  14.275 -0.6127 -0.6317 -0.0546
  290TMC3    C2 4370   0.699   2.952  14.267  0.3691  1.3463  0.8518
  290TMC3    C3 4371   0.677   2.998  14.143 -0.5185  0.5339 -0.5104
  290TMC3    C4 4372   0.826   2.769  14.165  0.0312 -0.6041 -0.5298
  290TMC3    C5 4373   0.792   2.817  14.047 -0.5021  0.5723  0.4618
  290TMC3    C6 4374   0.728   2.935  14.029  0.2961  0.3555 -0.4827
  290TMC3     C 4375   0.828   2.802  14.409 -0.0037  0.3627 -0.2171
  290TMC3     O 4376   0.837   2.886  14.499  0.2381 -0.3397  0.7476
  290TMC3     H 4377   0.669   3.005  14.357 -0.0318  1.7435  0.4831
  290TMC3    H1 4378   0.894   2.687  14.186  0.2027 -0.3803 -0.2101
  290TMC3    H2 4379   0.713   2.978  13.930 -1.9542 -0.2960 -0.4422
  290TMC3    C7 4380   0.856   2.754  13.935  0.1112  0.1753  1.3767
  290TMC3    C8 4381   0.585   3.111  14.116  0.6242  0.8900  0.4423
  290TMC3    O1 4382   0.895   2.831  13.847 -0.0522 -0.4159  0.4710
  290TMC3    O2 4383   0.524   3.105  14.009  0.3577 -0.1234 -0.1665
  291MPD2     C 4384   0.520   3.149   0.456  0.5170 -0.4491  0.8175
  291MPD2    C1 4385   0.614   3.109   0.363 -0.3707 -0.2653  0.7061
  291MPD2    C2 4386   0.644   3.210   0.266 -0.2511  0.2748  0.6894
  291MPD2    C3 4387   0.582   3.337   0.259 -0.1889 -0.4766  0.1937
  291MPD2    C4 4388   0.484   3.365   0.353  0.1206 -0.5923  0.0827
  291MPD2    C5 4389   0.459   3.270   0.448 -0.1181  1.4521 -0.9865
  291MPD2     H 4390   0.714   3.186   0.187  1.2379  1.0035  1.7903
  291MPD2    H1 4391   0.422   3.453   0.364  0.7946 -0.0346 -0.6083
  291MPD2    H2 4392   0.489   3.073   0.527 -1.1205 -1.5406 -1.0725
  291MPD2    H3 4393   0.386   3.300   0.522 -0.9951  1.1215 -1.7131
  291MPD2     N 4394   0.617   3.437   0.160  0.0292 -0.1498 -0.5096
  291MPD2    H5 4395   0.561   3.522   0.160  0.9899  0.4853 -1.1998
  291MPD2    N1 4396   0.672   2.984   0.352  0.0541  0.3901  0.0089
  291MPD2    H7 4397   0.728   2.971   0.268 -0.8594 -3.8830  0.0163
  292TMC3    C1 4398   0.749   2.770   0.406  0.6656 -0.1417 -0.1119
  292TMC3    C2 4399   0.832   2.706   0.491 -0.1556  0.3941 -0.6488
  292TMC3    C3 4400   0.883   2.584   0.449  0.2849 -0.6957  0.1557
  292TMC3    C4 4401   0.716   2.715   0.284 -0.0942 -0.4724  0.8887
  292TMC3    C5 4402   0.762   2.591   0.253 -0.6301 -0.3353  0.1966
  292TMC3    C6 4403   0.844   2.519   0.336  0.2020 -0.5756 -0.4459
  292TMC3     C 4404   0.679   2.893   0.447  0.2054 -0.4743  1.2057
  292TMC3     O 4405   0.664   2.908   0.569  0.3275 -0.1700 -0.0478
  292TMC3     H 4406   0.861   2.755   0.583 -0.7677 -1.3939  0.4917
  292TMC3    H1 4407   0.637   2.764   0.227  0.0175  1.3485  2.3099
  292TMC3    H2 4408   0.869   2.416   0.313  0.6075 -0.6400  0.3160
  292TMC3    C7 4409   0.669   2.513   0.164 -0.1662 -0.3068 -0.4524
  292TMC3    C8 4410   0.963   2.502   0.535 -0.2065 -0.1968  0.3248
  292TMC3    O1 4411   0.712   2.441   0.073 -0.3138  0.3450 -0.0002
  292TMC3    O2 4412   1.037   2.420   0.476 -0.4956 -0.2020 -0.0523
  293MPD2     C 4413   2.129   4.404  12.678  0.5227 -0.4734 -0.0116
  293MPD2    C1 4414   2.050   4.317  12.755 -0.2596 -0.4139  0.0878
  293MPD2    C2 4415   2.079   4.303  12.890  0.1748  0.6159 -0.2144
  293MPD2    C3 4416   2.185   4.376  12.947 -0.5753  0.3444 -0.7580
  293MPD2    C4 4417   2.264   4.453  12.862 -0.2272 -0.0401 -0.0075
  293MPD2    C5 4418   2.232   4.475  12.731  0.3220 -0.5836 -0.4650
  293MPD2     H 4419   2.013   4.240  12.949  1.3166  0.6069  1.0299
  293MPD2    H1 4420   2.347   4.513  12.898 -0.1196 -0.0379 -0.2584
  293MPD2    H2 4421   2.091   4.425  12.578  1.8702  1.3136 -0.1446
  293MPD2    H3 4422   2.291   4.530  12.659 -0.1706  1.6752  0.8829
  293MPD2     N 4423   2.213   4.363  13.085  0.3632  0.5112  0.1195
  293MPD2    H5 4424   2.162   4.287  13.129 -0.7738  0.3960 -1.4194
  293MPD2    N1 4425   1.934   4.282  12.681 -0.3636  0.0507  0.2407
  293MPD2    H7 4426   1.933   4.286  12.579 -1.1924 -1.2442  0.1953
  294TMC3    C1 4427   1.727   4.164  12.660  0.1647  0.8984 -0.6180
  294TMC3    C2 4428   1.662   4.049  12.698  0.5335  0.7111  0.3043
  294TMC3    C3 4429   1.566   3.996  12.623 -0.6869  0.3089 -0.0095
  294TMC3    C4 4430   1.698   4.232  12.547  0.5744 -0.5541 -0.7928
  294TMC3    C5 4431   1.600   4.173  12.468  0.0429  0.1881  0.7668
  294TMC3    C6 4432   1.530   4.061  12.506 -0.8339  0.2134  0.2106
  294TMC3     C 4433   1.840   4.198  12.742  0.3075 -0.0297 -0.6238
  294TMC3     O 4434   1.839   4.164  12.859  0.0585 -0.0028  0.0426
  294TMC3     H 4435   1.708   3.993  12.778  0.5465  0.3358  0.0346
  294TMC3    H1 4436   1.752   4.319  12.514 -1.7979  0.8328 -1.0153
  294TMC3    H2 4437   1.462   4.013  12.435  0.3990  1.4859 -1.8422
  294TMC3    C7 4438   1.559   4.229  12.340 -0.0067 -0.3375  0.0478
  294TMC3    C8 4439   1.544   3.859  12.642 -0.6501  0.2053  0.1076
  294TMC3    O1 4440   1.498   4.151  12.274 -0.1059  0.1410 -0.1369
  294TMC3    O2 4441   1.638   3.793  12.687  0.6208  0.7242  0.0709
  295MPD2     C 4442   2.417   2.433   0.474  0.2981  0.6260  0.1768
  295MPD2    C1 4443   2.505   2.530   0.426  0.2712 -0.4986  0.4246
  295MPD2    C2 4444   2.533   2.633   0.516  0.6486 -0.4876 -0.1268
  295MPD2    C3 4445   2.470   2.649   0.640 -0.2458 -0.5270  0.4601
  295MPD2    C4 4446   2.381   2.551   0.677  0.3673  0.1592 -0.4793
  295MPD2    C5 4447   2.374   2.445   0.598 -0.8878  0.8181  0.2129
  295MPD2     H 4448   2.608   2.704   0.482 -0.6531  0.8700 -0.1406
  295MPD2    H1 4449   2.332   2.555   0.773 -1.4495 -1.8986 -1.3249
  295MPD2    H2 4450   2.396   2.337   0.429  2.0995  0.8295 -1.0814
  295MPD2    H3 4451   2.316   2.361   0.635 -0.1627  0.8527  1.4308
  295MPD2     N 4452   2.490   2.757   0.728 -0.3304 -0.6108 -0.2936
  295MPD2    H5 4453   2.430   2.748   0.810 -0.3758 -0.2394 -0.2886
  295MPD2    N1 4454   2.564   2.530   0.298 -0.5825 -0.1686  0.6869
  295MPD2    H7 4455   2.628   2.607   0.281  0.9285 -1.3546  1.0396
  296TMC3    C1 4456   2.585   2.957   0.824  0.0350 -0.5000  0.3992
  296TMC3    C2 4457   2.681   3.057   0.819  0.2622  0.2557 -0.5443
  296TMC3    C3 4458   2.664   3.169   0.893  0.3128 -0.4098 -0.3055
  296TMC3    C4 4459   2.472   2.964   0.904 -0.1260  0.0354 -0.2987
  296TMC3    C5 4460   2.459   3.078   0.979 -1.3606  0.6578 -0.8054
  296TMC3    C6 4461   2.547   3.188   0.965 -0.3060  0.4122  0.5225
  296TMC3     C 4462   2.592   2.849   0.725  0.6868 -0.3970  0.1929
  296TMC3     O 4463   2.677   2.866   0.637 -0.0894  0.0673  0.0892
  296TMC3     H 4464   2.766   3.051   0.753 -0.3264 -0.1876 -1.2683
  296TMC3    H1 4465   2.408   2.879   0.924 -0.7294  0.3379 -0.9250
  296TMC3    H2 4466   2.541   3.273   1.033 -0.1886  0.1315  0.8800
  296TMC3    C7 4467   2.385   3.095   1.095  0.3078  0.2010 -0.4655
  296TMC3    C8 4468   2.775   3.270   0.911 -0.3567  0.3467  0.1640
  296TMC3    O1 4469   2.348   3.206   1.123  0.1593 -0.2686 -0.2809
  296TMC3    O2 4470   2.746   3.385   0.941  0.2440  0.1769  0.1479
  297MPD2     C 4471   4.435   4.563  16.437  0.3192 -0.2432  0.3440
  297MPD2    C1 4472   4.389   4.638  16.327 -0.0431  0.0264  0.3065
  297MPD2    C2 4473   4.471   0.013  16.277  0.4016  0.0594 -0.6782
  297MPD2    C3 4474   4.588   0.046  16.338  0.5202  0.3672 -0.2965
  297MPD2    C4 4475   4.627   4.701  16.452  0.2143 -0.0175 -0.0253
  297MPD2    C5 4476   4.547   4.601  16.502  0.2882  0.4676 -0.2839
  297MPD2     H 4477   4.436   0.075  16.194 -2.2348 -0.6487 -0.0994
  297MPD2    H1 4478   4.719   4.713  16.507 -0.7234  1.1967  1.2514
  297MPD2    H2 4479   4.375   4.485  16.483 -0.5117  0.2373  0.0870
  297MPD2    H3 4480   4.587   4.542  16.583 -0.5282 -0.7902 -0.7987
  297MPD2     N 4481   4.668   0.156  16.290  0.3481 -0.2767  0.5113
  297MPD2    H5 4482   4.634   0.188  16.200  1.2808  0.1463  0.3101
  297MPD2    N1 4483   4.265   4.616  16.265  0.0357  0.3882  0.4635
  297MPD2    H7 4484   4.232   4.684  16.198  0.2252  0.0665  0.0450
  298TMC3    C1 4485   4.046   4.528  16.233 -0.2497 -0.8376 -0.4663
  298TMC3    C2 4486   3.975   4.415  16.210  0.4422  0.1582  0.6530
  298TMC3    C3 4487   3.840   4.438  16.183 -0.1792 -0.3223  0.8550
  298TMC3    C4 4488   3.986   4.649  16.271 -0.2498 -0.1973 -0.1540
  298TMC3    C5 4489   3.856   4.659  16.243 -0.0158  0.1648 -0.1005
  298TMC3    C6 4490   3.778   4.556  16.197 -0.2367  0.5025  0.0603
  298TMC3     C 4491   4.180   4.511  16.293  0.4263  0.8645  0.1950
  298TMC3     O 4492   4.203   4.405  16.345 -0.3083 -0.0241 -0.4476
  298TMC3     H 4493   4.016   4.315  16.201 -0.4552 -0.0675 -0.9443
  298TMC3    H1 4494   4.038   0.015  16.295  0.6139 -0.4259 -1.1731
  298TMC3    H2 4495   3.671   4.558  16.183 -0.6772  1.1691  3.5273
  298TMC3    C7 4496   3.796   0.063  16.272 -0.0491 -0.4454  0.0205
  298TMC3    C8 4497   3.775   4.336  16.100 -0.4840  0.0713 -0.0247
  298TMC3    O1 4498   3.860   0.145  16.341 -0.2006  0.3678  0.7129
  298TMC3    O2 4499   3.653   4.328  16.119 -0.3556  0.3872 -0.2496
  299MPD2     C 4500   0.207   4.682  11.275 -0.6937 -0.5232  0.3020
  299MPD2    C1 4501   0.319   4.671  11.197 -0.6052 -0.6266 -0.0645
  299MPD2    C2 4502   0.299   4.637  11.060  0.0530  0.0485 -0.1106
  299MPD2    C3 4503   0.173   4.637  11.002  0.3497 -0.0746  0.5955
  299MPD2    C4 4504   0.066   4.660  11.088 -0.1254 -0.4898  0.1216
  299MPD2    C5 4505   0.085   4.680  11.224 -0.3280 -0.0356 -0.5723
  299MPD2     H 4506   0.391   4.621  11.005  0.2884  2.1453 -0.3012
  299MPD2    H1 4507   4.689   4.656  11.050 -0.5958  1.0513  1.2308
  299MPD2    H2 4508   0.228   4.699  11.380  1.7255  0.7264 -0.3813
  299MPD2    H3 4509   4.723   4.688  11.288  1.0386  1.9896  1.0409
  299MPD2     N 4510   0.153   4.634  10.866  0.1642  0.0512 -0.0032
  299MPD2    H5 4511   0.055   4.646  10.841  0.0716 -0.8356 -0.0707
  299MPD2    N1 4512   0.450   4.681  11.259  0.7704 -0.0493 -0.1662
  299MPD2    H7 4513   0.450   4.682  11.361 -0.9857  0.9667 -0.1757
  300TMC3    C1 4514   0.194   4.609  10.641 -0.0256 -0.5806 -0.5845
  300TMC3    C2 4515   0.260   4.526  10.560  0.1681  0.5993  0.6419
  300TMC3    C3 4516   0.248   4.549  10.430  0.0555 -0.4876 -0.3132
  300TMC3    C4 4517   0.117   4.713  10.601 -0.6268  0.4755  0.0302
  300TMC3    C5 4518   0.085   4.714  10.466 -0.1187  0.1408  0.3296
  300TMC3    C6 4519   0.158   4.639  10.380  0.9814 -0.3753  1.0444
  300TMC3     C 4520   0.252   4.614  10.777 -0.6590 -0.8997 -0.9496
  300TMC3     O 4521   0.373   4.591  10.782 -0.9089  0.0225  0.0473
  300TMC3     H 4522   0.298   4.431  10.598  1.5202  1.4479  1.4295
  300TMC3    H1 4523   0.067   0.055  10.670 -1.7046 -0.7953  0.4951
  300TMC3    H2 4524   0.151   4.655  10.273 -0.3577 -0.4818  1.1173
  300TMC3    C7 4525   4.719   0.093  10.427  0.4427 -0.7929 -0.4074
  300TMC3    C8 4526   0.376   4.553  10.374  0.2941  0.8392  0.3710
  300TMC3    O1 4527   4.715   0.119  10.308  0.2060 -0.5014 -0.1462
  300TMC3    O2 4528   0.384   4.565  10.257  0.2881 -0.4418  0.1083
  301MPD2     C 4529   2.860   0.663  17.464 -0.0766  0.5444 -0.3536
  301MPD2    C1 4530   2.782   0.727  17.560  0.6926  0.1049 -0.4828
  301MPD2    C2 4531   2.785   0.688  17.687 -0.9888 -0.5150  0.7254
  301MPD2    C3 4532   2.844   0.565   0.012 -0.4366 -0.8215 -0.2346
  301MPD2    C4 4533   2.922   0.501  17.620 -0.5667 -0.1984 -0.1529
  301MPD2    C5 4534   2.925   0.549  17.493  0.4718 -1.1078  0.1231
  301MPD2     H 4535   2.719   0.742   0.052  0.6364  0.9843  1.1078
  301MPD2    H1 4536   2.976   0.411  17.648 -0.1376  0.3933  0.9508
  301MPD2    H2 4537   2.862   0.700  17.363 -0.2030 -0.8716 -0.8685
  301MPD2    H3 4538   2.997   0.520  17.418 -1.0113 -0.7701 -1.4354
  301MPD2     N 4539   2.839   0.492   0.136 -0.4104  0.1498 -0.2716
  301MPD2    H5 4540   2.881   0.400   0.141 -0.9203 -0.1445 -1.3654
  301MPD2    N1 4541   2.686   0.828  17.533 -0.0075 -0.1383 -0.3891
  301MPD2    H7 4542   2.635   0.862  17.614  0.8666  0.8353 -0.2408
  302TMC3    C1 4543   2.768   0.434   0.350  0.8376  0.5478 -0.7215
  302TMC3    C2 4544   2.795   0.460   0.482  0.1353 -0.9099 -0.5516
  302TMC3    C3 4545   2.811   0.358   0.574  0.1059 -0.1272  0.4524
  302TMC3    C4 4546   2.750   0.305   0.310  0.1365 -0.1089 -0.1318
  302TMC3    C5 4547   2.774   0.203   0.398 -0.0801  0.5306 -0.2877
  302TMC3    C6 4548   2.799   0.227   0.531  0.7127 -0.3291 -0.0682
  302TMC3     C 4549   2.785   0.539   0.251 -0.4939 -0.2649 -0.8254
  302TMC3     O 4550   2.773   0.653   0.292 -0.2739  0.1399 -0.1765
  302TMC3     H 4551   2.791   0.562   0.517  0.5957 -1.1902  0.3163
  302TMC3    H1 4552   2.718   0.284   0.209  0.4202 -1.0620 -0.0223
  302TMC3    H2 4553   2.819   0.137   0.588  0.4712 -0.9008 -0.8816
  302TMC3    C7 4554   2.692   0.081   0.389  0.4029  0.6065 -0.4974
  302TMC3    C8 4555   2.798   0.384   0.719 -0.1389 -0.1510  0.3653
  302TMC3    O1 4556   2.749   4.697   0.387 -0.8565 -0.5936 -0.1204
  302TMC3    O2 4557   2.800   0.502   0.750 -0.0421  0.2575  0.5734
  303MPD2     C 4558   2.639   4.568  10.460  0.0562 -0.6270 -0.2178
  303MPD2    C1 4559   2.667   4.444  10.403 -0.8092  0.2451 -0.5105
  303MPD2    C2 4560   2.636   4.412  10.273 -0.5931  0.1833  0.3420
  303MPD2    C3 4561   2.566   4.509  10.202 -0.2993 -0.7534  1.0796
  303MPD2    C4 4562   2.539   4.637  10.257  0.8247 -0.3382 -0.4662
  303MPD2    C5 4563   2.577   4.665  10.387 -0.2244 -0.8561  0.2905
  303MPD2     H 4564   2.659   4.319  10.224 -0.2385  0.5988 -0.2860
  303MPD2    H1 4565   2.494   4.715  10.196  0.7049 -0.1678 -0.1614
  303MPD2    H2 4566   2.660   4.581  10.566 -1.0127 -3.4934  0.3367
  303MPD2    H3 4567   2.567   0.044  10.415  0.3961 -1.0658  1.2842
  303MPD2     N 4568   2.523   4.490  10.070 -0.0869  0.8228  0.3131
  303MPD2    H5 4569   2.482   4.568  10.019 -0.2929 -0.6636 -1.7925
  303MPD2    N1 4570   2.722   4.351  10.485 -0.2792 -0.0366  0.3797
  303MPD2    H7 4571   2.735   4.372  10.584 -1.0535  0.3005  0.4054
  304TMC3    C1 4572   2.836   4.172  10.570  0.2593 -0.0007 -0.2784
  304TMC3    C2 4573   2.772   4.070  10.640  0.1815  0.8197 -0.1707
  304TMC3    C3 4574   2.841   3.956  10.664  0.3771  0.2035 -0.1810
  304TMC3    C4 4575   2.968   4.158  10.532 -0.1507 -0.1206 -0.0646
  304TMC3    C5 4576   3.039   4.043  10.572 -0.1016  0.5113  0.3656
  304TMC3    C6 4577   2.974   3.955  10.649 -0.0178  0.7617  0.0097
  304TMC3     C 4578   2.762   4.220  10.459 -0.6233  0.0929  0.3901
  304TMC3     O 4579   2.755   4.163  10.350 -0.5128 -0.8186 -0.2442
  304TMC3     H 4580   2.664   4.063  10.648  0.2260 -1.5003 -1.4692
  304TMC3    H1 4581   3.020   4.222  10.462 -2.3124  1.6256 -0.0422
  304TMC3    H2 4582   3.022   3.863  10.678 -0.2369  0.1022 -1.7470
  304TMC3    C7 4583   3.136   3.996  10.480  0.1697  0.3722 -0.0062
  304TMC3    C8 4584   2.770   3.843  10.603  0.0840 -0.1208 -0.1938
  304TMC3    O1 4585   3.131   3.875  10.462 -0.2574 -0.0911 -0.2625
  304TMC3    O2 4586   2.648   3.828  10.619  0.0007  0.5714 -0.0305
  305MPD2     C 4587   0.726   1.328  13.747 -0.1099 -0.0811 -0.1491
  305MPD2    C1 4588   0.849   1.282  13.761 -0.0518 -0.2225 -0.2469
  305MPD2    C2 4589   0.901   1.195  13.664 -0.9379  0.0921  0.0463
  305MPD2    C3 4590   0.820   1.163  13.560  0.0137  0.2244 -0.5106
  305MPD2    C4 4591   0.703   1.233  13.535 -1.0310  0.1296  1.4775
  305MPD2    C5 4592   0.658   1.309  13.632  0.4142 -0.0362 -0.2087
  305MPD2     H 4593   1.004   1.162  13.658 -1.3595 -1.3016  0.5147
  305MPD2    H1 4594   0.641   1.211  13.449 -1.7941  0.2993  1.9743
  305MPD2    H2 4595   0.691   1.402  13.817  0.5594 -1.3878  1.5660
  305MPD2    H3 4596   0.566   1.365  13.616  0.0655 -0.2006  1.1983
  305MPD2     N 4597   0.852   1.069  13.467  0.0061 -0.2344  0.0401
  305MPD2    H5 4598   0.803   1.074  13.379 -1.4674  0.6773  0.9184
  305MPD2    N1 4599   0.918   1.312  13.889 -0.1257 -0.4948 -0.1145
  305MPD2    H7 4600   0.872   1.378  13.949 -0.4590  0.3205 -1.2651
  306TMC3    C1 4601   1.079   1.321  14.069 -0.2417  0.3064  0.5087
  306TMC3    C2 4602   1.209   1.312  14.099  0.0977  0.3415 -0.0972
  306TMC3    C3 4603   1.252   1.365  14.222 -0.0015 -0.0477 -0.2943
  306TMC3    C4 4604   0.990   1.371  14.157  0.0297 -0.4127 -0.3123
  306TMC3    C5 4605   1.026   1.422  14.276 -0.4082  0.1776  0.3041
  306TMC3    C6 4606   1.162   1.424  14.312 -0.0928 -0.5987 -0.0809
  306TMC3     C 4607   1.042   1.272  13.926  0.0385  0.3233 -0.0364
  306TMC3     O 4608   1.124   1.218  13.852 -0.3077  0.1375  0.5349
  306TMC3     H 4609   1.273   1.273  14.021  0.7573  0.9951  0.1143
  306TMC3    H1 4610   0.885   1.360  14.130  0.2411 -0.5314 -1.0917
  306TMC3    H2 4611   1.190   1.484  14.398 -2.1912  1.1564 -0.6161
  306TMC3    C7 4612   0.919   1.430  14.373 -0.4123 -0.1212  0.2724
  306TMC3    C8 4613   1.391   1.338  14.257 -0.1482 -0.0465  0.4443
  306TMC3    O1 4614   0.811   1.464  14.327 -0.1735 -0.0846 -0.0053
  306TMC3    O2 4615   1.468   1.297  14.167  0.4020 -0.7396  0.6793
  307MPD2     C 4616   3.371   3.750   0.951 -0.1061 -0.5384  0.5079
  307MPD2    C1 4617   3.311   3.812   0.850 -0.0559  0.2389 -0.3671
  307MPD2    C2 4618   3.230   3.919   0.865 -0.1391  0.2076  0.3110
  307MPD2    C3 4619   3.210   3.971   0.995 -0.1512 -0.3164  0.1883
  307MPD2    C4 4620   3.268   3.901   1.100 -0.3470  0.9653 -0.0880
  307MPD2    C5 4621   3.349   3.794   1.076  0.2694  0.2978 -0.0727
  307MPD2     H 4622   3.182   3.968   0.782  1.6068  0.9366 -0.2697
  307MPD2    H1 4623   3.259   3.923   1.206 -1.6790  0.1085 -0.0189
  307MPD2    H2 4624   3.441   3.668   0.938 -0.2112 -0.9021  2.2552
  307MPD2    H3 4625   3.395   3.745   1.161 -0.5347 -1.3539 -0.5938
  307MPD2     N 4626   3.127   4.079   1.012  0.0848 -0.3790 -0.2448
  307MPD2    H5 4627   3.082   4.121   0.931 -1.3100  0.2321  0.8360
  307MPD2    N1 4628   3.330   3.774   0.713 -0.2458 -0.2713  0.0450
  307MPD2    H7 4629   3.282   3.834   0.646 -0.4203 -1.1363 -0.6124
  308TMC3    C1 4630   2.834   4.349   0.982 -0.2594  0.2988  0.2440
  308TMC3    C2 4631   2.871   4.462   1.042 -0.3664 -0.5868 -0.0475
  308TMC3    C3 4632   2.959   4.460   1.146 -0.1750 -0.3508 -0.1079
  308TMC3    C4 4633   2.900   4.233   1.014 -0.3561  0.8691  0.1717
  308TMC3    C5 4634   2.997   4.239   1.111  0.1893  1.0028  0.3273
  308TMC3    C6 4635   3.026   4.345   1.186  0.1611  1.2666 -0.8202
  308TMC3     C 4636   2.795   4.368   0.843 -0.4331 -0.2320  0.4427
  308TMC3     O 4637   2.852   4.456   0.783  0.0993  0.7703 -0.1739
  308TMC3     H 4638   2.815   4.550   1.010 -0.6201 -0.7347 -0.0105
  308TMC3    H1 4639   2.872   4.139   0.968 -0.9539  1.7418 -1.2778
  308TMC3    H2 4640   3.108   4.357   1.256  0.9549 -1.1379 -1.3210
  308TMC3    C7 4641   3.080   4.125   1.133 -0.2416  0.0358  0.1644
  308TMC3    C8 4642   3.063   4.554   1.118  0.3467  0.3621  0.1583
  308TMC3    O1 4643   3.083   4.075   1.244 -0.1754 -0.1396  0.1674
  308TMC3    O2 4644   3.121   4.596   1.219  0.4318  0.2990  0.4832
  309MPD2     C 4645   2.326   4.711  17.418  0.3739 -0.4984 -0.0878
  309MPD2    C1 4646   2.266   4.682  17.295  0.3985  0.2080 -0.2069
  309MPD2    C2 4647   2.135   4.648  17.288  0.4387 -0.4481 -0.0894
  309MPD2    C3 4648   2.051   4.664  17.396 -0.0594 -0.5257  0.6776
  309MPD2    C4 4649   2.113   4.696  17.517  0.0489 -0.4915 -0.6803
  309MPD2    C5 4650   2.248   4.703  17.535 -0.4565 -0.1797  0.4020
  309MPD2     H 4651   2.097   4.621  17.190  1.5000  0.4177 -0.7286
  309MPD2    H1 4652   2.057   4.698  17.610 -1.1829  0.3522 -1.4389
  309MPD2    H2 4653   2.433   4.721  17.425  0.4171 -0.5395 -0.7296
  309MPD2    H3 4654   2.289   0.002  17.632 -1.0404  1.3657  0.2589
  309MPD2     N 4655   1.913   4.660  17.384 -0.0706  0.1319  0.5509
  309MPD2    H5 4656   1.853   4.668  17.466 -1.7470  1.0609 -0.7617
  309MPD2    N1 4657   2.338   4.679  17.166  0.4694  0.6509  0.2582
  309MPD2    H7 4658   2.286   4.667  17.080 -1.1655 -2.1503  1.6110
  310TMC3    C1 4659   2.527   4.674  17.025 -0.4421  0.4371  0.2245
  310TMC3    C2 4660   2.452   4.723  16.916  0.2055  0.1398  0.3919
  310TMC3    C3 4661   2.508   0.002  16.797  0.4735  0.0529 -0.4511
  310TMC3    C4 4662   2.648   4.615  17.010  0.2937  0.2000  0.4610
  310TMC3    C5 4663   2.700   4.618  16.885 -0.7692 -0.5925  0.2170
  310TMC3    C6 4664   2.631   4.674  16.778  0.5410  0.3238  0.0215
  310TMC3     C 4665   2.473   4.688  17.159  0.3389 -0.2212 -0.4562
  310TMC3     O 4666   2.560   4.705  17.245 -0.0625 -0.1217  0.1557
  310TMC3     H 4667   2.362   0.059  16.924 -1.7102 -3.1933  4.5437
  310TMC3    H1 4668   2.701   4.578  17.097  1.2156 -0.4746 -0.3822
  310TMC3    H2 4669   2.674   4.664  16.679 -2.0001  0.6730 -1.1059
  310TMC3    C7 4670   2.826   4.542  16.858 -0.8623  0.4329 -0.4487
  310TMC3    C8 4671   2.426   0.052  16.684  0.0137 -0.7989 -0.8092
  310TMC3    O1 4672   2.855   4.484  16.958  0.2252  0.2167  0.4335
  310TMC3    O2 4673   2.310   0.018  16.669  0.4705  0.4407  0.3371
  311MPD2     C 4674   0.195   1.177  12.406  0.2017 -0.1875 -0.7477
  311MPD2    C1 4675   0.141   1.236  12.519  0.2083  0.3742 -0.3051
  311MPD2    C2 4676   0.009   1.217  12.548 -0.7420  0.0948  0.2591
  311MPD2    C3 4677   4.660   1.116  12.482 -0.5363  0.6117  0.2859
  311MPD2    C4 4678   4.719   1.059  12.370 -1.1559 -0.4370 -0.4505
  311MPD2    C5 4679   0.121   1.085  12.331  0.1751 -0.0069 -0.2821
  311MPD2     H 4680   4.690   1.260  12.637 -4.0374 -2.3948 -0.1777
  311MPD2    H1 4681   4.659   0.989  12.314 -4.4729  0.4470  1.9643
  311MPD2    H2 4682   0.291   1.203  12.363  0.1446  1.4322  0.0836
  311MPD2    H3 4683   0.153   1.019  12.251  0.3989 -0.8861  0.5322
  311MPD2     N 4684   4.537   1.088  12.537 -0.0011 -0.4281  0.6932
  311MPD2    H5 4685   4.514   1.129  12.627 -1.7883  0.1932 -0.0384
  311MPD2    N1 4686   0.211   1.311  12.615 -0.4016 -0.8795 -0.0749
  311MPD2    H7 4687   0.153   1.358  12.685  1.1397  0.8945  0.0216
  312TMC3    C1 4688   4.302   1.037  12.530 -0.2455  0.0547  0.6563
  312TMC3    C2 4689   4.184   1.060  12.456 -0.0300 -0.6211  0.3980
  312TMC3    C3 4690   4.069   1.060  12.523 -0.1678 -0.6315  0.6892
  312TMC3    C4 4691   4.303   1.001  12.667 -0.2522  0.9056  0.1408
  312TMC3    C5 4692   4.181   1.010  12.728  0.1888  0.4824  0.1000
  312TMC3    C6 4693   4.072   1.043  12.660  0.1518 -0.7681 -0.0283
  312TMC3     C 4694   4.430   1.061  12.458  0.3418  1.2755  0.0850
  312TMC3     O 4695   4.428   1.036  12.337 -0.0125  0.1598 -0.0615
  312TMC3     H 4696   4.190   1.095  12.354  0.5014 -0.1574  0.5864
  312TMC3    H1 4697   4.395   0.983  12.723  0.4780 -2.3333 -2.1541
  312TMC3    H2 4698   3.980   1.060  12.715 -0.1384 -1.9185 -0.1699
  312TMC3    C7 4699   4.171   0.909  12.824 -0.4465 -0.0702 -0.2784
  312TMC3    C8 4700   3.942   1.071  12.465  0.2650  0.2508  0.0992
  312TMC3    O1 4701   4.064   0.848  12.816 -0.1060 -0.2157  0.2969
  312TMC3    O2 4702   3.852   1.011  12.522  0.3398  0.1544  0.2402
  313MPD2     C 4703   0.380   0.339  10.485  0.4879  0.3662 -0.1861
  313MPD2    C1 4704   0.254   0.373  10.437 -0.4885 -0.1824  0.1864
  313MPD2    C2 4705   0.223   0.331  10.306  0.1530 -0.2923  0.4981
  313MPD2    C3 4706   0.308   0.252  10.231 -0.1749  0.1264  0.2671
  313MPD2    C4 4707   0.426   0.210  10.282  0.4766  0.7872  0.2479
  313MPD2    C5 4708   0.454   0.249  10.414 -0.2671  0.2263  0.0000
  313MPD2     H 4709   0.125   0.356  10.266  0.3540 -1.4780 -0.7375
  313MPD2    H1 4710   0.491   0.137  10.236 -0.8304 -0.5323  0.5095
  313MPD2    H2 4711   0.422   0.375  10.578  0.0383 -1.6886  0.8279
  313MPD2    H3 4712   0.546   0.212  10.458  1.1016  1.5993 -1.7576
  313MPD2     N 4713   0.262   0.210  10.107 -0.3501  0.6459 -0.6710
  313MPD2    H5 4714   0.167   0.241  10.088 -0.7902 -0.2853 -0.0190
  313MPD2    N1 4715   0.153   0.441  10.506 -0.4001  0.1505  0.2082
  313MPD2    H7 4716   0.077   0.480  10.451 -0.2170 -0.5204 -0.5252
  314TMC3    C1 4717   0.047   0.547  10.687  0.5476 -0.1350  0.2914
  314TMC3    C2 4718   0.052   0.585  10.818 -0.1726 -0.0798 -0.6116
  314TMC3    C3 4719   4.687   0.687  10.862 -0.3249 -0.0596 -0.0954
  314TMC3    C4 4720   4.687   0.600  10.600  0.6247 -0.0024  0.3282
  314TMC3    C5 4721   4.600   0.698  10.644 -0.1310  0.6407  0.1409
  314TMC3    C6 4722   4.597   0.749  10.770  0.0480 -0.7240  0.2580
  314TMC3     C 4723   0.156   0.461  10.638  0.3569  0.1097  0.4637
  314TMC3     O 4724   0.240   0.417  10.717 -0.2769 -0.0074  0.2647
  314TMC3     H 4725   0.129   0.543  10.882 -0.6642  0.4253  0.3126
  314TMC3    H1 4726   4.675   0.550  10.505 -1.9059 -0.8440  1.0915
  314TMC3    H2 4727   4.535   0.834  10.796 -0.4307 -1.1323  0.4483
  314TMC3    C7 4728   4.499   0.763  10.562  0.8785 -0.4632  0.0452
  314TMC3    C8 4729   0.007   0.779  10.967  0.8106  0.7551  0.7067
  314TMC3    O1 4730   4.392   0.796  10.609  0.0711  0.0878  0.3308
  314TMC3    O2 4731   4.654   0.865  11.003  0.0377  0.5534  0.4389
  315MPD2     C 4732   3.444   0.963   0.236 -0.4501 -0.2405 -0.4704
  315MPD2    C1 4733   3.505   0.833   0.220  1.1253  0.1043  0.8010
  315MPD2    C2 4734   3.594   0.809   0.114 -0.1410 -0.6860  0.2445
  315MPD2    C3 4735   3.620   0.920   0.022 -0.1153  0.6220  0.3647
  315MPD2    C4 4736   3.566   1.041   0.051 -0.4386  0.1772 -0.1067
  315MPD2    C5 4737   3.468   1.068   0.144  0.4057 -0.1157 -0.0543
  315MPD2     H 4738   3.637   0.715   0.082 -0.5192 -1.0386  0.7695
  315MPD2    H1 4739   3.577   1.131  17.693 -0.7472  0.8560  0.8432
  315MPD2    H2 4740   3.362   0.966   0.308 -1.1521  1.5281 -1.3507
  315MPD2    H3 4741   3.417   1.163   0.151  2.8493  1.3045 -1.3380
  315MPD2     N 4742   3.702   0.899  17.612  0.0027  0.7511 -0.5038
  315MPD2    H5 4743   3.727   0.805  17.585  2.6276  1.7346 -1.4461
  315MPD2    N1 4744   3.481   0.720   0.311 -0.6057  0.2849  0.1241
  315MPD2    H7 4745   3.535   0.640   0.279 -0.4065 -0.0936  1.4336
  316TMC3    C1 4746   3.898   0.923  17.500  0.4505  0.4161 -0.5468
  316TMC3    C2 4747   3.963   0.908  17.624  0.0994 -0.9387 -0.5101
  316TMC3    C3 4748   4.004   0.786  17.663  0.3162  1.0447  0.1101
  316TMC3    C4 4749   3.880   0.814  17.417  0.1903 -0.4255  0.2460
  316TMC3    C5 4750   3.941   0.698  17.459  0.0627 -0.2712  0.0341
  316TMC3    C6 4751   4.002   0.679  17.576 -0.5362  0.3410 -0.2960
  316TMC3     C 4752   3.775   0.986  17.538  0.2597 -0.2126  0.3602
  316TMC3     O 4753   3.758   1.107  17.532 -0.4595  1.0625 -0.3626
  316TMC3     H 4754   3.971   0.991  17.694  1.0722  0.9277 -2.8464
  316TMC3    H1 4755   3.798   0.818  17.346  1.1779  0.3213 -0.8327
  316TMC3    H2 4756   4.032   0.577  17.598 -0.8700  0.2789 -0.1281
  316TMC3    C7 4757   3.951   0.585  17.368 -0.6505  0.4971  0.6584
  316TMC3    C8 4758   3.989   0.757   0.101  0.4245 -0.1152  0.8601
  316TMC3    O1 4759   3.939   0.473  17.414  0.4817  0.4333  0.1072
  316TMC3    O2 4760   3.999   0.844   0.182 -0.3574 -0.0320 -0.2552
  317MPD2     C 4761   1.448   3.127  12.713  0.7037 -0.1636 -1.0551
  317MPD2    C1 4762   1.481   2.989  12.696  0.0189  0.0863  0.1325
  317MPD2    C2 4763   1.503   2.914  12.810 -0.4094 -0.4738  0.6087
  317MPD2    C3 4764   1.513   2.967  12.936  0.1815  0.0822  0.3289
  317MPD2    C4 4765   1.468   3.098  12.958 -0.0369 -0.0911 -0.0385
  317MPD2    C5 4766   1.435   3.171  12.841  0.0267  0.0834  0.2032
  317MPD2     H 4767   1.520   2.808  12.795  0.1703  0.3141 -4.2232
  317MPD2    H1 4768   1.430   3.142  13.049  1.2239 -0.5741  0.7153
  317MPD2    H2 4769   1.411   3.185  12.630 -1.6770  0.1202  0.2076
  317MPD2    H3 4770   1.394   3.271  12.841  0.1916  0.1578 -2.3463
  317MPD2     N 4771   1.538   2.863  13.035  0.8086  0.4927  0.1365
  317MPD2    H5 4772   1.560   2.770  13.001  2.5979  1.6931 -1.9596
  317MPD2    N1 4773   1.502   2.932  12.565  0.2813  0.1495  1.1760
  317MPD2    H7 4774   1.525   2.833  12.558  0.4799  0.4174 -1.7270
  318TMC3    C1 4775   1.554   2.775  13.250 -0.4774  0.3501 -0.1554
  318TMC3    C2 4776   1.526   2.651  13.194  0.4229 -0.6355  0.2622
  318TMC3    C3 4777   1.590   2.542  13.251  0.4910  0.3948 -0.2161
  318TMC3    C4 4778   1.650   2.787  13.350 -0.1339 -0.3076 -0.6019
  318TMC3    C5 4779   1.720   2.674  13.396  0.0968  0.6234 -0.2543
  318TMC3    C6 4780   1.686   2.550  13.346 -0.1789  0.0145 -0.5360
  318TMC3     C 4781   1.540   2.890  13.171  0.2992 -0.2650  0.0369
  318TMC3     O 4782   1.521   2.996  13.222  0.6285  0.4010  0.2682
  318TMC3     H 4783   1.474   2.631  13.101 -0.1267 -1.0137  0.6565
  318TMC3    H1 4784   1.689   2.882  13.384 -1.9494 -1.5530  4.9699
  318TMC3    H2 4785   1.725   2.461  13.395 -2.0890  0.6993  2.1788
  318TMC3    C7 4786   1.801   2.689  13.517 -0.0553  0.2539  0.1136
  318TMC3    C8 4787   1.558   2.407  13.207 -0.0501  0.3251  1.1895
  318TMC3    O1 4788   1.783   2.793  13.580 -0.2035  0.1202 -0.1845
  318TMC3    O2 4789   1.646   2.328  13.186 -0.2684  0.2860 -0.4518
  319MPD2     C 4790   1.644   4.317  16.572  0.3386  0.1590  0.0107
  319MPD2    C1 4791   1.565   4.211  16.611  0.8783 -0.3308 -0.1533
  319MPD2    C2 4792   1.490   4.147  16.513 -0.2958  0.3922  0.1053
  319MPD2    C3 4793   1.499   4.181  16.381  0.3016 -0.3820  0.0160
  319MPD2    C4 4794   1.590   4.279  16.343 -0.7299  0.4474 -0.1252
  319MPD2    C5 4795   1.658   4.347  16.439  0.0411 -0.0110 -0.0506
  319MPD2     H 4796   1.424   4.064  16.535 -0.5200 -0.1315 -2.6049
  319MPD2    H1 4797   1.605   4.308  16.240 -1.5661  1.9094  0.1593
  319MPD2    H2 4798   1.718   4.360  16.639 -0.2568 -3.2223  2.7968
  319MPD2    H3 4799   1.738   4.416  16.413  2.0616 -1.6465  1.9212
  319MPD2     N 4800   1.422   4.117  16.281 -0.3360 -0.0241 -0.2832
  319MPD2    H5 4801   1.409   4.167  16.193  1.2340  1.4116  0.2997
  319MPD2    N1 4802   1.560   4.164  16.742 -0.1446 -0.2539  0.2573
  319MPD2    H7 4803   1.502   4.081  16.755 -1.3520  0.0429 -3.3717
  320TMC3    C1 4804   1.319   3.950  16.162 -0.6764 -0.1027  0.1461
  320TMC3    C2 4805   1.306   4.040  16.052 -0.3634 -0.2173 -0.0140
  320TMC3    C3 4806   1.286   3.991  15.921 -0.7172 -0.3152  0.0575
  320TMC3    C4 4807   1.326   3.811  16.135 -0.3587 -0.1462 -0.3297
  320TMC3    C5 4808   1.307   3.770  16.008 -0.4404 -0.4076  0.1796
  320TMC3    C6 4809   1.293   3.854  15.897 -0.4210 -0.3499  0.1533
  320TMC3     C 4810   1.367   3.987  16.290  0.3912 -0.5969 -0.3141
  320TMC3     O 4811   1.368   3.894  16.376  0.0485  0.1119 -0.4115
  320TMC3     H 4812   1.305   4.146  16.071  1.6064 -0.0093 -1.1128
  320TMC3    H1 4813   1.328   3.740  16.217  1.2477 -0.7499 -0.8944
  320TMC3    H2 4814   1.261   3.814  15.802 -0.3522 -1.6764  0.6906
  320TMC3    C7 4815   1.315   3.626  15.974  0.2784 -0.3198  0.3437
  320TMC3    C8 4816   1.254   4.093  15.820 -0.5192  0.7854  0.1582
  320TMC3    O1 4817   1.268   3.583  15.869 -0.1737  0.5351  0.0971
  320TMC3    O2 4818   1.273   4.211  15.851  0.1721  0.2545  0.1792
  321TMC3    C1 4819   1.584   4.152  16.984  1.0821 -0.4170  0.1969
  321TMC3    C2 4820   1.487   4.051  16.994 -0.3022 -0.1491  0.4380
  321TMC3    C3 4821   1.467   3.995  17.112  0.3242  0.1549 -0.4070
  321TMC3    C4 4822   1.650   4.194  17.095 -0.0946  0.2072  0.0395
  321TMC3    C5 4823   1.614   4.147  17.219 -0.2667  0.1836  0.1732
  321TMC3    C6 4824   1.521   4.050  17.229 -0.2682  0.2260  0.2050
  321TMC3     C 4825   1.627   4.212  16.852  0.1511  0.2742  0.2944
  321TMC3     O 4826   1.698   4.314  16.853  0.1518  0.1606 -0.4908
  321TMC3     H 4827   1.455   4.004  16.902  1.2336 -0.6260  0.1405
  321TMC3    H1 4828   1.729   4.266  17.084  0.0509  0.2393  1.2217
  321TMC3    H2 4829   1.490   4.019  17.328 -1.1863 -0.4959 -0.2980
  321TMC3    C7 4830   1.729   4.128  17.308  0.5346 -0.6141 -0.3596
  321TMC3    C8 4831   1.490   3.852  17.100 -0.5300 -0.3957  0.8188
  321TMC3    O1 4832   1.718   4.023  17.365  0.1558 -0.3926 -0.3567
  321TMC3    O2 4833   1.466   3.794  16.996  0.0030  0.0344  0.5676
  322MPD2     C 4834   0.460   0.063  13.816  0.3233 -0.1192 -0.1107
  322MPD2    C1 4835   0.590   0.111  13.804 -0.1992 -0.7303  0.4504
  322MPD2    C2 4836   0.684   0.040  13.742  0.1730  0.6078 -0.5830
  322MPD2    C3 4837   0.641   4.652  13.675 -0.3419 -0.5317 -0.3795
  322MPD2    C4 4838   0.510   4.619  13.660 -0.7988  0.2358  0.0673
  322MPD2    C5 4839   0.424   4.683  13.751  0.6709 -0.0850 -0.1661
  322MPD2     H 4840   0.788   0.070  13.745  0.6963 -1.2743 -0.3231
  322MPD2    H1 4841   0.477   4.532  13.605 -1.1003  0.1887  0.3213
  322MPD2    H2 4842   0.392   0.115  13.882  0.5563  0.2292 -0.1452
  322MPD2    H3 4843   0.320   4.651  13.760  0.8751 -0.5765  0.4633
  322MPD2     N 4844   0.740   4.567  13.619 -0.2460  0.0777  0.1546
  322MPD2    H5 4845   0.835   4.602  13.619 -0.7977  1.5901 -0.6450
  322MPD2    N1 4846   0.624   0.227  13.878 -0.3410  0.1852  0.0424
  322MPD2    H7 4847   0.559   0.254  13.951  0.0453  0.0756  0.4272
  323TMC3    C1 4848   0.752   0.403  13.935 -1.3327 -0.3833  0.1549
  323TMC3    C2 4849   0.811   0.516  13.877 -0.2881  0.2009 -0.4051
  323TMC3    C3 4850   0.859   0.618  13.955  0.9363 -0.1349  0.2098
  323TMC3    C4 4851   0.746   0.384  14.071 -0.1825  0.2252  0.6681
  323TMC3    C5 4852   0.817   0.479  14.148 -0.0635 -0.5784 -1.1043
  323TMC3    C6 4853   0.865   0.596  14.094  0.4261 -0.2281 -0.2037
  323TMC3     C 4854   0.729   0.301  13.845  0.2124  0.5991 -0.2685
  323TMC3     O 4855   0.816   0.293  13.756 -0.1330  0.1280 -0.7349
  323TMC3     H 4856   0.800   0.528  13.770 -1.6272 -0.8419 -0.3884
  323TMC3    H1 4857   0.728   0.283  14.107 -1.4950  0.7360  1.4296
  323TMC3    H2 4858   0.918   0.672  14.150  0.4092 -0.0718 -0.4036
  323TMC3    C7 4859   0.864   0.436  14.279  0.7706  0.3470 -0.0535
  323TMC3    C8 4860   0.984   0.676  13.906  0.1135 -0.8230 -0.4882
  323TMC3    O1 4861   0.843   0.319  14.303  0.2003  0.3832 -0.0696
  323TMC3    O2 4862   1.062   0.724  13.991  0.1818  0.3665 -0.3681
  324MPD2     C 4863   2.897   1.512  14.502  0.1243 -0.2829 -0.0140
  324MPD2    C1 4864   2.950   1.639  14.494 -0.3173 -0.5310 -0.0537
  324MPD2    C2 4865   2.863   1.739  14.457  0.7288  0.1444  0.6414
  324MPD2    C3 4866   2.729   1.717  14.433  0.6238  0.7883  0.1697
  324MPD2    C4 4867   2.671   1.597  14.441  0.9924 -0.0363  0.3848
  324MPD2    C5 4868   2.753   1.496  14.483 -0.0808 -0.0567 -0.3510
  324MPD2     H 4869   2.909   1.837  14.446  1.0578 -0.3437 -2.2592
  324MPD2    H1 4870   2.567   1.581  14.415  1.3671 -0.1347 -1.0375
  324MPD2    H2 4871   2.954   1.420  14.505  1.6454  0.5760 -2.7537
  324MPD2    H3 4872   2.709   1.399  14.463  0.7833 -0.5378  0.0414
  324MPD2     N 4873   2.638   1.822  14.407  0.1407 -0.5922 -0.3200
  324MPD2    H5 4874   2.541   1.792  14.409  0.0526 -0.2567  0.6292
  324MPD2    N1 4875   3.085   1.675  14.531  0.4166  0.2147 -0.7193
  324MPD2    H7 4876   3.124   1.766  14.512  1.7453 -0.4347 -1.0779
  325TMC3    C1 4877   2.538   1.978  14.272  0.6167 -0.4455 -0.6416
  325TMC3    C2 4878   2.445   1.880  14.233  0.3940  0.5192  0.4540
  325TMC3    C3 4879   2.311   1.915  14.218 -0.4830  0.0191  0.5714
  325TMC3    C4 4880   2.496   2.106  14.301 -0.3059  0.0834 -0.2342
  325TMC3    C5 4881   2.358   2.132  14.295 -0.4251 -0.5278  0.4631
  325TMC3    C6 4882   2.262   2.032  14.268  0.3983  0.4526 -0.1262
  325TMC3     C 4883   2.657   1.941  14.346 -0.0124  0.3766 -0.3542
  325TMC3     O 4884   2.754   2.013  14.343  0.6395 -0.2588 -0.0435
  325TMC3     H 4885   2.483   1.783  14.204  0.8998  1.3124 -1.5132
  325TMC3    H1 4886   2.563   2.180  14.344 -0.9156  0.0098  0.8438
  325TMC3    H2 4887   2.157   2.052  14.245 -0.2474 -2.4713  0.3265
  325TMC3    C7 4888   2.310   2.268  14.297 -0.9944  0.4408 -0.1705
  325TMC3    C8 4889   2.219   1.803  14.234 -0.6602 -0.6548  0.4243
  325TMC3    O1 4890   2.391   2.357  14.274 -0.0306 -0.3366  0.0293
  325TMC3    O2 4891   2.117   1.832  14.299  0.5075 -0.0857  0.0628
  326MPD2     C 4892   3.582   2.768  11.248  0.2091 -0.0160 -1.0270
  326MPD2    C1 4893   3.587   2.873  11.161 -0.1856  0.1909 -0.2084
  326MPD2    C2 4894   3.684   2.970  11.174 -0.7084  0.2540  0.2443
  326MPD2    C3 4895   3.776   2.972  11.272  0.3472 -0.3544 -0.1029
  326MPD2    C4 4896   3.772   2.863  11.357  0.1484  0.9899  0.8603
  326MPD2    C5 4897   3.675   2.767  11.343  0.3118 -0.1692  0.2103
  326MPD2     H 4898   3.694   3.051  11.103 -0.4384  0.8903  1.0022
  326MPD2    H1 4899   3.838   2.848  11.442  0.5898 -1.6591  0.0571
  326MPD2    H2 4900   3.514   2.684  11.237 -0.1633  0.1121  0.2505
  326MPD2    H3 4901   3.685   2.674  11.398  1.5140 -0.2870 -0.2108
  326MPD2     N 4902   3.867   3.077  11.293  0.1249  0.6116  0.1336
  326MPD2    H5 4903   3.943   3.055  11.356 -0.0757  0.1407  0.2085
  326MPD2    N1 4904   3.504   2.883  11.049  0.5843  0.3863 -0.0074
  326MPD2    H7 4905   3.517   2.963  10.989  2.0567 -0.2842 -0.5908
  327TMC3    C1 4906   3.381   2.789  10.870  0.5294  0.2728 -0.3060
  327TMC3    C2 4907   3.339   2.907  10.824 -0.0925 -0.1496 -0.2250
  327TMC3    C3 4908   3.354   2.938  10.696  0.6445 -0.1847 -0.0050
  327TMC3    C4 4909   3.424   2.697  10.782  0.6653  0.0639 -0.3571
  327TMC3    C5 4910   3.445   2.728  10.651  0.8565 -0.1702 -0.3792
  327TMC3    C6 4911   3.397   2.842  10.606 -0.9084 -0.6799 -0.8675
  327TMC3     C 4912   3.426   2.777  11.006  0.6684  0.4131  0.8510
  327TMC3     O 4913   3.411   2.666  11.049  0.3840  0.7228  0.2477
  327TMC3     H 4914   3.304   2.985  10.891  0.0821  0.2759 -0.6240
  327TMC3    H1 4915   3.420   2.596  10.820 -0.8506  0.8520  1.5635
  327TMC3    H2 4916   3.410   2.869  10.502  0.5329  0.4470 -0.3962
  327TMC3    C7 4917   3.582   2.721  10.620 -0.1080  0.3417 -0.5481
  327TMC3    C8 4918   3.289   3.057  10.637  1.0168  0.0797 -0.4084
  327TMC3    O1 4919   3.618   2.771  10.510  0.4513  0.0272 -0.3381
  327TMC3    O2 4920   3.350   3.090  10.534 -0.2262 -0.5623  0.1517
  328MPD2     C 4921   1.689   2.698  17.343  0.7449  0.5809 -0.7744
  328MPD2    C1 4922   1.682   2.836  17.306  0.1198 -0.0939 -0.4278
  328MPD2    C2 4923   1.610   2.870  17.192  0.3008 -0.1539  0.2872
  328MPD2    C3 4924   1.558   2.770  17.111  0.5615  0.5453 -0.2009
  328MPD2    C4 4925   1.558   2.635  17.152  0.2834 -0.2977 -0.2451
  328MPD2    C5 4926   1.622   2.600  17.272 -0.0975 -0.1845  0.7571
  328MPD2     H 4927   1.589   2.974  17.166  0.6284  0.0113  0.6774
  328MPD2    H1 4928   1.527   2.552  17.089  0.3096  0.8415 -1.7531
  328MPD2    H2 4929   1.733   2.666  17.437 -1.5224  1.9514  0.7606
  328MPD2    H3 4930   1.621   2.495  17.301 -0.7699  0.2027  2.0899
  328MPD2     N 4931   1.494   2.794  16.990 -0.4325  0.5167  0.0168
  328MPD2    H5 4932   1.457   2.713  16.941  2.5464 -1.5088  1.1238
  328MPD2    N1 4933   1.735   2.939  17.386 -0.3629 -0.2760 -0.3605
  328MPD2    H7 4934   1.804   2.899  17.450 -1.2963 -2.3722 -0.6804
  329TMC3    C1 4935   1.752   3.159  17.492  0.2513 -0.0008  0.1372
  329TMC3    C2 4936   1.694   3.282  17.496  0.1201 -0.3542 -0.1600
  329TMC3    C3 4937   1.742   3.373  17.591 -0.3821 -0.7984  0.2268
  329TMC3    C4 4938   1.859   3.122  17.570  0.4924 -0.7634  0.2349
  329TMC3    C5 4939   1.898   3.222  17.655 -0.8285 -0.9648  0.2908
  329TMC3    C6 4940   1.838   3.343  17.675  0.5956 -0.0670  0.6860
  329TMC3     C 4941   1.690   3.074  17.393  1.1164 -0.3101 -0.4573
  329TMC3     O 4942   1.604   3.128  17.326 -0.2762 -0.1691  0.5715
  329TMC3     H 4943   1.622   3.316  17.423 -0.3434 -0.2547  0.3476
  329TMC3    H1 4944   1.903   3.023  17.564  3.2936  0.6032 -1.8729
  329TMC3    H2 4945   1.877   3.415   0.044  3.5397 -0.7639 -0.2482
  329TMC3    C7 4946   1.993   3.177   0.053  0.1139 -0.4092 -0.1516
  329TMC3    C8 4947   1.690   3.509  17.597  0.3407 -0.6434  0.3544
  329TMC3    O1 4948   1.979   3.055   0.077  0.5603 -0.3414 -0.3738
  329TMC3    O2 4949   1.754   3.595  17.651 -0.0366 -0.1394 -0.0075
  330TMC3    C1 4950   0.126   2.650   9.653  0.5218  0.2430 -0.6177
  330TMC3    C2 4951   0.127   2.551   9.564 -0.3073  0.0951 -0.6597
  330TMC3    C3 4952   0.183   2.431   9.598 -0.5913 -0.2742  0.3125
  330TMC3    C4 4953   0.161   2.629   9.781 -0.5890 -0.2701 -0.3102
  330TMC3    C5 4954   0.203   2.510   9.826 -0.0645  0.5023 -0.5353
  330TMC3    C6 4955   0.227   2.409   9.730 -0.5934 -0.3613  0.0005
  330TMC3     C 4956   0.037   2.764   9.633  0.4044  0.2983  0.0350
  330TMC3     O 4957   0.055   2.859   9.706  0.1292 -0.2902  0.1497
  330TMC3     H 4958   0.117   2.573   9.458  0.8736  1.6537 -0.4578
  330TMC3    H1 4959   0.145   2.710   9.852  0.9276 -2.3416  2.3756
  330TMC3    H2 4960   0.286   2.322   9.756 -0.6674 -0.6039 -0.6245
  330TMC3    C7 4961   0.245   2.490   9.967  0.4518 -0.1263  0.0075
  330TMC3    C8 4962   0.237   2.357   9.482  0.0734 -0.2363  0.0069
  330TMC3    O1 4963   0.225   2.586  10.040  0.4294  0.0101 -1.1443
  330TMC3    O2 4964   0.226   2.388   9.364  0.6791 -0.5155  0.0064
  331MPD2     C 4965   3.010   0.859  12.777  0.2647 -0.8549 -0.9789
  331MPD2    C1 4966   3.025   0.924  12.657 -0.0495 -1.0137 -0.1252
  331MPD2    C2 4967   2.913   0.976  12.595  1.2404  0.3002  0.3244
  331MPD2    C3 4968   2.791   0.980  12.652  0.1100 -1.0458 -0.1747
  331MPD2    C4 4969   2.775   0.921  12.775  0.3938  0.8860  0.4380
  331MPD2    C5 4970   2.883   0.856  12.825  0.5466 -0.1999  0.4263
  331MPD2     H 4971   2.929   1.015  12.495  3.5236 -2.6573 -0.4512
  331MPD2    H1 4972   2.686   0.917  12.837  0.2536 -0.9625  0.1374
  331MPD2    H2 4973   3.086   0.801  12.827  1.4760  3.6109  2.3412
  331MPD2    H3 4974   2.879   0.802  12.918 -0.4437 -0.8751 -0.0121
  331MPD2     N 4975   2.683   1.039  12.578 -0.4495  0.4974  1.0577
  331MPD2    H5 4976   2.704   1.067  12.482 -0.6559 -2.9128  0.0395
  331MPD2    N1 4977   3.159   0.925  12.614  0.1302 -0.5738  0.3383
  331MPD2    H7 4978   3.219   0.856  12.660  0.6187 -0.3757 -0.0057
  332TMC3    C1 4979   2.468   1.096  12.519  0.0959 -0.1311 -0.3147
  332TMC3    C2 4980   2.501   1.181  12.419 -0.7105  0.0340 -0.4787
  332TMC3    C3 4981   2.412   1.181  12.318  0.0533 -0.0735 -0.2851
  332TMC3    C4 4982   2.347   1.035  12.523  0.0396  0.1937 -0.6504
  332TMC3    C5 4983   2.289   0.998  12.403  0.4900  0.0319 -0.0721
  332TMC3    C6 4984   2.314   1.085  12.304 -0.0538  0.6776  0.5002
  332TMC3     C 4985   2.556   1.050  12.619 -0.0375  0.1357  1.0328
  332TMC3     O 4986   2.513   1.020  12.735 -0.0910  0.5635  0.3781
  332TMC3     H 4987   2.594   1.236  12.412 -0.9841  0.6046  0.4246
  332TMC3    H1 4988   2.344   0.964  12.605 -0.4409 -0.7360 -1.4819
  332TMC3    H2 4989   2.260   1.078  12.210  2.6843  1.3945 -1.1081
  332TMC3    C7 4990   2.321   0.853  12.379  1.0986 -0.3139  0.0676
  332TMC3    C8 4991   2.435   1.279  12.214  0.6312 -0.6309  0.3118
  332TMC3    O1 4992   2.281   0.772  12.459 -0.3903  0.4915  0.0287
  332TMC3    O2 4993   2.544   1.334  12.209  0.3498  0.0214  0.3524
  333MPD2     C 4994   2.952   1.267  11.505 -0.1604  0.7460  0.2115
  333MPD2    C1 4995   2.855   1.321  11.425 -0.2138  0.0811  0.3437
  333MPD2    C2 4996   2.721   1.298  11.450 -0.3566 -0.3333  0.0132
  333MPD2    C3 4997   2.686   1.208  11.545  0.4782 -0.1001 -0.0762
  333MPD2    C4 4998   2.782   1.145  11.622  0.4771 -0.4347  0.3206
  333MPD2    C5 4999   2.918   1.179  11.606  0.5628  0.6709  0.7754
  333MPD2     H 5000   2.641   1.348  11.396  0.5763  2.8557  1.5925
  333MPD2    H1 5001   2.752   1.065  11.688  1.6936  0.2438  1.6971
  333MPD2    H2 5002   3.056   1.296  11.496  0.4855 -1.5312  0.2109
  333MPD2    H3 5003   2.992   1.131  11.668  1.7181 -0.6301 -1.5908
  333MPD2     N 5004   2.553   1.183  11.567  0.2053 -0.1833  0.1608
  333MPD2    H5 5005   2.486   1.224  11.502 -1.1642 -1.1319  0.9636
  333MPD2    N1 5006   2.895   1.414  11.325  0.3276  0.6120  0.2740
  333MPD2    H7 5007   2.995   1.410  11.305  0.0940 -1.3127 -0.5948
  334TMC3    C1 5008   2.901   1.585  11.160  0.1256 -0.0136  0.3462
  334TMC3    C2 5009   2.997   1.515  11.090  0.6460 -0.0813  0.6797
  334TMC3    C3 5010   3.072   1.587  11.006  0.4643  0.4538  0.1569
  334TMC3    C4 5011   2.868   1.712  11.141 -0.1421  0.6054  0.0528
  334TMC3    C5 5012   2.935   1.782  11.050 -0.4962  0.2630 -0.4984
  334TMC3    C6 5013   3.043   1.721  10.983 -0.4913  0.0830  0.2026
  334TMC3     C 5014   2.822   1.511  11.253  0.0083  0.3171  0.2408
  334TMC3     O 5015   2.716   1.564  11.290 -0.3553 -0.0307  1.2121
  334TMC3     H 5016   3.012   1.409  11.106 -0.9036 -0.3032  0.6588
  334TMC3    H1 5017   2.793   1.752  11.209  2.9241  0.9930  3.1927
  334TMC3    H2 5018   3.115   1.780  10.929  0.7163 -0.7631  0.8810
  334TMC3    C7 5019   2.942   1.925  11.069 -0.0191 -0.6052 -0.1536
  334TMC3    C8 5020   3.165   1.512  10.916 -0.1303 -0.1421 -0.4943
  334TMC3    O1 5021   3.052   1.979  11.054 -0.3033  0.6422 -0.6937
  334TMC3    O2 5022   3.147   1.393  10.905 -0.5180 -0.3635  0.1427
  335TMC3    C1 5023   2.238   2.723  17.101  0.1991  0.2332 -0.3061
  335TMC3    C2 5024   2.185   2.632  17.013  0.1118  0.6433  0.0249
  335TMC3    C3 5025   2.179   2.672  16.884  0.8977 -0.2489 -0.1632
  335TMC3    C4 5026   2.281   2.849  17.066 -0.0905  0.1987  0.0484
  335TMC3    C5 5027   2.278   2.884  16.933  0.0471 -0.8228  0.1619
  335TMC3    C6 5028   2.218   2.796  16.844 -0.0644  0.8195  0.5868
  335TMC3     C 5029   2.233   2.680  17.240 -0.6470  0.1583  0.1680
  335TMC3     O 5030   2.193   2.567  17.252  0.0663 -0.9933  0.3274
  335TMC3     H 5031   2.177   2.525  17.027  0.7995  0.6823  0.7295
  335TMC3    H1 5032   2.337   2.910  17.136 -0.2746  2.1288 -1.4719
  335TMC3    H2 5033   2.218   2.825  16.739  0.2266  2.5217  1.0520
  335TMC3    C7 5034   2.399   2.931  16.887  0.0535  0.1367 -0.2143
  335TMC3    C8 5035   2.183   2.568  16.786  0.6391  0.9951  0.6125
  335TMC3    O1 5036   2.459   3.007  16.963  0.2162 -0.1138  0.6069
  335TMC3    O2 5037   2.267   2.589  16.698  0.7698  0.1188  0.0178
  336MPD2     C 5038   1.318   0.690  16.416  0.1313 -0.7740 -0.7187
  336MPD2    C1 5039   1.260   0.606  16.322  0.1174  0.2089 -0.1439
  336MPD2    C2 5040   1.283   0.472  16.330 -0.5656  1.1585 -0.5041
  336MPD2    C3 5041   1.373   0.415  16.416 -0.2186 -0.4011 -0.0026
  336MPD2    C4 5042   1.437   0.507  16.499  0.0922 -0.2962  0.3998
  336MPD2    C5 5043   1.402   0.635  16.511 -0.3305 -0.4353  0.4862
  336MPD2     H 5044   1.246   0.409  16.250  1.7679 -2.3603  1.1754
  336MPD2    H1 5045   1.492   0.473  16.586 -2.0669  0.2996  1.9988
  336MPD2    H2 5046   1.296   0.796  16.427  0.9238 -0.4424 -2.3044
  336MPD2    H3 5047   1.459   0.697  16.580  0.2302 -0.0498 -0.3258
  336MPD2     N 5048   1.401   0.281  16.413 -0.1202  0.5909  0.3693
  336MPD2    H5 5049   1.481   0.253  16.468  0.4918  0.1288 -0.7605
  336MPD2    N1 5050   1.169   0.657  16.220  0.3161  0.5855 -0.3771
  336MPD2    H7 5051   1.107   0.582  16.192  0.2838  0.1194  0.9464
  337TMC3    C1 5052   1.090   0.794  16.048 -0.1840  1.0234  0.7244
  337TMC3    C2 5053   0.999   0.692  16.015 -0.0898  0.5012  0.2641
  337TMC3    C3 5054   0.971   0.671  15.884 -0.1708  0.0834 -0.2042
  337TMC3    C4 5055   1.135   0.884  15.954  0.0243  0.0333 -0.8055
  337TMC3    C5 5056   1.101   0.851  15.822  0.3138 -0.1567  0.2863
  337TMC3    C6 5057   1.018   0.752  15.782  0.3325  0.3215  0.7030
  337TMC3     C 5058   1.178   0.779  16.164  0.1156  0.7144 -0.0009
  337TMC3     O 5059   1.256   0.868  16.191 -0.4073  0.2544 -0.4443
  337TMC3     H 5060   0.943   0.635  16.089  2.7220 -2.0714  0.4348
  337TMC3    H1 5061   1.203   0.963  15.983  1.6660 -0.9890 -1.8363
  337TMC3    H2 5062   0.989   0.733  15.679  1.6466 -1.9529  0.7389
  337TMC3    C7 5063   1.215   0.887  15.736 -0.7339  0.2174  0.6430
  337TMC3    C8 5064   0.865   0.572  15.859  0.2644  0.1294 -0.4826
  337TMC3    O1 5065   1.302   0.957  15.789 -0.6779 -0.5657 -0.0562
  337TMC3    O2 5066   0.798   0.534  15.955  0.9231  0.7912 -0.6129
  338MPD2     C 5067   1.690   4.274   1.015 -0.0990 -0.6707  0.6769
  338MPD2    C1 5068   1.670   4.333   0.890 -0.3738  0.4410  0.3148
  338MPD2    C2 5069   1.568   4.419   0.867 -0.0980  0.0360 -0.1780
  338MPD2    C3 5070   1.486   4.457   0.977  0.6390  0.9999  0.0956
  338MPD2    C4 5071   1.504   4.405   1.101 -0.3994 -0.5114 -0.9441
  338MPD2    C5 5072   1.609   4.306   1.118  0.2003 -0.7725 -0.3281
  338MPD2     H 5073   1.541   4.452   0.767 -1.7042 -2.0551 -0.4306
  338MPD2    H1 5074   1.444   4.427   1.188  1.8431  1.2148  0.1491
  338MPD2    H2 5075   1.774   4.212   1.043 -0.3410 -1.4175 -0.2302
  338MPD2    H3 5076   1.633   4.268   1.216  0.1740 -1.3572 -0.5520
  338MPD2     N 5077   1.399   4.563   0.952  0.2180 -0.1961  0.4897
  338MPD2    H5 5078   1.370   4.567   0.855  2.8336 -0.2083 -0.2999
  338MPD2    N1 5079   1.752   4.300   0.780  0.5860 -0.5853  0.6060
  338MPD2    H7 5080   1.726   4.335   0.688 -1.1656 -3.2864  0.0662
  339TMC3    C1 5081   1.252   0.007   0.993  0.2473 -0.1469  0.4783
  339TMC3    C2 5082   1.132   0.023   1.050  0.1677 -0.6117 -0.1971
  339TMC3    C3 5083   1.042   0.083   0.971  0.6079  0.1908  0.3393
  339TMC3    C4 5084   1.290   0.041   0.866 -0.0694  0.6147 -0.7547
  339TMC3    C5 5085   1.197   0.101   0.792 -0.3356  0.5246  0.5183
  339TMC3    C6 5086   1.069   0.122   0.842  0.1123  0.4580  0.2066
  339TMC3     C 5087   1.332   4.633   1.047  0.3266 -0.7405 -0.1003
  339TMC3     O 5088   1.344   4.639   1.172  0.1224  0.1775  0.4602
  339TMC3     H 5089   1.109   4.689   1.138 -4.1536  1.3066 -0.0204
  339TMC3    H1 5090   1.394   0.030   0.835  0.3326  2.5985 -0.1184
  339TMC3    H2 5091   0.984   0.154   0.783 -1.3728 -1.0992  1.4815
  339TMC3    C7 5092   1.222   0.111   0.649  0.4448  0.7640  0.0817
  339TMC3    C8 5093   0.901   0.072   1.002  0.2962 -0.5876 -0.5239
  339TMC3    O1 5094   1.332   0.070   0.613  0.3254 -0.1948  0.9780
  339TMC3    O2 5095   0.819   0.069   0.910  0.5465  0.3530  0.2690
  340MPD2     C 5096   2.320   2.044  10.092 -1.4634 -0.2278 -0.0654
  340MPD2    C1 5097   2.435   2.119  10.075 -0.0872  0.5393 -0.5192
  340MPD2    C2 5098   2.505   2.162  10.185 -0.9280  0.8002  0.0760
  340MPD2    C3 5099   2.470   2.126  10.316 -0.5962 -0.4842  0.5600
  340MPD2    C4 5100   2.355   2.044  10.325  0.4229  0.1975 -1.0731
  340MPD2    C5 5101   2.277   2.015  10.219 -0.8681 -0.5679  0.4568
  340MPD2     H 5102   2.597   2.219  10.181  0.0099 -0.6800  0.6787
  340MPD2    H1 5103   2.313   2.019  10.422  1.2935 -0.6592 -0.9194
  340MPD2    H2 5104   2.270   2.006  10.004 -0.5718 -1.8810  0.1478
  340MPD2    H3 5105   2.185   1.959  10.232 -0.8683 -0.3884  1.2859
  340MPD2     N 5106   2.551   2.167  10.416 -0.5170  0.1627  0.2647
  340MPD2    H5 5107   2.624   2.232  10.389 -0.4444  0.5704  1.4299
  340MPD2    N1 5108   2.472   2.146   9.939  0.5525 -0.1181 -0.0011
  340MPD2    H7 5109   2.409   2.108   9.869  0.8934  0.0091 -0.3816
  341TMC3    C1 5110   2.582   2.230   9.748  0.0391  0.6338 -0.3017
  341TMC3    C2 5111   2.527   2.125   9.677  0.2176  0.1208 -1.0596
  341TMC3    C3 5112   2.591   2.086   9.555 -0.0229 -0.8030 -0.2003
  341TMC3    C4 5113   2.690   2.294   9.700 -0.1790  0.3981 -0.1359
  341TMC3    C5 5114   2.745   2.265   9.578 -0.0671  0.1990 -0.3282
  341TMC3    C6 5115   2.707   2.147   9.513 -0.7300 -0.0289 -0.0803
  341TMC3     C 5116   2.571   2.235   9.896  0.1810 -0.8684  0.3184
  341TMC3     O 5117   2.623   2.327   9.955 -0.1986  1.1325  0.1487
  341TMC3     H 5118   2.425   2.089   9.681  1.1194 -2.1206  1.9994
  341TMC3    H1 5119   2.732   2.371   9.764  0.9857  0.4678 -0.9919
  341TMC3    H2 5120   2.755   2.112   9.422  1.8909  1.1342  0.8539
  341TMC3    C7 5121   2.876   2.322   9.547  0.3331  0.4591  0.3494
  341TMC3    C8 5122   2.551   1.959   9.501  0.3177 -0.7838 -0.0170
  341TMC3    O1 5123   2.952   2.261   9.476  0.0995 -0.1990  0.0308
  341TMC3    O2 5124   2.440   1.910   9.530 -0.4824 -0.3379 -0.3602
  342MPD2     C 5125   4.654   1.130   0.073  0.0299  0.8059  0.2965
  342MPD2    C1 5126   0.060   1.120   0.026 -0.0869 -0.3767  0.0455
  342MPD2    C2 5127   0.141   1.227   0.004  0.5149  0.1495  0.2878
  342MPD2    C3 5128   0.088   1.354   0.032  0.1612 -0.3856 -0.5387
  342MPD2    C4 5129   4.695   1.360   0.099 -0.0734  0.5288 -0.5865
  342MPD2    C5 5130   4.607   1.250   0.101  0.5541  0.1828 -0.3232
  342MPD2     H 5131   0.241   1.215  17.666  0.3455  1.6392 -0.6075
  342MPD2    H1 5132   4.648   1.450   0.137 -1.9111 -0.3338 -0.8296
  342MPD2    H2 5133   4.580   1.051   0.063  0.5040  0.5462 -1.1918
  342MPD2    H3 5134   4.511   1.272   0.145  1.3342 -1.8437  2.3892
  342MPD2     N 5135   0.156   1.482   0.019  0.2092 -0.5195 -0.3162
  342MPD2    H5 5136   0.106   1.565   0.049  0.5463  1.0549 -4.0964
  342MPD2    N1 5137   0.119   0.994  17.699  0.3503 -0.2364  0.0022
  342MPD2    H7 5138   0.209   0.984  17.654  0.3997  0.6874 -0.1042
  343TMC3    C1 5139   0.134   0.761  17.698 -0.0287 -1.1152 -0.1894
  343TMC3    C2 5140   0.183   0.770  17.572 -0.3807  0.2767 -0.1959
  343TMC3    C3 5141   0.214   0.646  17.512  0.3707 -0.4733  0.0924
  343TMC3    C4 5142   0.101   0.640   0.053 -0.0714 -0.2559  0.0534
  343TMC3    C5 5143   0.149   0.525  17.690  0.1615 -0.3388  0.0024
  343TMC3    C6 5144   0.207   0.523  17.569 -0.1599  0.5964 -0.3238
  343TMC3     C 5145   0.062   0.874   0.044  0.0484 -0.1371  0.5739
  343TMC3     O 5146   4.692   0.852   0.124 -0.4087  0.4161  0.4532
  343TMC3     H 5147   0.199   0.861  17.516 -1.6855  0.3093 -0.5121
  343TMC3    H1 5148   0.041   0.631   0.143 -1.9325 -0.5907 -1.2328
  343TMC3    H2 5149   0.239   0.430  17.522 -2.4535 -0.3772  0.0168
  343TMC3    C7 5150   0.087   0.403   0.026 -0.0778  0.2038 -0.5266
  343TMC3    C8 5151   0.315   0.651  17.408  0.0449  0.2870  0.1558
  343TMC3    O1 5152   0.063   0.321  17.640 -0.0623 -0.2992  0.4357
  343TMC3    O2 5153   0.373   0.753  17.383  0.3167 -0.3081  0.5794
  344MPD2     C 5154   1.309   0.228  11.496  0.1622 -0.2065 -0.2787
  344MPD2    C1 5155   1.215   0.263  11.403 -0.4460 -0.3095  0.6133
  344MPD2    C2 5156   1.234   0.367  11.313  0.1833  0.0796  0.5055
  344MPD2    C3 5157   1.348   0.453  11.329  0.1252 -0.2612  0.6448
  344MPD2    C4 5158   1.428   0.434  11.435 -0.0076  0.0131  0.2397
  344MPD2    C5 5159   1.412   0.321  11.520  0.2951 -0.2071  0.5442
  344MPD2     H 5160   1.159   0.388  11.238  0.0608 -2.2317 -0.0215
  344MPD2    H1 5161   1.513   0.497  11.458 -0.0538 -0.5711  2.0319
  344MPD2    H2 5162   1.302   0.142  11.562 -0.8127 -1.0757 -1.5058
  344MPD2    H3 5163   1.488   0.310  11.596  2.6232  0.2504 -1.6873
  344MPD2     N 5164   1.367   0.560  11.246  0.5979  0.3931 -0.6597
  344MPD2    H5 5165   1.445   0.620  11.273  0.1181 -0.6690  2.9997
  344MPD2    N1 5166   1.097   0.174  11.393  0.1768  0.6143  0.8221
  344MPD2    H7 5167   1.086   0.114  11.474 -0.8476  1.7921  1.5623
  345TMC3    C1 5168   1.372   0.710  11.078  0.4939  0.5476  0.4063
  345TMC3    C2 5169   1.392   0.816  11.160  0.6189 -0.2769  0.3625
  345TMC3    C3 5170   1.456   0.919  11.105  0.9202 -0.7088  0.9017
  345TMC3    C4 5171   1.389   0.715  10.941  0.6358  0.5135  0.2131
  345TMC3    C5 5172   1.440   0.833  10.887 -0.1083 -0.1014 -0.0487
  345TMC3    C6 5173   1.492   0.923  10.975  0.2128  0.2825  0.0814
  345TMC3     C 5174   1.304   0.594  11.131 -0.0804  0.2215  0.2266
  345TMC3     O 5175   1.232   0.530  11.059  0.6553 -0.2953 -0.9580
  345TMC3     H 5176   1.365   0.817  11.265 -2.0468 -2.2629 -0.2814
  345TMC3    H1 5177   1.361   0.638  10.869 -2.8960  1.6726  0.3463
  345TMC3    H2 5178   1.551   1.006  10.937  2.4816 -0.3829  2.1415
  345TMC3    C7 5179   1.469   0.842  10.741  0.1695  0.8120 -0.4496
  345TMC3    C8 5180   1.446   1.054  11.162 -0.3945  0.3880  0.0006
  345TMC3    O1 5181   1.560   0.920  10.718 -0.6916  0.6218  0.0893
  345TMC3    O2 5182   1.463   1.142  11.077 -0.5526 -0.0845  0.2394
  346MPD2     C 5183   1.519   1.807  14.200  0.9002 -0.3758 -0.4356
  346MPD2    C1 5184   1.550   1.941  14.177 -0.8369 -0.2556 -0.2227
  346MPD2    C2 5185   1.534   2.041  14.274 -0.4115  0.0310 -0.2917
  346MPD2    C3 5186   1.494   2.005  14.401  0.1841  0.8215  0.2798
  346MPD2    C4 5187   1.461   1.873  14.424 -0.2231  0.2607 -0.3084
  346MPD2    C5 5188   1.474   1.777  14.325  0.0904  0.1405  0.3136
  346MPD2     H 5189   1.554   2.141  14.239 -0.9524  0.5312  0.8192
  346MPD2    H1 5190   1.420   1.840  14.519 -0.0596 -1.0128 -0.6729
  346MPD2    H2 5191   1.521   1.725  14.130 -2.3732  0.1764 -1.1552
  346MPD2    H3 5192   1.445   1.675  14.347 -0.9684  0.4276  0.2244
  346MPD2     N 5193   1.489   2.103  14.502 -0.2541 -0.3501 -0.4660
  346MPD2    H5 5194   1.482   2.201  14.477 -1.7068 -0.4463 -0.4455
  346MPD2    N1 5195   1.581   1.982  14.049 -0.1400 -0.1032  0.3677
  346MPD2    H7 5196   1.592   2.082  14.032  0.5717 -0.1922  0.2884
  347TMC3    C1 5197   1.513   2.198  14.717  0.9286 -1.1142 -0.6390
  347TMC3    C2 5198   1.620   2.277  14.676 -0.4839  0.7055 -0.0703
  347TMC3    C3 5199   1.694   2.343  14.763 -0.1615 -0.2312 -0.1767
  347TMC3    C4 5200   1.484   2.184  14.849 -0.0847 -0.3078 -1.0475
  347TMC3    C5 5201   1.581   2.232  14.937  0.4514  0.7848 -0.3093
  347TMC3    C6 5202   1.680   2.311  14.893  0.8508  0.5581 -0.0051
  347TMC3     C 5203   1.480   2.080  14.636 -0.4469 -0.1599 -0.0813
  347TMC3     O 5204   1.472   1.977  14.698  0.3204 -0.4308 -0.4882
  347TMC3     H 5205   1.650   2.266  14.573 -0.1782  1.7233 -0.0880
  347TMC3    H1 5206   1.405   2.113  14.872  0.4173 -1.1660 -1.9870
  347TMC3    H2 5207   1.746   2.349  14.970 -1.3649  0.4873  1.9343
  347TMC3    C7 5208   1.613   2.143  15.046  0.4516  0.8172  0.2652
  347TMC3    C8 5209   1.825   2.367  14.709  0.5825  0.3962  0.0277
  347TMC3    O1 5210   1.729   2.152  15.088 -0.1225  0.2527  0.0473
  347TMC3    O2 5211   1.918   2.297  14.752  0.2889  0.1094  0.1487
  348MPD2     C 5212   4.470   1.905  12.120  0.1736 -0.0974  0.1413
  348MPD2    C1 5213   4.573   1.994  12.109 -1.0551 -0.4332  0.2324
  348MPD2    C2 5214   4.575   2.071  11.996  0.1585  0.9544  0.2613
  348MPD2    C3 5215   4.499   2.042  11.884  0.6518 -0.3640  0.0260
  348MPD2    C4 5216   4.403   1.939  11.892 -0.3407  0.2137  0.0042
  348MPD2    C5 5217   4.390   1.874  12.011 -0.9021 -0.0335 -0.4619
  348MPD2     H 5218   4.647   2.152  11.993  2.3108 -0.9550  0.8947
  348MPD2    H1 5219   4.348   1.897  11.809  1.5640 -0.4462 -0.9354
  348MPD2    H2 5220   4.464   1.852  12.215 -0.6220  2.1857  1.3511
  348MPD2    H3 5221   4.324   1.787  12.014 -1.4741  0.5460  2.9795
  348MPD2     N 5222   4.512   2.117  11.766 -0.3733 -0.6441 -0.0888
  348MPD2    H5 5223   4.574   2.196  11.780  0.1054 -1.0583  0.1413
  348MPD2    N1 5224   4.681   2.004  12.200  0.3213  0.0762 -0.4347
  348MPD2    H7 5225   0.015   2.086  12.188  0.1953  0.5706  2.2860
  349TMC3    C1 5226   0.112   1.956  12.371  0.5253  0.5170  0.5397
  349TMC3    C2 5227   0.184   1.847  12.429  0.0761 -0.0490 -0.4237
  349TMC3    C3 5228   0.321   1.850  12.435 -0.4798 -0.3113 -0.1391
  349TMC3    C4 5229   0.185   2.068  12.335  0.1376  0.5154  0.0720
  349TMC3    C5 5230   0.319   2.058  12.316 -0.2680 -0.2227 -1.3824
  349TMC3    C6 5231   0.388   1.956  12.384 -0.1539 -0.9192  0.5085
  349TMC3     C 5232   4.716   1.917  12.299  0.1963  0.8223 -0.3729
  349TMC3     O 5233   4.664   1.812  12.324 -0.2159 -0.1922 -0.1565
  349TMC3     H 5234   0.129   1.762  12.469 -0.3125  1.1826  1.6872
  349TMC3    H1 5235   0.134   2.150  12.285 -1.1108 -1.6959 -2.2766
  349TMC3    H2 5236   0.495   1.953  12.365 -0.0528  1.2857  0.7705
  349TMC3    C7 5237   0.334   2.045  12.172 -0.0798  0.7164 -0.1299
  349TMC3    C8 5238   0.391   1.727  12.476 -0.4644  0.1942 -0.5038
  349TMC3    O1 5239   0.376   1.940  12.127 -0.3543 -0.0396 -0.4455
  349TMC3    O2 5240   0.326   1.625  12.468 -0.0509  0.0228 -0.3415
  350MPD2     C 5241   4.186   0.329   9.756  0.1880  0.4282 -0.4419
  350MPD2    C1 5242   4.217   0.233   9.852 -0.4806  0.0422  0.1767
  350MPD2    C2 5243   4.340   0.169   9.853 -0.6748  0.0171 -0.1956
  350MPD2    C3 5244   4.438   0.217   9.765 -0.1522  0.1833 -0.1965
  350MPD2    C4 5245   4.417   0.331   9.690  0.4442 -0.0342  0.2891
  350MPD2    C5 5246   4.286   0.375   9.680 -0.3233 -0.1202 -0.0041
  350MPD2     H 5247   4.357   0.083   9.917  0.0965 -0.9667 -1.7235
  350MPD2    H1 5248   4.495   0.380   9.633 -0.8554  2.4121  0.6425
  350MPD2    H2 5249   4.088   0.373   9.739 -1.2597 -2.8745 -0.6975
  350MPD2    H3 5250   4.267   0.459   9.615 -0.2449 -1.2527 -1.4725
  350MPD2     N 5251   4.567   0.156   9.772 -0.0952  0.2266 -0.3495
  350MPD2    H5 5252   4.574   0.083   9.842  1.9758  0.7829  0.0059
  350MPD2    N1 5253   4.129   0.200   9.959  0.3367 -0.2184  0.5100
  350MPD2    H7 5254   4.160   0.141  10.036 -0.3564  0.1860  1.0952
  351TMC3    C1 5255   3.929   0.202  10.085  0.6663  0.2174  0.2337
  351TMC3    C2 5256   3.945   0.070  10.114  0.3520  0.3236 -0.1761
  351TMC3    C3 5257   3.890   0.017  10.220 -0.3101 -0.1386  0.5203
  351TMC3    C4 5258   3.839   0.276  10.160 -0.2460 -0.1816 -0.1184
  351TMC3    C5 5259   3.771   0.216  10.262 -0.0014 -1.0901 -0.0454
  351TMC3    C6 5260   3.798   0.086  10.296 -0.6989  0.3957  0.4913
  351TMC3     C 5261   4.020   0.275   9.992  0.2450  0.0688 -0.2582
  351TMC3     O 5262   3.976   0.380   9.941 -0.2596  0.3055  0.3446
  351TMC3     H 5263   4.004   0.008  10.048  1.2976 -0.7613  1.6934
  351TMC3    H1 5264   3.823   0.382  10.143  1.5417  0.1016  0.0471
  351TMC3    H2 5265   3.754   0.037  10.383 -1.0334 -0.2182 -0.0249
  351TMC3    C7 5266   3.678   0.290  10.354 -0.4133 -0.0901  0.1915
  351TMC3    C8 5267   3.888   4.593  10.228 -1.1066 -0.4227  0.2899
  351TMC3    O1 5268   3.660   0.238  10.467  0.2173 -0.4246  0.0825
  351TMC3    O2 5269   3.934   4.550  10.333 -0.8417  0.4297 -0.1837
  352MPD2     C 5270   2.394   1.426   0.329  0.7674  0.3469 -0.4535
  352MPD2    C1 5271   2.371   1.494   0.208 -0.6386 -0.4887  0.4564
  352MPD2    C2 5272   2.384   1.423   0.094 -0.0165 -0.8039 -0.0656
  352MPD2    C3 5273   2.411   1.286   0.105  0.0549 -1.1080 -1.1294
  352MPD2    C4 5274   2.434   1.219   0.225 -0.1109 -0.1358  0.6695
  352MPD2    C5 5275   2.416   1.291   0.339  0.0981  0.0436 -0.2230
  352MPD2     H 5276   2.387   1.462  17.695 -0.3536 -0.1429  0.1835
  352MPD2    H1 5277   2.452   1.113   0.221  0.8248  0.0427  0.0507
  352MPD2    H2 5278   2.389   1.489   0.417 -1.7807  1.1291 -1.1744
  352MPD2    H3 5279   2.427   1.241   0.434 -1.8661  0.6316  0.3094
  352MPD2     N 5280   2.423   1.210  17.689 -0.2380 -0.2078  0.1679
  352MPD2    H5 5281   2.458   1.116   0.002  1.0690  0.2716  0.1789
  352MPD2    N1 5282   2.345   1.637   0.205 -0.1009 -0.7125  0.2609
  352MPD2    H7 5283   2.337   1.682   0.296  1.5707 -1.5474  0.8127
  353TMC3    C1 5284   2.426   1.139  17.470  0.3682  0.5911  1.2455
  353TMC3    C2 5285   2.524   1.044  17.493  0.5577 -0.6237  0.2982
  353TMC3    C3 5286   2.542   0.955  17.392 -0.6197  0.0349 -0.2090
  353TMC3    C4 5287   2.348   1.139  17.352  0.0174  0.3692 -0.0649
  353TMC3    C5 5288   2.379   1.043  17.245  0.1811 -0.2886 -0.2027
  353TMC3    C6 5289   2.481   0.955  17.271 -0.4950  0.3954  0.5160
  353TMC3     C 5290   2.385   1.240  17.562 -0.9070 -0.4021  0.1433
  353TMC3     O 5291   2.336   1.347  17.515  0.0472  0.0020  0.1983
  353TMC3     H 5292   2.593   1.054  17.576 -0.6508  0.4436  1.1848
  353TMC3    H1 5293   2.266   1.209  17.348  1.1622  1.7449  0.7037
  353TMC3    H2 5294   2.501   0.878  17.196 -1.7309 -0.0288  0.6237
  353TMC3    C7 5295   2.256   0.967  17.217  0.1296 -0.3921 -0.5984
  353TMC3    C8 5296   2.642   0.856  17.405  0.2682 -0.5502 -0.1069
  353TMC3    O1 5297   2.229   0.960  17.096  0.4541 -0.3924 -0.0930
  353TMC3    O2 5298   2.671   0.789  17.302 -0.1829  0.1330 -0.0285
  354TMC3    C1 5299   3.945   2.958  13.595  0.6418 -0.5484  0.3774
  354TMC3    C2 5300   3.932   3.092  13.588  0.0507  0.4186 -0.5075
  354TMC3    C3 5301   3.933   3.152  13.470 -0.2738  0.6667  0.3466
  354TMC3    C4 5302   3.941   2.878  13.484 -0.3048  0.2312 -0.4316
  354TMC3    C5 5303   3.949   2.940  13.363 -0.1191  0.0561 -1.2266
  354TMC3    C6 5304   3.943   3.076  13.353 -0.1952 -0.4153 -0.4181
  354TMC3     C 5305   3.863   2.883  13.692  0.4120 -0.4788  0.4785
  354TMC3     O 5306   3.794   2.797  13.642  0.1343 -0.1340  0.6250
  354TMC3     H 5307   3.923   3.154  13.677  2.4361 -0.8218  0.5942
  354TMC3    H1 5308   3.975   2.777  13.502  2.4767  1.3532  0.6361
  354TMC3    H2 5309   3.946   3.123  13.255 -0.0409 -1.5753 -0.9704
  354TMC3    C7 5310   4.024   2.865  13.266  0.1277 -0.3087 -0.1859
  354TMC3    C8 5311   4.001   3.278  13.451 -0.2377  0.4308 -0.0123
  354TMC3    O1 5312   4.006   2.746  13.246  0.8203  0.3627 -0.4654
  354TMC3    O2 5313   4.065   3.279  13.350  0.2228 -0.5499 -0.2926
  355MPD2     C 5314   4.219   3.877  12.457  0.3835 -0.2258  1.0194
  355MPD2    C1 5315   4.220   3.841  12.326  0.3661 -0.0381  0.4150
  355MPD2    C2 5316   4.247   3.709  12.293  0.0271 -0.2724 -0.3080
  355MPD2    C3 5317   4.264   3.613  12.385 -1.0681 -0.5200 -0.0661
  355MPD2    C4 5318   4.249   3.647  12.517  0.5771  0.0191 -0.7595
  355MPD2    C5 5319   4.224   3.780  12.552 -0.1003  1.5593  0.8544
  355MPD2     H 5320   4.242   3.682  12.188  1.2449  1.0463 -0.7082
  355MPD2    H1 5321   4.287   3.582  12.595  0.0801 -1.9504 -2.1599
  355MPD2    H2 5322   4.200   3.980  12.487  0.8308 -0.5937  2.5814
  355MPD2    H3 5323   4.228   3.816  12.654  2.0125 -0.1148  1.3786
  355MPD2     N 5324   4.354   3.507  12.353 -0.4731  0.2160 -0.4898
  355MPD2    H5 5325   4.391   3.458  12.434 -0.1626 -0.2523 -0.9138
  355MPD2    N1 5326   4.209   3.943  12.230 -0.3212  0.5813  0.8750
  355MPD2    H7 5327   4.203   4.035  12.272  1.5151  0.1593  2.0731
  356TMC3    C1 5328   4.564   3.568  12.280 -0.3871 -0.8949 -0.0072
  356TMC3    C2 5329   4.579   3.673  12.193 -0.7402 -0.4775  0.2794
  356TMC3    C3 5330   4.601   3.800  12.242 -0.6811  0.3546 -0.0428
  356TMC3    C4 5331   4.584   3.582  12.416  0.5968 -0.0214  0.3068
  356TMC3    C5 5332   4.621   3.706  12.459 -0.8162  0.1123  0.1657
  356TMC3    C6 5333   4.625   3.816  12.378  0.2177 -1.0026 -0.6555
  356TMC3     C 5334   4.437   3.510  12.245  0.1973 -0.2358 -0.7562
  356TMC3     O 5335   4.398   3.496  12.129  0.2762 -0.2462  0.4133
  356TMC3     H 5336   4.562   3.668  12.086 -0.8426 -2.4350  0.3914
  356TMC3    H1 5337   4.576   3.496  12.481  1.9214 -0.6237 -0.3322
  356TMC3    H2 5338   4.638   3.916  12.418  0.1473 -0.0705 -2.9828
  356TMC3    C7 5339   4.679   3.711  12.595  0.1789 -1.1217 -0.1406
  356TMC3    C8 5340   4.597   3.918  12.146  0.1000  0.3615 -0.4567
  356TMC3    O1 5341   4.702   3.603  12.652 -0.1504  0.3250 -0.0382
  356TMC3    O2 5342   4.551   3.890  12.036 -0.2441  0.7028 -0.3377
  357MPD2     C 5343   4.057   3.707   1.397  0.2412 -0.0272 -0.7451
  357MPD2    C1 5344   4.156   3.611   1.412 -0.1362 -0.2545  0.1474
  357MPD2    C2 5345   4.241   3.635   1.520 -0.3817  0.1757  0.1643
  357MPD2    C3 5346   4.230   3.748   1.604  0.7093 -0.5516  0.7149
  357MPD2    C4 5347   4.132   3.844   1.580 -0.0561 -0.0147  0.3046
  357MPD2    C5 5348   4.041   3.820   1.480  0.2444 -0.5418  0.7445
  357MPD2     H 5349   4.327   3.569   1.526 -0.6735 -0.3939 -1.8379
  357MPD2    H1 5350   4.120   3.935   1.638  1.1340 -1.0149  2.1477
  357MPD2    H2 5351   3.985   3.706   1.316 -0.7131 -0.7765  0.1101
  357MPD2    H3 5352   3.962   3.893   1.465 -1.4524 -2.1661  1.7055
  357MPD2     N 5353   4.322   3.769   1.707  0.3643  0.1815 -0.9131
  357MPD2    H5 5354   4.303   3.859   1.751  0.8881  0.2381 -0.7927
  357MPD2    N1 5355   4.163   3.506   1.315  0.1505 -0.4485 -0.1546
  357MPD2    H7 5356   4.099   3.506   1.237 -1.8662 -0.9992  1.4932
  358TMC3    C1 5357   4.268   3.338   1.198 -0.0904  0.1011 -0.3408
  358TMC3    C2 5358   4.152   3.315   1.121 -0.2936 -0.3311 -0.1625
  358TMC3    C3 5359   4.169   3.220   1.023 -0.1173  1.0628 -0.6297
  358TMC3    C4 5360   4.386   3.281   1.164 -0.2509  0.5620 -0.0418
  358TMC3    C5 5361   4.394   3.183   1.069 -0.4686  0.3852 -0.0172
  358TMC3    C6 5362   4.285   3.170   0.985 -0.3700  0.4268  0.5475
  358TMC3     C 5363   4.271   3.420   1.321  0.4558  0.1995  0.3821
  358TMC3     O 5364   4.370   3.410   1.389 -0.6583 -0.0003 -0.5681
  358TMC3     H 5365   4.054   3.357   1.143  0.3078  0.3888  1.1380
  358TMC3    H1 5366   4.475   3.316   1.214 -0.1567 -0.2460  0.3616
  358TMC3    H2 5367   4.292   3.091   0.911 -1.8334  2.3831 -1.6976
  358TMC3    C7 5368   4.520   3.187   1.004 -0.1617  0.4488  0.3060
  358TMC3    C8 5369   4.058   3.208   0.926 -0.7557  0.3196  0.5777
  358TMC3    O1 5370   4.517   3.205   0.881 -0.3672 -0.2707 -0.1433
  358TMC3    O2 5371   4.035   3.101   0.871  0.1429  0.0760  0.2187
  359MPD2     C 5372   3.991   2.705  12.485 -0.1627  0.2669 -0.0571
  359MPD2    C1 5373   4.092   2.615  12.468 -0.0159  0.2402 -0.0792
  359MPD2    C2 5374   4.090   2.494  12.537 -0.5219 -0.3628 -0.0877
  359MPD2    C3 5375   3.988   2.463  12.624  0.0772 -0.0210 -0.6588
  359MPD2    C4 5376   3.891   2.557  12.645 -0.2473 -0.0106  1.0474
  359MPD2    C5 5377   3.884   2.676  12.573 -0.1947 -0.0508 -0.2991
  359MPD2     H 5378   4.168   2.423  12.513 -0.9604 -0.2000 -2.0743
  359MPD2    H1 5379   3.802   2.535  12.703 -0.7035  2.0618  1.1114
  359MPD2    H2 5380   3.989   2.796  12.425  1.2613 -0.0094 -0.5364
  359MPD2    H3 5381   3.789   2.728  12.574  0.1620  0.5806  0.7787
  359MPD2     N 5382   3.974   2.335  12.688  0.4479  0.0394 -0.4176
  359MPD2    H5 5383   3.889   2.325  12.742  2.4060  0.6398  2.7652
  359MPD2    N1 5384   4.189   2.639  12.369  0.2257  0.0145  0.5527
  359MPD2    H7 5385   4.242   2.556  12.348 -1.0079 -1.6604  4.0477
  360TMC3    C1 5386   4.311   2.741  12.202  0.6698 -0.0558  0.0653
  360TMC3    C2 5387   4.363   2.850  12.141  0.2647 -0.1063 -1.0156
  360TMC3    C3 5388   4.479   2.837  12.066 -0.2093 -0.2679 -0.4488
  360TMC3    C4 5389   4.345   2.621  12.146 -0.4587 -0.5601  0.8684
  360TMC3    C5 5390   4.453   2.601  12.061 -0.3434  0.5188  0.5614
  360TMC3    C6 5391   4.521   2.713  12.027 -0.1054  0.1939  0.1570
  360TMC3     C 5392   4.221   2.758  12.310  0.5314  0.1770  0.7323
  360TMC3     O 5393   4.177   2.869  12.320 -0.0209  0.1456 -0.4368
  360TMC3     H 5394   4.338   2.948  12.181 -0.8891 -0.6237 -0.4644
  360TMC3    H1 5395   4.279   2.540  12.176  2.1504 -2.9639  0.1960
  360TMC3    H2 5396   4.607   2.713  11.960 -0.1134 -1.2693  0.1597
  360TMC3    C7 5397   4.440   2.495  11.961 -0.6921  0.2147 -0.3126
  360TMC3    C8 5398   4.533   2.962  12.016  0.5243  0.0459  0.3088
  360TMC3    O1 5399   4.512   2.502  11.861 -0.7200  0.6161 -0.2220
  360TMC3    O2 5400   4.477   3.068  12.022  0.3704 -0.6949 -0.0445
  361MPD2     C 5401   0.983   1.272  16.395 -0.5090  0.0859  0.0384
  361MPD2    C1 5402   0.992   1.304  16.528  0.2705 -0.0360 -0.9236
  361MPD2    C2 5403   1.069   1.212  16.607 -0.1455  0.6145 -0.0462
  361MPD2    C3 5404   1.141   1.106  16.552 -0.0083 -0.2887 -0.3327
  361MPD2    C4 5405   1.128   1.081  16.420 -1.3828 -0.3292 -0.0905
  361MPD2    C5 5406   1.048   1.159  16.338  0.3169 -1.0073 -0.6882
  361MPD2     H 5407   1.072   1.232  16.713  1.9891  1.3860 -0.2468
  361MPD2    H1 5408   1.186   0.997  16.385 -0.4314  0.3266 -0.1003
  361MPD2    H2 5409   0.911   1.323  16.332 -0.4074 -0.3611 -0.4400
  361MPD2    H3 5410   1.031   1.135  16.233  0.6212 -3.1506 -0.2558
  361MPD2     N 5411   1.216   1.014  16.623  0.4551  0.2041  0.5569
  361MPD2    H5 5412   1.246   0.929  16.577  1.6352  0.5345  0.7355
  361MPD2    N1 5413   0.903   1.398  16.586  0.0146 -0.1553 -0.3673
  361MPD2    H7 5414   0.844   1.449  16.521  0.6866 -1.1042 -1.7325
  362TMC3    C1 5415   0.792   1.517  16.745  0.2009  0.1931  0.2824
  362TMC3    C2 5416   0.724   1.514  16.861  0.3159  1.0215  0.9582
  362TMC3    C3 5417   0.653   1.617  16.899  0.3254 -0.1561 -0.9296
  362TMC3    C4 5418   0.791   1.627  16.660  0.0760 -0.8804 -0.3289
  362TMC3    C5 5419   0.707   1.734  16.699 -0.2745 -0.6109 -0.6996
  362TMC3    C6 5420   0.644   1.730  16.821 -0.3250 -0.2168  0.4374
  362TMC3     C 5421   0.890   1.412  16.719 -1.2142 -0.0262 -0.0178
  362TMC3     O 5422   0.921   1.346  16.816 -0.1932 -0.0160  0.4791
  362TMC3     H 5423   0.720   1.421  16.918  4.4371  0.4110  0.2322
  362TMC3    H1 5424   0.860   1.637  16.578 -0.0732 -0.0207 -0.3458
  362TMC3    H2 5425   0.579   1.809  16.855 -1.9183 -0.2717 -2.4493
  362TMC3    C7 5426   0.694   1.846  16.608  0.3090  0.5351 -0.5841
  362TMC3    C8 5427   0.539   1.591  16.993 -0.3859  0.3829  0.3346
  362TMC3    O1 5428   0.615   1.935  16.642  0.3488 -0.1222 -0.3062
  362TMC3    O2 5429   0.502   1.474  17.010 -0.1637 -0.1725 -0.4679
  363TMC3    C1 5430   4.486   3.615   9.408  0.2483  0.3704 -0.3060
  363TMC3    C2 5431   4.505   3.533   9.518  0.4996 -0.9532 -0.5618
  363TMC3    C3 5432   4.475   3.589   9.639  0.1847 -0.0877 -0.3251
  363TMC3    C4 5433   4.427   3.738   9.420  0.0768 -0.6697  0.2152
  363TMC3    C5 5434   4.404   3.788   9.546 -0.0734  0.4106  0.5851
  363TMC3    C6 5435   4.427   3.713   9.662  0.0410 -0.5072  0.2128
  363TMC3     C 5436   4.511   3.558   9.274 -0.8270  0.5909 -0.2674
  363TMC3     O 5437   4.470   3.611   9.172 -0.3506 -0.2612 -0.3536
  363TMC3     H 5438   4.525   3.427   9.502 -1.8552 -1.4302 -0.2731
  363TMC3    H1 5439   4.406   3.798   9.333  1.3433 -1.4646 -0.6395
  363TMC3    H2 5440   4.419   3.737   9.768 -0.9811 -1.4468  0.3453
  363TMC3    C7 5441   4.329   3.911   9.550 -0.0057  0.3602  0.1477
  363TMC3    C8 5442   4.496   3.507   9.758 -0.7659  0.1664 -1.3423
  363TMC3    O1 5443   4.319   3.978   9.445  0.0796  0.5977 -0.8150
  363TMC3    O2 5444   4.422   3.529   9.854  0.4369  0.0839 -0.2965
  364MPD2     C 5445   3.003   3.467  10.625  0.1538  0.2227  0.8372
  364MPD2    C1 5446   3.131   3.446  10.572  0.0757  0.2917 -0.2375
  364MPD2    C2 5447   3.193   3.325  10.603  0.2246 -0.1266  0.4410
  364MPD2    C3 5448   3.127   3.228  10.672 -1.1433  0.0551 -0.5279
  364MPD2    C4 5449   3.003   3.257  10.726 -0.2115  0.0902  0.1847
  364MPD2    C5 5450   2.932   3.376  10.701 -0.4686  0.2603 -0.0394
  364MPD2     H 5451   3.298   3.312  10.580  0.3327 -0.9928  1.3956
  364MPD2    H1 5452   2.959   3.199  10.806  1.3887  0.6347  1.4709
  364MPD2    H2 5453   2.947   3.559  10.613  1.1632  0.9007  1.3389
  364MPD2    H3 5454   2.840   3.406  10.749 -1.2744 -1.2763 -0.6617
  364MPD2     N 5455   3.185   3.104  10.706 -0.8524 -0.6117  0.0825
  364MPD2    H5 5456   3.136   3.045  10.771  0.8552 -1.2437  0.8066
  364MPD2    N1 5457   3.196   3.540  10.491 -0.2830 -0.2832 -0.2042
  364MPD2    H7 5458   3.160   3.634  10.479  0.6844 -0.2420 -2.7325
  365TMC3    C1 5459   3.391   3.617  10.370  0.6277 -0.1998 -0.4243
  365TMC3    C2 5460   3.471   3.583  10.267  0.2107  0.4730  0.0124
  365TMC3    C3 5461   3.577   3.668  10.237  0.0414  0.0110  0.2465
  365TMC3    C4 5462   3.415   3.714  10.460 -0.4371  0.0343  0.3146
  365TMC3    C5 5463   3.524   3.793  10.431  0.2288 -0.1835  1.0442
  365TMC3    C6 5464   3.603   3.780  10.317  0.1858 -0.5134 -0.3048
  365TMC3     C 5465   3.312   3.513  10.417 -0.1958 -0.3956 -0.1085
  365TMC3     O 5466   3.351   3.401  10.391  0.4438 -0.2011  0.5031
  365TMC3     H 5467   3.444   3.495  10.210  4.3238 -0.0969 -1.0478
  365TMC3    H1 5468   3.366   3.706  10.557  0.8025  0.6925  0.9985
  365TMC3    H2 5469   3.691   3.841  10.303 -0.8819  0.8026 -1.3773
  365TMC3    C7 5470   3.565   3.897  10.525  0.5019 -0.3201 -0.3394
  365TMC3    C8 5471   3.641   3.652  10.103  0.3650  0.2960  0.3302
  365TMC3    O1 5472   3.672   3.950  10.508 -0.6328  0.2075 -0.3786
  365TMC3    O2 5473   3.719   3.739  10.065 -0.2282 -0.2646 -0.4980
  366MPD2     C 5474   1.633   3.997  15.012 -0.1148 -0.2482 -0.3234
  366MPD2    C1 5475   1.662   4.073  15.120 -0.0648 -0.2474 -1.2179
  366MPD2    C2 5476   1.769   4.035  15.198 -0.5564  0.0659 -1.1464
  366MPD2    C3 5477   1.858   3.933  15.173  0.6131 -0.6197 -0.0659
  366MPD2    C4 5478   1.823   3.855  15.058  0.4065  0.0479 -0.3121
  366MPD2    C5 5479   1.715   3.896  14.981  0.4634  0.0203  0.2125
  366MPD2     H 5480   1.768   4.086  15.293 -0.8538 -0.7244 -0.7260
  366MPD2    H1 5481   1.886   3.770  15.036  0.8072  0.3365 -0.2847
  366MPD2    H2 5482   1.544   4.017  14.952  0.9916  0.9344 -1.5568
  366MPD2    H3 5483   1.691   3.836  14.894  1.0880  2.4692 -1.6495
  366MPD2     N 5484   1.968   3.898  15.257  0.4514 -0.1341 -0.3373
  366MPD2    H5 5485   2.003   3.804  15.244 -2.4432 -1.2921  0.2479
  366MPD2    N1 5486   1.588   4.189  15.157 -0.4603 -0.0272  0.1541
  366MPD2    H7 5487   1.630   4.253  15.224  0.9008 -0.9807  0.2294
  367TMC3    C1 5488   1.434   4.372  15.147  0.0276 -0.2457 -0.0127
  367TMC3    C2 5489   1.478   4.400  15.272 -0.3376 -0.2062  0.0421
  367TMC3    C3 5490   1.413   4.504  15.337 -0.1507 -0.3297  0.3056
  367TMC3    C4 5491   1.332   4.431  15.081 -0.3579 -0.0619 -0.0395
  367TMC3    C5 5492   1.275   4.541  15.144  0.4590 -0.1148  0.4420
  367TMC3    C6 5493   1.319   4.575  15.270 -0.0245  0.0139  0.5080
  367TMC3     C 5494   1.480   4.247  15.087 -0.1593 -0.0211  0.1712
  367TMC3     O 5495   1.422   4.190  14.996 -0.3852  0.6563 -0.7306
  367TMC3     H 5496   1.567   4.358  15.319  0.4415  0.9754 -0.3766
  367TMC3    H1 5497   1.313   4.397  14.980  0.0522 -1.1841  0.2599
  367TMC3    H2 5498   1.277   4.662  15.318  1.6149  0.3381  1.3162
  367TMC3    C7 5499   1.147   4.584  15.096 -0.4270 -0.3687 -0.2610
  367TMC3    C8 5500   1.466   4.557  15.467  0.2322  0.0798  0.5706
  367TMC3    O1 5501   1.124   4.703  15.118  0.8820  0.3159 -0.1771
  367TMC3    O2 5502   1.589   4.568  15.470 -0.0949  0.0571 -0.3588
  368MPD2     C 5503   3.401   1.150  12.893  0.1947 -0.5381  0.0399
  368MPD2    C1 5504   3.350   1.275  12.853 -0.4541  0.6044  0.5236
  368MPD2    C2 5505   3.391   1.325  12.730 -0.1533 -0.6030 -0.4973
  368MPD2    C3 5506   3.480   1.250  12.646 -0.1783  0.5186 -0.0583
  368MPD2    C4 5507   3.529   1.134  12.697  0.7370 -0.3700 -0.0973
  368MPD2    C5 5508   3.484   1.085  12.816 -0.2276 -0.2592  0.1145
  368MPD2     H 5509   3.359   1.422  12.693  1.3707 -0.6067 -1.8012
  368MPD2    H1 5510   3.600   1.072  12.644 -0.3212 -1.5083 -0.1882
  368MPD2    H2 5511   3.367   1.107  12.987 -0.4462  1.8110  0.8947
  368MPD2    H3 5512   3.515   0.987  12.849  3.2496  0.4960 -0.9167
  368MPD2     N 5513   3.519   1.289  12.516  0.6373  0.6475 -0.2727
  368MPD2    H5 5514   3.591   1.234  12.470  1.6359  1.2787  0.5447
  368MPD2    N1 5515   3.259   1.354  12.931  0.3034 -0.0865  0.8756
  368MPD2    H7 5516   3.222   1.315  13.018 -1.1408 -2.3145 -0.7416
  369TMC3    C1 5517   3.123   1.539  12.982  0.7969  0.3639  0.0804
  369TMC3    C2 5518   3.123   1.672  13.000  0.0241 -0.8117 -0.0908
  369TMC3    C3 5519   3.013   1.737  13.062 -0.2109  0.0104 -0.1644
  369TMC3    C4 5520   3.033   1.463  13.049  1.1542 -0.1422  0.7010
  369TMC3    C5 5521   2.935   1.525  13.118 -0.0821  0.7247 -0.0495
  369TMC3    C6 5522   2.921   1.660  13.125  0.8681  0.4284  0.0626
  369TMC3     C 5523   3.227   1.484  12.897  0.2276 -0.0870  0.0599
  369TMC3     O 5524   3.276   1.565  12.820 -0.5162 -0.0425 -0.4388
  369TMC3     H 5525   3.201   1.737  12.962 -3.6034  3.3784 -0.4741
  369TMC3    H1 5526   3.037   1.355  13.059  1.3460 -0.2729 -0.7762
  369TMC3    H2 5527   2.851   1.709  13.191  1.2040 -0.0099  0.7443
  369TMC3    C7 5528   2.835   1.449  13.191  0.2387 -0.0636 -1.0724
  369TMC3    C8 5529   2.999   1.882  13.049 -0.2645 -0.0377 -0.2576
  369TMC3    O1 5530   2.782   1.514  13.279  0.0218 -0.0575 -0.1721
  369TMC3    O2 5531   2.883   1.925  13.057  0.6104 -0.0217 -0.5679
  370TMC3    C1 5532   2.357   1.893  16.215 -0.3643  0.0838 -0.0713
  370TMC3    C2 5533   2.281   1.796  16.286 -0.1027 -1.1264 -0.8234
  370TMC3    C3 5534   2.239   1.689  16.221  0.4987  0.7366  0.7057
  370TMC3    C4 5535   2.380   1.886  16.080  0.1574 -0.9646 -0.0394
  370TMC3    C5 5536   2.321   1.782  16.016 -0.7161  0.4571 -0.3932
  370TMC3    C6 5537   2.257   1.681  16.084  0.0367 -0.7216 -0.3464
  370TMC3     C 5538   2.398   2.008  16.295  0.5213 -0.7459 -0.0448
  370TMC3     O 5539   2.396   1.995  16.416 -0.1091  0.2972 -0.0068
  370TMC3     H 5540   2.283   1.810  16.393 -1.1549  0.6055 -1.0097
  370TMC3    H1 5541   2.432   1.963  16.025  3.2776 -1.2505  2.4957
  370TMC3    H2 5542   2.214   1.596  16.033 -0.3416 -1.2929  0.9351
  370TMC3    C7 5543   2.339   1.781  15.871 -0.0542  0.1664 -0.7442
  370TMC3    C8 5544   2.113   1.643  16.260  0.4607  0.0294  0.2120
  370TMC3    O1 5545   2.295   1.864  15.795  0.3023  0.1770  0.3763
  370TMC3    O2 5546   2.035   1.610  16.168 -0.1411  0.4514 -0.5216
  371TMC3    C1 5547   3.250   4.576  15.483  0.2392  0.3202  0.5984
  371TMC3    C2 5548   3.142   4.637  15.536  0.0224  0.6711  0.1800
  371TMC3    C3 5549   3.104   0.035  15.498  0.0924  0.0251 -0.0461
  371TMC3    C4 5550   3.334   4.648  15.400  0.8085  0.6785  0.0232
  371TMC3    C5 5551   3.297   0.053  15.365 -0.4840  0.0626 -0.1558
  371TMC3    C6 5552   3.182   0.111  15.416 -0.6816 -0.7075 -0.1155
  371TMC3     C 5553   3.309   4.468  15.559 -1.4218  0.5141  0.0686
  371TMC3     O 5554   3.430   4.471  15.584 -0.2346 -0.3720 -0.4632
  371TMC3     H 5555   3.076   4.593  15.611  1.0463  2.7768  2.3357
  371TMC3    H1 5556   3.429   4.602  15.376 -0.1547 -0.3229 -1.8300
  371TMC3    H2 5557   3.142   0.203  15.375  1.8462 -0.2116 -1.4872
  371TMC3    C7 5558   3.391   0.137  15.294 -0.4466 -0.0296 -0.6145
  371TMC3    C8 5559   2.959   0.072  15.510  0.1392 -0.4874 -0.3158
  371TMC3    O1 5560   3.387   0.248  15.335  0.0964  0.0537 -0.1546
  371TMC3    O2 5561   2.880   4.708  15.478  0.4076 -0.4115 -0.0770
  372MPD2     C 5562   3.691   1.595  13.463 -0.0846 -0.8857 -0.1776
  372MPD2    C1 5563   3.694   1.458  13.499  0.1261  0.0316  0.4725
  372MPD2    C2 5564   3.584   1.413  13.575 -0.6563 -0.5265 -0.7892
  372MPD2    C3 5565   3.475   1.497  13.600  0.3979  0.1430  0.1823
  372MPD2    C4 5566   3.481   1.627  13.561  0.0146  0.3064 -0.3593
  372MPD2    C5 5567   3.588   1.679  13.491  0.5224 -0.2522  0.4149
  372MPD2     H 5568   3.581   1.306  13.594 -1.4504 -0.1976  0.9031
  372MPD2    H1 5569   3.405   1.702  13.579 -1.5019 -1.5897  1.0209
  372MPD2    H2 5570   3.780   1.634  13.414  0.1218  0.2566  1.0890
  372MPD2    H3 5571   3.592   1.781  13.454 -1.3474 -0.0478  0.7981
  372MPD2     N 5572   3.365   1.439  13.668 -0.4284 -0.1149  0.2739
  372MPD2    H5 5573   3.372   1.339  13.684 -0.0305 -0.1765 -0.2647
  372MPD2    N1 5574   3.798   1.361  13.468 -0.3430 -0.0125 -0.2221
  372MPD2    H7 5575   3.785   1.269  13.511 -0.4816  0.5909  1.0276
  373TMC3    C1 5576   3.147   1.407  13.758 -0.4174 -0.1208  0.2825
  373TMC3    C2 5577   3.089   1.458  13.877  0.4505  0.0938  0.0444
  373TMC3    C3 5578   3.063   1.361  13.977 -0.6280  0.1085  0.8171
  373TMC3    C4 5579   3.158   1.279  13.721 -0.2919  0.4962  0.0918
  373TMC3    C5 5580   3.102   1.191  13.808 -0.1767  0.5142 -0.4976
  373TMC3    C6 5581   3.067   1.230  13.936 -0.2058  0.6727  0.5694
  373TMC3     C 5582   3.252   1.503  13.706 -0.3805  0.0332  0.4274
  373TMC3     O 5583   3.224   1.622  13.687 -0.0722 -0.6658  0.4033
  373TMC3     H 5584   3.099   1.564  13.898 -2.4688  0.2753  0.5300
  373TMC3    H1 5585   3.213   1.260  13.630  1.4389  2.2418  0.7808
  373TMC3    H2 5586   3.032   1.154  14.005 -0.2892  0.9096  0.7876
  373TMC3    C7 5587   3.155   1.063  13.786  0.2527 -0.8928  0.2913
  373TMC3    C8 5588   3.153   1.384  14.092  0.2559 -0.2672 -0.4421
  373TMC3    O1 5589   3.201   1.030  13.677 -0.0976  0.4779  0.2398
  373TMC3    O2 5590   3.195   1.281  14.142  1.0291 -0.3299  0.2474
  374TMC3    C1 5591   4.564   1.670   9.597 -0.8021  0.2049 -0.1798
  374TMC3    C2 5592   4.601   1.800   9.637  0.9474  0.1856 -0.5695
  374TMC3    C3 5593   4.676   1.872   9.547  0.2223 -0.6234  0.5643
  374TMC3    C4 5594   4.606   1.610   9.479 -0.0446  0.2574  0.1942
  374TMC3    C5 5595   4.691   1.681   9.409  0.8244  0.2088 -0.6474
  374TMC3    C6 5596   0.011   1.810   9.437  0.2350  0.1007  0.4285
  374TMC3     C 5597   4.450   1.610   9.669 -0.2415  0.1244  0.5334
  374TMC3     O 5598   4.441   1.664   9.778  0.0714  0.3353  0.2156
  374TMC3     H 5599   4.540   1.846   9.714  0.8619 -1.5784  0.4157
  374TMC3    H1 5600   4.574   1.511   9.447  2.4370 -0.5261  0.1611
  374TMC3    H2 5601   0.076   1.857   9.364  0.8446 -0.1265  0.8151
  374TMC3    C7 5602   0.012   1.623   9.283 -0.0230  0.2106 -0.4948
  374TMC3    C8 5603   4.671   2.009   9.546  0.5019  0.1350 -0.5026
  374TMC3    O1 5604   0.127   1.660   9.248 -0.4750  0.2395  0.2033
  374TMC3    O2 5605   4.681   2.066   9.439 -0.1951 -0.3724 -0.5095
  375MPD2     C 5606   3.623   3.492  16.583  0.3094  0.2912 -0.2375
  375MPD2    C1 5607   3.544   3.381  16.556  0.0746  0.0041  0.2150
  375MPD2    C2 5608   3.598   3.261  16.506  0.8116 -0.1908  0.3412
  375MPD2    C3 5609   3.732   3.251  16.492 -0.6725  0.0530  0.1046
  375MPD2    C4 5610   3.816   3.355  16.536  0.3586  0.1204  0.6925
  375MPD2    C5 5611   3.761   3.477  16.566 -0.2541 -1.1736  0.3447
  375MPD2     H 5612   3.530   3.178  16.487 -0.2495  1.0169 -1.1165
  375MPD2    H1 5613   3.924   3.358  16.528  0.4509 -0.1297  1.8140
  375MPD2    H2 5614   3.573   3.585  16.606  0.5911  0.0350  1.4169
  375MPD2    H3 5615   3.824   3.561  16.594 -1.2332 -0.0155 -0.9309
  375MPD2     N 5616   3.792   3.137  16.437 -0.3577 -0.6317  0.2019
  375MPD2    H5 5617   3.892   3.138  16.420  0.0370  1.5283  2.8005
  375MPD2    N1 5618   3.405   3.375  16.582  0.1594 -0.0292 -0.8975
  375MPD2    H7 5619   3.371   3.281  16.600  1.0027 -0.1268  0.1609
  376TMC3    C1 5620   3.812   2.912  16.355  0.7723  0.7684  0.3489
  376TMC3    C2 5621   3.904   2.867  16.453  0.4468 -0.1019 -0.0544
  376TMC3    C3 5622   3.908   2.735  16.470  0.2453  0.3528  0.5529
  376TMC3    C4 5623   3.732   2.832  16.288 -0.3058 -0.0793  0.7185
  376TMC3    C5 5624   3.739   2.700  16.302  0.4576 -0.7005 -0.6165
  376TMC3    C6 5625   3.829   2.651  16.391 -0.2179 -0.0620 -0.2364
  376TMC3     C 5626   3.727   3.026  16.395 -0.0025  0.1983  0.0931
  376TMC3     O 5627   3.608   3.010  16.369 -0.1587  0.2284  0.3407
  376TMC3     H 5628   3.959   2.940  16.511 -0.3962 -1.3918  2.4158
  376TMC3    H1 5629   3.692   2.875  16.197 -1.7749  1.2339  1.9719
  376TMC3    H2 5630   3.858   2.547  16.399 -1.2731 -0.2184  1.6529
  376TMC3    C7 5631   3.693   2.613  16.201 -0.3481 -0.6609 -0.4986
  376TMC3    C8 5632   4.007   2.675  16.562 -0.1948  0.4142 -0.1241
  376TMC3    O1 5633   3.629   2.663  16.111  0.5361  0.4008  0.0619
  376TMC3    O2 5634   4.095   2.758  16.594  0.0095 -0.4823 -0.1317
  377MPD2     C 5635   2.530   1.689  13.389  0.0902  0.4652 -0.4649
  377MPD2    C1 5636   2.440   1.664  13.285 -0.5222 -0.0476  0.9496
  377MPD2    C2 5637   2.311   1.637  13.321  0.2956  0.1309 -0.2152
  377MPD2    C3 5638   2.271   1.640  13.455  0.3531  0.8585 -0.3728
  377MPD2    C4 5639   2.359   1.666  13.552  0.8693 -0.1828 -0.1110
  377MPD2    C5 5640   2.490   1.681  13.523 -0.0560  0.0807 -0.3869
  377MPD2     H 5641   2.236   1.617  13.246  1.0602  0.7430 -1.1491
  377MPD2    H1 5642   2.334   1.700  13.652  1.0460 -1.4704  0.3721
  377MPD2    H2 5643   2.628   1.722  13.357  0.4529 -1.7835 -1.6877
  377MPD2    H3 5644   2.560   1.716  13.598  1.7722 -0.4229 -1.8658
  377MPD2     N 5645   2.138   1.616  13.494 -0.4064  0.9156  0.0682
  377MPD2    H5 5646   2.117   1.607  13.593 -2.7406  0.0939 -0.5216
  377MPD2    N1 5647   2.476   1.684  13.148 -0.5218 -0.0250 -0.3413
  377MPD2    H7 5648   2.559   1.738  13.127 -1.1899  0.7340 -1.0705
  378TMC3    C1 5649   2.432   1.796  12.707  0.2822 -0.2685  0.5257
  378TMC3    C2 5650   2.373   1.759  12.824 -0.1415 -0.9253 -0.1168
  378TMC3    C3 5651   2.457   1.705  12.920  0.1754  0.5164 -0.1151
  378TMC3    C4 5652   2.567   1.797  12.684 -0.0161  0.2482 -0.0317
  378TMC3    C5 5653   2.642   1.724  12.775 -0.4937 -1.0816  0.4399
  378TMC3    C6 5654   2.595   1.685  12.901 -0.0081  0.8221 -0.1211
  378TMC3     C 5655   2.353   1.896  12.638 -0.1992 -0.4199 -0.4171
  378TMC3     O 5656   2.243   1.918  12.677 -0.1963 -0.1957 -0.4511
  378TMC3     H 5657   2.267   1.769  12.846 -0.3574 -1.3969 -0.9558
  378TMC3    H1 5658   2.609   1.860  12.606  0.2550 -0.5542 -0.5376
  378TMC3    H2 5659   2.668   1.642  12.968  0.8302 -2.3728 -3.0717
  378TMC3    C7 5660   2.782   1.703  12.745 -0.4802 -0.5037  0.3533
  378TMC3    C8 5661   2.397   1.660  13.038  0.3564  0.3824  0.4212
  378TMC3    O1 5662   2.857   1.661  12.831  0.6359  0.6713 -0.1283
  378TMC3    O2 5663   2.288   1.609  13.031  1.1718 -0.1887  0.0796
  379MPD2     C 5664   2.482   0.074  16.162  0.1502  0.4239  0.2858
  379MPD2    C1 5665   2.372   0.055  16.241  0.1549 -0.3609  0.6634
  379MPD2    C2 5666   2.370   0.066  16.383  0.1554 -0.3449 -1.0829
  379MPD2    C3 5667   2.491   0.087  16.449  0.3488  0.5049 -0.0429
  379MPD2    C4 5668   2.603   0.100  16.373 -0.4651 -0.3017  0.5542
  379MPD2    C5 5669   2.600   0.091  16.230  0.2455  0.2122 -0.1090
  379MPD2     H 5670   2.280   0.049  16.440  1.4988 -1.5917  0.6459
  379MPD2    H1 5671   2.703   0.116  16.409 -1.4618  1.3277  2.5710
  379MPD2    H2 5672   2.483   0.067  16.054  0.7771 -3.4876  0.5355
  379MPD2    H3 5673   2.691   0.088  16.172  0.4572  1.3890  0.1764
  379MPD2     N 5674   2.510   0.097  16.588  0.1584 -0.2521 -0.2252
  379MPD2    H5 5675   2.593   0.142  16.627  1.5186 -3.3655  0.4635
  379MPD2    N1 5676   2.256   0.047  16.162  0.1764  0.2632  0.0814
  379MPD2    H7 5677   2.280   0.051  16.064 -3.3349 -1.6629 -0.8506
  380TMC3    C1 5678   2.041   0.047  16.091  0.5112 -0.2252  0.4297
  380TMC3    C2 5679   2.085   0.004  15.967  1.0398  0.6324 -0.3424
  380TMC3    C3 5680   2.010   0.041  15.859  0.2977  0.1786  0.7225
  380TMC3    C4 5681   1.922   0.109  16.112 -0.4626  0.0202 -0.7922
  380TMC3    C5 5682   1.847   0.140  15.992  0.0031  0.5238  0.4750
  380TMC3    C6 5683   1.897   0.110  15.862 -0.2042 -0.1105  0.0546
  380TMC3     C 5684   2.130   0.052  16.202  0.1261  0.1814  0.3568
  380TMC3     O 5685   2.087   0.051  16.317  0.2618 -0.0638 -0.1860
  380TMC3     H 5686   2.176   4.671  15.965  0.7892  0.1321  3.1323
  380TMC3    H1 5687   1.879   0.141  16.207 -0.4709 -0.6346 -0.5779
  380TMC3    H2 5688   1.841   0.143  15.775  0.5452  0.5918 -0.1596
  380TMC3    C7 5689   1.702   0.121  15.993 -0.5771 -0.5830 -0.2825
  380TMC3    C8 5690   2.039   4.716  15.729  0.2601  0.5116  0.3274
  380TMC3    O1 5691   1.629   0.196  16.059  0.0777  0.2889 -0.1906
  380TMC3    O2 5692   1.992   0.047  15.636 -0.2690 -0.6145  0.3152
  381TMC3    C1 5693   1.933   1.102  15.736  0.8248  0.1115 -0.8775
  381TMC3    C2 5694   2.043   1.127  15.806  0.1682  0.0447  0.5799
  381TMC3    C3 5695   2.032   1.237  15.887  0.6518 -0.3574  0.3020
  381TMC3    C4 5696   1.818   1.167  15.753 -0.1764 -0.4129 -0.4762
  381TMC3    C5 5697   1.810   1.280  15.832  0.6183  0.4251  0.1606
  381TMC3    C6 5698   1.924   1.313  15.899 -0.3490 -0.1149  0.8861
  381TMC3     C 5699   1.934   0.987  15.651 -0.8225  0.0040  0.3270
  381TMC3     O 5700   1.822   0.943  15.624  0.0645  0.6224 -0.1387
  381TMC3     H 5701   2.130   1.063  15.801 -0.1029 -0.1832 -1.1912
  381TMC3    H1 5702   1.730   1.139  15.696 -1.0217  1.3118 -0.0289
  381TMC3    H2 5703   1.936   1.406  15.955 -0.0534  1.8290 -2.3774
  381TMC3    C7 5704   1.678   1.306  15.883 -0.4811 -0.1881 -0.6723
  381TMC3    C8 5705   2.145   1.284  15.965  0.4337  0.2176 -0.0942
  381TMC3    O1 5706   1.589   1.234  15.850  0.2026  0.1638  0.0194
  381TMC3    O2 5707   2.255   1.269  15.908 -0.1243  0.5265  0.6766
  382MPD2     C 5708   1.072   4.222  16.698 -0.4246 -0.1844 -0.6960
  382MPD2    C1 5709   1.056   4.188  16.829 -0.3146 -0.4154 -0.7146
  382MPD2    C2 5710   1.097   4.064  16.872 -0.5198 -0.4228  0.4904
  382MPD2    C3 5711   1.147   3.967  16.785 -0.1004 -0.2283 -0.1426
  382MPD2    C4 5712   1.162   4.010  16.659 -0.6548  0.6642 -0.2623
  382MPD2    C5 5713   1.129   4.133  16.616  0.6199  0.1008  1.1520
  382MPD2     H 5714   1.073   4.026  16.971  2.6749 -1.9379  0.6859
  382MPD2    H1 5715   1.206   3.946  16.583  2.1213  1.5422  0.5970
  382MPD2    H2 5716   1.034   4.312  16.652  0.6879  0.9351  0.5920
  382MPD2    H3 5717   1.135   4.169  16.514  1.1343  1.7400  1.7632
  382MPD2     N 5718   1.180   3.838  16.821 -0.1761  0.0480  0.9821
  382MPD2    H5 5719   1.224   3.782  16.748  2.3774  3.1505  0.0956
  382MPD2    N1 5720   1.014   4.269  16.929 -0.4930 -0.8854  0.1584
  382MPD2    H7 5721   1.036   4.243  17.025  3.2258  0.9709 -0.1691
  383TMC3    C1 5722   1.138   3.626  16.915  0.7422  0.3531 -0.5303
  383TMC3    C2 5723   1.058   3.543  16.993 -0.3607 -0.2811 -0.0635
  383TMC3    C3 5724   1.097   3.418  17.029 -0.1482  0.7567  0.4796
  383TMC3    C4 5725   1.263   3.574  16.885 -0.7117  0.0722 -0.0429
  383TMC3    C5 5726   1.284   3.444  16.895 -0.3968  0.0674 -0.0011
  383TMC3    C6 5727   1.211   3.368  16.977  0.0492 -0.1021  0.9351
  383TMC3     C 5728   1.124   3.770  16.925 -0.4720 -0.0746 -0.2693
  383TMC3     O 5729   1.049   3.808  17.014 -0.2451  0.1951  0.6133
  383TMC3     H 5730   0.966   3.583  17.034  1.2187  1.9796  1.2723
  383TMC3    H1 5731   1.335   3.633  16.830  0.6088  0.3116  1.9306
  383TMC3    H2 5732   1.227   3.262  16.990 -0.7240 -0.2772  0.4624
  383TMC3    C7 5733   1.417   3.397  16.866 -0.6420 -0.0224 -0.2299
  383TMC3    C8 5734   0.991   3.333  17.088  0.1319  0.1843 -0.2394
  383TMC3    O1 5735   1.463   3.317  16.947  0.3399  0.2003  0.4122
  383TMC3    O2 5736   0.871   3.368  17.099 -0.3344  0.1552 -0.1762
  384MPD2     C 5737   3.066   0.076  12.264 -0.4731  0.2581  0.1792
  384MPD2    C1 5738   3.048   4.718  12.371  0.5488 -0.2230  0.4535
  384MPD2    C2 5739   3.105   4.594  12.369 -0.1052  0.0451 -0.0064
  384MPD2    C3 5740   3.176   4.549  12.265  0.2926  0.3026  0.2493
  384MPD2    C4 5741   3.199   4.628  12.159 -0.2252  0.1344 -0.1036
  384MPD2    C5 5742   3.148   0.032  12.160 -0.5592 -0.2271  0.7374
  384MPD2     H 5743   3.103   4.531  12.457 -1.8319 -0.8134 -0.6727
  384MPD2    H1 5744   3.254   4.597  12.071  1.1417  1.1991  0.3665
  384MPD2    H2 5745   3.025   0.176  12.261 -0.6149  0.2475  2.1007
  384MPD2    H3 5746   3.157   0.098  12.074  1.4301  1.2876  2.0885
  384MPD2     N 5747   3.221   4.416  12.274  0.5369  0.0817 -0.2534
  384MPD2    H5 5748   3.184   4.371  12.357 -0.9006 -0.3376 -1.1182
  384MPD2    N1 5749   2.981   0.034  12.490  0.0071  0.3564  0.6081
  384MPD2    H7 5750   2.999   4.698  12.568 -2.5495 -0.5674  0.4768
  385TMC3    C1 5751   3.270   4.204  12.203 -0.8374  0.1080  0.6298
  385TMC3    C2 5752   3.181   4.143  12.121  0.5880  0.1873  0.6281
  385TMC3    C3 5753   3.095   4.045  12.172 -0.2228 -0.1004  0.4321
  385TMC3    C4 5754   3.265   4.178  12.335 -0.2126  0.0002  0.0654
  385TMC3    C5 5755   3.168   4.104  12.389  0.3681  0.2101  0.1276
  385TMC3    C6 5756   3.082   4.033  12.307  0.3282 -0.2045  0.1621
  385TMC3     C 5757   3.286   4.345  12.170 -0.2833 -0.4559  0.3580
  385TMC3     O 5758   3.322   4.377  12.059 -0.0067  0.7051 -0.0157
  385TMC3     H 5759   3.174   4.183  12.020 -1.4983  0.0670  0.7093
  385TMC3    H1 5760   3.326   4.242  12.398 -0.8022 -0.5929  1.2207
  385TMC3    H2 5761   2.994   3.984  12.347 -0.3111  1.0017  0.2648
  385TMC3    C7 5762   3.106   4.175  12.495  0.1222  0.3632 -0.4635
  385TMC3    C8 5763   2.974   4.022  12.097  0.1218  0.0717 -0.5290
  385TMC3    O1 5764   3.147   4.288  12.520  0.0610 -0.5017  0.0107
  385TMC3    O2 5765   2.875   3.989  12.157 -0.3348  0.1822 -0.9610
  386TMC3    C1 5766   3.653   2.458  12.317  0.1091  0.2855  0.2354
  386TMC3    C2 5767   3.631   2.470  12.181  0.3557 -0.9477  0.5439
  386TMC3    C3 5768   3.573   2.584  12.129 -0.6385  0.9923 -0.6953
  386TMC3    C4 5769   3.619   2.558  12.400  0.1077  0.6936  0.2850
  386TMC3    C5 5770   3.544   2.659  12.348 -0.1742 -0.1277  0.4449
  386TMC3    C6 5771   3.521   2.675  12.216  0.0017 -0.2547  0.0908
  386TMC3     C 5772   3.703   2.330  12.361  0.0148  0.1113 -0.0504
  386TMC3     O 5773   3.750   2.324  12.472 -0.3611 -0.0149  0.1079
  386TMC3     H 5774   3.670   2.391  12.117  2.1450  0.1032  0.3430
  386TMC3    H1 5775   3.657   2.559  12.501  0.0058 -1.3647  0.3306
  386TMC3    H2 5776   3.465   2.761  12.181  1.1741 -0.2753 -1.8019
  386TMC3    C7 5777   3.454   2.714  12.447  0.4838  0.0489 -0.2359
  386TMC3    C8 5778   3.518   2.589  11.998 -0.3908  0.1705 -0.3052
  386TMC3    O1 5779   3.423   2.639  12.538 -0.0124 -0.8167  0.0555
  386TMC3    O2 5780   3.433   2.673  11.970 -0.4333  1.0136  0.2224
  387MPD2     C 5781   1.229   2.136  10.140  0.2432 -0.2574  0.4156
  387MPD2    C1 5782   1.356   2.133  10.188 -0.5461  0.0131  0.4952
  387MPD2    C2 5783   1.433   2.019  10.170  0.5368  0.0798  0.1095
  387MPD2    C3 5784   1.382   1.899  10.121 -0.6831  0.3423 -0.0353
  387MPD2    C4 5785   1.253   1.911  10.074  0.5814 -0.2093  0.5827
  387MPD2    C5 5786   1.177   2.023  10.077  0.8463  0.7808  0.5438
  387MPD2     H 5787   1.531   2.023  10.216  0.2236 -1.9004  0.9152
  387MPD2    H1 5788   1.212   1.822  10.028  0.6547 -0.0817  0.2726
  387MPD2    H2 5789   1.160   2.216  10.161 -0.0247 -0.3132 -0.2421
  387MPD2    H3 5790   1.077   2.029  10.036  0.8575  0.3935  0.4661
  387MPD2     N 5791   1.449   1.777  10.150  0.3994 -0.2177  0.1042
  387MPD2    H5 5792   1.545   1.782  10.184  0.2666  0.4294  0.3752
  387MPD2    N1 5793   1.412   2.237  10.267  0.1424  0.5363 -0.9928
  387MPD2    H7 5794   1.509   2.226  10.298 -0.3119  0.2997  0.3597
  388TMC3    C1 5795   1.392   2.370  10.473  0.2507  0.0926  0.2658
  388TMC3    C2 5796   1.317   2.460  10.548  0.1843 -0.6822 -0.0540
  388TMC3    C3 5797   1.301   2.446  10.682 -0.5284 -0.4420 -0.2048
  388TMC3    C4 5798   1.459   2.267  10.539  0.3213 -0.2453 -0.0431
  388TMC3    C5 5799   1.451   2.264  10.677  0.1681  0.0198 -0.1418
  388TMC3    C6 5800   1.366   2.341  10.756  0.5919 -0.0136 -0.0961
  388TMC3     C 5801   1.335   2.337  10.334  0.7967 -0.5591 -0.5700
  388TMC3     O 5802   1.218   2.371  10.320  0.1056  0.5902  0.1269
  388TMC3     H 5803   1.257   2.538  10.502  0.5789 -0.7291 -0.6357
  388TMC3    H1 5804   1.532   2.209  10.483 -0.1678 -1.0363  0.1251
  388TMC3    H2 5805   1.364   2.335  10.864  0.0767  1.4241 -0.0282
  388TMC3    C7 5806   1.524   2.155  10.734 -0.4574  0.6233 -0.1474
  388TMC3    C8 5807   1.233   2.557  10.753 -0.6362  0.0457 -1.2374
  388TMC3    O1 5808   1.580   2.161  10.838  0.0006  0.2530 -0.5519
  388TMC3    O2 5809   1.221   2.663  10.695 -0.1964 -0.0535  0.4363
  389MPD2     C 5810   0.646   0.614  11.320  0.2730  0.0308 -0.3111
  389MPD2    C1 5811   0.607   0.512  11.242 -0.3332  0.9604 -0.6977
  389MPD2    C2 5812   0.492   0.440  11.275 -0.1476  0.1122  0.1320
  389MPD2    C3 5813   0.415   0.484  11.383 -0.2132 -0.6790 -0.5470
  389MPD2    C4 5814   0.458   0.580  11.468  0.3626 -0.1357 -0.0739
  389MPD2    C5 5815   0.574   0.645  11.432 -0.6433 -0.2828 -0.4303
  389MPD2     H 5816   0.468   0.359  11.207  0.4729  0.0822 -0.0509
  389MPD2    H1 5817   0.412   0.597  11.565  1.9428 -0.1011  0.6702
  389MPD2    H2 5818   0.736   0.670  11.298  0.6690 -1.8886 -3.6184
  389MPD2    H3 5819   0.611   0.726  11.495  2.2541 -1.2086 -0.9525
  389MPD2     N 5820   0.283   0.438  11.405 -0.3439 -0.4194 -0.4409
  389MPD2    H5 5821   0.239   0.487  11.481  2.5881 -1.0575  1.6600
  389MPD2    N1 5822   0.711   0.464  11.154  0.0505 -0.0308  0.3479
  389MPD2    H7 5823   0.798   0.515  11.156 -0.4128  0.7993 -0.5571
  390TMC3    C1 5824   0.099   0.296  11.414  0.1488 -0.2479 -0.8587
  390TMC3    C2 5825   0.095   0.314  11.549  0.5335  0.7607  0.7048
  390TMC3    C3 5826   4.697   0.290  11.611  0.3211 -0.4404  0.4894
  390TMC3    C4 5827   4.712   0.251  11.340  0.4169 -0.6854  0.1327
  390TMC3    C5 5828   4.596   0.239  11.416 -0.2755 -0.1522  0.2657
  390TMC3    C6 5829   4.582   0.268  11.547  0.2004  0.2530 -0.5778
  390TMC3     C 5830   0.217   0.336  11.335  0.3212  0.2655 -1.0639
  390TMC3     O 5831   0.247   0.276  11.234  0.0222 -0.6037 -0.3860
  390TMC3     H 5832   0.182   0.348  11.604 -0.1056  1.8310  1.0579
  390TMC3    H1 5833   4.721   0.230  11.234  1.7956  0.3811  0.0427
  390TMC3    H2 5834   4.496   0.261  11.612 -0.4032  1.1024 -1.2884
  390TMC3    C7 5835   4.481   0.208  11.336  0.3569 -0.2468 -0.2256
  390TMC3    C8 5836   4.707   0.234  11.740 -0.2858 -0.0537  0.2642
  390TMC3    O1 5837   4.498   0.196  11.217  0.3135 -0.6223 -0.5980
  390TMC3    O2 5838   0.077   0.254  11.819 -0.2152  0.4406 -0.1503
  391MPD2     C 5839   4.336   1.971  10.997 -0.2824  0.0940 -0.3151
  391MPD2    C1 5840   4.441   2.054  11.021 -0.8522  0.4036  0.1806
  391MPD2    C2 5841   4.494   2.121  10.912 -0.1416 -0.2256 -0.3300
  391MPD2    C3 5842   4.443   2.120  10.788  0.0239 -0.3050  0.5128
  391MPD2    C4 5843   4.335   2.035  10.768  0.8874 -0.3700 -0.3135
  391MPD2    C5 5844   4.287   1.963  10.869  0.5581 -0.3330  0.0747
  391MPD2     H 5845   4.578   2.189  10.924  0.9733 -1.5730 -0.4613
  391MPD2    H1 5846   4.283   2.035  10.672  1.5961  1.0887 -0.6979
  391MPD2    H2 5847   4.304   1.899  11.071  2.7755 -1.5130 -0.5658
  391MPD2    H3 5848   4.198   1.905  10.849 -1.7082  2.5601  1.8193
  391MPD2     N 5849   4.492   2.209  10.688 -0.0563  0.6614 -0.2556
  391MPD2    H5 5850   4.558   2.282  10.716  0.3991  0.4704 -0.8317
  391MPD2    N1 5851   4.486   2.070  11.155 -0.0466 -0.1608  0.0871
  391MPD2    H7 5852   4.414   2.044  11.223  0.4291 -1.2537  0.1529
  392TMC3    C1 5853   4.522   2.306  10.483  0.3059 -0.0778 -0.2678
  392TMC3    C2 5854   4.541   2.265  10.352 -0.1289 -0.3832 -0.7247
  392TMC3    C3 5855   4.608   2.346  10.269  0.0261  0.2790 -0.2026
  392TMC3    C4 5856   4.563   2.432  10.524 -0.2706 -0.1499  0.4654
  392TMC3    C5 5857   4.653   2.494  10.441  0.3611 -0.3019  0.9493
  392TMC3    C6 5858   4.671   2.459  10.310  0.9624  0.6035 -0.8446
  392TMC3     C 5859   4.442   2.212  10.562  0.6767  0.1855 -0.2140
  392TMC3     O 5860   4.371   2.137  10.500 -0.2997  0.3404 -0.5274
  392TMC3     H 5861   4.494   2.177  10.309 -3.4287  0.4035  1.2853
  392TMC3    H1 5862   4.533   2.472  10.621 -2.1657 -0.2762 -0.0826
  392TMC3    H2 5863   0.005   2.521  10.243  1.3669  2.6234  1.3558
  392TMC3    C7 5864   0.001   2.599  10.510  0.3110 -0.2482 -0.2507
  392TMC3    C8 5865   4.638   2.286  10.140 -0.2148 -0.1711  0.3776
  392TMC3    O1 5866   4.698   2.630  10.624 -0.0274 -0.2057  0.0545
  392TMC3    O2 5867   4.669   2.167  10.138  0.0947 -0.2160  0.2549
  393TMC3    C1 5868   4.097   0.177  10.490  0.1995  0.3871 -0.1474
  393TMC3    C2 5869   3.989   0.149  10.574 -0.7206  1.1117 -0.8063
  393TMC3    C3 5870   3.986   0.015  10.623  0.0685  0.0796 -0.2657
  393TMC3    C4 5871   4.195   0.080  10.467  0.4855  0.6462  0.5749
  393TMC3    C5 5872   4.182   4.679  10.524  0.3954  0.1616  0.3401
  393TMC3    C6 5873   4.071   4.640  10.595  0.3691  0.6547  0.7893
  393TMC3     C 5874   4.086   0.286  10.395  0.2919 -0.5513  0.0952
  393TMC3     O 5875   4.149   0.278  10.289 -0.6170 -0.6033  0.6894
  393TMC3     H 5876   3.911   0.221  10.596 -1.8678  0.2321 -2.0663
  393TMC3    H1 5877   4.275   0.112  10.400 -0.5461  2.7072  0.3487
  393TMC3    H2 5878   4.079   4.550  10.655 -0.2452  0.3309  0.3881
  393TMC3    C7 5879   4.282   4.577  10.511  0.5412 -0.5266  0.4733
  393TMC3    C8 5880   3.852   4.692  10.651  0.2166 -0.9787 -0.1826
  393TMC3    O1 5881   4.266   4.471  10.571  0.0306  0.4225 -0.1870
  393TMC3    O2 5882   3.765   0.045  10.685  0.9038 -0.5777 -0.1127
  394TMC3    C1 5883   0.816   0.367  10.963  0.5041 -0.3136  0.5488
  394TMC3    C2 5884   0.821   0.258  10.876 -0.8736 -0.7184 -0.2624
  394TMC3    C3 5885   0.919   0.270  10.777  0.1249 -0.1280 -0.9024
  394TMC3    C4 5886   0.900   0.475  10.949  0.2066  0.4514 -0.3465
  394TMC3    C5 5887   0.986   0.483  10.843 -0.1192 -0.0937 -0.1224
  394TMC3    C6 5888   0.985   0.390  10.745 -0.0500 -0.1270 -1.3940
  394TMC3     C 5889   0.700   0.367  11.066  0.2252 -0.4579  0.0604
  394TMC3     O 5890   0.614   0.287  11.041  0.0427 -0.3769 -0.0956
  394TMC3     H 5891   0.765   0.170  10.907 -1.0001 -0.3801  0.4679
  394TMC3    H1 5892   0.894   0.549  11.028  2.6677 -0.0787  0.3384
  394TMC3    H2 5893   1.048   0.397  10.657  0.2165  2.7533 -0.9779
  394TMC3    C7 5894   1.037   0.611  10.804  0.4664 -0.1418 -0.1531
  394TMC3    C8 5895   0.923   0.181  10.666 -0.1765  0.6958 -0.3182
  394TMC3    O1 5896   1.078   0.625  10.691 -0.1151 -0.2528 -0.1066
  394TMC3    O2 5897   1.028   0.188  10.600  0.4626  0.9415  0.1145
  395TMC3    C1 5898   4.583   1.865  15.324  0.0865  0.8251 -0.2300
  395TMC3    C2 5899   4.461   1.835  15.261  0.7050 -0.0567 -0.5605
  395TMC3    C3 5900   4.470   1.794  15.133  0.4146 -0.0992  0.3708
  395TMC3    C4 5901   4.697   1.899  15.251  0.4442 -0.0448 -0.2774
  395TMC3    C5 5902   4.707   1.857  15.120  0.4892  0.0537  0.2571
  395TMC3    C6 5903   4.590   1.811  15.060 -0.5640  0.1923 -0.3024
  395TMC3     C 5904   4.585   1.871  15.465  0.6957  0.7761 -0.0614
  395TMC3     O 5905   4.490   1.921  15.513  0.1900 -1.0351  0.3924
  395TMC3     H 5906   4.375   1.815  15.323  1.2503 -1.3629 -0.2280
  395TMC3    H1 5907   0.047   1.946  15.315 -0.7113  0.1597  0.9224
  395TMC3    H2 5908   4.581   1.788  14.955 -2.6147  0.5900 -0.2089
  395TMC3    C7 5909   0.062   1.931  15.027 -0.3769  0.4778  0.6311
  395TMC3    C8 5910   4.343   1.790  15.064  0.0560 -0.1148 -0.6327
  395TMC3    O1 5911   0.038   1.923  14.906 -0.0457 -1.0118  0.9156
  395TMC3    O2 5912   4.251   1.856  15.114  0.3451  0.5818  0.1803
  396MPD2     C 5913   4.603   3.545  17.533  0.1625 -0.3424 -0.4721
  396MPD2    C1 5914   4.667   3.515  17.415 -0.3463 -0.2611 -0.4322
  396MPD2    C2 5915   4.695   3.615  17.329 -0.1897 -0.1860 -0.6919
  396MPD2    C3 5916   4.651   3.743  17.352  0.4602 -0.1190  0.2169
  396MPD2    C4 5917   4.582   3.774  17.462 -0.5507 -0.1582 -0.3240
  396MPD2    C5 5918   4.561   3.674  17.548  0.1000  0.1806 -0.1282
  396MPD2     H 5919   0.018   3.605  17.233  2.1405  1.2737  0.3284
  396MPD2    H1 5920   4.542   3.872  17.486 -0.1417  0.0504 -0.4974
  396MPD2    H2 5921   4.581   3.480  17.617 -2.3966  1.5188  0.3051
  396MPD2    H3 5922   4.508   3.704  17.637 -0.8272 -1.3160 -0.1565
  396MPD2     N 5923   4.690   3.845  17.262 -0.4251 -0.0578 -0.0830
  396MPD2    H5 5924   0.014   3.801  17.185  0.2069  2.9932 -1.4449
  396MPD2    N1 5925   4.716   3.380  17.398 -0.4570  0.3987  0.0521
  396MPD2    H7 5926   4.719   3.328  17.485  0.8874  0.5462  0.1010
  397TMC3    C1 5927   0.088   3.190  17.293 -0.3822 -0.0916  0.1883
  397TMC3    C2 5928   0.140   3.152  17.170  0.0906 -0.2003  0.2430
  397TMC3    C3 5929   0.079   3.048  17.096  0.0787 -0.1144  0.3041
  397TMC3    C4 5930   4.722   3.102  17.351  0.0201  0.0984 -0.5732
  397TMC3    C5 5931   4.674   2.990  17.284 -0.6317 -0.0071 -0.1387
  397TMC3    C6 5932   4.710   2.969  17.156  0.6613  0.5014 -0.1077
  397TMC3     C 5933   0.046   3.330  17.278 -0.1529 -0.6079 -0.6193
  397TMC3     O 5934   0.050   3.388  17.174  0.2130  0.2828 -0.6850
  397TMC3     H 5935   0.190   3.234  17.119 -0.0625 -0.2362  0.0368
  397TMC3    H1 5936   4.676   3.126  17.447 -1.2419  1.4658 -1.5285
  397TMC3    H2 5937   4.664   2.888  17.101 -0.1915  0.9694 -0.0789
  397TMC3    C7 5938   4.601   2.883  17.344 -0.3826  0.4734  0.5061
  397TMC3    C8 5939   0.039   3.083  16.964 -0.4275 -0.1278 -0.9373
  397TMC3    O1 5940   4.529   2.821  17.268  0.0058 -0.4058 -0.0392
  397TMC3    O2 5941   4.650   3.057  16.931 -0.1823  0.1555 -0.0274
  398MPD2     C 5942   2.578   4.627  17.685 -0.5574  0.0267 -0.7191
  398MPD2    C1 5943   2.675   4.533   0.013 -0.6232  0.6690 -0.7690
  398MPD2    C2 5944   2.805   4.579   0.019 -0.3235  0.1933 -0.1703
  398MPD2    C3 5945   2.840   4.710   0.017 -0.1023 -0.1478  0.5834
  398MPD2    C4 5946   2.740   0.084   0.007 -0.2950 -0.0871 -0.1897
  398MPD2    C5 5947   2.605   0.037  17.687  0.6402  0.3268  0.3402
  398MPD2     H 5948   2.889   4.512   0.034 -0.3957  0.5083  1.7097
  398MPD2    H1 5949   2.764   0.189   0.001 -0.7342  0.0641  0.6883
  398MPD2    H2 5950   2.477   4.592  17.664 -0.1053 -2.1446  0.6989
  398MPD2    H3 5951   2.531   0.112  17.664  0.2004 -1.0718 -2.8226
  398MPD2     N 5952   2.978   0.021   0.047  0.4477 -0.2137 -0.8279
  398MPD2    H5 5953   3.049   4.674   0.036  0.0771 -0.3466 -2.2824
  398MPD2    N1 5954   2.643   4.392   0.019 -0.4898 -0.2232 -0.4568
  398MPD2    H7 5955   2.719   4.324   0.027 -1.4247 -0.9562  2.1083
  399TMC3    C1 5956   2.517   4.199   0.075  0.6015 -0.3193  0.3263
  399TMC3    C2 5957   2.617   4.160   0.157 -0.2875 -0.2308 -0.9133
  399TMC3    C3 5958   2.603   4.050   0.237  0.0812  0.2355  0.2666
  399TMC3    C4 5959   2.399   4.135   0.080 -0.4871  0.0962 -0.4670
  399TMC3    C5 5960   2.376   4.036   0.167  0.4250 -0.4198 -0.1992
  399TMC3    C6 5961   2.477   3.983   0.243 -0.0126  0.4585  0.6821
  399TMC3     C 5962   2.519   4.336   0.028  0.1060  0.3451  0.2458
  399TMC3     O 5963   2.408   4.383   0.005 -0.6717 -0.1150 -0.0360
  399TMC3     H 5964   2.708   4.218   0.169  1.3631 -2.9795  0.0458
  399TMC3    H1 5965   2.313   4.176   0.028 -0.0477  2.3883  0.6375
  399TMC3    H2 5966   2.459   3.913   0.323 -1.1945 -1.5997 -1.3901
  399TMC3    C7 5967   2.250   3.969   0.183  0.3802  0.1374  0.0706
  399TMC3    C8 5968   2.697   4.027   0.343  0.0677  0.6048 -0.5798
  399TMC3    O1 5969   2.253   3.868   0.256  0.1292 -0.2369 -0.5698
  399TMC3    O2 5970   2.792   4.106   0.356 -0.0164  0.1239 -0.4726
  400TMC3    C1 5971   1.368   2.929  16.826 -0.3900  0.1330 -0.0135
  400TMC3    C2 5972   1.258   2.847  16.854  0.3966  0.4686 -0.3894
  400TMC3    C3 5973   1.142   2.899  16.802 -0.0830  0.0071  0.2957
  400TMC3    C4 5974   1.368   3.044  16.751 -0.3524  0.2827 -0.3411
  400TMC3    C5 5975   1.240   3.081  16.702 -0.1325 -0.2677 -0.3604
  400TMC3    C6 5976   1.129   3.025  16.742  0.3973 -0.3951 -0.4502
  400TMC3     C 5977   1.490   2.913  16.915  0.0973 -0.2920 -0.6149
  400TMC3     O 5978   1.543   3.021  16.929 -0.6633 -0.5304 -0.1425
  400TMC3     H 5979   1.253   2.747  16.895  3.2964 -0.3854 -2.0935
  400TMC3    H1 5980   1.462   3.096  16.737  0.3255 -0.3839  1.7830
  400TMC3    H2 5981   1.029   3.058  16.714  0.6442 -0.0684 -0.9349
  400TMC3    C7 5982   1.234   3.203  16.626  0.4717 -0.3439  0.4377
  400TMC3    C8 5983   1.023   2.824  16.852  0.1394  0.1286  0.1328
  400TMC3    O1 5984   1.337   3.220  16.568 -0.0843 -0.1176  0.5296
  400TMC3    O2 5985   1.051   2.754  16.950 -0.2802 -0.1269  0.1908
  401MPD2     C 5986   0.194   2.546   1.463  0.5926  0.0441  0.8371
  401MPD2    C1 5987   0.277   2.480   1.381  0.4177  0.4943  0.1011
  401MPD2    C2 5988   0.232   2.396   1.289 -0.7427 -0.2885  0.5025
  401MPD2    C3 5989   0.101   2.368   1.273 -0.3017 -0.4057  0.2027
  401MPD2    C4 5990   0.020   2.419   1.368  0.8075 -0.2242  0.0855
  401MPD2    C5 5991   0.059   2.518   1.454  0.2843  1.3407  0.0619
  401MPD2     H 5992   0.295   2.342   1.219 -0.4291 -0.4807  0.9338
  401MPD2    H1 5993   4.639   2.398   1.373  0.8221 -0.0501  1.1270
  401MPD2    H2 5994   0.232   2.616   1.537  0.8588  2.0694 -1.1978
  401MPD2    H3 5995   4.712   2.569   1.517  1.0373  0.7539  1.3874
  401MPD2     N 5996   0.071   2.257   1.189  0.3670  0.4536 -0.1448
  401MPD2    H5 5997   0.150   2.217   1.140 -1.4571 -1.2901 -1.6099
  401MPD2    N1 5998   0.421   2.493   1.394 -0.0490 -0.1274 -0.3166
  401MPD2    H7 5999   0.480   2.439   1.331  0.8012  1.2827 -0.7589
  402TMC3    C1 6000   4.696   2.092   1.065 -0.2552  0.0930 -0.0910
  402TMC3    C2 6001   4.640   1.969   1.092  0.2439  0.0949 -0.2338
  402TMC3    C3 6002   4.704   1.857   1.039  0.2433  0.2195  0.2013
  402TMC3    C4 6003   0.079   2.115   0.982  0.4708 -0.1296 -0.4073
  402TMC3    C5 6004   0.119   2.000   0.918 -0.0847  0.6326  0.4734
  402TMC3    C6 6005   0.080   1.873   0.948  0.1786 -0.0646  0.6949
  402TMC3     C 6006   4.673   2.208   1.150 -0.0471  0.4857 -0.3627
  402TMC3     O 6007   4.563   2.248   1.190 -0.7539 -0.2276  0.3507
  402TMC3     H 6008   4.569   1.958   1.174  0.2816  0.4642 -0.1522
  402TMC3    H1 6009   0.115   2.212   0.947  0.1631  0.4004  0.7509
  402TMC3    H2 6010   0.140   1.788   0.917  2.0561  0.9940  1.3756
  402TMC3    C7 6011   0.204   2.014   0.803 -0.1767  0.6397 -0.0320
  402TMC3    C8 6012   4.667   1.723   1.069 -0.2047 -0.3342 -0.6076
  402TMC3    O1 6013   0.274   2.113   0.798 -0.2805 -0.7908 -0.0619
  402TMC3    O2 6014   4.712   1.646   0.985  0.0296  0.5844  0.5630
  403MPD2     C 6015   2.505   0.225  13.524  0.0356 -0.5002 -0.0006
  403MPD2    C1 6016   2.529   0.104  13.573 -0.2872 -0.1843  0.3260
  403MPD2    C2 6017   2.640   0.084  13.653 -0.3898 -0.1497 -0.2296
  403MPD2    C3 6018   2.720   0.185  13.697  0.3116  0.2394  0.0101
  403MPD2    C4 6019   2.690   0.306  13.651  0.1079 -0.3558 -0.2257
  403MPD2    C5 6020   2.579   0.326  13.572 -0.1310  0.4896 -0.5956
  403MPD2     H 6021   2.671   4.708  13.678  1.9772  0.0406 -2.3827
  403MPD2    H1 6022   2.748   0.396  13.669 -0.5885 -0.1440  0.9047
  403MPD2    H2 6023   2.417   0.250  13.466 -0.1777 -0.2805  0.4181
  403MPD2    H3 6024   2.558   0.420  13.523  0.5187  1.4792  1.0261
  403MPD2     N 6025   2.840   0.149  13.764 -0.3575  0.2607  0.8604
  403MPD2    H5 6026   2.829   0.055  13.799 -3.7398 -0.3140 -1.6817
  403MPD2    N1 6027   2.445   4.721  13.537 -0.1946 -0.0384 -0.3299
  403MPD2    H7 6028   2.362   0.019  13.482 -0.3793 -2.4736 -1.0629
  404TMC3    C1 6029   2.366   4.494  13.507  0.4447 -0.1797  0.1706
  404TMC3    C2 6030   2.341   4.374  13.571 -0.2333  0.7879  0.2469
  404TMC3    C3 6031   2.288   4.278  13.494  0.1227 -0.1872  0.3031
  404TMC3    C4 6032   2.337   4.524  13.378 -0.5400 -0.1987  0.0259
  404TMC3    C5 6033   2.291   4.419  13.299 -0.2524 -0.3672 -0.8020
  404TMC3    C6 6034   2.272   4.296  13.361  0.2435 -0.9164 -0.4956
  404TMC3     C 6035   2.457   4.586  13.581  0.2266  0.4409 -0.0633
  404TMC3     O 6036   2.521   4.538  13.670 -0.0811 -1.2589  0.2070
  404TMC3     H 6037   2.363   4.362  13.677  0.2423 -3.1364 -0.3107
  404TMC3    H1 6038   2.352   4.624  13.340  2.3172 -0.2667  0.9723
  404TMC3    H2 6039   2.228   4.220  13.299 -0.5065 -0.8077 -0.0997
  404TMC3    C7 6040   2.294   4.441  13.161 -0.2338  0.2527  0.1037
  404TMC3    C8 6041   2.309   4.141  13.549  0.1395 -0.2421 -0.2589
  404TMC3    O1 6042   2.370   4.531  13.129  0.1179  0.1998  0.0340
  404TMC3    O2 6043   2.332   4.054  13.476 -0.7322 -0.4345 -0.5434
  405MPD2     C 6044   2.970   4.326  14.721  0.8095 -0.2771 -0.1775
  405MPD2    C1 6045   2.843   4.282  14.681 -0.7838 -0.4982 -0.2274
  405MPD2    C2 6046   2.779   4.360  14.590 -0.1039 -0.3441 -0.4951
  405MPD2    C3 6047   2.849   4.451  14.507  0.3065  0.1528  0.6011
  405MPD2    C4 6048   2.969   4.495  14.558 -0.1397 -0.3245 -0.3385
  405MPD2    C5 6049   3.030   4.427  14.660 -0.6936 -0.2319 -1.0654
  405MPD2     H 6050   2.674   4.346  14.567 -0.4063  2.5276 -0.8526
  405MPD2    H1 6051   3.031   4.575  14.519 -0.1544 -0.3373 -0.3878
  405MPD2    H2 6052   3.018   4.272  14.801  0.7588  0.5220  0.3886
  405MPD2    H3 6053   3.135   4.449  14.679 -0.3046 -1.4161 -1.8606
  405MPD2     N 6054   2.767   4.519  14.411 -0.3738 -0.2449  0.0155
  405MPD2    H5 6055   2.668   4.500  14.399 -0.2481 -1.5275  1.0291
  405MPD2    N1 6056   2.771   4.190  14.765  0.2994  0.0921 -0.4206
  405MPD2    H7 6057   2.818   4.144  14.843 -2.1240 -0.0550  0.9416
  406TMC3    C1 6058   2.647   0.229  14.356  0.4321  0.7043  1.2804
  406TMC3    C2 6059   2.518   0.195  14.387 -0.1132  0.1234  0.2940
  406TMC3    C3 6060   2.493   0.062  14.407 -0.6660 -0.7978  0.4170
  406TMC3    C4 6061   2.743   0.135  14.335 -0.2503  0.4021 -0.5365
  406TMC3    C5 6062   2.701   0.001  14.324  0.0769  0.1802  0.2251
  406TMC3    C6 6063   2.580   4.687  14.371 -0.1881 -0.8950  0.8342
  406TMC3     C 6064   2.681   0.371  14.359 -0.5884  0.2094 -0.0676
  406TMC3     O 6065   2.791   0.407  14.400 -0.5370 -0.2298  0.1129
  406TMC3     H 6066   2.444   0.267  14.419  0.6252 -0.5633  3.5393
  406TMC3    H1 6067   2.845   0.164  14.309 -0.3831  0.4070 -1.0563
  406TMC3    H2 6068   2.541   4.590  14.342 -0.1918 -0.3621 -0.9304
  406TMC3    C7 6069   2.816   4.638  14.352 -0.0846 -0.4119  0.3716
  406TMC3    C8 6070   2.374   0.011  14.481 -0.3690 -0.5668  0.5937
  406TMC3    O1 6071   2.930   4.683  14.334  0.1682 -0.0359  0.3657
  406TMC3    O2 6072   2.294   0.096  14.516  0.3537 -0.5491 -0.2983
  407MPD2     C 6073   1.016   1.786   9.735 -0.2843 -0.4543  0.6151
  407MPD2    C1 6074   0.977   1.676   9.810 -0.0574 -0.0189 -0.0401
  407MPD2    C2 6075   0.879   1.693   9.905 -0.1055 -0.1868 -0.5519
  407MPD2    C3 6076   0.815   1.818   9.929 -0.4376 -0.0425  0.1949
  407MPD2    C4 6077   0.844   1.919   9.842  0.0919  0.3608 -0.4406
  407MPD2    C5 6078   0.940   1.904   9.750  0.4665 -0.4133 -0.4104
  407MPD2     H 6079   0.858   1.610   9.971 -1.1278  2.1456  2.0762
  407MPD2    H1 6080   0.790   2.013   9.851 -1.5774 -0.7866  1.4282
  407MPD2    H2 6081   1.091   1.772   9.657 -3.0399 -2.7326 -1.6497
  407MPD2    H3 6082   0.959   1.984   9.680  0.6572  0.3629  0.5234
  407MPD2     N 6083   0.735   1.840  10.044  0.4860 -0.2597  0.1910
  407MPD2    H5 6084   0.697   1.934  10.050  1.5271  0.1992 -0.4773
  407MPD2    N1 6085   1.054   1.556   9.793  0.5131  0.1528 -0.2535
  407MPD2    H7 6086   1.137   1.559   9.734 -0.2500 -2.9591 -1.5056
  408TMC3    C1 6087   1.119   1.329   9.821 -0.3314 -0.2112  0.3822
  408TMC3    C2 6088   1.249   1.367   9.813  0.1035  0.3311  1.0343
  408TMC3    C3 6089   1.335   1.260   9.797 -0.2303 -0.1706 -0.0211
  408TMC3    C4 6090   1.075   1.199   9.817  0.1018 -0.1203  0.1835
  408TMC3    C5 6091   1.158   1.102   9.783  0.3928 -0.1320 -0.3626
  408TMC3    C6 6092   1.295   1.130   9.782 -0.2057 -1.0236  0.0593
  408TMC3     C 6093   1.022   1.430   9.846 -0.6081  0.8594  0.0784
  408TMC3     O 6094   0.919   1.390   9.900 -0.0253 -0.2574  0.1783
  408TMC3     H 6095   1.277   1.471   9.828  1.8624  0.1119 -0.6779
  408TMC3    H1 6096   0.971   1.172   9.834 -0.0938 -0.8799 -2.2835
  408TMC3    H2 6097   1.361   1.048   9.754 -2.0117 -2.3474 -0.2805
  408TMC3    C7 6098   1.103   0.969   9.794 -0.2462 -0.5560 -0.6012
  408TMC3    C8 6099   1.479   1.271   9.802  0.1123 -0.3260  0.1000
  408TMC3    O1 6100   0.988   0.945   9.759  0.5354  0.3217 -0.3326
  408TMC3    O2 6101   1.550   1.170   9.802 -0.2019 -0.0273  0.2735
  409MPD2     C 6102   4.510   2.494  17.119  0.4293  0.2388 -0.6392
  409MPD2    C1 6103   4.632   2.494  17.177  0.3612 -0.7181 -0.0720
  409MPD2    C2 6104   0.007   2.563  17.128  0.4235  1.4627  0.0125
  409MPD2    C3 6105   4.703   2.646  17.022 -0.1000  0.0175 -0.4246
  409MPD2    C4 6106   4.583   2.654  16.963  0.3086  0.0288  1.1795
  409MPD2    C5 6107   4.485   2.570  17.011 -0.2115 -0.2365 -0.2610
  409MPD2     H 6108   0.106   2.562  17.172  0.4489 -0.2356 -0.0664
  409MPD2    H1 6109   4.564   2.723  16.881 -0.3188  0.1742  1.4510
  409MPD2    H2 6110   4.429   2.437  17.163 -0.6505  0.6360 -2.0965
  409MPD2    H3 6111   4.390   2.575  16.959 -0.4307  0.7352  0.2214
  409MPD2     N 6112   0.089   2.707  16.956  0.6672 -0.8548  0.1350
  409MPD2    H5 6113   0.067   2.743  16.864 -0.5795 -1.2193  0.2823
  409MPD2    N1 6114   4.664   2.419  17.290  0.1189 -0.0675 -0.1007
  409MPD2    H7 6115   0.020   2.448  17.344  0.0791 -0.8579  0.3841
  410TMC3    C1 6116   0.295   2.797  16.922 -0.1464  0.1142  0.7580
  410TMC3    C2 6117   0.409   2.848  16.980  0.1962  0.0949  0.2714
  410TMC3    C3 6118   0.479   2.926  16.884 -0.0474  0.8282  0.0523
  410TMC3    C4 6119   0.268   2.801  16.789 -0.1156  0.5766 -0.2700
  410TMC3    C5 6120   0.340   2.873  16.699 -0.7649  0.7546  0.1976
  410TMC3    C6 6121   0.443   2.941  16.754  0.1565  0.0400 -0.0965
  410TMC3     C 6122   0.217   2.713  17.006  0.3146  0.4266 -0.4729
  410TMC3     O 6123   0.267   2.689  17.113 -0.4120  0.0379 -0.2496
  410TMC3     H 6124   0.430   2.827  17.084  0.1088 -1.5933 -0.0503
  410TMC3    H1 6125   0.202   2.731  16.737  0.5013  0.7680 -1.3186
  410TMC3    H2 6126   0.518   2.994  16.695  1.8492  0.0669  2.0967
  410TMC3    C7 6127   0.270   2.914  16.588 -0.1713 -0.1310  0.4384
  410TMC3    C8 6128   0.601   2.996  16.930 -0.1929 -0.2554 -0.1370
  410TMC3    O1 6129   0.156   2.868  16.579  0.2670 -0.1256 -0.4065
  410TMC3    O2 6130   0.631   3.108  16.884 -0.4694  0.0833  0.7293
  411MPD2     C 6131   0.616   2.914  14.706 -0.3390  0.3836  0.5888
  411MPD2    C1 6132   0.497   2.945  14.644 -0.4501 -0.7086 -0.7010
  411MPD2    C2 6133   0.425   2.838  14.589 -0.0853  0.6545  0.1604
  411MPD2    C3 6134   0.468   2.708  14.600 -0.1491 -0.1217 -0.6326
  411MPD2    C4 6135   0.585   2.683  14.656  0.2082 -0.4273  1.0395
  411MPD2    C5 6136   0.654   2.778  14.720 -0.4998 -0.2652  0.4013
  411MPD2     H 6137   0.323   2.863  14.560 -0.7996 -1.2520  1.0308
  411MPD2    H1 6138   0.630   2.584  14.662  2.1066  0.4005  0.5841
  411MPD2    H2 6139   0.674   2.986  14.762  1.4893  2.4588 -3.9347
  411MPD2    H3 6140   0.745   2.739  14.764  1.3119 -0.4305 -3.4840
  411MPD2     N 6141   0.392   2.594  14.566 -0.7813 -0.3040 -0.5184
  411MPD2    H5 6142   0.435   2.504  14.585  0.1007 -0.0522 -1.3399
  411MPD2    N1 6143   0.449   3.079  14.643  0.7011  0.2698 -0.9217
  411MPD2    H7 6144   0.361   3.097  14.596 -1.6535  0.1940  3.4753
  412TMC3    C1 6145   0.222   2.469  14.461 -0.8772  0.0302 -1.2296
  412TMC3    C2 6146   0.091   2.476  14.416 -0.5404 -0.0367 -0.3598
  412TMC3    C3 6147   0.062   2.428  14.289 -0.1580  0.0803 -0.4548
  412TMC3    C4 6148   0.318   2.408  14.381  0.5664  0.3603 -0.4188
  412TMC3    C5 6149   0.277   2.346  14.269 -0.4403 -0.1113 -0.0007
  412TMC3    C6 6150   0.152   2.359  14.218 -0.1711 -0.0036 -0.5246
  412TMC3     C 6151   0.268   2.596  14.511 -0.4267  0.2408  0.6992
  412TMC3     O 6152   0.193   2.691  14.495  0.2320  0.4259 -0.6297
  412TMC3     H 6153   0.010   2.523  14.470 -2.0163 -0.9658 -1.7580
  412TMC3    H1 6154   0.426   2.414  14.397  0.6697  1.0991 -1.4377
  412TMC3    H2 6155   0.124   2.316  14.123 -2.0106 -0.4997  0.2302
  412TMC3    C7 6156   0.381   2.353  14.171  0.1528 -0.4281  0.9257
  412TMC3    C8 6157   0.000   2.538  14.217  0.1055 -0.1083  0.3124
  412TMC3    O1 6158   0.453   2.451  14.172  0.6160  0.1832 -0.1490
  412TMC3    O2 6159   4.624   2.584  14.260 -0.0653 -0.4932 -0.6735
  413MPD2     C 6160   1.685   1.335  15.492  0.2934 -0.2255  0.3775
  413MPD2    C1 6161   1.631   1.243  15.402 -0.7097  0.1992  0.5138
  413MPD2    C2 6162   1.722   1.172  15.327  0.3444  0.1010  0.4179
  413MPD2    C3 6163   1.862   1.190  15.333 -0.4702  0.3686 -0.0715
  413MPD2    C4 6164   1.912   1.285  15.413 -0.2001 -0.2558  0.4523
  413MPD2    C5 6165   1.821   1.362  15.491  0.5225 -0.1749  1.0876
  413MPD2     H 6166   1.687   1.099  15.255  3.1580 -2.0807  1.2532
  413MPD2    H1 6167   2.016   1.315  15.421  0.4842 -2.5627  0.2801
  413MPD2    H2 6168   1.615   1.397  15.548 -0.5731 -0.4028 -0.5206
  413MPD2    H3 6169   1.855   1.435  15.563 -0.0562  0.5688  0.6056
  413MPD2     N 6170   1.951   1.115  15.252 -0.2070 -0.6221 -0.0579
  413MPD2    H5 6171   1.903   1.043  15.200  0.3392  0.3526 -1.9055
  413MPD2    N1 6172   1.489   1.239  15.383 -0.6151  0.0008 -0.4103
  413MPD2    H7 6173   1.431   1.296  15.443 -0.9597 -0.3531 -0.4066
  414TMC3    C1 6174   2.142   1.070  15.120 -0.1661 -0.0880 -0.6710
  414TMC3    C2 6175   2.110   0.937  15.113  0.3723  0.1723 -0.7129
  414TMC3    C3 6176   2.163   0.863  15.004 -1.0844 -0.4169  0.1452
  414TMC3    C4 6177   2.227   1.134  15.029  0.6824  0.2453  0.0208
  414TMC3    C5 6178   2.275   1.059  14.925 -0.0569  0.4846 -0.0998
  414TMC3    C6 6179   2.237   0.928  14.910 -0.0260  0.1109  0.2631
  414TMC3     C 6180   2.079   1.151  15.222  0.0513 -0.1104  0.0200
  414TMC3     O 6181   2.156   1.240  15.256 -0.3079  0.4115  0.1225
  414TMC3     H 6182   2.045   0.891  15.186  0.6754 -0.0624 -0.5955
  414TMC3    H1 6183   2.235   1.243  15.027  2.6100  0.0994 -0.0890
  414TMC3    H2 6184   2.265   0.868  14.824  0.2157  0.4047  0.1386
  414TMC3    C7 6185   2.419   1.072  14.919  0.2864 -1.1803 -0.1687
  414TMC3    C8 6186   2.216   0.728  15.042 -0.2973  0.4275  0.2577
  414TMC3    O1 6187   2.475   1.098  15.024  0.0439  0.2592  0.2738
  414TMC3    O2 6188   2.135   0.637  15.059  0.0736 -0.9499 -0.8714
  415TMC3    C1 6189   2.429   4.378   9.882 -0.5042 -0.2378 -0.3707
  415TMC3    C2 6190   2.411   4.494   9.813 -0.2922 -0.5662 -0.1041
  415TMC3    C3 6191   2.372   4.479   9.681 -0.1315  0.0626 -0.1292
  415TMC3    C4 6192   2.413   4.252   9.826 -0.8509  0.7073  0.2383
  415TMC3    C5 6193   2.376   4.256   9.694  0.0075 -0.1325 -0.4930
  415TMC3    C6 6194   2.355   4.361   9.621  0.6019  0.2459  0.4158
  415TMC3     C 6195   2.489   4.366  10.016  0.6136  0.5853 -0.7357
  415TMC3     O 6196   2.506   4.255  10.057  0.1099  0.5693  0.5145
  415TMC3     H 6197   2.408   4.591   9.862 -1.8889 -0.4296 -0.4801
  415TMC3    H1 6198   2.413   4.163   9.888  0.9123 -0.0625 -0.8931
  415TMC3    H2 6199   2.337   4.357   9.514  0.2508 -0.0943  0.4874
  415TMC3    C7 6200   2.406   4.139   9.613 -0.8694  0.6234  0.9694
  415TMC3    C8 6201   2.420   4.580   9.588 -0.4391 -0.2611 -0.5981
  415TMC3    O1 6202   2.346   4.129   9.508  0.2580  0.5484  0.1924
  415TMC3    O2 6203   2.341   4.630   9.507 -0.5449 -0.5300  0.3386
  416MPD2     C 6204   4.418   3.395  11.607  0.7162 -0.7592 -0.1275
  416MPD2    C1 6205   4.297   3.329  11.631  0.0664 -1.0478 -0.0904
  416MPD2    C2 6206   4.275   3.209  11.570 -0.3577 -0.2099  0.3774
  416MPD2    C3 6207   4.372   3.151  11.492  0.2220  0.4196 -0.1026
  416MPD2    C4 6208   4.489   3.210  11.472 -0.1010  0.1883 -0.4286
  416MPD2    C5 6209   4.510   3.331  11.528 -0.4167  0.7117  0.5672
  416MPD2     H 6210   4.177   3.164  11.575 -0.3895 -0.0209  1.3933
  416MPD2    H1 6211   4.567   3.171  11.407  0.0449  1.2202 -0.8660
  416MPD2    H2 6212   4.446   3.484  11.664 -1.9306  1.6271 -2.5851
  416MPD2    H3 6213   4.599   3.388  11.503  0.4716 -1.3746 -1.0324
  416MPD2     N 6214   4.355   3.026  11.425 -0.1435 -0.7040 -0.2753
  416MPD2    H5 6215   4.435   2.980  11.381  0.6270  1.8251 -1.5390
  416MPD2    N1 6216   4.202   3.394  11.716  0.2480 -0.4093 -0.1622
  416MPD2    H7 6217   4.221   3.484  11.760 -1.3118  0.2420 -0.8455
  417TMC3    C1 6218   4.045   3.414  11.874 -1.3051 -1.0403  0.4728
  417TMC3    C2 6219   4.027   3.374  12.002 -0.2041 -0.3804 -0.2363
  417TMC3    C3 6220   3.976   3.465  12.097  0.2609 -0.4754 -0.3858
  417TMC3    C4 6221   4.034   3.543  11.844 -0.8171 -0.1023 -0.1384
  417TMC3    C5 6222   3.986   3.630  11.932  0.6114  0.5156 -0.5081
  417TMC3    C6 6223   3.944   3.590  12.054  0.1163 -0.5624  0.2316
  417TMC3     C 6224   4.105   3.326  11.779 -0.2112  0.2596 -0.4579
  417TMC3     O 6225   4.073   3.207  11.786 -0.1431 -0.1195  0.5788
  417TMC3     H 6226   4.055   3.271  12.022 -0.5075 -0.6428 -1.1894
  417TMC3    H1 6227   4.047   3.585  11.745  1.3170  1.3681  0.7749
  417TMC3    H2 6228   3.899   3.653  12.129 -0.1025 -1.1384  0.5895
  417TMC3    C7 6229   3.935   3.759  11.883 -0.3429  1.1038  0.2166
  417TMC3    C8 6230   3.977   3.437  12.238  0.3825  0.3879  1.1189
  417TMC3    O1 6231   3.985   3.808  11.785 -0.3519  0.3699 -0.1678
  417TMC3    O2 6232   3.897   3.496  12.303  0.2093  0.6486 -0.2811
  418TMC3    C1 6233   3.310   4.680   0.164  0.7482 -0.7389  0.2474
  418TMC3    C2 6234   3.244   0.054   0.093 -0.3645 -0.2043 -0.1734
  418TMC3    C3 6235   3.152   0.135   0.156  0.1943 -0.3404 -0.1808
  418TMC3    C4 6236   3.295   4.670   0.297  0.0353  0.0156 -0.1332
  418TMC3    C5 6237   3.195   0.026   0.353 -0.1307  0.2988 -0.6051
  418TMC3    C6 6238   3.122   0.124   0.289 -0.0204  1.1161 -0.0019
  418TMC3     C 6239   3.408   4.604   0.096 -0.6202 -0.0851  0.0635
  418TMC3     O 6240   3.477   4.659   0.011 -0.0717  0.1115 -0.1817
  418TMC3     H 6241   3.262   0.054  17.688 -2.4603  1.2468 -0.5137
  418TMC3    H1 6242   3.349   4.592   0.350 -1.8656 -0.2232  1.4627
  418TMC3    H2 6243   3.033   0.173   0.327 -1.7329 -1.1941 -1.1268
  418TMC3    C7 6244   3.155   4.721   0.493 -0.2942  0.5155 -0.1571
  418TMC3    C8 6245   3.024   0.146   0.087 -0.3591 -0.6647  0.5149
  418TMC3    O1 6246   3.159   4.602   0.524 -0.2000 -0.1574 -0.1794
  418TMC3    O2 6247   2.954   0.242   0.108 -0.1878 -0.1055  0.3370
  419MPD2     C 6248   1.893   2.844  12.786  0.0441 -0.1736 -0.2836
  419MPD2    C1 6249   1.874   2.980  12.767  0.1222 -0.5984  0.6710
  419MPD2    C2 6250   1.871   3.063  12.880 -0.3265 -0.5885 -0.0596
  419MPD2    C3 6251   1.863   3.009  13.004  0.6512  0.4320 -0.0898
  419MPD2    C4 6252   1.888   2.876  13.016 -0.3596 -0.0692 -0.0862
  419MPD2    C5 6253   1.906   2.790  12.913  0.0418 -0.8933  0.3463
  419MPD2     H 6254   1.858   3.169  12.859  0.7514 -0.3657  0.4363
  419MPD2    H1 6255   1.884   2.831  13.115  0.6433 -0.5029 -0.2409
  419MPD2    H2 6256   1.890   2.782  12.696  3.1511 -0.3086 -0.2812
  419MPD2    H3 6257   1.930   2.684  12.919  2.4609 -0.3195  0.4888
  419MPD2     N 6258   1.841   3.098  13.109  0.2276 -0.1350 -0.1793
  419MPD2    H5 6259   1.811   3.190  13.078  1.4678 -0.0885 -1.2589
  419MPD2    N1 6260   1.855   3.044  12.642  0.5638 -0.2067 -0.3550
  419MPD2    H7 6261   1.831   3.142  12.643  2.1563  0.2552 -3.9504
  420TMC3    C1 6262   1.806   3.188  13.316 -0.2130  0.1107 -0.3004
  420TMC3    C2 6263   1.690   3.248  13.275 -0.8976 -0.4683  0.6147
  420TMC3    C3 6264   1.616   3.320  13.364 -0.2821  0.1422  0.1716
  420TMC3    C4 6265   1.859   3.215  13.445 -0.3001  0.0804  0.6157
  420TMC3    C5 6266   1.773   3.281  13.535  0.2513 -0.0596 -0.3013
  420TMC3    C6 6267   1.652   3.334  13.496  0.2700  0.1260  1.3365
  420TMC3     C 6268   1.860   3.074  13.246  0.1578 -0.9928  0.5656
  420TMC3     O 6269   1.920   2.982  13.301  0.3498  0.3610  0.0259
  420TMC3     H 6270   1.652   3.238  13.175 -1.7137  0.1426  0.8633
  420TMC3    H1 6271   1.944   3.156  13.478 -0.8085 -1.0577 -0.1200
  420TMC3    H2 6272   1.592   3.387  13.570 -2.1158  1.2465 -1.4226
  420TMC3    C7 6273   1.807   3.285  13.679 -0.9258 -1.0948  0.4778
  420TMC3    C8 6274   1.482   3.341  13.321 -0.1880 -0.7144  0.4069
  420TMC3    O1 6275   1.708   3.314  13.743 -0.1147 -0.0510 -0.3255
  420TMC3    O2 6276   1.469   3.390  13.211 -0.0883 -0.2084  0.2621
  421TMC3    C1 6277   3.050   0.170  13.875  0.2673  0.5138 -0.2310
  421TMC3    C2 6278   3.164   0.237  13.895 -0.4703  0.2240 -0.5149
  421TMC3    C3 6279   3.254   0.188  13.983  0.2386 -0.1169  0.2841
  421TMC3    C4 6280   3.010   0.062  13.949 -0.3612 -0.1282  0.6696
  421TMC3    C5 6281   3.095   0.022  14.046  0.5998  0.1934 -0.1459
  421TMC3    C6 6282   3.215   0.088  14.062 -0.1580 -0.0533  0.6014
  421TMC3     C 6283   2.945   0.238  13.808 -0.0961 -0.1827  0.2662
  421TMC3     O 6284   2.962   0.354  13.792 -0.1296 -0.3087  0.0001
  421TMC3     H 6285   3.182   0.321  13.829 -1.4620 -0.4152 -1.6081
  421TMC3    H1 6286   2.909   0.023  13.947 -0.3318  0.0826 -4.5394
  421TMC3    H2 6287   3.286   0.039  14.126 -0.6042  1.1647  2.0320
  421TMC3    C7 6288   3.116   4.603  14.049  0.0701  0.0069  0.2721
  421TMC3    C8 6289   3.359   0.274  14.031 -0.2260  0.2922 -0.8133
  421TMC3    O1 6290   3.194   4.557  14.133 -0.1528 -0.4746 -0.5064
  421TMC3    O2 6291   3.436   0.320  13.948 -0.4320 -0.1013 -0.2572
  422TMC3    C1 6292   0.540   1.405  12.925  0.6477 -0.0051 -0.4995
  422TMC3    C2 6293   0.473   1.515  12.963 -0.0849  0.0064  0.0256
  422TMC3    C3 6294   0.363   1.570  12.895  0.4902  0.2509 -0.0217
  422TMC3    C4 6295   0.486   1.346  12.814  0.2890  0.4049 -1.0642
  422TMC3    C5 6296   0.383   1.400  12.746  0.0921  0.3515 -0.7182
  422TMC3    C6 6297   0.314   1.510  12.779 -0.0005 -0.2750  0.5820
  422TMC3     C 6298   0.683   1.439  12.906 -0.3317  0.1749 -0.5507
  422TMC3     O 6299   0.741   1.531  12.959  0.0237  0.0770 -0.1544
  422TMC3     H 6300   0.519   1.575  13.041 -1.2827  0.9324  0.0138
  422TMC3    H1 6301   0.525   1.251  12.776 -0.2234  0.0816 -0.7785
  422TMC3    H2 6302   0.246   1.564  12.716 -0.1365 -3.5911 -2.0998
  422TMC3    C7 6303   0.346   1.326  12.623  0.1121 -0.3245  0.4628
  422TMC3    C8 6304   0.371   1.712  12.891  0.0795 -0.4753  0.3277
  422TMC3    O1 6305   0.428   1.264  12.561  0.1608  0.1309 -0.2723
  422TMC3    O2 6306   0.481   1.764  12.909  0.3303 -0.1474 -0.6951
  423MPD2     C 6307   2.176   2.219  17.344 -0.3194 -0.3555  0.5059
  423MPD2    C1 6308   2.186   2.095  17.387  0.7613 -0.4040 -0.2832
  423MPD2    C2 6309   2.156   1.991  17.297  0.0797  0.2265 -0.2940
  423MPD2    C3 6310   2.097   2.015  17.178  0.2775 -1.3655  0.2881
  423MPD2    C4 6311   2.083   2.151  17.140 -0.0536  0.9920 -0.3071
  423MPD2    C5 6312   2.130   2.249  17.221 -0.2323 -0.6819  0.2169
  423MPD2     H 6313   2.190   1.893  17.327 -0.8603  0.4017  1.3690
  423MPD2    H1 6314   2.054   2.183  17.041  2.0239  0.1574 -1.1697
  423MPD2    H2 6315   2.211   2.304  17.402  3.8354 -0.6720 -1.6120
  423MPD2    H3 6316   2.145   2.349  17.183  1.0543 -2.0289 -2.8373
  423MPD2     N 6317   2.074   1.922  17.077  0.4815  0.4965 -0.2290
  423MPD2    H5 6318   2.040   1.960  16.989  0.6595 -3.2511 -1.9405
  423MPD2    N1 6319   2.231   2.069  17.513 -0.6243 -0.3585 -0.0561
  423MPD2    H7 6320   2.252   1.970  17.517 -1.1611 -0.4708  0.0473
  424TMC3    C1 6321   2.302   2.074   0.024 -0.0115 -0.0352 -0.2733
  424TMC3    C2 6322   2.332   1.943   0.007 -0.1804 -0.3034  0.1555
  424TMC3    C3 6323   2.338   1.864   0.120 -0.6381 -0.3149  0.2855
  424TMC3    C4 6324   2.259   2.122   0.138  0.6741  0.1711  0.1348
  424TMC3    C5 6325   2.268   2.044   0.248 -0.5002  0.5145  0.4823
  424TMC3    C6 6326   2.300   1.915   0.244  0.2212  0.1142 -1.0642
  424TMC3     C 6327   2.275   2.153  17.613 -0.1812  0.0434 -0.3862
  424TMC3     O 6328   2.271   2.277  17.630 -0.7155 -0.2099  0.3507
  424TMC3     H 6329   2.374   1.912  17.614  0.1700 -1.3240  0.6389
  424TMC3    H1 6330   2.229   2.226   0.144 -0.0245 -0.0436  0.3852
  424TMC3    H2 6331   2.311   1.859   0.336 -3.0565 -2.0989 -2.0477
  424TMC3    C7 6332   2.206   2.080   0.373 -0.2440  0.0897 -0.7582
  424TMC3    C8 6333   2.366   1.723   0.099  0.8981 -0.3743  0.0460
  424TMC3    O1 6334   2.242   2.026   0.480  0.0004  0.2945 -0.3568
  424TMC3    O2 6335   2.399   1.698  17.686 -0.1411 -0.2672  0.1898
  425MPD2     C 6336   0.980   1.575  17.182 -0.6010  1.1186  0.3957
  425MPD2    C1 6337   0.884   1.474  17.191  0.2136  0.1345 -0.4919
  425MPD2    C2 6338   0.763   1.500  17.251  0.7624 -0.5277 -0.1696
  425MPD2    C3 6339   0.740   1.631  17.305  0.3174  0.3238  0.5276
  425MPD2    C4 6340   0.834   1.734  17.295  0.1494 -0.2528  0.3442
  425MPD2    C5 6341   0.957   1.701  17.234 -0.0841 -0.4757 -0.0999
  425MPD2     H 6342   0.693   1.419  17.265  1.1548 -0.7425  0.5519
  425MPD2    H1 6343   0.817   1.827  17.348 -2.4360 -0.8131  0.5031
  425MPD2    H2 6344   1.079   1.554  17.143 -1.4983  0.0578 -1.3140
  425MPD2    H3 6345   1.031   1.780  17.220 -1.0495  0.7950  1.9385
  425MPD2     N 6346   0.635   1.653  17.392  0.0735  0.1972 -0.2914
  425MPD2    H5 6347   0.582   1.572  17.422 -0.5811  1.1812  1.1778
  425MPD2    N1 6348   0.922   1.347  17.140  0.0912  0.7330 -0.2241
  425MPD2    H7 6349   1.013   1.349  17.096  0.1337 -0.7476 -0.2199
  426TMC3    C1 6350   0.892   1.121  17.066  0.0508 -0.1973  0.2918
  426TMC3    C2 6351   0.816   1.019  17.014 -0.0398  0.6506  0.3827
  426TMC3    C3 6352   0.876   0.893  16.999 -0.5614  0.4988  0.1161
  426TMC3    C4 6353   1.019   1.093  17.110  0.4265 -0.7029 -0.3438
  426TMC3    C5 6354   1.073   0.964  17.097 -0.2460  0.0061  0.0687
  426TMC3    C6 6355   1.006   0.863  17.034  0.1875  0.8149 -0.1643
  426TMC3     C 6356   0.839   1.241  17.125  0.0028 -0.0605  0.3541
  426TMC3     O 6357   0.719   1.237  17.152  0.4768  0.4008 -0.3617
  426TMC3     H 6358   0.719   1.043  16.971  0.8602  0.6300 -1.6399
  426TMC3    H1 6359   1.084   1.168  17.153 -0.5543  1.1061 -2.0569
  426TMC3    H2 6360   1.053   0.766  17.029  0.0680  0.9063 -3.3301
  426TMC3    C7 6361   1.180   0.913  17.186  0.3564 -0.5660 -0.7147
  426TMC3    C8 6362   0.806   0.789  16.923 -0.0456  0.2996  0.3977
  426TMC3    O1 6363   1.206   0.795  17.188  0.7640 -0.1136  0.1365
  426TMC3    O2 6364   0.873   0.704  16.867 -0.6714 -0.0936 -0.2318
  427MPD2     C 6365   4.187   2.990  14.983  0.3264 -0.1517  0.6540
  427MPD2    C1 6366   4.139   2.996  15.109 -0.0163 -0.7068 -0.8775
  427MPD2    C2 6367   4.007   3.039  15.122  0.2382  0.5776  0.0017
  427MPD2    C3 6368   3.935   3.073  15.012  0.8018 -0.2763 -0.5631
  427MPD2    C4 6369   3.984   3.048  14.885 -0.2092 -0.1357 -0.5643
  427MPD2    C5 6370   4.111   3.012  14.877 -0.0082  0.1611  0.0342
  427MPD2     H 6371   3.956   3.036  15.218 -2.5942  1.1779 -1.4780
  427MPD2    H1 6372   3.924   3.062  14.796 -1.4502 -0.0965  0.2771
  427MPD2    H2 6373   4.279   2.934  14.966 -0.4198 -1.1820  0.0447
  427MPD2    H3 6374   4.153   2.985  14.781  0.3731 -0.5874  0.4093
  427MPD2     N 6375   3.803   3.126  15.011 -0.2364 -0.1336 -0.0297
  427MPD2    H5 6376   3.755   3.120  14.921  0.8132  0.1214 -0.6147
  427MPD2    N1 6377   4.213   2.955  15.225 -1.0537 -0.0670 -0.3572
  427MPD2    H7 6378   4.167   2.950  15.315  0.1432  0.8447  0.3067
  428TMC3    C1 6379   4.383   2.876  15.367  0.1213  0.0007  0.2609
  428TMC3    C2 6380   4.286   2.836  15.455  0.0649 -0.0887  0.2179
  428TMC3    C3 6381   4.326   2.807  15.580  0.0975 -0.1595 -0.3458
  428TMC3    C4 6382   4.511   2.888  15.407  0.1162  0.5177  0.0046
  428TMC3    C5 6383   4.543   2.876  15.541 -0.8872  0.1441 -0.7054
  428TMC3    C6 6384   4.457   2.819  15.634  0.5244 -0.0144 -0.2641
  428TMC3     C 6385   4.345   2.920  15.229 -0.1604  0.2310  0.1545
  428TMC3     O 6386   4.427   2.925  15.140 -0.6242  0.6276 -0.3591
  428TMC3     H 6387   4.187   2.806  15.423 -0.6636 -0.0262  2.3678
  428TMC3    H1 6388   4.580   2.937  15.339  0.0500  0.5322 -0.0518
  428TMC3    H2 6389   4.495   2.812  15.735 -0.9003 -0.0106  0.2734
  428TMC3    C7 6390   4.672   2.922  15.596 -0.0494  0.5108 -0.3957
  428TMC3    C8 6391   4.223   2.759  15.669 -0.2566  0.0608  0.7746
  428TMC3    O1 6392   4.664   2.943  15.720  0.1984  0.0758  0.0146
  428TMC3    O2 6393   4.105   2.794  15.647  0.0310  0.1618  0.3816
  429MPD2     C 6394   0.300   3.647  17.432  0.0974 -0.4913 -0.1569
  429MPD2    C1 6395   0.393   3.565  17.376 -0.5788 -0.0050  0.2507
  429MPD2    C2 6396   0.467   3.602  17.265 -0.1201 -0.3301 -0.2453
  429MPD2    C3 6397   0.440   3.722  17.206 -0.2095  0.0336 -0.1765
  429MPD2    C4 6398   0.346   3.807  17.265 -0.3835  0.0620 -0.1707
  429MPD2    C5 6399   0.276   3.772  17.377  0.5861  0.1733  0.0151
  429MPD2     H 6400   0.537   3.535  17.217 -0.4825 -1.3187  0.5968
  429MPD2    H1 6401   0.316   3.901  17.220 -2.7455  0.0414  1.4036
  429MPD2    H2 6402   0.241   3.619  17.519 -0.5694  0.9457 -0.1448
  429MPD2    H3 6403   0.201   3.836  17.422 -0.2506 -0.6028 -0.2803
  429MPD2     N 6404   0.504   3.753  17.087 -0.8318  0.3330  0.2505
  429MPD2    H5 6405   0.583   3.703  17.048  0.7138  3.2561 -0.4495
  429MPD2    N1 6406   0.436   3.448  17.438  0.0422 -0.2105  0.3082
  429MPD2    H7 6407   0.490   3.386  17.379  0.2072  0.8285 -0.6174
  430TMC3    C1 6408   0.580   3.880  16.916 -0.1834 -0.4146  0.0980
  430TMC3    C2 6409   0.596   4.005  16.860  0.0223  0.4427  0.1732
  430TMC3    C3 6410   0.700   4.033  16.783  0.1855 -0.2567  0.2139
  430TMC3    C4 6411   0.660   3.775  16.875  0.6737 -0.5770 -0.2855
  430TMC3    C5 6412   0.765   3.802  16.788  0.6879  0.5000  0.1324
  430TMC3    C6 6413   0.788   3.936  16.752 -0.0055  0.2189  0.3176
  430TMC3     C 6414   0.478   3.865  17.015  0.1484 -0.0030  0.6455
  430TMC3     O 6415   0.392   3.951  17.023 -0.2119  0.1807  0.2180
  430TMC3     H 6416   0.519   4.080  16.879  1.0702  1.7701 -0.8097
  430TMC3    H1 6417   0.644   3.676  16.915  0.6510 -0.1382  0.7978
  430TMC3    H2 6418   0.880   3.958  16.700 -0.0007  0.4880  0.4378
  430TMC3    C7 6419   0.840   3.693  16.736  0.3158  0.1929 -0.4009
  430TMC3    C8 6420   0.695   4.140  16.686  0.1685  0.7709  0.5144
  430TMC3    O1 6421   0.815   3.586  16.791  0.1649  0.4350 -0.1898
  430TMC3    O2 6422   0.793   4.130  16.611  0.3750 -0.0021 -0.0047
  431MPD2     C 6423   1.268   3.654  12.648 -0.3435 -0.7281 -0.3422
  431MPD2    C1 6424   1.392   3.686  12.589 -0.1446 -0.0086 -0.6629
  431MPD2    C2 6425   1.475   3.598  12.528 -0.3147 -0.0781  0.0447
  431MPD2    C3 6426   1.435   3.462  12.527  0.2317 -0.2946  0.0081
  431MPD2    C4 6427   1.313   3.425  12.583  0.1766  0.1850 -0.2437
  431MPD2    C5 6428   1.231   3.522  12.647  0.7528 -1.0055  0.3349
  431MPD2     H 6429   1.570   3.634  12.492 -0.1007  0.0430  0.7252
  431MPD2    H1 6430   1.277   3.323  12.574 -0.6957  0.5975 -1.5496
  431MPD2    H2 6431   1.205   3.729  12.695 -0.4833 -1.3585  0.5014
  431MPD2    H3 6432   1.141   3.478  12.687  0.3288 -0.4085  0.0231
  431MPD2     N 6433   1.517   3.366  12.464  0.0164 -0.0518  0.0667
  431MPD2    H5 6434   1.499   3.266  12.467  0.8329 -0.1623  1.4639
  431MPD2    N1 6435   1.425   3.821  12.578  0.3012  0.6140 -0.2877
  431MPD2    H7 6436   1.353   3.893  12.572  0.3683  0.7406  0.4255
  432TMC3    C1 6437   1.705   3.280  12.355 -0.1041 -0.3565  0.4380
  432TMC3    C2 6438   1.747   3.273  12.222  0.0817  1.1863 -0.0908
  432TMC3    C3 6439   1.820   3.157  12.195 -0.7821  0.8980  0.1993
  432TMC3    C4 6440   1.731   3.187  12.450 -0.1687 -0.3463  0.5846
  432TMC3    C5 6441   1.814   3.085  12.415 -0.8896 -0.4313 -0.3691
  432TMC3    C6 6442   1.860   3.064  12.286  0.2977  0.2281 -0.0182
  432TMC3     C 6443   1.626   3.396  12.379  0.2491 -0.1350 -0.4017
  432TMC3     O 6444   1.659   3.506  12.334 -0.1968  0.2868  0.3568
  432TMC3     H 6445   1.721   3.349  12.150 -1.9399  1.5715  1.0430
  432TMC3    H1 6446   1.692   3.196  12.551  0.7436 -0.3795  0.9381
  432TMC3    H2 6447   1.923   2.979  12.262 -0.4556 -0.5854  0.9081
  432TMC3    C7 6448   1.870   2.998  12.516 -0.1641 -0.6235 -0.4040
  432TMC3    C8 6449   1.872   3.135  12.059  0.3889  0.5542  0.5000
  432TMC3    O1 6450   1.916   2.889  12.485  0.5144 -0.6405 -0.3605
  432TMC3    O2 6451   1.884   3.017  12.020  0.9122 -0.6237  0.4442
  433MPD2     C 6452   0.542   2.570  10.933  0.0546 -0.0282  0.0296
  433MPD2    C1 6453   0.560   2.477  11.031 -0.0096 -1.1531  0.4926
  433MPD2    C2 6454   0.590   2.531  11.154  0.3194 -0.7797  0.3054
  433MPD2    C3 6455   0.605   2.660  11.177  0.4488 -0.2397  0.5404
  433MPD2    C4 6456   0.593   2.759  11.084 -0.1693  0.1423 -0.4183
  433MPD2    C5 6457   0.566   2.701  10.960  0.1229 -0.3795  1.1969
  433MPD2     H 6458   0.610   2.460  11.233 -1.3214 -2.0181 -0.3936
  433MPD2    H1 6459   0.603   2.866  11.093 -0.0837 -0.1045  2.1876
  433MPD2    H2 6460   0.510   2.549  10.832  1.2473  1.8412 -0.7418
  433MPD2    H3 6461   0.548   2.771  10.880  0.0964  1.1624  2.5350
  433MPD2     N 6462   0.638   2.686  11.319 -0.1847  0.0807  0.0108
  433MPD2    H5 6463   0.650   2.607  11.381 -4.4628  0.0322  0.7512
  433MPD2    N1 6464   0.539   2.337  11.018  0.0662  0.6667  0.3226
  433MPD2    H7 6465   0.534   2.274  11.098  1.3777  1.0259  0.6780
  434TMC3    C1 6466   0.502   2.128  10.915 -0.1521 -0.3417 -0.7585
  434TMC3    C2 6467   0.547   2.073  11.033  0.2271  0.3054  0.1319
  434TMC3    C3 6468   0.522   1.941  11.045  0.0851  0.4658  0.6403
  434TMC3    C4 6469   0.453   2.063  10.800 -0.9192  0.2529 -0.0648
  434TMC3    C5 6470   0.422   1.937  10.824  0.5926  0.5661 -0.0000
  434TMC3    C6 6471   0.456   1.873  10.944  0.2405 -0.2265 -0.2565
  434TMC3     C 6472   0.525   2.271  10.898  0.2907  1.0067  0.1717
  434TMC3     O 6473   0.503   2.317  10.787  0.3359 -0.1512  0.3224
  434TMC3     H 6474   0.596   2.128  11.113  0.6150 -0.0993  0.1697
  434TMC3    H1 6475   0.407   2.118  10.719 -2.4507  0.6870  1.1072
  434TMC3    H2 6476   0.413   1.776  10.970  0.8315  0.2383  2.4325
  434TMC3    C7 6477   0.369   1.868  10.709  0.2808  0.1719 -1.0063
  434TMC3    C8 6478   0.575   1.889  11.165  0.2830 -0.3886 -0.4360
  434TMC3    O1 6479   0.322   1.925  10.615  0.5103  0.2380  0.2669
  434TMC3    O2 6480   0.596   1.960  11.259  0.0673  0.3039 -0.3166
  435MPD2     C 6481   2.673   2.018  15.476 -0.0670 -0.3930 -0.2173
  435MPD2    C1 6482   2.579   1.987  15.581 -0.3958  0.6001 -0.3897
  435MPD2    C2 6483   2.622   1.906  15.685  0.1043 -0.5492 -0.2935
  435MPD2    C3 6484   2.740   1.843  15.689 -1.1437 -0.2284 -0.4254
  435MPD2    C4 6485   2.831   1.873  15.582  0.2967 -0.0790 -0.3348
  435MPD2    C5 6486   2.798   1.971  15.488  0.1839  0.3979  0.2075
  435MPD2     H 6487   2.546   1.903  15.762  2.6192 -4.4269  2.0200
  435MPD2    H1 6488   2.931   1.834  15.574  0.9791  2.1123 -2.3977
  435MPD2    H2 6489   2.644   2.086  15.397 -0.5662 -0.9540 -0.5171
  435MPD2    H3 6490   2.870   1.988  15.410 -0.8861 -0.6406 -1.0079
  435MPD2     N 6491   2.770   1.788  15.815 -0.4921  0.2772  0.0204
  435MPD2    H5 6492   2.700   1.787  15.888 -0.8673  0.4063 -0.3360
  435MPD2    N1 6493   2.450   2.051  15.596  0.5997  0.2437 -0.1213
  435MPD2    H7 6494   2.401   2.025  15.681 -1.1586  1.3028 -0.8169
  436TMC3    C1 6495   2.157   2.245  15.792 -0.1498  0.0400 -0.6754
  436TMC3    C2 6496   2.266   2.180  15.733  0.1419 -0.6407 -0.3936
  436TMC3    C3 6497   2.289   2.204  15.594 -0.3565  0.5298  0.6420
  436TMC3    C4 6498   2.080   2.332  15.720  0.5356 -0.0958 -0.2561
  436TMC3    C5 6499   2.122   2.369  15.597  0.4762  0.3732  0.8174
  436TMC3    C6 6500   2.220   2.305  15.529 -0.3720 -0.0950  0.4074
  436TMC3     C 6501   2.173   2.266  15.933  0.0035  0.5326 -0.4142
  436TMC3     O 6502   2.280   2.240  15.989  0.5921 -0.2316 -0.1218
  436TMC3     H 6503   2.329   2.113  15.790  0.8181 -0.7279 -1.2529
  436TMC3    H1 6504   2.003   2.388  15.773 -0.4149  0.9513 -2.7291
  436TMC3    H2 6505   2.250   2.344  15.432 -1.6686 -0.4591 -0.1486
  436TMC3    C7 6506   2.063   2.488  15.536  0.6427  0.4385  0.3102
  436TMC3    C8 6507   2.407   2.156  15.526  0.4574  0.0400 -0.2789
  436TMC3    O1 6508   2.124   2.531  15.437 -0.2102 -0.2529  0.4229
  436TMC3    O2 6509   2.459   2.210  15.429  0.3842 -0.9158 -0.1555
  437TMC3    C1 6510   1.012   4.060  12.642 -0.3499 -0.2027  0.6801
  437TMC3    C2 6511   0.915   4.129  12.699 -0.4407  0.0010 -0.2647
  437TMC3    C3 6512   0.828   4.212  12.629 -0.3893 -0.4970  0.0650
  437TMC3    C4 6513   1.042   4.087  12.510 -0.6734  0.7101 -0.1766
  437TMC3    C5 6514   0.961   4.172  12.441  0.5081  0.3581  0.3823
  437TMC3    C6 6515   0.842   4.226  12.491  0.2031  0.3828 -0.0817
  437TMC3     C 6516   1.124   4.010  12.713 -0.6892 -0.3210 -0.3047
  437TMC3     O 6517   1.238   4.020  12.666  0.0877 -0.9116 -0.0049
  437TMC3     H 6518   0.890   4.118  12.804  0.6343  0.9144  0.0860
  437TMC3    H1 6519   1.128   4.035  12.470 -1.3189 -1.2451  0.9980
  437TMC3    H2 6520   0.799   4.311  12.439 -1.0641  0.4703  1.1237
  437TMC3    C7 6521   1.033   4.291  12.394  0.7082 -0.4910  0.0296
  437TMC3    C8 6522   0.789   4.338  12.695 -0.4963  0.5767 -0.0423
  437TMC3    O1 6523   0.980   4.374  12.322  0.7082  0.2889  0.0371
  437TMC3    O2 6524   0.838   4.358  12.807  0.0920 -0.0357  0.6773
  438MPD2     C 6525   3.471   0.022  16.550  0.5851 -0.2537  0.2488
  438MPD2    C1 6526   3.469   4.669  16.661  0.7377 -0.0007  0.2735
  438MPD2    C2 6527   3.372   4.683  16.760 -0.0720 -0.3447  0.4001
  438MPD2    C3 6528   3.279   0.059  16.748 -0.2822  0.1841  0.8799
  438MPD2    C4 6529   3.281   0.135  16.632 -0.2848  0.3457  0.0958
  438MPD2    C5 6530   3.368   0.111  16.532  0.6846  0.1663 -0.1540
  438MPD2     H 6531   3.379   4.613  16.843 -1.2287 -0.4791  0.3804
  438MPD2    H1 6532   3.215   0.220  16.619 -0.9871 -0.3221 -0.6977
  438MPD2    H2 6533   3.534   0.006  16.464 -0.8786 -0.4654 -0.7710
  438MPD2    H3 6534   3.365   0.175  16.445  1.1341  0.1600 -0.1772
  438MPD2     N 6535   3.172   0.088  16.843  0.1533  0.4227 -0.6313
  438MPD2    H5 6536   3.099   0.155  16.820 -3.0296 -2.6831  0.4751
  438MPD2    N1 6537   3.568   4.573  16.688 -0.2070 -0.6391  0.1306
  438MPD2    H7 6538   3.559   4.525  16.777 -1.7726 -2.4334 -0.9868
  439TMC3    C1 6539   3.748   4.427  16.652 -0.2456 -0.6802  0.3047
  439TMC3    C2 6540   3.784   4.328  16.563 -0.3596  0.2185  1.0208
  439TMC3    C3 6541   3.856   4.226  16.617 -0.1092  0.2226 -0.4023
  439TMC3    C4 6542   3.776   4.425  16.790 -0.3344 -0.5481  0.4746
  439TMC3    C5 6543   3.850   4.321  16.835 -0.4659 -0.2772  0.0398
  439TMC3    C6 6544   3.892   4.221  16.748  0.0016 -0.2133  0.1717
  439TMC3     C 6545   3.666   4.536  16.600  0.4612  0.3528 -0.1542
  439TMC3     O 6546   3.664   4.543  16.476 -0.0498 -0.1840  0.4829
  439TMC3     H 6547   3.772   4.354  16.458 -2.7329  1.2823  1.5498
  439TMC3    H1 6548   3.752   4.511  16.851 -1.7899  1.4214 -2.8865
  439TMC3    H2 6549   3.957   4.143  16.786 -0.3492 -1.5067 -1.8258
  439TMC3    C7 6550   3.915   4.332  16.962 -0.1382 -0.3143 -0.3259
  439TMC3    C8 6551   3.929   4.145  16.523  0.1283 -0.4301  0.2084
  439TMC3    O1 6552   3.872   4.423  17.032 -0.2480 -0.6421 -0.3196
  439TMC3    O2 6553   4.046   4.138  16.548 -0.6192 -0.3039  0.2117
  440MPD2     C 6554   2.069   0.641  14.560 -0.3889  0.4470  1.0506
  440MPD2    C1 6555   1.981   0.611  14.664  0.8892  0.0122 -1.0065
  440MPD2    C2 6556   1.967   0.481  14.709  0.0462  0.3490 -0.0427
  440MPD2    C3 6557   2.060   0.385  14.665 -0.7848 -0.2274 -0.1299
  440MPD2    C4 6558   2.146   0.418  14.559  0.3412 -0.3813 -0.8322
  440MPD2    C5 6559   2.145   0.542  14.508  0.2782 -0.1851 -0.2481
  440MPD2     H 6560   1.898   0.459  14.790 -1.5981 -2.3706 -2.2187
  440MPD2    H1 6561   2.221   0.353  14.516  0.5204 -1.1159  0.5900
  440MPD2    H2 6562   2.060   0.738  14.511  1.8624  0.3869  0.5187
  440MPD2    H3 6563   2.201   0.568  14.420  1.8434  1.0713  1.1254
  440MPD2     N 6564   2.061   0.249  14.716  0.2466  0.0962  0.0956
  440MPD2    H5 6565   2.123   0.182  14.671  0.9322  0.1202  1.0003
  440MPD2    N1 6566   1.898   0.707  14.728 -0.6894 -0.7016  0.0024
  440MPD2    H7 6567   1.819   0.681  14.787 -0.1122  1.2376  1.6250
  441TMC3    C1 6568   2.096   0.095  14.882  0.4256 -0.6992  0.2967
  441TMC3    C2 6569   2.229   0.102  14.856  0.0930 -0.2301  0.5341
  441TMC3    C3 6570   2.325   0.039  14.932 -0.2561  0.3884 -0.2963
  441TMC3    C4 6571   2.064   0.032  15.004 -0.3743 -0.5539 -0.6015
  441TMC3    C5 6572   2.159   4.701  15.080 -1.0688 -0.2350  0.0291
  441TMC3    C6 6573   2.292   4.687  15.041  0.3474 -0.1513 -0.9625
  441TMC3     C 6574   2.006   0.204  14.832 -1.6302  1.0719  0.8512
  441TMC3     O 6575   1.927   0.264  14.902  0.3129  0.7490  0.2409
  441TMC3     H 6576   2.265   0.144  14.763 -0.5409  1.0160  0.8382
  441TMC3    H1 6577   1.962   0.030  15.042  0.5070  0.1381  1.7909
  441TMC3    H2 6578   2.363   4.632  15.102 -2.5532 -2.0298  0.7493
  441TMC3    C7 6579   2.115   4.649  15.202  0.1535  0.5244  0.5603
  441TMC3    C8 6580   2.438   0.122  14.956  0.2030  1.1937  0.2099
  441TMC3    O1 6581   2.013   4.689  15.258 -0.3712 -0.5284  0.1952
  441TMC3    O2 6582   2.538   0.068  15.005  0.1320 -0.3217 -0.0275
  442MPD2     C 6583   0.697   0.973  16.238  0.7111  0.1753  0.4866
  442MPD2    C1 6584   0.626   0.935  16.354  0.0364  0.2665 -0.4343
  442MPD2    C2 6585   0.555   0.814  16.354 -0.0365  0.5657 -0.1818
  442MPD2    C3 6586   0.552   0.731  16.243  0.2267  1.0781 -0.1233
  442MPD2    C4 6587   0.636   0.765  16.138 -0.0968 -0.4231 -0.1809
  442MPD2    C5 6588   0.700   0.884  16.135  0.0921 -0.5399  0.5137
  442MPD2     H 6589   0.494   0.789  16.440 -1.3025  0.0508 -1.2396
  442MPD2    H1 6590   0.632   0.705  16.048 -0.2994 -0.4827 -0.1323
  442MPD2    H2 6591   0.746   1.070  16.230 -0.0696  0.5335 -0.0105
  442MPD2    H3 6592   0.753   0.917  16.046  0.2345 -0.5486  0.5971
  442MPD2     N 6593   0.464   0.631  16.219 -0.4646  0.1066  0.7758
  442MPD2    H5 6594   0.450   0.598  16.124  1.2888 -0.4546  0.7168
  442MPD2    N1 6595   0.613   1.022  16.469 -0.6336 -0.1719 -0.1200
  442MPD2    H7 6596   0.565   0.973  16.544 -2.9292  2.4125  0.0893
  443TMC3    C1 6597   0.599   1.221  16.589  0.2042 -0.0358  0.5830
  443TMC3    C2 6598   0.533   1.328  16.560 -0.4153 -0.5480  0.1494
  443TMC3    C3 6599   0.437   1.384  16.636 -0.1565  0.3537  0.4576
  443TMC3    C4 6600   0.591   1.157  16.711 -0.0977 -0.5612  0.0338
  443TMC3    C5 6601   0.508   1.223  16.799  0.2267 -0.1843 -0.5057
  443TMC3    C6 6602   0.429   1.331  16.764  0.5032  0.0421 -0.2141
  443TMC3     C 6603   0.648   1.153  16.471  0.1906  0.2773  0.2105
  443TMC3     O 6604   0.700   1.224  16.388  0.1656 -0.5556 -0.2504
  443TMC3     H 6605   0.545   1.362  16.457  1.3045 -0.9574  0.2063
  443TMC3    H1 6606   0.639   1.062  16.735  0.9528 -0.4350 -1.5571
  443TMC3    H2 6607   0.361   1.376  16.835  1.5670  0.0258  0.8082
  443TMC3    C7 6608   0.462   1.141  16.907 -0.3927  0.1838  0.1973
  443TMC3    C8 6609   0.303   1.372  16.574  0.0029  0.2086 -0.0774
  443TMC3    O1 6610   0.468   1.022  16.886  0.1422 -0.0068 -0.1129
  443TMC3    O2 6611   0.240   1.285  16.632  0.3893  0.3291  0.0698
  444MPD2     C 6612   0.524   0.562  17.241 -0.1957 -0.4464  0.0811
  444MPD2    C1 6613   0.411   0.492  17.242 -0.2623  0.6105  0.2991
  444MPD2    C2 6614   0.388   0.392  17.151 -0.5919  0.0850  0.1201
  444MPD2    C3 6615   0.481   0.361  17.050 -0.3017 -0.4063 -0.0866
  444MPD2    C4 6616   0.596   0.434  17.056 -0.1158 -0.4770 -0.2940
  444MPD2    C5 6617   0.617   0.531  17.153  0.5624 -0.0008  0.2949
  444MPD2     H 6618   0.290   0.346  17.143 -0.6261  0.3381 -0.8873
  444MPD2    H1 6619   0.678   0.406  16.991  0.9569  0.6302  0.5893
  444MPD2    H2 6620   0.550   0.643  17.308  1.6141 -1.0718  0.1255
  444MPD2    H3 6621   0.709   0.589  17.151  0.4930  0.1570  2.3446
  444MPD2     N 6622   0.441   0.262  16.958 -0.0837 -0.7634  0.6717
  444MPD2    H5 6623   0.353   0.214  16.979 -1.1641  0.5058 -0.9225
  444MPD2    N1 6624   0.308   0.538  17.326  0.6507  0.4216 -0.1483
  444MPD2    H7 6625   0.228   0.476  17.334  1.3156 -0.4637 -0.4463
  445TMC3    C1 6626   0.466   0.105  16.766 -0.2592  0.2764  0.4020
  445TMC3    C2 6627   0.354   0.034  16.790 -0.8168  0.2046 -0.1362
  445TMC3    C3 6628   0.321   4.656  16.706  0.3063 -0.3784  0.5605
  445TMC3    C4 6629   0.566   0.061  16.675 -0.1881 -0.1724 -0.1364
  445TMC3    C5 6630   0.529   4.683  16.592  0.0687 -0.0243 -0.0916
  445TMC3    C6 6631   0.414   4.608  16.612  0.1879 -0.4133 -0.2433
  445TMC3     C 6632   0.514   0.219  16.852  0.3257 -0.8489  0.1304
  445TMC3     O 6633   0.627   0.249  16.824  0.3173 -0.1670 -0.1729
  445TMC3     H 6634   0.291   0.054  16.876 -1.8049  2.7819 -1.4309
  445TMC3    H1 6635   0.652   0.119  16.645 -0.0632  0.2724  1.0635
  445TMC3    H2 6636   0.397   4.529  16.540  0.1096  1.1092 -1.8861
  445TMC3    C7 6637   0.632   4.644  16.498  0.2634 -0.0007  0.6581
  445TMC3    C8 6638   0.202   4.568  16.734 -0.8821  0.1906 -0.2329
  445TMC3    O1 6639   0.720   0.004  16.468  0.1179 -0.1599  0.6380
  445TMC3    O2 6640   0.191   4.483  16.650 -0.2827 -0.1646 -0.0940
  446MPD2     C 6641   0.382   1.759  11.673  0.3388 -0.2019  0.1990
  446MPD2    C1 6642   0.357   1.810  11.550  0.1624  0.1657  0.2958
  446MPD2    C2 6643   0.429   1.919  11.513  0.4213  0.4097 -0.0699
  446MPD2    C3 6644   0.523   1.973  11.603 -0.5974  0.1158 -0.1531
  446MPD2    C4 6645   0.528   1.940  11.735  0.5205  0.0203 -0.0738
  446MPD2    C5 6646   0.463   1.820  11.761 -0.3417  0.2074  0.1440
  446MPD2     H 6647   0.419   1.954  11.411  0.0621  2.1624  0.5703
  446MPD2    H1 6648   0.587   1.990  11.811 -1.3911  0.4092  1.1538
  446MPD2    H2 6649   0.347   1.661  11.702 -1.2690  0.0859 -0.7238
  446MPD2    H3 6650   0.476   1.779  11.861 -0.4620 -1.2789 -0.4439
  446MPD2     N 6651   0.610   2.067  11.541 -0.0283  0.1263 -0.2890
  446MPD2    H5 6652   0.591   2.089  11.443  1.6146  1.6183 -0.2690
  446MPD2    N1 6653   0.283   1.756  11.439  0.2560  0.2457  0.3395
  446MPD2    H7 6654   0.280   1.809  11.352 -0.6615  1.5864  1.1753
  447TMC3    C1 6655   0.784   2.219  11.514 -0.4833  0.1412 -0.2165
  447TMC3    C2 6656   0.775   2.205  11.379  0.5869  0.2395  0.0108
  447TMC3    C3 6657   0.893   2.221  11.307  0.0937  0.1562  0.9964
  447TMC3    C4 6658   0.907   2.251  11.571 -0.3122 -0.3685  0.6940
  447TMC3    C5 6659   1.022   2.261  11.498  0.4215 -0.9029  0.0870
  447TMC3    C6 6660   1.018   2.228  11.364  0.5440  0.0792  0.4052
  447TMC3     C 6661   0.718   2.125  11.603  0.0284 -0.6189  0.3581
  447TMC3     O 6662   0.773   2.106  11.715  0.1092 -0.3052 -0.3639
  447TMC3     H 6663   0.681   2.201  11.326  1.2697  0.3255 -1.1986
  447TMC3    H1 6664   0.918   2.276  11.676  0.7676  0.4332  0.3848
  447TMC3    H2 6665   1.108   2.233  11.305 -0.3221 -1.1237 -1.0062
  447TMC3    C7 6666   1.144   2.214  11.563  0.4819  0.4118  0.2233
  447TMC3    C8 6667   0.888   2.164  11.172 -0.0649  0.5884  0.3182
  447TMC3    O1 6668   1.253   2.223  11.510 -0.6222 -0.4142  0.6378
  447TMC3    O2 6669   0.867   2.237  11.073  0.2837  0.3443  0.1396
  448TMC3    C1 6670   3.534   2.025  16.521 -0.4827  0.6170  0.3213
  448TMC3    C2 6671   3.506   1.896  16.491 -0.8386  0.2224 -0.6117
  448TMC3    C3 6672   3.541   1.803  16.590  0.1775  0.3170 -0.2850
  448TMC3    C4 6673   3.575   2.060  16.646 -0.1035  0.7129  0.4704
  448TMC3    C5 6674   3.607   1.968  16.741 -0.2448  0.6355 -0.0317
  448TMC3    C6 6675   3.588   1.838  16.713 -0.5185 -0.3066  0.6156
  448TMC3     C 6676   3.516   2.141  16.429 -0.4085  0.8116 -0.4779
  448TMC3     O 6677   3.577   2.241  16.457 -0.5381  0.0333  0.5727
  448TMC3     H 6678   3.486   1.876  16.387 -0.7842 -1.9650 -0.2031
  448TMC3    H1 6679   3.598   2.161  16.676  1.7205  0.3327  0.3408
  448TMC3    H2 6680   3.625   1.759  16.776  0.2403 -1.5203 -1.3454
  448TMC3    C7 6681   3.682   2.008  16.863 -0.2134  0.0949 -0.2494
  448TMC3    C8 6682   3.534   1.660  16.558 -0.3754 -0.4958  0.0906
  448TMC3    O1 6683   3.707   2.125  16.876  0.0192  0.4834 -0.1800
  448TMC3    O2 6684   3.600   1.587  16.633 -0.3966 -0.5566  0.0858
  449MPD2     C 6685   0.005   4.432  14.048 -0.4828 -0.2888 -0.3789
  449MPD2    C1 6686   4.705   4.310  13.980  1.1678  0.1491  0.3533
  449MPD2    C2 6687   4.613   4.221  14.026  0.5007  1.1122 -0.9116
  449MPD2    C3 6688   4.561   4.238  14.150 -0.4404  0.4383 -0.4594
  449MPD2    C4 6689   4.589   4.347  14.227 -0.2753 -0.7745 -0.0780
  449MPD2    C5 6690   4.668   4.449  14.175 -0.6141  0.0121  0.2936
  449MPD2     H 6691   4.581   4.133  13.971  1.9118 -1.6957  2.8020
  449MPD2    H1 6692   4.545   4.355  14.326 -0.9038 -1.8029 -0.2781
  449MPD2    H2 6693   0.068   4.513  14.013  1.4831 -0.7587  2.0709
  449MPD2    H3 6694   4.684   4.540  14.231  2.0624 -0.8907  0.9803
  449MPD2     N 6695   4.472   4.138  14.186  0.4590  0.3521  0.5316
  449MPD2    H5 6696   4.475   4.053  14.131 -0.8025  0.3523  0.4777
  449MPD2    N1 6697   0.050   4.278  13.861  0.1666  0.1557  0.1572
  449MPD2    H7 6698   0.024   4.192  13.814  0.9897 -1.4318  2.5665
  450TMC3    C1 6699   0.198   4.261  13.696  0.2060 -0.7938 -0.7044
  450TMC3    C2 6700   0.196   4.315  13.570  0.1965  0.0108 -0.4285
  450TMC3    C3 6701   0.145   4.237  13.468 -0.8823 -0.5031  0.0481
  450TMC3    C4 6702   0.169   4.125  13.713 -0.1988  0.5376  0.4415
  450TMC3    C5 6703   0.113   4.051  13.614 -0.7723 -0.5059  0.5844
  450TMC3    C6 6704   0.106   4.108  13.490  0.1614 -0.3927  0.0038
  450TMC3     C 6705   0.155   4.347  13.800 -0.2977  0.2542  0.6566
  450TMC3     O 6706   0.203   4.463  13.815 -0.5368  0.2851  0.7005
  450TMC3     H 6707   0.203   4.423  13.561 -0.9465  0.5807  6.0324
  450TMC3    H1 6708   0.169   4.079  13.811  0.0988 -0.3756  0.0122
  450TMC3    H2 6709   0.067   4.052  13.405  0.9965  1.3225 -1.5041
  450TMC3    C7 6710   4.717   3.997  13.663 -0.1117 -0.7323 -0.5663
  450TMC3    C8 6711   0.174   4.294  13.338 -0.2126  0.5079 -0.1351
  450TMC3    O1 6712   4.674   4.043  13.766  0.2997 -0.0881  0.9009
  450TMC3    O2 6713   0.106   4.249  13.250  0.2039  0.0464 -0.1021
  451MPD2     C 6714   1.615   3.703   1.723  0.5762 -0.4708 -0.2197
  451MPD2    C1 6715   1.617   3.694   1.583 -0.5656  0.1420  0.0134
  451MPD2    C2 6716   1.700   3.604   1.522 -0.6924 -0.2833 -0.1372
  451MPD2    C3 6717   1.771   3.516   1.600 -0.0138 -0.4218  0.1002
  451MPD2    C4 6718   1.757   3.523   1.738  0.1411 -0.3818  0.5782
  451MPD2    C5 6719   1.693   3.622   1.801  0.1249  0.2095  0.0662
  451MPD2     H 6720   1.693   3.586   1.415 -2.1300 -2.4844  0.3144
  451MPD2    H1 6721   1.815   3.460   1.805  2.4044 -2.4801 -3.3907
  451MPD2    H2 6722   1.563   3.784   1.772  0.6877 -0.0689 -0.7555
  451MPD2    H3 6723   1.685   3.637   1.908 -2.2739 -0.7082  0.0208
  451MPD2     N 6724   1.846   3.405   1.545  0.8424 -0.3876  0.2387
  451MPD2    H5 6725   1.889   3.351   1.618  2.2730  2.1478  1.2642
  451MPD2    N1 6726   1.531   3.776   1.509  0.5072 -0.3892 -0.4640
  451MPD2    H7 6727   1.479   3.850   1.555  1.1594 -0.0379 -0.2836
  452TMC3    C1 6728   1.924   3.248   1.402 -0.4219  0.7152  0.2003
  452TMC3    C2 6729   1.869   3.149   1.483  0.0163  0.2840  0.0502
  452TMC3    C3 6730   1.869   3.020   1.421 -0.1242  0.4181  0.0866
  452TMC3    C4 6731   1.963   3.224   1.278  0.1924 -0.0948  0.0045
  452TMC3    C5 6732   1.975   3.099   1.231 -0.3663  0.5134  0.7015
  452TMC3    C6 6733   1.923   2.992   1.295  0.3519 -0.2064  0.5854
  452TMC3     C 6734   1.868   3.378   1.409 -0.4235 -0.3515 -0.2766
  452TMC3     O 6735   1.839   3.445   1.309  0.5723 -0.0111  0.5114
  452TMC3     H 6736   1.845   3.167   1.587 -0.0250 -1.5062  0.3359
  452TMC3    H1 6737   2.004   3.309   1.224  0.1067  0.4183  0.7553
  452TMC3    H2 6738   1.892   2.904   1.239 -0.3041  0.8944 -0.7991
  452TMC3    C7 6739   1.975   3.088   1.088 -0.0087 -0.1501  0.3265
  452TMC3    C8 6740   1.732   2.958   1.434  0.3187  0.8808 -1.3407
  452TMC3    O1 6741   1.944   3.197   1.038 -0.3143 -0.4005 -0.1573
  452TMC3    O2 6742   1.671   2.944   1.329 -0.0463 -0.9248 -0.4486
  453TMC3    C1 6743   2.613   0.680  11.835 -0.4300 -0.2338 -0.0660
  453TMC3    C2 6744   2.524   0.608  11.913  1.0485  0.0568  0.5037
  453TMC3    C3 6745   2.397   0.597  11.869 -0.0335 -0.2717  0.7627
  453TMC3    C4 6746   2.573   0.736  11.718  0.4564 -0.5041 -0.4540
  453TMC3    C5 6747   2.438   0.726  11.679 -0.5081 -0.1967 -0.5346
  453TMC3    C6 6748   2.345   0.656  11.755  0.6940 -0.0956 -0.6367
  453TMC3     C 6749   2.753   0.678  11.858  0.5255 -0.1118  0.3279
  453TMC3     O 6750   2.820   0.768  11.809 -0.0636 -0.0440 -0.1814
  453TMC3     H 6751   2.553   0.569  12.010 -0.6928  4.2047  2.6947
  453TMC3    H1 6752   2.647   0.780  11.652 -1.8957  0.8645 -2.1979
  453TMC3    H2 6753   2.244   0.645  11.715  0.0172  0.4472  0.9053
  453TMC3    C7 6754   2.408   0.751  11.538 -0.1038  0.6004  0.7693
  453TMC3    C8 6755   2.290   0.522  11.945  0.8625 -0.5032 -0.8696
  453TMC3    O1 6756   2.297   0.707  11.505 -0.3545 -0.2053 -0.4399
  453TMC3    O2 6757   2.182   0.517  11.893 -0.6737  0.1678  0.6202
  454MPD2     C 6758   1.170   0.285  15.675 -1.1805 -0.1940 -0.0239
  454MPD2    C1 6759   1.033   0.246  15.670  0.4786  0.8508 -0.7463
  454MPD2    C2 6760   0.955   0.246  15.785 -0.8083 -0.0948 -0.5786
  454MPD2    C3 6761   1.009   0.291  15.906  0.4424 -0.5604  0.3003
  454MPD2    C4 6762   1.142   0.336  15.907  0.2352  0.5703  0.4279
  454MPD2    C5 6763   1.213   0.342  15.792  0.4834  0.4234  0.0551
  454MPD2     H 6764   0.853   0.210  15.787 -0.4401 -1.1312 -0.3663
  454MPD2    H1 6765   1.195   0.368  15.995  0.3870 -0.2935  0.6503
  454MPD2    H2 6766   1.225   0.298  15.583 -0.4131  0.9257  0.5873
  454MPD2    H3 6767   1.318   0.365  15.802  0.1785  1.4628  0.9180
  454MPD2     N 6768   0.917   0.298  16.015 -0.4495 -0.0397 -0.1829
  454MPD2    H5 6769   0.823   0.265  15.996 -1.0516  1.8019 -0.3571
  454MPD2    N1 6770   0.970   0.203  15.551 -0.5084  0.0571  0.1999
  454MPD2    H7 6771   0.870   0.191  15.564 -0.4557 -0.3800  0.2099
  455TMC3    C1 6772   0.823   0.319  16.223  0.0039  0.2371  0.0053
  455TMC3    C2 6773   0.812   0.406  16.329 -0.5927  0.3810  0.1754
  455TMC3    C3 6774   0.692   0.406  16.397 -0.1700  0.5089  0.2861
  455TMC3    C4 6775   0.724   0.232  16.188 -0.2157 -0.0627  0.0024
  455TMC3    C5 6776   0.609   0.242  16.261  0.0050  0.4335  0.4022
  455TMC3    C6 6777   0.585   0.322  16.370  0.2848 -0.0511 -0.2888
  455TMC3     C 6778   0.941   0.331  16.142  0.2888 -0.3059  0.5782
  455TMC3     O 6779   1.024   0.414  16.182  0.0462 -0.2230  0.0319
  455TMC3     H 6780   0.894   0.471  16.357 -2.0703  1.6103  1.6825
  455TMC3    H1 6781   0.740   0.154  16.114  2.2238  1.8493 -1.5071
  455TMC3    H2 6782   0.493   0.305  16.425 -0.6169 -3.2278 -2.7902
  455TMC3    C7 6783   0.513   0.137  16.239 -0.5787 -0.1894 -0.3916
  455TMC3    C8 6784   0.674   0.502  16.508 -0.4039 -0.1473 -0.1766
  455TMC3    O1 6785   0.430   0.131  16.326 -0.0061  0.6439 -0.0214
  455TMC3    O2 6786   0.769   0.578  16.525  0.0331  0.2263  0.2440
  456MPD2     C 6787   3.457   0.190  16.184  0.5191  0.3764  0.4739
  456MPD2    C1 6788   3.589   0.192  16.226  0.2289 -0.1546 -0.3557
  456MPD2    C2 6789   3.638   0.312  16.274  0.0005  0.5077 -0.2816
  456MPD2    C3 6790   3.552   0.422  16.291  0.3415 -0.0107 -0.7544
  456MPD2    C4 6791   3.419   0.414  16.260  0.6491 -0.9636  0.2170
  456MPD2    C5 6792   3.372   0.288  16.211 -0.0881  0.2505 -0.9040
  456MPD2     H 6793   3.737   0.320  16.317  0.1678 -0.3332 -0.5207
  456MPD2    H1 6794   3.351   0.497  16.276 -0.4539 -1.2104 -3.1557
  456MPD2    H2 6795   3.402   0.099  16.159 -2.3481  2.0064  0.8007
  456MPD2    H3 6796   3.268   0.270  16.188 -0.4727 -0.0801  1.0308
  456MPD2     N 6797   3.604   0.543  16.346 -0.6378 -0.1605 -0.0743
  456MPD2    H5 6798   3.700   0.530  16.378 -0.6019 -0.0307 -0.1260
  456MPD2    N1 6799   3.670   0.079  16.204 -0.2023  0.0710  0.4326
  456MPD2    H7 6800   3.632   0.013  16.137  0.2832 -0.0660  0.2886
  457TMC3    C1 6801   3.610   0.755  16.424  0.1001  0.0420 -0.6918
  457TMC3    C2 6802   3.586   0.886  16.400  0.9754  0.1608 -0.8374
  457TMC3    C3 6803   3.611   0.974  16.497  0.5260 -0.4734  0.3403
  457TMC3    C4 6804   3.671   0.706  16.537  0.3493  1.2562 -0.5760
  457TMC3    C5 6805   3.703   0.806  16.632  0.5888  0.0270 -0.0333
  457TMC3    C6 6806   3.675   0.935  16.614 -0.4954 -0.9355 -0.2481
  457TMC3     C 6807   3.533   0.663  16.351 -0.8631  0.8015  0.1411
  457TMC3     O 6808   3.420   0.698  16.313 -0.0121  0.2237 -0.3072
  457TMC3     H 6809   3.517   0.909  16.319  0.4590 -3.6902 -1.5020
  457TMC3    H1 6810   3.698   0.602  16.555  1.3195  1.8184  1.2179
  457TMC3    H2 6811   3.696   1.007  16.692 -2.3185  2.1850 -2.6684
  457TMC3    C7 6812   3.744   0.754  16.762 -0.0635 -0.1354 -0.3296
  457TMC3    C8 6813   3.569   1.107  16.496 -0.4029  0.7809  0.6163
  457TMC3    O1 6814   3.770   0.844  16.848 -0.0782 -0.5673 -0.0317
  457TMC3    O2 6815   3.579   1.178  16.598  0.1515 -0.5586 -0.2126
  458MPD2     C 6816   1.424   4.618  12.419 -0.0584 -0.4657 -1.1115
  458MPD2    C1 6817   1.428   4.534  12.531  0.2251 -0.6203  0.4810
  458MPD2    C2 6818   1.344   4.426  12.534  0.5079 -0.1265 -0.8953
  458MPD2    C3 6819   1.257   4.401  12.432 -0.3470  0.5964 -0.2336
  458MPD2    C4 6820   1.245   4.496  12.329 -0.1076 -0.2855 -0.1730
  458MPD2    C5 6821   1.324   4.606  12.332 -0.1946  0.6174  0.1181
  458MPD2     H 6822   1.340   4.349  12.610  0.0011  0.3176 -0.4709
  458MPD2    H1 6823   1.171   4.491  12.250 -1.2558  0.8461  0.8254
  458MPD2    H2 6824   1.493   4.701  12.406 -0.5661  0.1944  0.4240
  458MPD2    H3 6825   1.316   4.675  12.249  0.1207  0.0928 -0.3458
  458MPD2     N 6826   1.163   4.300  12.449  0.0841 -0.8538  0.0868
  458MPD2    H5 6827   1.181   4.230  12.521 -0.4805 -1.1805 -0.0884
  458MPD2    N1 6828   1.538   4.556  12.623  0.0766 -0.1099  0.0986
  458MPD2    H7 6829   1.597   4.638  12.610 -1.4488  1.3864  2.5717
  459TMC3    C1 6830   1.672   4.541  12.813 -0.4470  0.2719 -0.0162
  459TMC3    C2 6831   1.771   4.626  12.760 -0.5683 -0.0503 -0.4078
  459TMC3    C3 6832   1.889   4.634  12.838 -0.4943  0.3913  0.0102
  459TMC3    C4 6833   1.682   4.493  12.939  0.0754 -0.3527  0.2771
  459TMC3    C5 6834   1.805   4.491  13.003  0.3437  0.1420 -0.0644
  459TMC3    C6 6835   1.910   4.567  12.958 -0.2026 -0.9550  0.4573
  459TMC3     C 6836   1.557   4.489  12.740  0.5215 -0.1602 -0.2425
  459TMC3     O 6837   1.493   4.399  12.790 -0.3579  0.7817  0.0910
  459TMC3     H 6838   1.760   4.672  12.662 -1.8721 -1.5253 -0.9543
  459TMC3    H1 6839   1.593   4.443  12.975 -0.7614  2.9607  2.8362
  459TMC3    H2 6840   2.006   4.570  13.007  0.3936 -2.1670 -0.6294
  459TMC3    C7 6841   1.805   4.411  13.118 -0.3031  0.0741  0.1360
  459TMC3    C8 6842   2.000   4.717  12.795 -0.0320  0.2279  0.0711
  459TMC3    O1 6843   1.713   4.334  13.132 -0.1306 -0.4573 -0.2368
  459TMC3    O2 6844   2.079   0.027  12.881 -0.0492  0.3057 -0.4508
  460MPD2     C 6845   0.954   1.807  11.095 -0.6904  0.0265  0.2616
  460MPD2    C1 6846   0.917   1.937  11.062  0.1821  0.5652  0.0934
  460MPD2    C2 6847   0.871   1.971  10.935 -0.0567 -0.1210  0.2177
  460MPD2    C3 6848   0.855   1.870  10.846  0.4780 -0.1804 -0.0442
  460MPD2    C4 6849   0.885   1.739  10.880  0.1713  0.3637  0.2086
  460MPD2    C5 6850   0.936   1.707  11.004 -0.8704 -0.7822 -0.0768
  460MPD2     H 6851   0.859   2.074  10.904  0.1319 -0.8431 -2.2316
  460MPD2    H1 6852   0.886   1.649  10.820  1.2517 -0.1134  0.9368
  460MPD2    H2 6853   0.985   1.784  11.196  0.0662 -0.2793 -0.0419
  460MPD2    H3 6854   0.974   1.606  11.016  1.1171 -0.0465 -0.2260
  460MPD2     N 6855   0.796   1.899  10.721 -0.1600  0.2360 -0.3372
  460MPD2    H5 6856   0.787   1.998  10.700 -2.2020  0.2717  0.7138
  460MPD2    N1 6857   0.920   2.028  11.173 -0.5380  0.0687 -0.1827
  460MPD2    H7 6858   0.936   1.986  11.264  0.2679 -0.2789 -0.4859
  461TMC3    C1 6859   0.699   1.874  10.498  0.1929  0.1897 -0.6658
  461TMC3    C2 6860   0.711   1.785  10.390 -0.2125  0.2440  0.7153
  461TMC3    C3 6861   0.669   1.831  10.268 -0.4283  0.0451 -0.9489
  461TMC3    C4 6862   0.667   2.003  10.484 -0.0694 -0.2124  0.5472
  461TMC3    C5 6863   0.645   2.047  10.355  0.1749 -0.0689  0.0428
  461TMC3    C6 6864   0.648   1.958  10.245  0.0319  0.2371  0.8448
  461TMC3     C 6865   0.748   1.809  10.624 -0.1836  0.0219 -0.3189
  461TMC3     O 6866   0.732   1.686  10.631 -0.2810 -0.1609  0.2094
  461TMC3     H 6867   0.726   1.680  10.410 -0.6612 -0.0407 -0.4862
  461TMC3    H1 6868   0.662   2.067  10.571 -0.8712  1.8718 -1.0386
  461TMC3    H2 6869   0.609   1.999  10.152  1.2022 -0.3395  0.0975
  461TMC3    C7 6870   0.653   2.191  10.317  0.2390  0.2624  0.4777
  461TMC3    C8 6871   0.731   1.764  10.161  0.5727  0.7404  0.2207
  461TMC3    O1 6872   0.650   2.214  10.195  0.1810  0.3143  0.0765
  461TMC3    O2 6873   0.807   1.667  10.182 -0.2798  0.4932 -0.4305
  462TMC3    C1 6874   0.643   3.731  17.572 -0.3164 -0.6547 -0.2506
  462TMC3    C2 6875   0.761   3.775  17.522  0.4871  0.3704 -0.3318
  462TMC3    C3 6876   0.874   3.706  17.565 -0.1429 -0.0351 -0.3549
  462TMC3    C4 6877   0.629   3.618  17.648 -0.2587  0.2024  0.1074
  462TMC3    C5 6878   0.746   3.563  17.701  0.3398 -0.6011 -0.4111
  462TMC3    C6 6879   0.868   3.596  17.653  0.0244  0.1282  0.1569
  462TMC3     C 6880   0.540   3.833  17.610  0.0510 -0.6139 -0.7603
  462TMC3     O 6881   0.459   3.802  17.695  0.1954 -0.6526 -0.2738
  462TMC3     H 6882   0.771   3.861  17.457 -0.9100  1.0353  0.3224
  462TMC3    H1 6883   0.530   3.593  17.686 -0.1372  0.8584  0.8596
  462TMC3    H2 6884   0.955   3.552  17.699  0.4605 -0.7055 -1.4342
  462TMC3    C7 6885   0.731   3.446   0.087  1.5490 -0.1627 -0.1468
  462TMC3    C8 6886   1.003   3.770  17.535 -0.3650 -0.2240 -0.1515
  462TMC3    O1 6887   0.832   3.373   0.090  0.5521  0.7654 -0.4201
  462TMC3    O2 6888   0.999   3.887  17.507 -0.2896  0.3654 -0.1302
  463MPD2     C 6889   1.238   2.537   1.870  0.2481 -0.5361  0.2131
  463MPD2    C1 6890   1.293   2.426   1.816 -0.2540  0.3531 -1.0929
  463MPD2    C2 6891   1.427   2.418   1.798 -0.0669  0.4398 -0.2793
  463MPD2    C3 6892   1.516   2.517   1.843  0.2027 -0.0178 -0.6229
  463MPD2    C4 6893   1.467   2.615   1.918 -1.0614  0.5167 -1.0680
  463MPD2    C5 6894   1.328   2.628   1.929 -0.2453  0.1382 -0.0896
  463MPD2     H 6895   1.460   2.323   1.760  1.0185  0.7910 -0.2122
  463MPD2    H1 6896   1.532   2.697   1.948  0.9105 -1.3583 -0.2147
  463MPD2    H2 6897   1.132   2.559   1.881  0.3308  0.1372 -0.2819
  463MPD2    H3 6898   1.287   2.718   1.972 -3.1110 -1.4571  0.4792
  463MPD2     N 6899   1.659   2.520   1.822 -0.4467 -0.3965 -0.1353
  463MPD2    H5 6900   1.717   2.592   1.864  2.1348 -0.8437 -2.9232
  463MPD2    N1 6901   1.225   2.309   1.770  0.8074  0.1085 -0.7864
  463MPD2    H7 6902   1.275   2.252   1.703 -0.7919 -1.0477 -1.0068
  464TMC3    C1 6903   1.049   2.174   1.693  0.1988  0.1936 -0.4011
  464TMC3    C2 6904   1.084   2.176   1.557 -0.2355  0.8634  0.7429
  464TMC3    C3 6905   1.015   2.083   1.480  0.0378  0.0829 -0.1527
  464TMC3    C4 6906   0.952   2.090   1.741 -0.1228  0.8087 -0.0843
  464TMC3    C5 6907   0.896   2.001   1.652 -0.1626  0.2521  0.2196
  464TMC3    C6 6908   0.928   1.995   1.523 -0.6645  1.0963 -0.5448
  464TMC3     C 6909   1.092   2.291   1.776  0.3390  0.2728 -0.0755
  464TMC3     O 6910   1.016   2.346   1.856 -0.4787  0.4691 -0.3907
  464TMC3     H 6911   1.170   2.228   1.517 -1.3230  1.1961 -1.1300
  464TMC3    H1 6912   0.927   2.093   1.847 -3.6367  1.6439 -0.9368
  464TMC3    H2 6913   0.868   1.941   1.451  1.9413 -0.9589 -1.1408
  464TMC3    C7 6914   0.787   1.923   1.699 -0.4041 -0.3312 -0.2161
  464TMC3    C8 6915   1.066   2.069   1.344  0.0612 -0.3746 -0.7257
  464TMC3    O1 6916   0.719   1.965   1.789  0.1568  0.8648  0.7715
  464TMC3    O2 6917   1.115   2.172   1.298  0.1628  0.2556  0.1790
  465MPD2     C 6918   2.996   0.286  16.395  0.6293  0.1853  0.1442
  465MPD2    C1 6919   2.924   0.404  16.410  0.4078 -0.3611  0.9915
  465MPD2    C2 6920   2.847   0.440  16.302  0.0700  0.2888  0.7915
  465MPD2    C3 6921   2.848   0.364  16.180  0.1026  1.4085 -0.1851
  465MPD2    C4 6922   2.928   0.256  16.176 -0.6829  0.0750 -0.7389
  465MPD2    C5 6923   2.997   0.215  16.286  0.0507 -0.9417 -0.2724
  465MPD2     H 6924   2.787   0.530  16.297 -1.8767 -1.0043  1.0707
  465MPD2    H1 6925   2.937   0.192  16.089  1.7513  2.7365 -2.4149
  465MPD2    H2 6926   3.065   0.250  16.471 -0.8132  0.2577  1.4805
  465MPD2    H3 6927   3.055   0.123  16.293 -3.0206 -2.9881 -2.2075
  465MPD2     N 6928   2.774   0.414  16.067 -0.2584  0.1893 -0.0145
  465MPD2    H5 6929   2.731   0.505  16.079 -0.9505 -0.4845  2.6826
  465MPD2    N1 6930   2.932   0.483  16.530 -0.0744  0.3961  0.4526
  465MPD2    H7 6931   2.908   0.581  16.522  0.4789  0.4770 -0.2629
  466TMC3    C1 6932   2.440   0.371  15.742  0.1230  0.1751  0.0743
  466TMC3    C2 6933   2.420   0.501  15.723  0.3995 -0.2379  0.1881
  466TMC3    C3 6934   2.505   0.591  15.785 -0.5157  0.1934 -0.1751
  466TMC3    C4 6935   2.549   0.318  15.805 -0.0339 -0.3270  0.6014
  466TMC3    C5 6936   2.643   0.404  15.863  0.1606  0.8756  0.2492
  466TMC3    C6 6937   2.614   0.540  15.849 -0.6690 -0.0807  0.1276
  466TMC3     C 6938   2.349   0.279  15.683 -0.2956  0.2060  0.1517
  466TMC3     O 6939   2.404   0.187  15.627 -0.4227  0.0429  0.6218
  466TMC3     H 6940   2.349   0.544  15.655 -0.9581  1.1965  2.5056
  466TMC3    H1 6941   2.550   0.210  15.816  1.1134 -0.5943 -2.1723
  466TMC3    H2 6942   2.684   0.607  15.898 -1.4648  1.5762 -0.9943
  466TMC3    C7 6943   2.741   0.342  15.958  0.3090  0.9190 -0.6863
  466TMC3    C8 6944   2.453   0.716  15.843 -0.4134  0.3579 -0.6428
  466TMC3    O1 6945   2.786   0.231  15.926 -0.3968 -0.1761 -0.0701
  466TMC3    O2 6946   2.536   0.788  15.893  0.0056 -0.6133 -0.4063
  467TMC3    C1 6947   3.546   3.245  14.069  0.6153 -0.2075  0.3869
  467TMC3    C2 6948   3.512   3.282  13.943  0.4671  0.3834 -0.1323
  467TMC3    C3 6949   3.396   3.345  13.927 -1.1746  0.6221 -0.9489
  467TMC3    C4 6950   3.464   3.283  14.177  0.0864 -0.1639  0.9640
  467TMC3    C5 6951   3.354   3.358  14.160  0.3092  0.3879  0.1728
  467TMC3    C6 6952   3.320   3.390  14.033 -0.0223 -0.0056 -0.4755
  467TMC3     C 6953   3.687   3.259  14.103 -0.1872  0.2340 -0.2178
  467TMC3     O 6954   3.768   3.218  14.023  0.2572  0.3264 -0.4533
  467TMC3     H 6955   3.588   3.274  13.866  1.7846  1.8266  1.0064
  467TMC3    H1 6956   3.487   3.254  14.279  0.7666 -1.1271  0.5333
  467TMC3    H2 6957   3.234   3.455  14.018 -1.8123 -2.2665  0.0609
  467TMC3    C7 6958   3.288   3.398  14.275  0.7819 -0.0521 -0.2073
  467TMC3    C8 6959   3.392   3.433  13.809  0.2910 -0.2032 -0.2249
  467TMC3    O1 6960   3.364   3.430  14.364  0.2370 -0.4363 -0.6108
  467TMC3    O2 6961   3.349   3.552  13.812  0.2569 -0.2143 -0.1527
  468MPD2     C 6962   2.709   2.376  11.075 -0.2940 -0.1466  0.8808
  468MPD2    C1 6963   2.836   2.344  11.103 -0.6903 -0.1548 -0.0309
  468MPD2    C2 6964   2.878   2.209  11.110  0.6234  0.0221 -0.4955
  468MPD2    C3 6965   2.787   2.104  11.083 -0.1641  0.5087  0.2858
  468MPD2    C4 6966   2.653   2.145  11.058 -0.5582 -0.1546  0.2402
  468MPD2    C5 6967   2.618   2.276  11.056 -0.4034  0.4223  0.1277
  468MPD2     H 6968   2.982   2.190  11.135  0.5613  1.2886  0.7017
  468MPD2    H1 6969   2.577   2.070  11.039 -0.1580 -1.0517  2.2382
  468MPD2    H2 6970   2.684   2.482  11.069  0.1305 -0.0881  0.1459
  468MPD2    H3 6971   2.511   2.295  11.052 -0.8384 -2.1863 -0.6199
  468MPD2     N 6972   2.818   1.969  11.078  0.5779 -0.0394 -0.1918
  468MPD2    H5 6973   2.741   1.903  11.069  1.4236 -1.2630  1.3974
  468MPD2    N1 6974   2.932   2.439  11.136 -0.1148 -0.1215  0.3631
  468MPD2    H7 6975   3.026   2.401  11.145  0.1044  0.2240 -0.4844
  469TMC3    C1 6976   3.046   2.636  11.181  0.1519  0.0536  0.1012
  469TMC3    C2 6977   3.148   2.561  11.229 -1.2495  0.6671 -0.4590
  469TMC3    C3 6978   3.242   2.625  11.305 -0.0071 -0.1609 -0.5708
  469TMC3    C4 6979   3.039   2.768  11.216 -0.0420  0.6738 -0.1944
  469TMC3    C5 6980   3.124   2.825  11.307  0.4359 -0.4675  0.1151
  469TMC3    C6 6981   3.226   2.749  11.357 -0.5996 -0.0233  0.4085
  469TMC3     C 6982   2.923   2.579  11.140  0.0010  0.2067  0.4681
  469TMC3     O 6983   2.828   2.653  11.118 -0.1521 -0.3650  0.7438
  469TMC3     H 6984   3.166   2.456  11.206 -0.4809  0.6363  0.2896
  469TMC3    H1 6985   2.956   2.833  11.191 -0.9847 -0.1743  0.7785
  469TMC3    H2 6986   3.295   2.799  11.424 -1.4111 -1.9857  2.7016
  469TMC3    C7 6987   3.075   2.945  11.366  0.3508 -0.5236  0.7833
  469TMC3    C8 6988   3.336   2.534  11.364  0.2920 -0.0239 -0.1591
  469TMC3    O1 6989   3.015   3.023  11.290 -0.0388 -0.2493  0.1703
  469TMC3    O2 6990   3.379   2.445  11.294 -0.1642 -0.4273  0.3467
  470TMC3    C1 6991   0.873   3.440   0.493  0.1506 -0.0767  0.6353
  470TMC3    C2 6992   0.821   3.434   0.613  0.1256 -0.6271 -0.3117
  470TMC3    C3 6993   0.820   3.324   0.684 -0.7164  0.1333  0.4207
  470TMC3    C4 6994   0.930   3.334   0.435  0.3211  0.0379  0.0974
  470TMC3    C5 6995   0.924   3.211   0.503  0.3855  0.0939 -0.1312
  470TMC3    C6 6996   0.870   3.210   0.634  0.2468  0.1683 -0.0190
  470TMC3     C 6997   0.851   3.561   0.413  0.6665 -0.2550 -0.0849
  470TMC3     O 6998   0.748   3.624   0.443 -0.3133  0.0532 -0.0925
  470TMC3     H 6999   0.779   3.527   0.651  1.6080 -0.2963  0.4958
  470TMC3    H1 7000   0.969   3.331   0.334 -0.8529  0.1712 -0.3651
  470TMC3    H2 7001   0.854   3.121   0.694  0.4685 -0.9285 -1.5853
  470TMC3    C7 7002   1.007   3.110   0.457 -0.5370  0.2845  0.4818
  470TMC3    C8 7003   0.761   3.339   0.816 -0.0581 -0.2017 -0.5879
  470TMC3    O1 7004   1.044   3.115   0.341 -0.4949  0.2649  0.5763
  470TMC3    O2 7005   0.704   3.444   0.836  0.1656  0.4359  0.4006
  471MPD2     C 7006   0.369   4.167  16.296 -0.2941  0.0944 -0.2458
  471MPD2    C1 7007   0.469   4.071  16.329 -0.3859  0.2415 -0.2246
  471MPD2    C2 7008   0.537   4.085  16.447 -0.0146  0.6125 -0.0239
  471MPD2    C3 7009   0.502   4.172  16.543 -0.2042  0.0171 -0.2821
  471MPD2    C4 7010   0.399   4.254  16.519  0.1574  0.1008 -0.4679
  471MPD2    C5 7011   0.330   4.251  16.399  0.0491 -0.4272 -0.5991
  471MPD2     H 7012   0.615   4.011  16.467 -0.0323  1.2548  2.4276
  471MPD2    H1 7013   0.365   4.326  16.593 -0.0009  0.3809 -0.8138
  471MPD2    H2 7014   0.317   4.161  16.201 -0.9468 -0.2440  0.1290
  471MPD2    H3 7015   0.260   4.327  16.367  0.2977 -0.9868 -2.5329
  471MPD2     N 7016   0.569   4.180  16.663 -0.1979  0.4713 -0.4282
  471MPD2    H5 7017   0.512   4.215  16.739  0.3699  0.9863 -0.2392
  471MPD2    N1 7018   0.490   3.970  16.233  0.4811 -0.3179 -0.1631
  471MPD2    H7 7019   0.415   3.961  16.166  0.4421  3.1957 -0.6077
  472TMC3    C1 7020   0.547   3.765  16.150  0.2650 -0.4013  0.3094
  472TMC3    C2 7021   0.466   3.789  16.047  0.3175 -0.0713  0.1228
  472TMC3    C3 7022   0.412   3.678  15.984  0.8360  0.3383  0.0189
  472TMC3    C4 7023   0.575   3.642  16.202 -0.2611  0.1989  0.0619
  472TMC3    C5 7024   0.505   3.536  16.146  0.1516 -0.6446  0.2933
  472TMC3    C6 7025   0.425   3.557  16.036 -0.1436  0.1056 -0.1069
  472TMC3     C 7026   0.583   3.872  16.241  0.1981  0.1232 -0.0941
  472TMC3     O 7027   0.689   3.855  16.302 -0.0754  0.0549 -0.4024
  472TMC3     H 7028   0.474   3.872  15.978  1.7193  0.4060  0.8785
  472TMC3    H1 7029   0.622   3.631  16.299  0.2253  0.9437 -0.0935
  472TMC3    H2 7030   0.390   3.475  15.974 -2.4218  2.0830 -1.4392
  472TMC3    C7 7031   0.466   3.436  16.239 -0.2285 -0.1299 -0.2684
  472TMC3    C8 7032   0.305   3.689  15.891 -0.0548  0.3567 -0.7369
  472TMC3    O1 7033   0.525   3.418  16.345 -0.8425 -0.5184 -0.4041
  472TMC3    O2 7034   0.314   3.771  15.800 -0.1298  0.3220  0.5717
  473MPD2     C 7035   0.243   1.279  13.760  0.2319  0.3021 -0.1446
  473MPD2    C1 7036   0.255   1.374  13.657  0.0063 -0.3374 -0.4035
  473MPD2    C2 7037   0.335   1.486  13.683  0.0160  0.1086 -0.3801
  473MPD2    C3 7038   0.398   1.507  13.802 -0.2087 -0.9121 -0.5731
  473MPD2    C4 7039   0.387   1.414  13.900  0.1304 -0.6497 -0.5558
  473MPD2    C5 7040   0.310   1.304  13.877  0.1682  0.0855  0.1404
  473MPD2     H 7041   0.339   1.554  13.599 -1.4253 -0.9638 -1.3209
  473MPD2    H1 7042   0.441   1.426  13.993  0.6704 -2.0785 -0.6869
  473MPD2    H2 7043   0.188   1.187  13.742  0.0503  0.6030 -1.1074
  473MPD2    H3 7044   0.312   1.232  13.957 -0.1336 -1.1942 -1.0018
  473MPD2     N 7045   0.475   1.621  13.827 -0.2951 -0.1140  0.0329
  473MPD2    H5 7046   0.482   1.644  13.926  1.0071 -1.8095  0.3438
  473MPD2    N1 7047   0.164   1.380  13.551  0.2909  0.0265 -0.1606
  473MPD2    H7 7048   0.181   1.463  13.494 -1.8218 -0.0426 -0.8835
  474TMC3    C1 7049   0.614   1.806  13.791 -0.4632 -0.1574  0.2774
  474TMC3    C2 7050   0.659   1.892  13.692 -0.2350 -0.5585 -0.7308
  474TMC3    C3 7051   0.783   1.948  13.714  0.0949  1.0180 -0.1046
  474TMC3    C4 7052   0.697   1.774  13.898  0.0610  0.6066  0.2174
  474TMC3    C5 7053   0.824   1.827  13.907  0.3572 -1.3856  0.1813
  474TMC3    C6 7054   0.871   1.912  13.812 -0.2442 -0.1910 -0.9461
  474TMC3     C 7055   0.530   1.701  13.731  0.2621 -0.3863 -1.0163
  474TMC3     O 7056   0.545   1.681  13.611  0.2331 -0.9519  0.0045
  474TMC3     H 7057   0.591   1.916  13.612 -4.1221 -1.8960  2.1853
  474TMC3    H1 7058   0.661   1.716  13.983 -1.6300  0.0088 -0.9158
  474TMC3    H2 7059   0.960   1.973  13.826 -0.5306 -0.0120  0.0964
  474TMC3    C7 7060   0.913   1.795  14.017 -1.0595 -0.2214 -0.2000
  474TMC3    C8 7061   0.810   2.082  13.657  0.2666  0.7625  0.9518
  474TMC3    O1 7062   1.032   1.802  13.990  0.5732 -0.0618  0.0885
  474TMC3    O2 7063   0.783   2.095  13.540  0.2003  0.0295 -0.3453
  475MPD2     C 7064   4.684   4.367  10.265  0.7586 -0.4009 -0.4181
  475MPD2    C1 7065   4.637   4.469  10.196 -0.3202 -0.3073  0.3225
  475MPD2    C2 7066   4.520   4.538  10.230  0.2102  0.0106 -0.5768
  475MPD2    C3 7067   4.461   4.507  10.349  0.0705  0.0580 -0.3863
  475MPD2    C4 7068   4.509   4.395  10.419 -0.1688  0.2094  0.3035
  475MPD2    C5 7069   4.615   4.326  10.374  0.8986  0.0911 -0.6886
  475MPD2     H 7070   4.492   4.634  10.189  1.4094  0.6001 -0.0259
  475MPD2    H1 7071   4.462   4.358  10.509 -0.7844  0.4266  0.0724
  475MPD2    H2 7072   0.041   4.308  10.226 -0.8803 -2.0782 -1.3482
  475MPD2    H3 7073   4.641   4.232  10.421 -1.9578 -0.1586  0.3879
  475MPD2     N 7074   4.362   4.592  10.396 -0.1196 -0.1192  0.3266
  475MPD2    H5 7075   4.338   4.669  10.335 -1.1576  0.5582  1.5969
  475MPD2    N1 7076   4.716   4.504  10.087 -0.6357  0.5960  0.1901
  475MPD2    H7 7077   0.072   4.447  10.066 -0.9887  0.9180 -2.0267
  476TMC3    C1 7078   0.069   4.626   9.900 -0.8212  0.4961  0.3073
  476TMC3    C2 7079   0.019   4.695   9.794  0.6236 -0.1871  0.0772
  476TMC3    C3 7080   0.064   0.099   9.767 -0.6215 -0.4934 -0.1036
  476TMC3    C4 7081   0.181   4.677   9.962  0.3846  0.1393  0.5621
  476TMC3    C5 7082   0.228   0.074   9.927 -0.5813 -0.3895  0.2811
  476TMC3    C6 7083   0.175   0.150   9.831  0.0936  0.2545 -0.7173
  476TMC3     C 7084   4.687   4.593   9.990  0.2588 -0.3372  0.2515
  476TMC3     O 7085   4.593   4.665   9.964  0.2558  0.2910  0.2269
  476TMC3     H 7086   4.663   4.647   9.739  0.7842 -1.0862  0.6223
  476TMC3    H1 7087   0.218   4.629  10.053  0.4508 -1.7882 -0.4924
  476TMC3    H2 7088   0.204   0.254   9.836  2.6559 -0.5012  0.3856
  476TMC3    C7 7089   0.323   0.132  10.016  0.2508  0.1041  0.3722
  476TMC3    C8 7090   4.690   0.199   9.722  0.2964 -0.3916 -0.3497
  476TMC3    O1 7091   0.437   0.090  10.014  0.3653 -0.1270 -0.4419
  476TMC3    O2 7092   4.723   0.297   9.662  0.1989  0.2492  0.0186
  477MPD2     C 7093   1.305   1.762  12.281  0.0933 -0.0638  0.0255
  477MPD2    C1 7094   1.214   1.656  12.261 -0.6237 -0.2197 -0.2615
  477MPD2    C2 7095   1.257   1.530  12.310  0.3877  0.5053 -0.1573
  477MPD2    C3 7096   1.386   1.513  12.360 -0.9849 -0.6491 -0.5495
  477MPD2    C4 7097   1.474   1.619  12.379  0.0388  0.0175  0.5824
  477MPD2    C5 7098   1.432   1.743  12.339 -0.0220  1.2524 -0.6811
  477MPD2     H 7099   1.190   1.446  12.294  1.4286 -0.2573 -0.5203
  477MPD2    H1 7100   1.578   1.619  12.411 -0.4237  0.8399  2.0849
  477MPD2    H2 7101   1.279   1.861  12.245  1.6679 -0.4957 -2.3553
  477MPD2    H3 7102   1.502   1.825  12.343  0.6099  0.6809  0.0538
  477MPD2     N 7103   1.413   1.389  12.418  0.0375 -0.7334  0.0987
  477MPD2    H5 7104   1.338   1.321  12.424  2.1227 -3.0455 -0.1234
  477MPD2    N1 7105   1.090   1.686  12.194  0.4538  0.3479  0.3299
  477MPD2    H7 7106   1.070   1.783  12.171  0.2099  0.0000 -0.8838
  478TMC3    C1 7107   0.904   1.647  12.058 -0.1079  0.5161  0.2323
  478TMC3    C2 7108   0.860   1.765  12.100 -0.2928  0.1048 -0.0825
  478TMC3    C3 7109   0.819   1.863  12.013  0.3992  0.2300  0.1226
  478TMC3    C4 7110   0.912   1.615  11.923  0.4372  0.0883  0.1755
  478TMC3    C5 7111   0.854   1.706  11.835  0.3680  0.1257 -0.4919
  478TMC3    C6 7112   0.806   1.830  11.878  0.1230 -0.2035  0.6453
  478TMC3     C 7113   1.010   1.585  12.141  0.2523 -0.4409  0.1359
  478TMC3     O 7114   1.027   1.461  12.124  0.1186  0.4363 -0.0684
  478TMC3     H 7115   0.853   1.788  12.205  0.5350  1.8056 -0.4040
  478TMC3    H1 7116   0.944   1.516  11.893  2.8498  1.5665 -2.2201
  478TMC3    H2 7117   0.766   1.898  11.804 -1.5938  0.6142  2.3352
  478TMC3    C7 7118   0.880   1.682  11.695 -0.1484  0.0494 -0.9489
  478TMC3    C8 7119   0.777   1.986  12.078 -0.4773  0.2617  0.3275
  478TMC3    O1 7120   0.979   1.620  11.669 -0.4780  0.0589 -0.5574
  478TMC3    O2 7121   0.782   1.995  12.199 -0.4029 -0.2886 -0.7758
  479MPD2     C 7122   0.205   3.086  15.386 -0.9164  0.7326  0.0028
  479MPD2    C1 7123   0.144   3.047  15.503 -0.6226  0.5351  0.6515
  479MPD2    C2 7124   0.191   3.093  15.623  0.1365  0.4610 -0.3888
  479MPD2    C3 7125   0.276   3.206  15.627  0.8490 -0.4831 -0.2316
  479MPD2    C4 7126   0.346   3.229  15.509  0.3438  0.6502  0.4314
  479MPD2    C5 7127   0.307   3.174  15.390 -0.7298  0.2722  0.4021
  479MPD2     H 7128   0.142   3.062  15.715  0.6932  1.6144  0.2958
  479MPD2    H1 7129   0.430   3.297  15.516 -2.0302  3.3504  3.0214
  479MPD2    H2 7130   0.185   3.051  15.286  1.0956  2.8648 -1.1602
  479MPD2    H3 7131   0.359   3.195  15.297  0.2941  1.7033  1.2902
  479MPD2     N 7132   0.295   3.276  15.744  0.4194 -0.1882 -0.2017
  479MPD2    H5 7133   0.375   3.338  15.747 -1.0645  1.7428 -0.7126
  479MPD2    N1 7134   0.032   2.971  15.496  0.2790  0.0139  0.3148
  479MPD2    H7 7135   0.005   2.935  15.405 -0.2241 -0.2140  0.5547
  480TMC3    C1 7136   4.566   3.225  15.874  0.2127  0.2459 -0.5230
  480TMC3    C2 7137   4.515   3.259  15.753  0.6939  0.0267  0.4058
  480TMC3    C3 7138   4.603   3.305  15.657  0.2852  0.3525 -0.2788
  480TMC3    C4 7139   4.699   3.235  15.901  0.7487  0.3633 -0.6203
  480TMC3    C5 7140   0.054   3.283  15.806  0.1038 -0.1982 -0.5075
  480TMC3    C6 7141   0.014   3.330  15.686  0.5656  0.6447  0.0222
  480TMC3     C 7142   4.487   3.156  15.972  0.1275 -0.3390 -0.4488
  480TMC3     O 7143   4.369   3.189  15.980  0.3999  0.0723 -0.2640
  480TMC3     H 7144   4.409   3.252  15.730  0.7981 -0.7577  0.1503
  480TMC3    H1 7145   0.028   3.209  15.991 -0.6201  0.9883  0.3894
  480TMC3    H2 7146   0.087   3.364  15.613 -1.0462  1.3865 -1.2346
  480TMC3    C7 7147   0.194   3.293  15.843  0.4017 -0.1760 -0.5432
  480TMC3    C8 7148   4.560   3.277  15.526 -0.2574 -0.4043 -0.0741
  480TMC3    O1 7149   0.215   3.348  15.951  0.0555 -0.1203 -0.5269
  480TMC3    O2 7150   4.451   3.221  15.513  0.1390  0.0699  0.2851
  481MPD2     C 7151   1.943   2.819  14.878 -0.0906  0.7985 -0.4642
  481MPD2    C1 7152   1.811   2.784  14.842 -0.0109  0.1854 -0.5543
  481MPD2    C2 7153   1.733   2.696  14.919 -0.1878 -1.1373  0.3771
  481MPD2    C3 7154   1.791   2.649  15.031 -0.6762 -0.7964 -0.5745
  481MPD2    C4 7155   1.920   2.683  15.069  0.2163  0.1423  0.2082
  481MPD2    C5 7156   1.990   2.766  14.989 -0.3446 -0.6268 -0.3243
  481MPD2     H 7157   1.629   2.688  14.891 -0.3884  2.8913 -0.0348
  481MPD2    H1 7158   1.964   2.648  15.161  1.8832  0.3282 -0.5310
  481MPD2    H2 7159   2.010   2.879  14.817  1.1308  0.5868  0.6834
  481MPD2    H3 7160   2.091   2.796  15.015  0.3871 -1.7638 -1.8584
  481MPD2     N 7161   1.719   2.569  15.129  0.6637 -0.4025  0.3839
  481MPD2    H5 7162   1.782   2.530  15.199  0.6072 -1.5713 -0.2063
  481MPD2    N1 7163   1.773   2.839  14.715  0.5647 -0.0645 -0.1507
  481MPD2    H7 7164   1.840   2.901  14.672  2.2278 -0.5184  1.8170
  482TMC3    C1 7165   1.661   2.855  14.509 -0.5458 -0.7644 -0.1197
  482TMC3    C2 7166   1.598   2.774  14.412 -0.2820  0.4775  0.1855
  482TMC3    C3 7167   1.626   2.797  14.281 -0.0547 -0.1027 -0.9722
  482TMC3    C4 7168   1.749   2.955  14.466 -0.0891 -0.0413  0.4861
  482TMC3    C5 7169   1.775   2.977  14.332 -0.4075 -1.0197 -0.0801
  482TMC3    C6 7170   1.705   2.899  14.240  0.0005  0.5696  0.1260
  482TMC3     C 7171   1.664   2.802  14.641 -0.0671  0.1816  0.9703
  482TMC3     O 7172   1.592   2.707  14.666 -0.5957  0.4858  0.2588
  482TMC3     H 7173   1.528   2.696  14.439  0.9340 -0.2519  1.2218
  482TMC3    H1 7174   1.812   3.011  14.535  0.4668  0.0867 -0.1269
  482TMC3    H2 7175   1.740   2.913  14.139 -0.0178 -1.1788 -0.1243
  482TMC3    C7 7176   1.876   3.065  14.279 -0.7866 -0.1990 -0.2353
  482TMC3    C8 7177   1.573   2.695  14.193 -0.1358 -0.3724  0.0549
  482TMC3    O1 7178   1.980   3.068  14.347 -0.2584 -0.1687 -0.3785
  482TMC3    O2 7179   1.576   2.579  14.227 -0.0123 -0.5083 -0.1415
  483TMC3    C1 7180   0.636   2.533   1.481  0.2031 -0.0045 -1.2050
  483TMC3    C2 7181   0.694   2.556   1.358 -0.4866  0.1109  0.5058
  483TMC3    C3 7182   0.790   2.470   1.311 -0.5061 -0.3695 -0.1451
  483TMC3    C4 7183   0.673   2.427   1.549 -0.6641 -0.5354 -0.2907
  483TMC3    C5 7184   0.752   2.331   1.487 -0.1422  0.5277  0.1736
  483TMC3    C6 7185   0.822   2.357   1.373  0.4976 -0.0270  0.4640
  483TMC3     C 7186   0.494   2.555   1.489 -0.2715 -0.0808 -0.0530
  483TMC3     O 7187   0.451   2.604   1.590  0.4800  0.5411 -0.3041
  483TMC3     H 7188   0.671   2.649   1.307  0.0002 -0.7871 -1.3141
  483TMC3    H1 7189   0.624   2.410   1.644  0.8861  0.6564  0.7184
  483TMC3    H2 7190   0.881   2.278   1.330 -0.0381  0.0177 -0.3614
  483TMC3    C7 7191   0.681   2.203   1.465 -0.1724  0.2057 -0.6641
  483TMC3    C8 7192   0.831   2.499   1.179  0.5710  0.0693 -0.5500
  483TMC3    O1 7193   0.706   2.143   1.361 -0.9087 -0.2713 -0.0094
  483TMC3    O2 7194   0.781   2.590   1.116  0.0354  0.1873  0.0300
  484MPD2     C 7195   2.037   0.263  12.577  0.1238  0.0009 -0.0118
  484MPD2    C1 7196   2.081   0.148  12.635  0.0684 -0.3579 -0.3392
  484MPD2    C2 7197   2.214   0.122  12.670  1.1964  0.5300  0.0791
  484MPD2    C3 7198   2.307   0.218  12.632 -0.1706 -0.1911 -0.3252
  484MPD2    C4 7199   2.267   0.338  12.570 -1.1635  0.0041  0.0018
  484MPD2    C5 7200   2.135   0.355  12.550 -0.3339 -1.4872  0.3210
  484MPD2     H 7201   2.253   0.033  12.718 -0.8864  0.7429  2.1510
  484MPD2    H1 7202   2.340   0.406  12.527  0.1964 -0.8364  0.9672
  484MPD2    H2 7203   1.934   0.289  12.559 -0.3229  0.4158  3.2204
  484MPD2    H3 7204   2.106   0.444  12.496 -0.1877  0.6586  3.7954
  484MPD2     N 7205   2.443   0.200  12.649 -0.3714 -0.0594  0.2877
  484MPD2    H5 7206   2.494   0.288  12.645  1.0038 -0.8739 -0.3092
  484MPD2    N1 7207   1.987   0.051  12.673  0.1812 -0.7401  0.2138
  484MPD2    H7 7208   1.897   0.062  12.629  1.1129  1.8463 -1.0765
  485TMC3    C1 7209   2.647   0.106  12.727  0.5358 -0.7504  0.6086
  485TMC3    C2 7210   2.696   0.007  12.802  0.6103  0.0358 -0.3989
  485TMC3    C3 7211   2.835   4.723  12.804 -1.0210  0.1592 -0.8662
  485TMC3    C4 7212   2.729   0.187  12.653  0.0655 -0.0333  0.1206
  485TMC3    C5 7213   2.866   0.168  12.648  0.5309 -0.3501 -0.4705
  485TMC3    C6 7214   2.922   0.084  12.740  0.5351  0.1258  0.1023
  485TMC3     C 7215   2.501   0.088  12.700  0.2671 -0.0017  0.4098
  485TMC3     O 7216   2.469   4.696  12.677 -0.4175 -0.4298  0.3490
  485TMC3     H 7217   2.627   4.687  12.871  0.2659  0.9192 -0.1679
  485TMC3    H1 7218   2.688   0.241  12.568 -3.0853 -0.1737  1.5347
  485TMC3    H2 7219   3.029   0.072  12.734  0.4558  0.3742 -2.0287
  485TMC3    C7 7220   2.915   0.154  12.509 -0.3398  0.7325  0.6295
  485TMC3    C8 7221   2.879   4.586  12.797  0.5791 -0.2088 -0.8690
  485TMC3    O1 7222   2.874   0.236  12.426 -0.5353 -0.1862  0.0225
  485TMC3    O2 7223   2.997   4.577  12.764 -0.7464  0.4791  0.0515
  486MPD2     C 7224   4.539   3.755  13.172  0.3057  0.6237  0.0381
  486MPD2    C1 7225   4.503   3.730  13.037 -0.1444 -0.6155  0.2128
  486MPD2    C2 7226   4.456   3.838  12.964 -0.6234  0.1254 -0.2969
  486MPD2    C3 7227   4.428   3.956  13.019  0.1384 -0.6282 -0.3569
  486MPD2    C4 7228   4.456   3.974  13.152  0.5430 -0.8622 -0.3037
  486MPD2    C5 7229   4.522   3.874  13.228 -0.0669 -0.0865  0.5107
  486MPD2     H 7230   4.443   3.825  12.857 -2.5587  3.1814 -0.4349
  486MPD2    H1 7231   4.430   4.059  13.214  0.8017 -0.3412 -0.9079
  486MPD2    H2 7232   4.577   3.671  13.229 -0.1140 -0.0538 -0.6762
  486MPD2    H3 7233   4.547   3.887  13.333  3.3462  1.3314 -0.4716
  486MPD2     N 7234   4.365   4.063  12.944  0.3717 -0.6068 -0.3537
  486MPD2    H5 7235   4.349   4.044  12.846 -1.5918  0.3248 -0.2135
  486MPD2    N1 7236   4.525   3.595  12.990 -0.1884 -0.0998 -0.0337
  486MPD2    H7 7237   4.570   3.537  13.060  0.6473  2.9517  1.9727
  487TMC3    C1 7238   4.549   3.415  12.847  0.7619  0.2829  0.7608
  487TMC3    C2 7239   4.484   3.335  12.753 -0.8412 -0.3464  1.1094
  487TMC3    C3 7240   4.561   3.225  12.712  0.0951 -0.1574  0.0721
  487TMC3    C4 7241   4.673   3.384  12.899 -0.0517  0.1343  0.5901
  487TMC3    C5 7242   0.009   3.271  12.850 -0.5767 -0.0541 -0.8725
  487TMC3    C6 7243   4.687   3.203  12.746  0.0446 -0.3635 -0.9078
  487TMC3     C 7244   4.489   3.544  12.872 -0.7485 -1.3295  0.4592
  487TMC3     O 7245   4.412   3.592  12.787 -0.2898  0.0417  0.1562
  487TMC3     H 7246   4.380   3.346  12.726 -0.5528  0.2306  0.2356
  487TMC3    H1 7247   0.011   3.446  12.961 -0.9687  0.3248  1.3304
  487TMC3    H2 7248   0.007   3.109  12.717 -0.9464 -0.3766 -2.4030
  487TMC3    C7 7249   0.079   3.194  12.948 -0.1384  0.4862 -0.0085
  487TMC3    C8 7250   4.483   3.098  12.718 -0.4501  0.0279  0.3886
  487TMC3    O1 7251   0.080   3.223  13.067  0.0410 -0.0133 -0.2040
  487TMC3    O2 7252   4.512   3.005  12.645  0.0510 -0.1452  0.6117
  488MPD2     C 7253   4.503   0.347  16.524  0.1680 -0.3504  0.0556
  488MPD2    C1 7254   4.571   0.465  16.546  0.3125  0.6130 -0.3777
  488MPD2    C2 7255   4.618   0.489  16.671 -0.6661 -0.0221 -0.6230
  488MPD2    C3 7256   4.588   0.416  16.783  0.3223 -0.4694  0.0520
  488MPD2    C4 7257   4.504   0.307  16.763  0.0132 -0.1590 -0.0320
  488MPD2    C5 7258   4.460   0.275  16.636  0.8993 -0.1897 -0.0819
  488MPD2     H 7259   4.676   0.579  16.685 -1.3448  0.3365 -0.0990
  488MPD2    H1 7260   4.480   0.243  16.846 -0.7926 -0.1369 -0.2454
  488MPD2    H2 7261   4.458   0.318  16.429  3.6741 -1.2733 -1.3193
  488MPD2    H3 7262   4.391   0.193  16.621 -1.2260  1.3636  1.0635
  488MPD2     N 7263   4.640   0.459  16.904 -0.3145 -0.3873 -0.0234
  488MPD2    H5 7264   4.668   0.557  16.907  1.0934 -0.6893 -3.1223
  488MPD2    N1 7265   4.611   0.557  16.451 -0.7411 -0.2009 -0.1701
  488MPD2    H7 7266   4.677   0.627  16.484 -1.4444 -0.0419  0.8841
  489TMC3    C1 7267   4.658   0.491  17.136 -1.0091 -0.3905  0.0635
  489TMC3    C2 7268   0.004   0.599  17.104 -0.4986  0.4803 -0.9601
  489TMC3    C3 7269   0.017   0.704  17.195  0.4102 -0.9744 -0.3691
  489TMC3    C4 7270   4.571   0.489  17.241 -0.5152 -0.2327 -0.1123
  489TMC3    C5 7271   4.589   0.588  17.334 -0.0796 -0.7697  0.7292
  489TMC3    C6 7272   4.681   0.691  17.316  0.3179  0.1126  0.6554
  489TMC3     C 7273   4.634   0.396  17.030  0.2431 -0.2536 -0.6153
  489TMC3     O 7274   4.587   0.288  17.059 -0.8237  0.1930  0.4317
  489TMC3     H 7275   0.069   0.594  17.017  1.1429  3.3804  0.0878
  489TMC3    H1 7276   4.503   0.407  17.257 -1.2825  0.5011  0.3925
  489TMC3    H2 7277   4.686   0.769  17.392  1.1239  0.1755  0.5350
  489TMC3    C7 7278   4.526   0.579  17.467 -0.0224 -0.3908 -0.3583
  489TMC3    C8 7279   0.109   0.807  17.151 -0.4701 -0.9763 -0.2197
  489TMC3    O1 7280   4.557   0.655  17.557 -1.4604  0.3918 -0.0590
  489TMC3    O2 7281   0.152   0.813  17.039  0.0493 -0.7147  0.1936
  490MPD2     C 7282   0.431   0.316   0.582  0.2098 -0.0609  0.2091
  490MPD2    C1 7283   0.465   0.281   0.455  0.0879  0.5508 -0.0901
  490MPD2    C2 7284   0.578   0.327   0.397  0.0168 -0.7428  0.2011
  490MPD2    C3 7285   0.652   0.428   0.454  0.0992  0.2916  0.2864
  490MPD2    C4 7286   0.619   0.466   0.580 -0.5009 -0.0068  0.2968
  490MPD2    C5 7287   0.511   0.408   0.642 -0.0127  0.5847 -0.3589
  490MPD2     H 7288   0.620   0.286   0.306  1.0571  1.7890 -0.4479
  490MPD2    H1 7289   0.673   0.548   0.627 -0.4805 -0.8502  1.7349
  490MPD2    H2 7290   0.349   0.280   0.642  0.1616 -0.6061 -0.1838
  490MPD2    H3 7291   0.502   0.434   0.747 -0.0103  1.2457 -0.5242
  490MPD2     N 7292   0.764   0.481   0.391  0.4100 -0.3525  0.3515
  490MPD2    H5 7293   0.813   0.559   0.433  0.5710  0.3524 -1.1328
  490MPD2    N1 7294   0.380   0.184   0.394  0.5559  0.0506  0.3601
  490MPD2    H7 7295   0.291   0.159   0.435  0.5840  0.6935  0.8158
  491TMC3    C1 7296   0.291   0.084   0.205 -0.2511  0.8270 -0.1184
  491TMC3    C2 7297   0.199   0.021   0.279  0.1147  0.0706 -0.1209
  491TMC3    C3 7298   0.093   4.689   0.217 -0.0303  0.6794 -0.5316
  491TMC3    C4 7299   0.289   0.080   0.068  0.1201 -1.0259 -1.2683
  491TMC3    C5 7300   0.181   0.027   0.003 -0.4976 -0.4936  0.3632
  491TMC3    C6 7301   0.085   4.689   0.079  0.1547  0.0217  0.2466
  491TMC3     C 7302   0.406   0.136   0.267  0.7893  0.3067 -0.5828
  491TMC3     O 7303   0.504   0.132   0.198  0.0005 -0.4564 -0.3413
  491TMC3     H 7304   0.212   0.011   0.386  2.3279  0.1736 -0.3717
  491TMC3    H1 7305   0.352   0.153   0.018 -0.9935  1.4619  0.9920
  491TMC3    H2 7306   4.725   4.651   0.022 -1.8039  3.2120  1.0888
  491TMC3    C7 7307   0.195   4.716  17.562  0.1674  0.4859 -0.2861
  491TMC3    C8 7308   4.716   4.617   0.295 -0.0536  0.7903 -0.8277
  491TMC3    O1 7309   0.095   4.664  17.512  0.8642 -0.7023  0.2555
  491TMC3    O2 7310   4.708   4.637   0.417 -0.8542 -0.2427 -0.2776
  492MPD2     C 7311   0.918   4.666  11.938 -0.3605  0.6182 -0.7508
  492MPD2    C1 7312   0.809   4.642  11.853 -0.0200  0.2785 -0.2133
  492MPD2    C2 7313   0.699   4.568  11.902  0.4743 -0.1752  0.6034
  492MPD2    C3 7314   0.707   4.512  12.024  0.3839  0.2741  0.6795
  492MPD2    C4 7315   0.817   4.535  12.104  0.3120 -0.3794  0.0805
  492MPD2    C5 7316   0.923   4.618  12.066 -0.0695 -0.2026  0.0943
  492MPD2     H 7317   0.613   4.555  11.838  0.5754  0.9692  0.2256
  492MPD2    H1 7318   0.826   4.489  12.202 -0.3966 -1.2727 -0.2746
  492MPD2    H2 7319   1.001   4.719  11.895  0.7881 -0.6623 -0.1067
  492MPD2    H3 7320   1.012   4.631  12.125 -0.7876 -3.7993  1.9558
  492MPD2     N 7321   0.612   4.426  12.080 -0.1427  0.4018  0.2093
  492MPD2    H5 7322   0.637   4.399  12.175  2.8185 -3.0821 -1.5659
  492MPD2    N1 7323   0.821   4.679  11.716  0.3963  0.3412 -0.1394
  492MPD2    H7 7324   0.910   4.723  11.696  0.1007  2.2371  2.6899
  493TMC3    C1 7325   0.775   4.680  11.487  0.4620 -0.4524 -1.1000
  493TMC3    C2 7326   0.875   0.041  11.466  0.4164 -0.2714 -0.2857
  493TMC3    C3 7327   0.882   0.097  11.341 -0.2138 -0.3901 -0.1925
  493TMC3    C4 7328   0.677   4.657  11.397  0.0196 -0.2634  0.0717
  493TMC3    C5 7329   0.677   4.721  11.276  0.3722 -0.5876  0.3921
  493TMC3    C6 7330   0.780   0.085  11.248  0.1361  0.4644 -1.3093
  493TMC3     C 7331   0.736   4.626  11.615 -0.3351  0.5852 -0.5131
  493TMC3     O 7332   0.631   4.565  11.620  0.0026  0.1435  0.1137
  493TMC3     H 7333   0.932   0.083  11.548 -1.1662 -1.2077  1.3118
  493TMC3    H1 7334   0.597   4.583  11.404  0.1292 -0.4232 -0.3781
  493TMC3    H2 7335   0.783   0.143  11.156 -3.8643 -0.5213 -2.0569
  493TMC3    C7 7336   0.562   4.715  11.193  0.2396  0.1047 -0.2284
  493TMC3    C8 7337   0.989   0.188  11.307 -0.6630 -0.2277 -0.0678
  493TMC3    O1 7338   0.575   0.017  11.074 -0.5319  0.3713 -0.1233
  493TMC3    O2 7339   0.976   0.266  11.215 -0.2423  0.3967  0.0623
  494TMC3    C1 7340   1.951   1.566   0.056 -0.3275 -0.4654  0.3542
  494TMC3    C2 7341   2.010   1.457   0.107 -0.5061  0.0301  0.2636
  494TMC3    C3 7342   1.994   1.342   0.029 -0.6729  0.6345 -0.5044
  494TMC3    C4 7343   1.911   1.583  17.632 -0.3297 -0.0890 -0.0991
  494TMC3    C5 7344   1.905   1.468  17.559  0.5566  0.2490  0.3585
  494TMC3    C6 7345   1.932   1.343  17.614  0.9628  0.1738 -0.3278
  494TMC3     C 7346   1.972   1.689   0.135 -0.1292  0.0844 -0.0491
  494TMC3     O 7347   1.964   1.676   0.255  0.1117 -0.0597  0.0102
  494TMC3     H 7348   2.060   1.465   0.204  0.9075  3.5235 -0.7588
  494TMC3    H1 7349   1.870   1.673  17.588  0.8592  1.1804  1.3587
  494TMC3    H2 7350   1.912   1.253  17.557 -1.7140  1.4358 -1.3716
  494TMC3    C7 7351   1.854   1.482  17.425  0.5133 -0.9992  0.2174
  494TMC3    C8 7352   2.051   1.215   0.071 -0.2180  0.0944  0.1044
  494TMC3    O1 7353   1.881   1.584  17.369 -0.0078  0.0678  0.3950
  494TMC3    O2 7354   2.069   1.131  17.689  0.2695  0.3174 -0.3352
  495TMC3    C1 7355   0.416   3.294  14.723  0.2009 -1.1260 -0.2233
  495TMC3    C2 7356   0.325   3.315  14.622 -0.2159 -0.0213  0.1845
  495TMC3    C3 7357   0.230   3.407  14.652 -0.2532  0.4755 -0.4452
  495TMC3    C4 7358   0.402   3.355  14.844 -0.2001  0.2355  0.3538
  495TMC3    C5 7359   0.295   3.430  14.873 -0.1479  0.0102  0.7134
  495TMC3    C6 7360   0.213   3.473  14.773  0.5063  0.2602  0.0149
  495TMC3     C 7361   0.506   3.181  14.712 -0.5124  0.2082 -0.1723
  495TMC3     O 7362   0.612   3.190  14.770 -0.7311  0.3578 -0.7569
  495TMC3     H 7363   0.329   3.256  14.531 -0.9344  0.1093  0.0736
  495TMC3    H1 7364   0.452   3.322  14.934  1.8491  0.7612 -0.5965
  495TMC3    H2 7365   0.126   3.536  14.789 -0.5291 -0.6550 -2.0959
  495TMC3    C7 7366   0.220   3.387  14.991 -0.4529  0.7583 -0.2252
  495TMC3    C8 7367   0.097   3.362  14.603  0.3705  0.0277  0.5762
  495TMC3    O1 7368   0.279   3.358  15.097  0.5277  0.2147 -0.0185
  495TMC3    O2 7369   0.004   3.365  14.684  0.8070 -0.1255 -0.4359
  496MPD2     C 7370   2.331   3.457  15.967 -0.3813 -1.0760 -0.5543
  496MPD2    C1 7371   2.228   3.490  15.882  1.3838  0.1291 -0.3540
  496MPD2    C2 7372   2.176   3.611  15.897 -0.9356 -0.0198 -0.0093
  496MPD2    C3 7373   2.203   3.691  16.006  0.0574 -0.0292  0.0391
  496MPD2    C4 7374   2.307   3.656  16.086  0.0101 -0.4782 -1.4861
  496MPD2    C5 7375   2.365   3.533  16.072 -0.2586  0.6931  0.0903
  496MPD2     H 7376   2.089   3.634  15.837 -1.5447  1.0608  1.3016
  496MPD2    H1 7377   2.336   3.704  16.180  0.5277  0.6751 -2.2255
  496MPD2    H2 7378   2.362   3.354  15.961  1.9317 -0.4660  0.7962
  496MPD2    H3 7379   2.443   3.505  16.141 -1.4169 -0.4521  0.9434
  496MPD2     N 7380   2.125   3.812  16.023 -0.3784 -0.7391  0.2793
  496MPD2    H5 7381   2.051   3.834  15.957 -0.8393  0.3136  1.1472
  496MPD2    N1 7382   2.182   3.397  15.791 -0.2084 -0.9424 -0.2407
  496MPD2    H7 7383   2.222   3.304  15.801  1.4679 -0.1993 -0.1826
  497TMC3    C1 7384   2.007   3.970  16.145  0.2605 -0.1262  0.5793
  497TMC3    C2 7385   1.931   3.981  16.040  0.2666  0.1806  0.7164
  497TMC3    C3 7386   1.798   4.015  16.068 -0.5654  0.2505  0.0978
  497TMC3    C4 7387   1.960   3.990  16.273 -0.3362  0.1735 -0.0613
  497TMC3    C5 7388   1.832   4.028  16.303  0.0621  0.3311  0.1870
  497TMC3    C6 7389   1.746   4.031  16.197 -0.6977  0.3790 -0.1675
  497TMC3     C 7390   2.126   3.892  16.131  0.4446  0.1584  0.2048
  497TMC3     O 7391   2.197   3.894  16.230  0.5167 -0.8121  0.6455
  497TMC3     H 7392   1.969   3.978  15.938  0.5656  1.8654  0.7776
  497TMC3    H1 7393   2.031   3.985  16.355 -1.1484  1.9054  0.7275
  497TMC3    H2 7394   1.642   4.060  16.201 -0.1374  2.3311  0.4571
  497TMC3    C7 7395   1.775   3.982  16.418  0.3869 -0.0096  0.1226
  497TMC3    C8 7396   1.723   4.073  15.956 -0.1172 -0.1384  0.2035
  497TMC3    O1 7397   1.687   3.899  16.399 -0.3474 -0.1895  0.0018
  497TMC3    O2 7398   1.645   4.159  15.991  0.0963  0.1408 -0.3584
  498MPD2     C 7399   2.775   0.189   9.422 -0.2462 -0.0564 -0.2417
  498MPD2    C1 7400   2.830   0.114   9.523  0.1393  0.7524 -0.7723
  498MPD2    C2 7401   2.748   0.018   9.581  0.2577  0.0071 -0.1569
  498MPD2    C3 7402   2.613   0.000   9.544 -0.0137  0.3249 -0.2360
  498MPD2    C4 7403   2.559   0.092   9.448 -0.2470  0.3327 -0.0073
  498MPD2    C5 7404   2.641   0.185   9.388 -0.1174 -0.1377 -0.5521
  498MPD2     H 7405   2.791   4.682   9.659 -3.7380 -1.7041  0.7027
  498MPD2    H1 7406   2.464   0.077   9.399 -0.0728 -0.2523 -0.1640
  498MPD2    H2 7407   2.826   0.262   9.358 -1.0955  1.4687  0.8164
  498MPD2    H3 7408   2.591   0.241   9.311  0.3007  0.1157 -0.6419
  498MPD2     N 7409   2.549   4.620   9.607 -0.0740  0.8560  0.0804
  498MPD2    H5 7410   2.596   4.561   9.675  0.1795  2.9168  1.6888
  498MPD2    N1 7411   2.964   0.125   9.569  0.2074  0.1558 -0.0519
  498MPD2    H7 7412   2.989   0.067   9.648 -3.5589 -2.3153 -0.6836
  499TMC3    C1 7413   3.163   0.216   9.626  0.3743 -0.0310  0.1583
  499TMC3    C2 7414   3.149   0.133   9.736 -0.7393 -0.0399 -0.5645
  499TMC3    C3 7415   3.259   0.070   9.784  0.3020 -0.0955  0.0531
  499TMC3    C4 7416   3.288   0.221   9.566  0.2243  0.1186 -0.0236
  499TMC3    C5 7417   3.396   0.150   9.615  0.7603 -0.4398  0.0615
  499TMC3    C6 7418   3.382   0.082   9.730  0.7263 -0.2817 -0.7139
  499TMC3     C 7419   3.051   0.222   9.534 -0.1475 -0.5317  0.2762
  499TMC3     O 7420   3.050   0.310   9.451  0.4251  0.1114  1.6218
  499TMC3     H 7421   3.059   0.151   9.793 -0.2377  1.9651 -0.3971
  499TMC3    H1 7422   3.299   0.277   9.474  0.9086 -0.2820 -0.1874
  499TMC3    H2 7423   3.466   0.023   9.766 -0.4349 -1.7836 -0.4822
  499TMC3    C7 7424   3.516   0.130   9.540  0.3689  0.4184 -0.4529
  499TMC3    C8 7425   3.228   4.716   9.904  0.0461  0.3604  0.3259
  499TMC3    O1 7426   3.614   0.095   9.601  0.3890  0.2359 -0.1077
  499TMC3    O2 7427   3.111   4.684   9.926  0.4103 -0.3545  1.0098
  500MPD2     C 7428   0.793   0.962  10.198  0.1010  0.4438 -0.1050
  500MPD2    C1 7429   0.665   0.939  10.246  0.1766 -0.1021 -0.0453
  500MPD2    C2 7430   0.568   0.935  10.149  0.2777  0.0646  0.2407
  500MPD2    C3 7431   0.589   0.940  10.014 -0.1200  0.2302  0.5320
  500MPD2    C4 7432   0.718   0.959   9.973  0.6370 -0.0982 -0.5591
  500MPD2    C5 7433   0.821   0.978  10.066 -0.1940 -0.6114  0.1174
  500MPD2     H 7434   0.467   0.942  10.189  0.1895  0.5132 -0.0607
  500MPD2    H1 7435   0.745   0.977   9.869  1.6840  2.0101  0.0688
  500MPD2    H2 7436   0.879   0.963  10.263  0.6003 -0.5961 -0.7468
  500MPD2    H3 7437   0.920   0.984  10.023  0.3371 -1.9142  1.1397
  500MPD2     N 7438   0.488   0.943   9.908 -0.4053  0.2574  0.1442
  500MPD2    H5 7439   0.525   0.958   9.815 -1.8188 -1.4798 -0.7108
  500MPD2    N1 7440   0.632   0.928  10.382  0.0954  0.1129 -0.2807
  500MPD2    H7 7441   0.537   0.949  10.412 -0.3798  1.2537 -2.6374
  501TMC3    C1 7442   0.669   0.963  10.606  0.2538  0.2659  0.1015
  501TMC3    C2 7443   0.592   1.077  10.603 -0.9355 -0.3491  0.2155
  501TMC3    C3 7444   0.537   1.109  10.726 -0.0710  0.1204 -0.3730
  501TMC3    C4 7445   0.705   0.895  10.718 -0.2765  0.8818 -0.4924
  501TMC3    C5 7446   0.654   0.941  10.837 -0.4471 -0.1755 -0.0568
  501TMC3    C6 7447   0.584   1.056  10.840 -0.1205  0.3616  0.1519
  501TMC3     C 7448   0.725   0.923  10.484 -0.5877  0.4083 -0.7137
  501TMC3     O 7449   0.842   0.898  10.489  0.0819 -0.3278  0.3257
  501TMC3     H 7450   0.576   1.129  10.509 -0.6237  0.1651  0.4479
  501TMC3    H1 7451   0.776   0.814  10.714 -0.1042  1.0947 -1.7248
  501TMC3    H2 7452   0.536   1.098  10.927 -1.0466 -1.3318  0.4613
  501TMC3    C7 7453   0.737   0.903  10.950  0.3952  0.3913  0.3601
  501TMC3    C8 7454   0.485   1.242  10.734 -0.6103  0.1744  0.7759
  501TMC3    O1 7455   0.739   0.783  10.978 -0.0009  0.1357  0.2677
  501TMC3    O2 7456   0.491   1.305  10.838  0.0125  0.1454 -0.4964
  502TMC3    C1 7457   4.277   3.960  15.145  0.3145 -0.4782  0.1658
  502TMC3    C2 7458   4.238   4.081  15.096 -0.0353 -0.1404 -0.7840
  502TMC3    C3 7459   4.118   4.138  15.125 -0.1559  0.1160 -0.7019
  502TMC3    C4 7460   4.190   3.893  15.230  0.3269 -0.3047 -0.3122
  502TMC3    C5 7461   4.071   3.957  15.257  0.7513  0.5490  0.4662
  502TMC3    C6 7462   4.034   4.079  15.209 -0.4941  0.0415  0.0299
  502TMC3     C 7463   4.414   3.959  15.179 -0.1278  0.4082 -0.0852
  502TMC3     O 7464   4.493   3.984  15.089  0.1738  0.1599 -0.0811
  502TMC3     H 7465   4.313   4.142  15.046  1.7823 -0.7763  1.1798
  502TMC3    H1 7466   4.224   3.796  15.266  0.2101  0.1670  1.0868
  502TMC3    H2 7467   3.931   4.115  15.214 -0.5018  0.3820 -2.3220
  502TMC3    C7 7468   3.973   3.876  15.336 -0.0845  0.0744 -0.6527
  502TMC3    C8 7469   4.100   4.281  15.093 -0.8009 -0.6618  0.1114
  502TMC3    O1 7470   4.000   3.759  15.362 -0.0617 -0.4292  0.8337
  502TMC3    O2 7471   4.164   4.324  14.997  0.5533 -0.1781  0.2947
  503MPD2     C 7472   1.259   0.270  16.769  0.1117 -0.1204 -0.3967
  503MPD2    C1 7473   1.303   0.326  16.887 -0.6549  1.0040 -0.8713
  503MPD2    C2 7474   1.350   0.242  16.985  0.0706  0.8174  0.1307
  503MPD2    C3 7475   1.353   0.106  16.966 -0.5312  0.3805 -0.0948
  503MPD2    C4 7476   1.302   0.053  16.848 -0.4954  0.0673  0.3590
  503MPD2    C5 7477   1.257   0.134  16.753 -0.1568 -0.4090  0.0746
  503MPD2     H 7478   1.392   0.291  17.072 -1.2629 -1.0294  1.8134
  503MPD2    H1 7479   1.307   4.671  16.831 -0.7677 -0.1500  1.7139
  503MPD2    H2 7480   1.227   0.321  16.679  1.8460 -1.4388 -1.7431
  503MPD2    H3 7481   1.240   0.095  16.653 -1.0747  1.8327 -0.6524
  503MPD2     N 7482   1.405   0.026  17.067 -0.1947 -0.1583  0.0007
  503MPD2    H5 7483   1.446   0.078  17.144 -0.3795  0.4755 -0.3274
  503MPD2    N1 7484   1.321   0.460  16.905  0.1749  0.2338  0.1756
  503MPD2    H7 7485   1.376   0.490  16.984  0.5573 -2.6865  1.0112
  504TMC3    C1 7486   1.522   4.572  17.151 -0.5495 -0.5063  0.2803
  504TMC3    C2 7487   1.459   4.508  17.256 -0.2295 -0.1009  0.3243
  504TMC3    C3 7488   1.526   4.489  17.370 -0.9349 -0.4178  0.1933
  504TMC3    C4 7489   1.630   4.648  17.172 -0.2832 -0.1033 -0.4218
  504TMC3    C5 7490   1.698   4.627  17.289 -0.0114  1.0243 -0.5758
  504TMC3    C6 7491   1.650   4.546  17.386 -0.3868  0.0396 -0.5861
  504TMC3     C 7492   1.424   4.615  17.052 -0.0373  0.4897 -0.4904
  504TMC3     O 7493   1.353   4.529  17.010 -0.3925  0.2135  0.3358
  504TMC3     H 7494   1.356   4.482  17.239  0.2313 -0.4485 -1.8746
  504TMC3    H1 7495   1.674   4.716  17.100  0.4093 -0.3701 -0.2505
  504TMC3    H2 7496   1.708   4.516  17.473  0.6373  2.0259 -0.5926
  504TMC3    C7 7497   1.837   4.646  17.266  0.5966 -0.2891  0.3858
  504TMC3    C8 7498   1.468   4.403  17.469 -0.4606  0.2556 -0.8415
  504TMC3    O1 7499   1.875   4.612  17.154  0.2309  0.2050  0.3992
  504TMC3    O2 7500   1.366   4.343  17.435 -0.2316  0.1857  0.5313
  505MPD2     C 7501   2.755   3.525  10.207 -0.2148 -0.1966 -0.3188
  505MPD2    C1 7502   2.883   3.572  10.215 -0.0447  0.1733 -0.0266
  505MPD2    C2 7503   2.919   3.661  10.320  0.1421 -0.1519  0.0695
  505MPD2    C3 7504   2.818   3.684  10.417  0.1506 -0.0432  0.1839
  505MPD2    C4 7505   2.693   3.624  10.413  0.2425 -0.4039 -0.0384
  505MPD2    C5 7506   2.668   3.549  10.304 -0.2143  0.8232  0.1078
  505MPD2     H 7507   3.019   3.702  10.324 -0.1920  0.5261  1.4595
  505MPD2    H1 7508   2.616   3.653  10.483  0.6555  1.6272 -0.4323
  505MPD2    H2 7509   2.729   3.453  10.130 -1.0237  0.7153 -0.8839
  505MPD2    H3 7510   2.565   3.515  10.294  0.0228  0.2815 -0.4857
  505MPD2     N 7511   2.853   3.780  10.520  0.4503 -0.5748  0.4358
  505MPD2    H5 7512   2.947   3.818  10.513  1.0446 -2.2528 -0.8159
  505MPD2    N1 7513   2.969   3.543  10.107  0.0212 -0.2415  0.0464
  505MPD2    H7 7514   2.933   3.482  10.035 -0.9698  2.5867 -1.8659
  506TMC3    C1 7515   3.141   3.586   9.954 -0.3700  0.3421 -0.2119
  506TMC3    C2 7516   3.054   3.641   9.854  0.2884  1.0824 -0.1320
  506TMC3    C3 7517   3.111   3.724   9.754  0.5732 -0.5551  0.0855
  506TMC3    C4 7518   3.277   3.615   9.946  0.5211  0.6954  0.3554
  506TMC3    C5 7519   3.321   3.701   9.854  0.8870  0.3070  0.1287
  506TMC3    C6 7520   3.245   3.758   9.760  0.3993 -1.1434 -0.4914
  506TMC3     C 7521   3.095   3.590  10.089 -0.2043 -0.2277  0.6328
  506TMC3     O 7522   3.177   3.633  10.170  0.6194  0.1145 -0.0310
  506TMC3     H 7523   2.946   3.626   9.855  0.3225  0.8909  0.5745
  506TMC3    H1 7524   3.339   3.571  10.023  0.3818 -1.0193 -0.4983
  506TMC3    H2 7525   3.285   3.837   9.697 -3.2096  0.6810 -0.5151
  506TMC3    C7 7526   3.395   3.809   9.916  0.0801 -1.1458 -0.5202
  506TMC3    C8 7527   3.029   3.767   9.646 -0.4914  0.2100  0.1836
  506TMC3    O1 7528   3.461   3.877   9.841  0.2718 -0.5435 -0.2964
  506TMC3    O2 7529   3.068   3.761   9.534  0.2035  0.0424 -0.3735
  507TMC3    C1 7530   2.520   4.120  15.085 -0.1948 -0.1820 -0.3650
  507TMC3    C2 7531   2.391   4.083  15.063  0.6568  0.2194 -0.1218
  507TMC3    C3 7532   2.348   4.053  14.931  0.2985 -0.7344 -0.5903
  507TMC3    C4 7533   2.610   4.137  14.987  0.8257  0.0158  0.6977
  507TMC3    C5 7534   2.575   4.093  14.867  0.2054  0.1881  0.2002
  507TMC3    C6 7535   2.449   4.050  14.837  0.2761 -0.4654  0.0233
  507TMC3     C 7536   2.568   4.147  15.218 -0.0704 -0.9527 -1.0040
  507TMC3     O 7537   2.648   4.242  15.231 -0.1831 -0.1335  0.5371
  507TMC3     H 7538   2.311   4.086  15.136  0.7509 -2.8821  0.1106
  507TMC3    H1 7539   2.705   4.186  15.008  0.1615  2.8656 -3.0322
  507TMC3    H2 7540   2.417   4.023  14.737 -2.2937  0.7330  0.5396
  507TMC3    C7 7541   2.637   4.154  14.755  0.0675 -0.2900  0.2627
  507TMC3    C8 7542   2.248   4.146  14.892  0.6598 -0.1412  0.5972
  507TMC3    O1 7543   2.555   4.170  14.660  0.2117 -0.8082  0.1909
  507TMC3    O2 7544   2.147   4.157  14.963 -0.1618 -0.5617 -0.1186
  508MPD2     C 7545   3.763   2.255  16.149  0.2310 -0.7080  0.8269
  508MPD2    C1 7546   3.717   2.380  16.122  0.2854  0.0606 -0.8609
  508MPD2    C2 7547   3.647   2.398  16.002  0.0322  0.1390  0.2268
  508MPD2    C3 7548   3.641   2.296  15.910 -0.0253  0.9232 -0.0554
  508MPD2    C4 7549   3.712   2.181  15.931 -0.1329 -0.5061  0.4135
  508MPD2    C5 7550   3.767   2.156  16.054  0.3784  0.3674  0.4219
  508MPD2     H 7551   3.584   2.485  15.987 -0.3458 -0.3001 -0.7759
  508MPD2    H1 7552   3.706   2.090  15.871  0.2639  0.2009 -0.6957
  508MPD2    H2 7553   3.814   2.233  16.243  3.5520 -1.3584 -1.1306
  508MPD2    H3 7554   3.812   2.060  16.078  0.7054  0.6569  0.9774
  508MPD2     N 7555   3.553   2.313  15.800  0.3048  0.6869 -0.5211
  508MPD2    H5 7556   3.496   2.397  15.794  1.4325  1.6505  2.2237
  508MPD2    N1 7557   3.727   2.479  16.223  0.2163 -0.0607  0.2515
  508MPD2    H7 7558   3.761   2.448  16.314 -0.2145 -2.5907 -0.4498
  509TMC3    C1 7559   3.230   2.365  15.583  0.2317  0.4409  0.5404
  509TMC3    C2 7560   3.250   2.358  15.444 -0.5165  0.1332  0.3227
  509TMC3    C3 7561   3.371   2.307  15.395  0.3801  0.7787 -0.6817
  509TMC3    C4 7562   3.313   2.309  15.676  0.2190 -0.1757  0.2287
  509TMC3    C5 7563   3.428   2.255  15.616  0.0024 -0.2804  0.8496
  509TMC3    C6 7564   3.458   2.247  15.481  0.0474 -0.0209 -0.0677
  509TMC3     C 7565   3.173   2.495  15.619  0.1197 -0.0346 -0.3712
  509TMC3     O 7566   3.125   2.513  15.730 -0.0265  0.1721 -0.8502
  509TMC3     H 7567   3.176   2.387  15.370 -0.0657 -1.2095 -0.6619
  509TMC3    H1 7568   3.294   2.300  15.782 -1.6512 -2.5799 -0.2927
  509TMC3    H2 7569   3.550   2.204  15.442  0.2768  0.6356 -0.2464
  509TMC3    C7 7570   3.534   2.226  15.698  0.6481  0.0992  0.0765
  509TMC3    C8 7571   3.435   2.419  15.319 -0.1393  0.0804 -0.4265
  509TMC3    O1 7572   3.601   2.131  15.666 -0.1425 -0.1742  0.7042
  509TMC3    O2 7573   3.359   2.516  15.303  0.6612  0.2563 -0.6279
  510MPD2     C 7574   1.360   3.965  14.603 -0.1440  0.0747 -0.3452
  510MPD2    C1 7575   1.417   3.861  14.675 -0.0332  0.1974 -0.8545
  510MPD2    C2 7576   1.548   3.830  14.649 -0.7710  0.4756 -0.3967
  510MPD2    C3 7577   1.623   3.893  14.553 -0.8159  0.5612  0.0962
  510MPD2    C4 7578   1.570   4.012  14.504  0.1494  0.1829 -0.1813
  510MPD2    C5 7579   1.440   4.046  14.524  0.4688 -0.2359 -0.5718
  510MPD2     H 7580   1.594   3.751  14.707 -0.4156 -1.2628 -2.9936
  510MPD2    H1 7581   1.626   4.084  14.445  0.9525 -1.0612 -0.9176
  510MPD2    H2 7582   1.259   4.001  14.620  1.1137  3.7184 -0.5331
  510MPD2    H3 7583   1.398   4.138  14.486  0.4909 -1.4417 -3.4589
  510MPD2     N 7584   1.756   3.850  14.535 -0.1453  0.5236 -0.2897
  510MPD2    H5 7585   1.784   3.773  14.596  0.1901  1.8944  1.2792
  510MPD2    N1 7586   1.340   3.799  14.776  0.3009 -0.1633  0.3270
  510MPD2    H7 7587   1.252   3.842  14.804  0.9618  0.1209  1.9670
  511TMC3    C1 7588   1.279   3.646  14.949 -0.6635 -0.5941 -0.3927
  511TMC3    C2 7589   1.195   3.733  15.020 -0.4961 -0.3633  0.8750
  511TMC3    C3 7590   1.122   3.670  15.111  0.4451  0.2896  0.0425
  511TMC3    C4 7591   1.291   3.515  14.981 -0.0330 -0.1023 -0.2465
  511TMC3    C5 7592   1.205   3.452  15.064  0.0261 -0.3224  1.1105
  511TMC3    C6 7593   1.121   3.532  15.135 -0.2163  0.0140 -0.0836
  511TMC3     C 7594   1.373   3.683  14.838 -0.1177  0.1043 -0.0699
  511TMC3     O 7595   1.466   3.606  14.814  0.0895  0.1633 -0.3084
  511TMC3     H 7596   1.192   3.841  15.015  1.0744 -0.4245 -1.5277
  511TMC3    H1 7597   1.357   3.451  14.923  0.4429  1.4157 -1.4085
  511TMC3    H2 7598   1.032   3.490  15.179  0.3097  1.2255  2.1022
  511TMC3    C7 7599   1.145   3.336  15.001 -0.0507  0.1559 -0.3248
  511TMC3    C8 7600   1.037   3.749  15.199 -0.2801 -0.3555 -0.1531
  511TMC3    O1 7601   1.139   3.332  14.878  0.0777 -0.6498 -0.2262
  511TMC3    O2 7602   0.992   3.850  15.147 -0.3430 -0.2983  0.5577
  512TMC3    C1 7603   0.618   3.305  13.400 -0.1631  0.2065 -0.1314
  512TMC3    C2 7604   0.622   3.210  13.501  0.0583  0.4375  0.5962
  512TMC3    C3 7605   0.693   3.098  13.485 -0.2367  0.2031 -0.9701
  512TMC3    C4 7606   0.691   3.288  13.287  0.7236 -0.0291 -0.4785
  512TMC3    C5 7607   0.759   3.173  13.275 -0.4923  0.1712 -0.1426
  512TMC3    C6 7608   0.759   3.075  13.369  0.4301 -0.9358 -0.3103
  512TMC3     C 7609   0.594   3.448  13.437 -0.4130 -0.9567 -0.1475
  512TMC3     O 7610   0.680   3.519  13.392 -0.3855  0.1770  0.1192
  512TMC3     H 7611   0.563   3.223  13.592 -0.5904  0.2131  0.2090
  512TMC3    H1 7612   0.688   3.359  13.205 -1.2332 -0.2382 -0.5934
  512TMC3    H2 7613   0.833   2.996  13.357  0.2446 -0.9032 -1.7596
  512TMC3    C7 7614   0.800   3.142  13.145 -0.6113  0.5405 -0.5670
  512TMC3    C8 7615   0.780   3.075  13.600 -0.0642  0.8510 -0.9816
  512TMC3    O1 7616   0.848   3.235  13.081 -0.1169 -0.9023 -0.0161
  512TMC3    O2 7617   0.873   3.001  13.586 -0.2799 -0.2150  0.2066
  513MPD2     C 7618   1.710   3.723  13.014 -0.2270  0.2224 -0.3760
  513MPD2    C1 7619   1.834   3.692  12.958 -0.5383 -0.1533 -0.9366
  513MPD2    C2 7620   1.934   3.641  13.039 -0.5193 -0.3368 -0.5737
  513MPD2    C3 7621   1.905   3.607  13.168 -0.6131  0.3507  0.0818
  513MPD2    C4 7622   1.785   3.640  13.226 -0.5628  0.0837  0.4645
  513MPD2    C5 7623   1.687   3.684  13.143  0.2751 -0.3601  0.5266
  513MPD2     H 7624   2.036   3.619  13.008 -0.7540  0.7576 -2.1083
  513MPD2    H1 7625   1.764   3.618  13.331  1.3637 -0.4477  0.7377
  513MPD2    H2 7626   1.625   3.753  12.954 -0.7465 -2.9565 -1.2754
  513MPD2    H3 7627   1.590   3.709  13.185 -0.0102 -1.5581  0.5727
  513MPD2     N 7628   2.007   3.534  13.229  0.2621  0.6241 -0.0189
  513MPD2    H5 7629   2.087   3.512  13.170  0.3390  0.7227  0.0494
  513MPD2    N1 7630   1.853   3.709  12.817  0.0215 -0.6544 -0.6823
  513MPD2    H7 7631   1.778   3.747  12.760 -0.3246 -0.3579 -0.0343
  514TMC3    C1 7632   1.975   3.674  12.611  0.3267  0.5839  0.5241
  514TMC3    C2 7633   1.956   3.797  12.554 -0.5621  0.7437  0.2286
  514TMC3    C3 7634   2.040   3.830  12.449 -0.1510 -0.0069  0.4876
  514TMC3    C4 7635   2.061   3.585  12.554  0.8756 -0.1636  0.1898
  514TMC3    C5 7636   2.151   3.623  12.459  0.0294  0.3452 -0.0806
  514TMC3    C6 7637   2.139   3.747  12.400 -0.4521 -0.4325 -0.4138
  514TMC3     C 7638   1.957   3.648  12.751  0.6394  0.1279  0.0935
  514TMC3     O 7639   2.068   3.606  12.792 -0.5541 -0.6620  0.1048
  514TMC3     H 7640   1.887   3.868  12.597  0.2881  2.3084 -0.9981
  514TMC3    H1 7641   2.064   3.488  12.602  3.9850  0.0266  0.3504
  514TMC3    H2 7642   2.223   3.782  12.341 -0.5087 -0.3019 -0.4174
  514TMC3    C7 7643   2.295   3.589  12.497  0.2283  0.2808 -0.0721
  514TMC3    C8 7644   1.989   3.940  12.368 -0.1500  1.0622 -0.3418
  514TMC3    O1 7645   2.380   3.578  12.411 -0.3381 -0.7751 -0.6949
  514TMC3    O2 7646   1.901   4.013  12.413 -0.3314 -0.2813 -0.0726
  515MPD2     C 7647   4.590   0.149  15.117 -0.7965  0.1608 -0.6116
  515MPD2    C1 7648   4.644   0.130  14.991  0.8118 -0.2386 -0.2701
  515MPD2    C2 7649   0.039   0.182  14.958 -0.4518 -0.1765 -1.2366
  515MPD2    C3 7650   0.123   0.238  15.055  0.0223 -0.5202 -0.0653
  515MPD2    C4 7651   0.069   0.257  15.186  0.1819  0.1826 -0.4000
  515MPD2    C5 7652   4.667   0.217  15.212  0.0573 -0.9152  0.0528
  515MPD2     H 7653   0.079   0.164  14.859  0.4915  0.6103 -1.0094
  515MPD2    H1 7654   0.121   0.319  15.257 -1.9574 -0.0283  1.3624
  515MPD2    H2 7655   4.493   0.114  15.148 -0.2982 -1.6113 -1.0289
  515MPD2    H3 7656   4.630   0.233  15.312 -0.6548 -0.4918 -0.2750
  515MPD2     N 7657   0.249   0.278  15.024  0.4458  0.4049 -0.0957
  515MPD2    H5 7658   0.295   0.323  15.103  1.5145 -0.2425 -0.3489
  515MPD2    N1 7659   4.570   0.060  14.890  0.0463 -0.4304 -0.3380
  515MPD2    H7 7660   4.611   0.060  14.797  1.9356 -1.5644  0.4989
  516TMC3    C1 7661   4.421   4.618  14.804  0.8064 -0.3177  0.4417
  516TMC3    C2 7662   4.438   4.662  14.679  0.5405 -0.2865  0.0162
  516TMC3    C3 7663   4.417   4.573  14.580  0.3462  0.5243  0.1627
  516TMC3    C4 7664   4.401   4.488  14.834 -0.4262  0.2702 -0.2974
  516TMC3    C5 7665   4.370   4.398  14.731 -0.5597  0.1768  0.5885
  516TMC3    C6 7666   4.387   4.439  14.602  0.4197  0.2871 -0.2140
  516TMC3     C 7667   4.461   4.707  14.912  0.2679  0.0121  0.5994
  516TMC3     O 7668   4.386   4.691  15.007 -0.2039  0.0434  0.1805
  516TMC3     H 7669   4.446   0.041  14.649 -0.6260  0.8938  3.8282
  516TMC3    H1 7670   4.388   4.468  14.940 -0.9441  0.1845 -0.3792
  516TMC3    H2 7671   4.392   4.376  14.514 -0.3896 -2.9667  2.0945
  516TMC3    C7 7672   4.384   4.257  14.772  0.3046 -0.1263 -0.1499
  516TMC3    C8 7673   4.420   4.612  14.436  0.6309  0.1175 -0.6023
  516TMC3    O1 7674   4.442   4.228  14.877  0.6867 -0.5729  0.0737
  516TMC3    O2 7675   4.355   4.542  14.355  0.5481  0.5984  0.1896
  517MPD2     C 7676   0.250   2.217   0.224 -0.1192 -0.0049  0.0387
  517MPD2    C1 7677   0.355   2.196   0.135  0.1945  0.1808  0.5542
  517MPD2    C2 7678   0.445   2.302   0.116 -0.5789 -0.3919 -0.4797
  517MPD2    C3 7679   0.439   2.419   0.191  0.0432  0.5299 -0.6298
  517MPD2    C4 7680   0.331   2.428   0.277  0.4212 -0.4678 -0.3809
  517MPD2    C5 7681   0.235   2.330   0.287 -0.7012  0.0565 -0.3738
  517MPD2     H 7682   0.534   2.284   0.058  0.2599 -0.2846  0.7655
  517MPD2    H1 7683   0.320   2.516   0.339 -1.2049 -0.9147 -0.0216
  517MPD2    H2 7684   0.178   2.139   0.246 -1.0997  0.2485 -2.2009
  517MPD2    H3 7685   0.157   2.332   0.363  2.6364 -0.2293  3.0857
  517MPD2     N 7686   0.538   2.517   0.214 -0.8340  0.0039  0.1489
  517MPD2    H5 7687   0.533   2.564   0.304 -0.9194 -0.2968  0.2990
  517MPD2    N1 7688   0.371   2.076   0.064  0.5510  0.0925  0.0613
  517MPD2    H7 7689   0.455   2.061   0.008  0.6244 -0.2045  0.2505
  518TMC3    C1 7690   0.352   1.850  17.700 -0.3576 -0.5359  0.9398
  518TMC3    C2 7691   0.293   1.725   0.024 -0.3432  0.0606 -0.1183
  518TMC3    C3 7692   0.319   1.627  17.634 -0.6505  0.5327 -0.6863
  518TMC3    C4 7693   0.440   1.865  17.599 -0.2014  0.8142 -0.3436
  518TMC3    C5 7694   0.470   1.754  17.520  0.1508  0.1404  0.1326
  518TMC3    C6 7695   0.408   1.637  17.536  0.3712 -0.3460  0.0893
  518TMC3     C 7696   0.293   1.965   0.060  0.5788  0.2420 -0.1931
  518TMC3     O 7697   0.183   1.951   0.112 -0.0298 -0.0724  0.2215
  518TMC3     H 7698   0.207   1.717   0.088 -1.2150 -2.5453 -1.6233
  518TMC3    H1 7699   0.471   1.959  17.555  1.4097 -0.3835 -1.7927
  518TMC3    H2 7700   0.416   1.553  17.468  2.4061  1.6456 -2.1776
  518TMC3    C7 7701   0.575   1.772  17.424  0.5249  0.1350 -0.1226
  518TMC3    C8 7702   0.280   1.493  17.657  0.3311 -0.3100  0.2028
  518TMC3    O1 7703   0.610   1.890  17.401 -0.6244 -0.5228  0.1269
  518TMC3    O2 7704   0.358   1.398  17.627  0.0068 -0.2668 -0.5299
  519MPD2     C 7705   1.781   0.263  14.364 -0.0404  0.1938  1.0235
  519MPD2    C1 7706   1.690   0.159  14.361 -0.5726 -0.0755 -0.1531
  519MPD2    C2 7707   1.733   0.024  14.363 -0.4400 -0.1238  0.3232
  519MPD2    C3 7708   1.872   0.002  14.357  1.0542  0.4295  0.4671
  519MPD2    C4 7709   1.960   0.108  14.353  0.1137  0.4100  0.0731
  519MPD2    C5 7710   1.916   0.237  14.362 -0.1435 -0.0848  0.3124
  519MPD2     H 7711   1.666   4.665  14.376  1.3719 -1.6607 -0.1358
  519MPD2    H1 7712   2.065   0.090  14.336 -0.0782 -1.2137  0.6559
  519MPD2    H2 7713   1.756   0.368  14.358 -1.4464 -0.1492  0.8330
  519MPD2    H3 7714   1.981   0.324  14.364 -0.8879  0.5018 -0.9339
  519MPD2     N 7715   1.920   4.597  14.343  0.1496 -0.3477 -0.6612
  519MPD2    H5 7716   2.012   4.583  14.301  0.1134 -0.9573 -0.5488
  519MPD2    N1 7717   1.555   0.193  14.352  0.1739  0.2393 -0.6383
  519MPD2    H7 7718   1.521   0.288  14.339 -1.0774  0.0550  1.3097
  520TMC3    C1 7719   1.888   4.382  14.280 -0.0807  0.6075 -0.1569
  520TMC3    C2 7720   1.831   4.392  14.157 -0.0460  0.9039 -0.2057
  520TMC3    C3 7721   1.906   4.362  14.044  0.2976  0.4069 -0.7134
  520TMC3    C4 7722   2.021   4.337  14.288  0.1723  0.3023  0.6665
  520TMC3    C5 7723   2.094   4.311  14.173 -0.0708  0.2107  0.7236
  520TMC3    C6 7724   2.037   4.324  14.050  0.2698  0.0012  0.4633
  520TMC3     C 7725   1.842   4.487  14.359  0.0515  0.3838 -0.5895
  520TMC3     O 7726   1.732   4.461  14.397 -0.3216  0.0614  1.2311
  520TMC3     H 7727   1.726   4.420  14.158  0.1315  1.5611 -0.1947
  520TMC3    H1 7728   2.072   4.337  14.383 -0.6367  0.8743  1.1009
  520TMC3    H2 7729   2.086   4.296  13.957  1.1542 -1.5570  1.3877
  520TMC3    C7 7730   2.226   4.268  14.195 -0.2402  0.3781  0.0659
  520TMC3    C8 7731   1.868   4.431  13.918  0.2450 -0.6226 -0.0706
  520TMC3    O1 7732   2.246   4.205  14.295 -0.0278  0.3843 -0.5930
  520TMC3    O2 7733   1.959   4.493  13.856 -0.1508 -0.0641  0.1863
  521MPD2     C 7734   2.620   2.771  16.639 -0.5222  0.1571  0.1335
  521MPD2    C1 7735   2.578   2.874  16.722  0.3901  0.6411 -1.1798
  521MPD2    C2 7736   2.649   2.988  16.735  0.3992 -0.6121 -0.4792
  521MPD2    C3 7737   2.773   3.007  16.677 -0.4608 -0.2850 -0.0918
  521MPD2    C4 7738   2.816   2.905  16.591  0.7602  0.0925 -0.7156
  521MPD2    C5 7739   2.737   2.796  16.572 -0.2898 -0.4698  0.2923
  521MPD2     H 7740   2.612   3.072  16.793 -1.1327 -2.7092  1.5965
  521MPD2    H1 7741   2.913   2.909  16.544  1.6603  0.2270  1.1737
  521MPD2    H2 7742   2.574   2.673  16.635 -1.3851  0.5059  1.3631
  521MPD2    H3 7743   2.784   2.722  16.508 -1.3061 -0.3933 -0.5354
  521MPD2     N 7744   2.841   3.131  16.695  0.0946  0.1469 -0.5691
  521MPD2    H5 7745   2.787   3.199  16.747  1.2203  0.2392  0.4575
  521MPD2    N1 7746   2.448   2.859  16.776  0.0461 -0.1045 -0.1237
  521MPD2    H7 7747   2.392   2.778  16.748 -0.7793  0.0845  0.9826
  522TMC3    C1 7748   3.009   3.292  16.664  0.1500  0.2216  0.0136
  522TMC3    C2 7749   3.143   3.313  16.638 -0.4019 -0.1877 -0.1976
  522TMC3    C3 7750   3.190   3.445  16.630  0.0789  0.0940  1.0276
  522TMC3    C4 7751   2.926   3.398  16.680 -0.0243 -0.2565 -0.4868
  522TMC3    C5 7752   2.973   3.527  16.665  0.3254 -0.6129  0.2007
  522TMC3    C6 7753   3.105   3.556  16.656  0.0184 -0.2272  0.3166
  522TMC3     C 7754   2.965   3.159  16.639 -0.2665 -0.2548  1.0542
  522TMC3     O 7755   3.037   3.091  16.566  0.0628 -0.3272 -0.0832
  522TMC3     H 7756   3.212   3.231  16.619 -0.0114  0.5695 -1.9842
  522TMC3    H1 7757   2.820   3.382  16.700  0.2318 -1.7071 -0.2735
  522TMC3    H2 7758   3.142   3.656  16.637  0.3511  0.0781  2.5189
  522TMC3    C7 7759   2.885   3.642  16.641  0.6533  0.3350 -0.0587
  522TMC3    C8 7760   3.324   3.481  16.592  0.1138 -0.1741  0.5690
  522TMC3    O1 7761   2.934   3.755  16.629 -0.1698 -0.1984 -0.2582
  522TMC3    O2 7762   3.350   3.596  16.559 -0.4851 -0.2309  0.1116
  523MPD2     C 7763   0.667   2.476  10.536  0.0899  0.9746  0.4217
  523MPD2    C1 7764   0.657   2.416  10.417 -0.6007 -0.4684  0.1562
  523MPD2    C2 7765   0.620   2.495  10.306  0.0215 -0.8624 -0.3135
  523MPD2    C3 7766   0.601   2.632  10.312 -0.3664 -0.0321 -0.6465
  523MPD2    C4 7767   0.614   2.691  10.434  0.1779 -0.1259  0.4009
  523MPD2    C5 7768   0.643   2.609  10.545 -1.1339  0.1486  0.7391
  523MPD2     H 7769   0.598   2.445  10.212 -0.0554 -0.4846 -0.4954
  523MPD2    H1 7770   0.578   2.792  10.453 -0.4932 -0.1054 -1.0039
  523MPD2    H2 7771   0.682   2.412  10.622 -0.7045  1.6624  1.0771
  523MPD2    H3 7772   0.642   2.654  10.643 -0.1287  0.6610  0.5158
  523MPD2     N 7773   0.566   2.712  10.194 -0.6696 -0.2609  0.4153
  523MPD2    H5 7774   0.559   2.811  10.215  1.1500  0.3024 -1.6291
  523MPD2    N1 7775   0.661   2.275  10.422 -0.1859  0.0362  0.3102
  523MPD2    H7 7776   0.686   2.237  10.513  0.5088 -0.9206 -0.2755
  524TMC3    C1 7777   0.539   2.769   9.969 -0.1001 -0.3557 -0.7183
  524TMC3    C2 7778   0.553   2.742   9.837 -0.7198  1.1977 -0.7139
  524TMC3    C3 7779   0.496   2.821   9.743  0.7357 -0.7980 -0.5054
  524TMC3    C4 7780   0.448   2.863  10.007 -0.0112  0.7875 -0.5841
  524TMC3    C5 7781   0.375   2.935   9.916 -0.3822  0.5890 -0.1425
  524TMC3    C6 7782   0.402   2.919   9.781 -0.1575 -0.0793 -0.0504
  524TMC3     C 7783   0.560   2.665  10.068 -0.0658  0.6990  0.7303
  524TMC3     O 7784   0.574   2.552  10.018  0.1867 -0.0922  0.4430
  524TMC3     H 7785   0.628   2.669   9.808 -0.9791  0.6670 -0.0320
  524TMC3    H1 7786   0.407   2.875  10.106 -0.0657  1.2511 -0.6610
  524TMC3    H2 7787   0.349   2.971   9.702 -2.3055 -0.5036  1.1188
  524TMC3    C7 7788   0.248   2.986   9.961  0.2171 -0.8078  0.7680
  524TMC3    C8 7789   0.489   2.767   9.611  0.5024 -0.2113  0.1061
  524TMC3    O1 7790   0.196   2.933  10.056  0.2426 -0.2935 -0.4761
  524TMC3    O2 7791   0.456   2.848   9.526  0.2097 -0.0157 -1.2571
  525MPD2     C 7792   3.054   4.088  14.477 -0.4659 -0.3540  0.5742
  525MPD2    C1 7793   3.179   4.110  14.535 -0.2024  0.1904  0.4957
  525MPD2    C2 7794   3.260   4.210  14.481 -0.5999  0.5994 -0.7429
  525MPD2    C3 7795   3.220   4.296  14.382 -0.1578 -0.2023 -0.4982
  525MPD2    C4 7796   3.092   4.274  14.332  0.2502  0.4841  0.1070
  525MPD2    C5 7797   3.018   4.170  14.373  0.1638  0.7173  0.6140
  525MPD2     H 7798   3.352   4.232  14.533 -0.0832 -1.1774 -0.9089
  525MPD2    H1 7799   3.056   4.349  14.263  1.5355  0.9830 -0.0369
  525MPD2    H2 7800   2.979   4.019  14.512  0.6578 -0.6945  2.2790
  525MPD2    H3 7801   2.920   4.165  14.326  0.6099  0.3903 -0.2712
  525MPD2     N 7802   3.283   4.415  14.351 -0.5766 -0.0359  0.1505
  525MPD2    H5 7803   3.230   4.477  14.290 -1.2285 -1.0101 -0.2637
  525MPD2    N1 7804   3.225   4.036  14.651 -0.0446  0.4582 -0.0911
  525MPD2    H7 7805   3.318   4.064  14.679  0.4605 -0.8580 -0.4380
  526TMC3    C1 7806   3.211   3.903  14.844 -0.3948  0.0367  0.5775
  526TMC3    C2 7807   3.158   3.787  14.894  0.4113 -0.8590 -0.5319
  526TMC3    C3 7808   3.236   3.722  14.987  0.5101 -0.6126  0.4203
  526TMC3    C4 7809   3.326   3.964  14.884 -0.0574  0.1007  0.7394
  526TMC3    C5 7810   3.402   3.892  14.972 -0.3439 -0.2153 -0.0825
  526TMC3    C6 7811   3.354   3.775  15.020  0.1495  0.1734 -0.4932
  526TMC3     C 7812   3.151   3.943  14.721 -1.1347  0.5780  0.2523
  526TMC3     O 7813   3.041   3.903  14.694  0.2435 -0.5462 -0.1086
  526TMC3     H 7814   3.074   3.739  14.846 -0.1453 -0.9826  0.5484
  526TMC3    H1 7815   3.354   4.061  14.845 -0.6712  1.0726  2.7104
  526TMC3    H2 7816   3.402   3.736  15.109 -0.2527  2.3223  0.6609
  526TMC3    C7 7817   3.540   3.943  14.984  0.1654 -0.0023 -0.4940
  526TMC3    C8 7818   3.150   3.675  15.104  0.4169  0.9431 -0.6032
  526TMC3    O1 7819   3.567   4.056  14.943 -0.3134 -0.7246  0.3897
  526TMC3    O2 7820   3.207   3.679  15.214 -0.7859 -0.5553 -0.1316
  527MPD2     C 7821   1.941   2.433   0.657 -0.3598  0.1739  0.0141
  527MPD2    C1 7822   1.948   2.472   0.523  0.6308 -0.4241  0.3093
  527MPD2    C2 7823   2.014   2.393   0.425  0.1868  0.7753  0.2930
  527MPD2    C3 7824   2.075   2.276   0.468 -0.4660 -0.3641  0.1274
  527MPD2    C4 7825   2.080   2.251   0.601 -0.6212  0.0625 -0.0395
  527MPD2    C5 7826   2.013   2.326   0.695 -0.0387  0.1822  0.4952
  527MPD2     H 7827   2.019   2.436   0.326  3.6883 -1.2984 -0.4429
  527MPD2    H1 7828   2.110   2.153   0.636  0.8939  1.0233  1.3489
  527MPD2    H2 7829   1.877   2.478   0.732 -0.5490 -0.6314  0.3336
  527MPD2    H3 7830   1.993   2.293   0.796 -1.5017 -1.3581 -0.2886
  527MPD2     N 7831   2.136   2.197   0.370 -0.7620 -0.4379 -0.3742
  527MPD2    H5 7832   2.140   2.254   0.286 -1.2011  0.2279  0.0525
  527MPD2    N1 7833   1.883   2.588   0.478  0.2083 -0.1926  0.1063
  527MPD2    H7 7834   1.876   2.611   0.379 -1.4306 -1.7686 -0.1390
  528TMC3    C1 7835   1.736   2.763   0.481 -0.1629 -0.3158 -0.1882
  528TMC3    C2 7836   1.679   2.862   0.556 -0.7698 -0.2545  0.3506
  528TMC3    C3 7837   1.555   2.906   0.505 -0.6725 -0.2089 -0.3786
  528TMC3    C4 7838   1.675   2.700   0.371 -0.2364 -0.0086  0.1835
  528TMC3    C5 7839   1.572   2.768   0.317 -0.1282 -0.2134  0.0882
  528TMC3    C6 7840   1.505   2.868   0.386  0.0813  0.8184  0.5165
  528TMC3     C 7841   1.828   2.683   0.554 -0.4466  0.3273 -0.8313
  528TMC3     O 7842   1.813   2.691   0.676  0.0644  0.1639 -0.0704
  528TMC3     H 7843   1.731   2.899   0.643  0.0966  1.9447 -1.0977
  528TMC3    H1 7844   1.707   2.614   0.313 -2.2508 -0.4350 -0.2784
  528TMC3    H2 7845   1.408   2.906   0.355  0.6539 -0.0009 -2.2620
  528TMC3    C7 7846   1.491   2.692   0.226  0.6029  0.3317 -0.0218
  528TMC3    C8 7847   1.490   2.996   0.604 -0.0188 -0.3044 -0.0456
  528TMC3    O1 7848   1.509   2.571   0.219  0.1445  0.1984  0.3013
  528TMC3    O2 7849   1.516   2.979   0.723 -0.5607 -0.5726 -0.1845
  529MPD2     C 7850   4.066   1.372   0.557 -0.0553  0.1900 -0.7262
  529MPD2    C1 7851   3.926   1.379   0.563 -0.0884 -0.3019  0.1090
  529MPD2    C2 7852   3.856   1.412   0.449  0.4559 -0.1571 -0.6662
  529MPD2    C3 7853   3.912   1.415   0.325  0.2218  0.8043 -0.1337
  529MPD2    C4 7854   4.043   1.392   0.319  0.2805  0.2639  0.0655
  529MPD2    C5 7855   4.120   1.382   0.435 -0.3298 -0.4323 -1.0082
  529MPD2     H 7856   3.749   1.399   0.458  0.7264 -0.8042  1.8679
  529MPD2    H1 7857   4.094   1.386   0.224 -1.2951  2.3661 -0.8944
  529MPD2    H2 7858   4.120   1.370   0.650 -2.9380 -0.2580  0.9430
  529MPD2    H3 7859   4.228   1.376   0.426 -0.0430 -2.0250  3.2510
  529MPD2     N 7860   3.840   1.443   0.208  0.2687 -0.4522 -0.5491
  529MPD2    H5 7861   3.891   1.435   0.121  0.2043 -3.1305 -0.3255
  529MPD2    N1 7862   3.860   1.358   0.685 -0.0468  0.0061  0.4169
  529MPD2    H7 7863   3.761   1.382   0.682  0.3983  1.8884  0.5962
  530TMC3    C1 7864   3.820   1.319   0.919  0.1290 -0.2058  0.3074
  530TMC3    C2 7865   3.867   1.315   1.049 -0.3431  0.2935 -0.4161
  530TMC3    C3 7866   3.779   1.278   1.147  0.2399 -0.0136  0.1370
  530TMC3    C4 7867   3.689   1.300   0.884  0.2995  0.1757 -0.4940
  530TMC3    C5 7868   3.609   1.265   0.992  1.0744 -0.3461 -0.0449
  530TMC3    C6 7869   3.648   1.258   1.118 -0.4460 -0.1542 -0.5587
  530TMC3     C 7870   3.917   1.326   0.808  0.5408  0.3844 -0.2090
  530TMC3     O 7871   4.034   1.313   0.842 -1.0563  0.3254  0.0438
  530TMC3     H 7872   3.971   1.334   1.071  0.0274 -2.9085  0.5440
  530TMC3    H1 7873   3.656   1.304   0.781  0.7511 -0.5382 -0.6695
  530TMC3    H2 7874   3.584   1.231   1.202  0.5770 -0.1933  0.2161
  530TMC3    C7 7875   3.467   1.244   0.967  0.5497 -0.4113  0.0446
  530TMC3    C8 7876   3.810   1.306   1.285 -0.2144 -0.2262  0.2746
  530TMC3    O1 7877   3.426   1.284   0.858 -0.2295  0.4769  0.0531
  530TMC3    O2 7878   3.724   1.325   1.370  0.3505  0.0665  0.9133
  531MPD2     C 7879   2.607   3.379  12.861  1.1824 -0.3532  0.0413
  531MPD2    C1 7880   2.481   3.403  12.915 -0.1920  0.0425 -0.2455
  531MPD2    C2 7881   2.387   3.460  12.829 -0.7827 -0.4060 -0.4196
  531MPD2    C3 7882   2.409   3.488  12.696  0.0148  0.0365  0.0990
  531MPD2    C4 7883   2.526   3.452  12.646  0.3484 -0.0689  0.5220
  531MPD2    C5 7884   2.628   3.404  12.727 -0.4529  0.2841  0.7805
  531MPD2     H 7885   2.292   3.497  12.866 -1.4180  0.3842 -2.8295
  531MPD2    H1 7886   2.537   3.470  12.540 -1.3610  0.6597  0.4646
  531MPD2    H2 7887   2.687   3.337  12.920  0.9325 -2.7675 -1.3608
  531MPD2    H3 7888   2.721   3.367  12.684 -0.1196  1.3639  0.5843
  531MPD2     N 7889   2.302   3.556  12.631 -0.2870 -0.6267 -0.3748
  531MPD2    H5 7890   2.221   3.574  12.688  2.9380  2.9782  3.0542
  531MPD2    N1 7891   2.449   3.363  13.049  0.2056 -0.2775  0.0531
  531MPD2    H7 7892   2.523   3.313  13.099  0.9265  1.5972  0.8777
  532TMC3    C1 7893   2.324   3.353  13.251 -0.1281 -0.2846 -1.2159
  532TMC3    C2 7894   2.196   3.369  13.285 -0.1766  0.0742  0.1576
  532TMC3    C3 7895   2.154   3.455  13.385 -0.2204 -0.0244 -0.4166
  532TMC3    C4 7896   2.418   3.413  13.326 -0.7126  0.5594  0.1523
  532TMC3    C5 7897   2.374   3.493  13.432  0.5997 -0.1829  0.0176
  532TMC3    C6 7898   2.244   3.519  13.460  0.3927 -0.3608 -0.6660
  532TMC3     C 7899   2.326   3.368  13.108  0.9157  0.5062 -0.8294
  532TMC3     O 7900   2.220   3.411  13.063 -0.0020 -0.3314 -0.5970
  532TMC3     H 7901   2.122   3.311  13.233  0.4250 -2.5776  2.2690
  532TMC3    H1 7902   2.523   3.396  13.303 -0.8179 -1.0519  0.8863
  532TMC3    H2 7903   2.210   3.569  13.550 -0.1291  1.2462 -1.7507
  532TMC3    C7 7904   2.460   3.515  13.545 -0.5233 -0.3164  0.0962
  532TMC3    C8 7905   2.034   3.522  13.359 -0.1138 -0.0460  0.3935
  532TMC3    O1 7906   2.463   3.628  13.598  0.2728  0.2711  0.6106
  532TMC3    O2 7907   1.974   3.578  13.449 -0.0238  0.2305 -0.0647
  533TMC3    C1 7908   3.443   4.585  14.372  0.4632  0.0600  0.3360
  533TMC3    C2 7909   3.575   4.612  14.382  0.1771 -0.1917 -0.7699
  533TMC3    C3 7910   3.619   4.715  14.464  0.0690  1.0869  1.0144
  533TMC3    C4 7911   3.355   4.647  14.461 -0.1912 -0.6263  0.2868
  533TMC3    C5 7912   3.414   0.000  14.556 -0.1242  0.0896  0.2192
  533TMC3    C6 7913   3.541   0.039  14.556  0.3001 -0.4229 -0.2495
  533TMC3     C 7914   3.414   4.440  14.375 -0.9799 -0.1748 -0.0354
  533TMC3     O 7915   3.508   4.368  14.415 -0.5388  0.1609 -0.3874
  533TMC3     H 7916   3.636   4.549  14.318  1.8166  0.7726 -0.1565
  533TMC3    H1 7917   3.253   4.616  14.476 -0.1020 -0.3963  1.3903
  533TMC3    H2 7918   3.575   0.109  14.632 -1.1095  1.3904 -1.2855
  533TMC3    C7 7919   3.346   4.724  14.685 -0.3692 -0.1115 -0.4841
  533TMC3    C8 7920   3.757   0.037  14.470 -0.5010 -0.0821 -0.0173
  533TMC3    O1 7921   3.419   4.714  14.783  0.0597  0.4839 -0.3711
  533TMC3    O2 7922   3.798   0.067  14.582 -0.5262 -0.6730 -0.1517
  534MPD2     C 7923   0.556   1.718   1.663 -0.5095 -0.0830 -0.5798
  534MPD2    C1 7924   0.670   1.727   1.589 -0.9642  0.0544  0.1592
  534MPD2    C2 7925   0.682   1.636   1.491 -0.3974  0.5844 -0.2800
  534MPD2    C3 7926   0.586   1.537   1.461  0.2635 -1.0614 -0.2688
  534MPD2    C4 7927   0.476   1.529   1.541  0.0014 -0.0895 -1.1931
  534MPD2    C5 7928   0.459   1.623   1.637  0.1535  0.9536 -0.6081
  534MPD2     H 7929   0.772   1.638   1.431  0.3381  0.5343  0.8165
  534MPD2    H1 7930   0.393   1.465   1.511  0.0128 -0.9630  0.6613
  534MPD2    H2 7931   0.537   1.779   1.751  1.3737  1.0935 -0.9841
  534MPD2    H3 7932   0.368   1.628   1.695 -0.1376  0.4026 -1.0136
  534MPD2     N 7933   0.594   1.454   1.348 -0.0510 -0.0219 -0.3885
  534MPD2    H5 7934   0.518   1.389   1.332 -0.4105  0.3412 -0.1456
  534MPD2    N1 7935   0.780   1.817   1.614 -0.0229 -0.0332 -0.2135
  534MPD2    H7 7936   0.867   1.808   1.561 -0.3260  0.0779 -0.7243
  535TMC3    C1 7937   0.699   1.350   1.155 -0.3278 -0.0077  0.1506
  535TMC3    C2 7938   0.588   1.268   1.148 -0.1944  0.2767  0.0917
  535TMC3    C3 7939   0.587   1.165   1.055 -0.3805 -0.9049  0.2578
  535TMC3    C4 7940   0.807   1.339   1.075  0.1764  0.6089  0.4931
  535TMC3    C5 7941   0.801   1.245   0.984 -0.2789  0.2309  0.1506
  535TMC3    C6 7942   0.694   1.160   0.962  0.5085  0.0854  1.5496
  535TMC3     C 7943   0.703   1.455   1.260 -1.0979 -0.2906  0.1235
  535TMC3     O 7944   0.788   1.542   1.248  0.2500 -0.0972  0.5054
  535TMC3     H 7945   0.506   1.289   1.215 -0.7058  1.9387 -1.0624
  535TMC3    H1 7946   0.901   1.391   1.090  1.3782 -2.0555  2.1263
  535TMC3    H2 7947   0.695   1.102   0.870 -1.9697  0.7631  1.0889
  535TMC3    C7 7948   0.903   1.240   0.876  0.7430  0.4801 -0.2495
  535TMC3    C8 7949   0.459   1.104   1.026 -0.1232  1.4913  0.1994
  535TMC3    O1 7950   0.925   1.136   0.815 -0.3299 -0.3984 -0.0571
  535TMC3    O2 7951   0.362   1.159   1.082  0.1475 -0.4135  0.0035
  536MPD2     C 7952   0.326   3.802  16.656  0.1730 -0.3294 -0.3801
  536MPD2    C1 7953   0.235   3.899  16.672  0.3151 -0.1036 -0.0411
  536MPD2    C2 7954   0.156   3.939  16.565 -0.2805 -0.0569  0.3088
  536MPD2    C3 7955   0.165   3.872  16.443 -0.1021 -0.3300  0.3822
  536MPD2    C4 7956   0.271   3.784  16.423  0.0549 -0.5668  0.0352
  536MPD2    C5 7957   0.347   3.746  16.534  0.1021  0.1304  1.0378
  536MPD2     H 7958   0.082   4.017  16.579  0.4778  0.6707  0.2451
  536MPD2    H1 7959   0.288   3.734  16.328 -1.2974  0.3713 -0.7117
  536MPD2    H2 7960   0.385   3.756  16.735 -0.6619 -2.9260 -1.2729
  536MPD2    H3 7961   0.419   3.665  16.524 -0.4688 -0.4682  1.7448
  536MPD2     N 7962   0.069   3.917  16.341  0.4526 -0.4365  0.4428
  536MPD2    H5 7963   4.724   3.977  16.385  1.6549  1.5858 -0.3693
  536MPD2    N1 7964   0.226   3.952  16.796 -0.1387 -0.2126  0.0905
  536MPD2    H7 7965   0.273   3.914  16.877 -2.1196  1.5751  2.1218
  537TMC3    C1 7966   0.131   4.082  16.962 -0.4314 -0.0537  0.4193
  537TMC3    C2 7967   0.147   4.214  16.980 -0.0313 -0.5979 -0.0370
  537TMC3    C3 7968   0.089   4.270  17.094 -0.0471 -0.8465  0.3151
  537TMC3    C4 7969   0.070   3.992  17.046  0.4444  0.8028  0.0608
  537TMC3    C5 7970   0.025   4.054  17.168  0.1254 -0.1332  0.3874
  537TMC3    C6 7971   0.027   4.188  17.185 -0.1489  0.7143  0.4253
  537TMC3     C 7972   0.141   4.053  16.824  0.2589 -0.4136  0.4549
  537TMC3     O 7973   0.072   4.130  16.761 -0.2564  0.5259  0.4154
  537TMC3     H 7974   0.196   4.273  16.904  1.8710  0.3634  1.9208
  537TMC3    H1 7975   0.062   3.886  17.023 -1.1988  1.1462 -0.8999
  537TMC3    H2 7976   4.719   4.232  17.279 -1.4765 -0.0744  0.3204
  537TMC3    C7 7977   4.684   3.982  17.274 -0.2606  0.2677  0.2207
  537TMC3    C8 7978   0.121   4.403  17.139 -0.3066 -0.1209 -0.3157
  537TMC3    O1 7979   4.639   4.051  17.363 -1.1665 -0.0563 -0.2429
  537TMC3    O2 7980   0.041   4.456  17.220  0.4338  0.5660 -0.2422
  538TMC3    C1 7981   1.185   2.599  11.623 -0.5564  0.0297 -0.0309
  538TMC3    C2 7982   1.264   2.536  11.535 -0.5565 -0.4458  0.2116
  538TMC3    C3 7983   1.263   2.582  11.409 -0.0845  0.8029 -0.7620
  538TMC3    C4 7984   1.115   2.715  11.593  0.0096 -0.1200  0.8269
  538TMC3    C5 7985   1.125   2.767  11.465 -0.4447  0.5352  0.1417
  538TMC3    C6 7986   1.200   2.699  11.366 -0.7278 -0.5664 -0.5135
  538TMC3     C 7987   1.150   2.542  11.757  0.0275  0.1067  0.1114
  538TMC3     O 7988   1.037   2.569  11.792 -0.4680  0.1212  0.5335
  538TMC3     H 7989   1.310   2.442  11.564 -0.2081  0.2428  1.8538
  538TMC3    H1 7990   1.050   2.770  11.660 -2.0197  0.6095 -1.7323
  538TMC3    H2 7991   1.195   2.730  11.262 -3.0900 -2.1618 -0.8582
  538TMC3    C7 7992   1.035   2.878  11.430  0.3131 -0.3536  0.4209
  538TMC3    C8 7993   1.368   2.527  11.320  0.0453  0.0872 -0.6865
  538TMC3    O1 7994   0.943   2.890  11.510  0.5858 -0.2178 -0.8388
  538TMC3    O2 7995   1.407   2.415  11.353  0.1535 -0.2827 -0.1938
  539MPD2     C 7996   0.720   2.258  12.185 -0.8292 -0.3193  0.4374
  539MPD2    C1 7997   0.732   2.229  12.047  0.4142 -0.3231 -0.0882
  539MPD2    C2 7998   0.716   2.333  11.957 -0.3802  0.3716  0.5926
  539MPD2    C3 7999   0.709   2.469  12.006 -0.1930  0.1675  0.7635
  539MPD2    C4 8000   0.693   2.493  12.138 -0.2130 -0.0704  1.3309
  539MPD2    C5 8001   0.704   2.386  12.226 -0.3918 -0.3733  0.0360
  539MPD2     H 8002   0.716   2.304  11.853 -1.5062  0.5656  0.5359
  539MPD2    H1 8003   0.691   2.595  12.175 -1.2776 -0.2717  1.8419
  539MPD2    H2 8004   0.723   2.184  12.264  0.7112 -1.5707 -0.8059
  539MPD2    H3 8005   0.698   2.402  12.333 -1.3070  0.7377 -0.1762
  539MPD2     N 8006   0.697   2.581  11.923  0.1035 -0.1148  0.4284
  539MPD2    H5 8007   0.713   2.672  11.965 -0.5854  0.4629 -0.5337
  539MPD2    N1 8008   0.756   2.097  11.996 -0.5586  0.2239  0.0054
  539MPD2    H7 8009   0.762   2.081  11.896 -2.3768  2.2069 -0.4196
  540TMC3    C1 8010   0.673   2.706  11.731 -0.4198  0.1659  0.8477
  540TMC3    C2 8011   0.705   2.720  11.595  1.0519 -0.1800 -0.0892
  540TMC3    C3 8012   0.656   2.823  11.524 -0.3888 -0.6520 -0.5682
  540TMC3    C4 8013   0.580   2.791  11.781 -0.2845 -0.1143 -0.4005
  540TMC3    C5 8014   0.520   2.887  11.701  0.1560  0.3126 -0.1301
  540TMC3    C6 8015   0.568   2.912  11.579 -0.3054 -0.4177 -0.2921
  540TMC3     C 8016   0.680   2.574  11.790 -0.5830  0.1348  0.2036
  540TMC3     O 8017   0.708   2.485  11.707 -0.0493  0.2260 -0.6489
  540TMC3     H 8018   0.773   2.644  11.558  2.3553  1.3365 -0.7796
  540TMC3    H1 8019   0.525   2.758  11.869 -0.0966  1.7767  0.4226
  540TMC3    H2 8020   0.510   2.974  11.511 -1.1827 -1.0272 -0.1111
  540TMC3    C7 8021   0.379   2.902  11.723  0.4815  0.2129  0.6542
  540TMC3    C8 8022   0.635   2.812  11.379  0.1770  0.1037  0.1552
  540TMC3    O1 8023   0.314   2.795  11.735 -0.0524 -0.3285  0.1180
  540TMC3    O2 8024   0.595   2.915  11.327 -0.3767  0.1398  0.1048
  541MPD2     C 8025   3.949   3.595  13.618 -0.4744 -0.6026  0.2441
  541MPD2    C1 8026   3.992   3.507  13.524 -0.1578 -0.2616 -0.1171
  541MPD2    C2 8027   4.055   3.560  13.414 -0.3969  0.5832 -0.3221
  541MPD2    C3 8028   4.083   3.690  13.400  0.6409 -0.0526 -0.0132
  541MPD2    C4 8029   4.047   3.776  13.503 -0.4103  0.6931  0.6266
  541MPD2    C5 8030   3.978   3.723  13.612 -0.5150 -0.3915  0.2784
  541MPD2     H 8031   4.068   3.494  13.328  1.0056 -0.6960  0.8696
  541MPD2    H1 8032   4.071   3.882  13.498 -1.2324  0.8228 -0.4289
  541MPD2    H2 8033   3.882   3.569  13.700 -0.5527 -1.0042  0.0486
  541MPD2    H3 8034   3.947   3.789  13.692  1.1909  2.1683 -1.2065
  541MPD2     N 8035   4.138   3.749  13.277  0.3229 -0.9912 -0.8764
  541MPD2    H5 8036   4.121   3.849  13.268  2.3452 -0.7081 -1.5729
  541MPD2    N1 8037   3.962   3.372  13.533  0.5825  0.2951  0.3753
  541MPD2    H7 8038   3.904   3.353  13.614 -1.9653  0.0044 -1.5269
  542TMC3    C1 8039   4.154   3.740  13.031  0.8610  0.4540  0.6323
  542TMC3    C2 8040   4.118   3.647  12.940 -0.1418  0.7027  0.2606
  542TMC3    C3 8041   4.021   3.661  12.846 -0.1455  0.0810  0.3471
  542TMC3    C4 8042   4.081   3.855  13.031  0.1880 -0.4193  0.6840
  542TMC3    C5 8043   3.997   3.875  12.924  0.7971 -0.3702  0.3081
  542TMC3    C6 8044   3.954   3.779  12.837  0.2406 -0.3380  0.0660
  542TMC3     C 8045   4.183   3.680  13.165 -0.2127  0.1079 -0.8818
  542TMC3     O 8046   4.216   3.563  13.167 -0.3963 -0.5141  0.2900
  542TMC3     H 8047   4.175   3.555  12.945  0.0658  0.7450 -1.1917
  542TMC3    H1 8048   4.119   3.933  13.096  2.1560 -0.0903 -0.8539
  542TMC3    H2 8049   3.888   3.813  12.758 -2.5338  2.6294  3.6585
  542TMC3    C7 8050   3.945   4.009  12.922 -0.2685 -0.1884  0.1784
  542TMC3    C8 8051   3.989   3.564  12.741  0.4314  0.6308  1.4586
  542TMC3    O1 8052   4.000   4.095  12.984  0.1540 -0.3018  0.0681
  542TMC3    O2 8053   3.906   3.601  12.659 -0.5053 -0.1075 -0.3176
  543TMC3    C1 8054   3.056   0.054  17.051  0.8392  0.3994  0.4821
  543TMC3    C2 8055   3.050   4.713  17.167  0.5284  0.1488  0.7681
  543TMC3    C3 8056   2.956   0.011  17.260  0.1088  0.4314 -0.2009
  543TMC3    C4 8057   2.953   0.140  17.016 -0.1760 -0.1026 -0.7347
  543TMC3    C5 8058   2.862   0.165  17.113 -0.2339  0.2262  0.1339
  543TMC3    C6 8059   2.851   0.095  17.234  0.6459  0.1335 -0.0827
  543TMC3     C 8060   3.161   0.020  16.958  0.6614 -0.1457 -0.4253
  543TMC3     O 8061   3.230   4.650  16.989  0.1723  0.4911 -0.4005
  543TMC3     H 8062   3.129   4.642  17.190  0.9123  0.1617 -0.5028
  543TMC3    H1 8063   2.970   0.213  16.938 -0.4024 -0.4565 -1.1184
  543TMC3    H2 8064   2.775   0.118  17.307  0.4863  0.6896 -0.4227
  543TMC3    C7 8065   2.783   0.286  17.092  0.4444 -0.4339 -0.1927
  543TMC3    C8 8066   2.938   4.621  17.341  0.6004  0.0711  0.0305
  543TMC3    O1 8067   2.822   0.361  17.003 -0.6250  0.5558 -0.3582
  543TMC3    O2 8068   3.041   4.556  17.367  0.0462 -0.4635  0.5259
  544MPD2     C 8069   2.682   4.187  17.444 -0.2565  0.5752  0.4021
  544MPD2    C1 8070   2.811   4.227  17.482 -0.0616  0.2840 -0.1678
  544MPD2    C2 8071   2.850   4.355  17.452 -0.2919 -0.3204  0.3049
  544MPD2    C3 8072   2.759   4.447  17.391  0.6798 -0.0067  0.5498
  544MPD2    C4 8073   2.628   4.406  17.362 -0.6553 -0.9139 -0.4221
  544MPD2    C5 8074   2.591   4.276  17.384  0.3441 -0.1876 -0.5073
  544MPD2     H 8075   2.948   4.387  17.484  0.4253 -2.4956  0.2672
  544MPD2    H1 8076   2.561   4.477  17.315  0.7232  0.6765  0.0286
  544MPD2    H2 8077   2.647   4.089  17.472  2.9166 -0.3134  1.3058
  544MPD2    H3 8078   2.493   4.240  17.355  0.1436  0.0466 -0.1316
  544MPD2     N 8079   2.806   4.576  17.345  0.4149  0.7320  0.0811
  544MPD2    H5 8080   2.730   4.629  17.304  0.0002 -0.7740 -1.1044
  544MPD2    N1 8081   2.900   4.138  17.538  0.2682  0.9347  0.0722
  544MPD2    H7 8082   2.864   4.049  17.568 -1.1343  1.3330 -0.4102
  545TMC3    C1 8083   3.105   4.041  17.606 -0.2990 -0.4737  0.9151
  545TMC3    C2 8084   3.230   4.024  17.555  0.1100  0.0541  0.1702
  545TMC3    C3 8085   3.298   3.918  17.600 -0.3853 -0.0256  0.3672
  545TMC3    C4 8086   3.050   3.967   0.002 -0.1602 -0.4780  0.1951
  545TMC3    C5 8087   3.128   3.869   0.049  0.3878  0.3777 -0.0344
  545TMC3    C6 8088   3.252   3.840  17.696  0.0773  0.5224  0.3348
  545TMC3     C 8089   3.037   4.157  17.549 -0.2929  0.2633 -0.8198
  545TMC3     O 8090   3.109   4.243  17.495  0.1391  0.1815 -0.2970
  545TMC3     H 8091   3.260   4.074  17.464  0.3549  1.9004  1.2538
  545TMC3    H1 8092   2.949   3.980   0.040 -0.2093  2.0317 -0.7776
  545TMC3    H2 8093   3.306   3.751   0.025 -2.4121 -0.7438  1.0346
  545TMC3    C7 8094   3.073   3.798   0.164  0.1195  0.2984  0.6006
  545TMC3    C8 8095   3.438   3.890  17.559 -0.3412  0.2369  0.0586
  545TMC3    O1 8096   2.995   3.855   0.239 -0.2497 -0.3015  0.3073
  545TMC3    O2 8097   3.475   3.777  17.595  0.8049  0.8663  0.4678
  546MPD2     C 8098   4.517   0.168   0.363  0.1530 -0.0119  0.6412
  546MPD2    C1 8099   4.510   0.152   0.232  0.0567 -0.1484 -0.1581
  546MPD2    C2 8100   4.607   0.223   0.162  0.0577 -0.1629 -0.2826
  546MPD2    C3 8101   4.701   0.304   0.220 -0.0716  0.2341  0.1661
  546MPD2    C4 8102   4.702   0.313   0.359 -0.3868  0.5589  0.2141
  546MPD2    C5 8103   4.609   0.250   0.431  0.0629  0.0475  0.3541
  546MPD2     H 8104   4.621   0.218   0.054 -0.1981  0.3494 -0.3415
  546MPD2    H1 8105   0.053   0.371   0.410  1.7005 -1.7514 -0.2759
  546MPD2    H2 8106   4.450   0.118   0.432  0.0677 -0.9632 -0.1330
  546MPD2    H3 8107   4.622   0.256   0.538  0.4635  0.1101  0.2989
  546MPD2     N 8108   0.058   0.398   0.158  0.0105  0.3500 -0.0949
  546MPD2    H5 8109   0.106   0.458   0.223 -2.0416  1.6736  0.1865
  546MPD2    N1 8110   4.403   0.077   0.174  0.2158 -0.5247 -0.3745
  546MPD2    H7 8111   4.341   0.029   0.238  2.3951 -2.6279  0.1506
  547TMC3    C1 8112   4.253   0.007  17.695 -0.3716  0.1271 -0.0344
  547TMC3    C2 8113   4.243   4.663  17.580  0.3792 -0.1659 -0.0059
  547TMC3    C3 8114   4.131   4.586  17.570 -0.0754 -0.2024 -0.3031
  547TMC3    C4 8115   4.147   0.017   0.091 -0.1706 -0.6498 -0.7612
  547TMC3    C5 8116   4.031   4.674   0.062  0.7480 -0.3244  0.2886
  547TMC3    C6 8117   4.023   4.594  17.655 -0.2488 -0.1244  0.2917
  547TMC3     C 8118   4.391   0.047   0.037  0.1315  0.7199 -0.0270
  547TMC3     O 8119   4.467   0.070  17.648  0.1471  0.0819 -0.1900
  547TMC3     H 8120   4.324   4.666  17.508  0.2396  1.3133 -0.1178
  547TMC3    H1 8121   4.161   0.095   0.164 -0.3088  0.7355 -2.2014
  547TMC3    H2 8122   3.930   4.544  17.632 -0.5732 -0.7271  2.8960
  547TMC3    C7 8123   3.916   4.706   0.137  0.1522 -0.2222  0.1322
  547TMC3    C8 8124   4.091   4.507  17.457  0.1644 -0.2035  0.5357
  547TMC3    O1 8125   3.920   0.094   0.182 -0.2594 -0.1682 -0.0165
  547TMC3    O2 8126   3.979   4.528  17.406  0.5918 -0.2392  0.0089
  548MPD2     C 8127   4.570   0.476  12.686  0.2043 -0.1529 -0.0240
  548MPD2    C1 8128   4.459   0.431  12.749  0.1161 -0.9110 -0.3215
  548MPD2    C2 8129   4.469   0.317  12.828 -0.1577 -0.1718  0.2537
  548MPD2    C3 8130   4.586   0.252  12.837  0.2286 -0.2548 -0.6203
  548MPD2    C4 8131   4.701   0.300  12.784 -0.0666  0.1669  0.3548
  548MPD2    C5 8132   4.688   0.417  12.707  0.2884 -0.0456  0.2512
  548MPD2     H 8133   4.387   0.269  12.881  0.0273 -1.0629 -0.2660
  548MPD2    H1 8134   0.074   0.259  12.806  0.5047  1.7663  0.7676
  548MPD2    H2 8135   4.569   0.565  12.625 -0.0682  0.9242  1.5512
  548MPD2    H3 8136   0.050   0.449  12.652  0.0299  1.3887  0.6862
  548MPD2     N 8137   4.578   0.122  12.902  0.2735 -0.5272 -0.1186
  548MPD2    H5 8138   4.494   0.094  12.953 -0.0516 -1.8997 -1.4045
  548MPD2    N1 8139   4.334   0.490  12.720 -0.4751 -0.1475 -0.5348
  548MPD2    H7 8140   4.338   0.573  12.661 -0.7947  1.0905  1.1883
  549TMC3    C1 8141   4.100   0.535  12.747 -0.2526 -0.2424 -0.3257
  549TMC3    C2 8142   4.079   0.565  12.618  0.3311 -0.7927  0.1942
  549TMC3    C3 8143   3.958   0.607  12.579  0.1152 -0.2370  0.3860
  549TMC3    C4 8144   3.992   0.518  12.833 -0.0884  0.0123  0.2681
  549TMC3    C5 8145   3.860   0.532  12.784  0.8783 -0.5664  0.4661
  549TMC3    C6 8146   3.845   0.583  12.657 -0.2428  0.1146 -0.1978
  549TMC3     C 8147   4.221   0.469  12.796  0.3679 -0.3803  0.5697
  549TMC3     O 8148   4.204   0.394  12.890  0.2852 -0.0446  0.5930
  549TMC3     H 8149   4.161   0.577  12.548  1.7855  2.6657  2.5082
  549TMC3    H1 8150   4.013   0.493  12.936  2.6952 -0.3361 -0.3972
  549TMC3    H2 8151   3.750   0.593  12.607  0.5022  1.2127 -1.3733
  549TMC3    C7 8152   3.763   0.431  12.815  0.4476 -0.5364  0.5253
  549TMC3    C8 8153   3.931   0.643  12.444 -0.0170 -0.4073  0.5309
  549TMC3    O1 8154   3.653   0.450  12.765 -0.6159  0.0093 -0.0066
  549TMC3    O2 8155   3.825   0.608  12.393 -0.0448  0.0214  0.0759
  550TMC3    C1 8156   3.188   3.349  12.035 -0.4220  0.3730 -0.6579
  550TMC3    C2 8157   3.185   3.380  12.167  0.4878  0.3242  0.0140
  550TMC3    C3 8158   3.109   3.492  12.194 -0.0191 -0.4887 -0.7007
  550TMC3    C4 8159   3.129   3.430  11.937 -0.2252 -0.2986  0.4046
  550TMC3    C5 8160   3.051   3.531  11.978 -0.1828  0.1940  0.4144
  550TMC3    C6 8161   3.039   3.569  12.110  0.0549 -0.3958  0.4029
  550TMC3     C 8162   3.267   3.239  11.981 -0.4247 -0.9124 -0.5602
  550TMC3     O 8163   3.291   3.149  12.062  0.0346  0.1413  0.4678
  550TMC3     H 8164   3.241   3.321  12.238 -0.0358  0.2862  0.4034
  550TMC3    H1 8165   3.130   3.402  11.832  0.5094 -0.6714  0.5126
  550TMC3    H2 8166   2.982   3.654  12.143  0.3355  0.8655 -2.3329
  550TMC3    C7 8167   2.961   3.591  11.888  0.1849  0.3224 -0.1821
  550TMC3    C8 8168   3.105   3.528  12.337  0.0439 -0.1714 -0.2078
  550TMC3    O1 8169   2.858   3.631  11.941  0.3203  0.3865  0.2683
  550TMC3    O2 8170   3.023   3.609  12.370 -0.0466  0.6702  0.0977
  551TMC3    C1 8171   0.933   0.800  13.154  0.2447 -0.1241 -0.1711
  551TMC3    C2 8172   1.065   0.760  13.147  0.1546 -0.3020  0.0887
  551TMC3    C3 8173   1.151   0.789  13.254 -0.0540  0.3287 -0.2647
  551TMC3    C4 8174   0.886   0.864  13.271 -0.1293 -0.1996  0.0899
  551TMC3    C5 8175   0.973   0.890  13.376 -0.5489  0.1086 -0.0639
  551TMC3    C6 8176   1.105   0.857  13.369 -0.6837  0.2265  0.4814
  551TMC3     C 8177   0.854   0.782  13.031  0.3314  0.9902 -0.0580
  551TMC3     O 8178   0.918   0.772  12.925  0.7218  0.0547 -0.0730
  551TMC3     H 8179   1.105   0.716  13.056 -1.9759 -1.1926 -0.4209
  551TMC3    H1 8180   0.778   0.870  13.278 -0.0085  1.5808  0.5679
  551TMC3    H2 8181   1.171   0.867  13.455  0.4597  0.2000 -0.3911
  551TMC3    C7 8182   0.944   0.977  13.489 -0.2965  0.3571 -0.3832
  551TMC3    C8 8183   1.283   0.807  13.214 -0.0469 -0.4865  0.9588
  551TMC3    O1 8184   1.008   0.955  13.593  0.0929 -0.3901  0.2737
  551TMC3    O2 8185   1.325   0.739  13.119 -0.3843  0.0935  0.1109
  552MPD2     C 8186   2.549   3.113  13.943 -0.3714 -0.2198  0.0852
  552MPD2    C1 8187   2.507   3.004  14.008 -0.3523 -0.1191 -0.8659
  552MPD2    C2 8188   2.584   2.950  14.111  0.1731 -0.4179 -0.1554
  552MPD2    C3 8189   2.705   3.010  14.151 -0.1494 -0.2435 -0.8048
  552MPD2    C4 8190   2.744   3.122  14.079 -0.2462  0.2941 -0.9818
  552MPD2    C5 8191   2.665   3.173  13.981  0.4601 -0.3815  0.3977
  552MPD2     H 8192   2.550   2.859  14.157  0.1728  1.5768  3.7742
  552MPD2    H1 8193   2.830   3.182  14.107  0.3235 -1.2955  0.7288
  552MPD2    H2 8194   2.494   3.155  13.859  0.3453  0.1433 -0.2096
  552MPD2    H3 8195   2.689   3.266  13.931  0.1304 -0.7255 -0.4134
  552MPD2     N 8196   2.787   2.976  14.258 -0.3262  0.1859 -0.2874
  552MPD2    H5 8197   2.876   3.026  14.260  0.2152 -1.0261  5.2640
  552MPD2    N1 8198   2.385   2.946  13.969 -0.1913  0.0397  0.5704
  552MPD2    H7 8199   2.351   2.975  13.878  0.8657 -1.6263 -0.3568
  553TMC3    C1 8200   2.270   2.759  13.920  0.1830  0.1122  0.4274
  553TMC3    C2 8201   2.250   2.822  13.800  0.2921 -0.2229  0.0647
  553TMC3    C3 8202   2.283   2.751  13.684  0.6254 -0.5481  0.2376
  553TMC3    C4 8203   2.318   2.636  13.931 -0.5933 -0.1566  0.2109
  553TMC3    C5 8204   2.371   2.572  13.816 -0.1418 -0.0161  0.5219
  553TMC3    C6 8205   2.338   2.622  13.694  0.1209  0.4967  0.0967
  553TMC3     C 8206   2.312   2.842  14.027  0.1010 -0.5222  0.1684
  553TMC3     O 8207   2.320   2.794  14.140  0.4303 -0.0429 -0.0423
  553TMC3     H 8208   2.201   2.918  13.796 -1.0355 -0.9794 -1.7790
  553TMC3    H1 8209   2.345   2.592  14.026 -1.0842 -1.0327 -0.0599
  553TMC3    H2 8210   2.369   2.562  13.609 -0.4753 -1.1922  1.0752
  553TMC3    C7 8211   2.510   2.572  13.832 -0.2897 -0.4587 -0.2092
  553TMC3    C8 8212   2.350   2.818  13.577 -0.4358  0.2922 -0.6355
  553TMC3    O1 8213   2.561   2.496  13.909 -0.3987  0.4738  0.0636
  553TMC3    O2 8214   2.436   2.896  13.613 -0.5461  0.8760  0.2914
  554TMC3    C1 8215   4.508   2.175  11.542  0.0264  0.7934 -0.3419
  554TMC3    C2 8216   4.510   2.119  11.417  0.3435 -0.1384 -0.3724
  554TMC3    C3 8217   4.602   2.166  11.334  0.6089  0.4543  0.6061
  554TMC3    C4 8218   4.593   2.277  11.583 -0.1296 -0.3815 -0.4363
  554TMC3    C5 8219   4.688   2.308  11.491 -0.1355  0.1057 -0.3790
  554TMC3    C6 8220   4.690   2.255  11.368  0.3734 -0.2771  0.3707
  554TMC3     C 8221   4.464   2.083  11.644  1.1152  0.2709 -0.1393
  554TMC3     O 8222   4.386   1.995  11.604 -0.1556 -0.4994  0.3933
  554TMC3     H 8223   4.468   2.022  11.393 -2.8195  1.1586 -0.1249
  554TMC3    H1 8224   4.581   2.336  11.673  1.7311  0.4577 -0.7278
  554TMC3    H2 8225   0.029   2.297  11.291 -2.1720  0.6521 -1.2141
  554TMC3    C7 8226   0.042   2.427  11.503  0.1601 -0.0223 -0.7014
  554TMC3    C8 8227   4.598   2.129  11.191  0.0970 -0.1127  0.5662
  554TMC3    O1 8228   0.158   2.427  11.463 -0.0345 -0.2189  0.0304
  554TMC3    O2 8229   4.701   2.131  11.127 -0.3249 -0.2503  0.2536
  555TMC3    C1 8230   3.828   0.883  15.138 -0.4926 -0.2365 -0.1626
  555TMC3    C2 8231   3.798   0.941  15.253  0.1797  0.3656  0.0619
  555TMC3    C3 8232   3.723   0.867  15.351 -0.5158 -0.4757  0.2315
  555TMC3    C4 8233   3.813   0.746  15.128  0.8415 -0.2129  0.3722
  555TMC3    C5 8234   3.769   0.673  15.242 -0.1525  0.6775 -0.0210
  555TMC3    C6 8235   3.719   0.734  15.355  0.2650  0.1527  0.1996
  555TMC3     C 8236   3.877   0.958  15.021  0.2337  0.2471 -0.2110
  555TMC3     O 8237   3.949   0.889  14.947  0.1749 -0.0750  0.6791
  555TMC3     H 8238   3.830   1.044  15.266  0.3134  0.2456  0.6853
  555TMC3    H1 8239   3.840   0.708  15.030 -2.7423 -0.7250 -0.3975
  555TMC3    H2 8240   3.676   0.677  15.436 -1.0546  1.0789  0.1535
  555TMC3    C7 8241   3.737   0.529  15.233  0.1616 -0.6426  0.4036
  555TMC3    C8 8242   3.663   0.940  15.460 -0.6550  0.7015  1.1149
  555TMC3    O1 8243   3.698   0.484  15.340  0.8203 -0.2199 -0.2553
  555TMC3    O2 8244   3.609   0.882  15.549  0.3101  0.1462 -0.0294
  556MPD2     C 8245   1.714   3.682  10.700 -0.0932  0.1449 -0.3924
  556MPD2    C1 8246   1.666   3.599  10.799  0.1348 -0.2616 -0.8666
  556MPD2    C2 8247   1.613   3.477  10.772 -0.8289  0.2086 -0.1913
  556MPD2    C3 8248   1.643   3.424  10.642  0.8199 -0.5101  0.1910
  556MPD2    C4 8249   1.707   3.501  10.542  0.3012 -0.4231  0.2486
  556MPD2    C5 8250   1.734   3.629  10.577 -0.2079  0.1042 -0.0807
  556MPD2     H 8251   1.561   3.413  10.842  1.0866  1.5170  2.4366
  556MPD2    H1 8252   1.735   3.473  10.441 -0.3641 -1.5894  0.3867
  556MPD2    H2 8253   1.740   3.785  10.719  2.0886 -0.8339  1.9216
  556MPD2    H3 8254   1.775   3.692  10.499  2.7516  0.1736  1.5334
  556MPD2     N 8255   1.591   3.303  10.616  0.0496  0.0261 -1.0652
  556MPD2    H5 8256   1.559   3.250  10.697  0.6963  1.1270 -0.0880
  556MPD2    N1 8257   1.652   3.634  10.935  0.4572  0.6183  0.7375
  556MPD2    H7 8258   1.603   3.576  11.003 -0.8154  2.0510  1.0458
  557TMC3    C1 8259   1.514   3.115  10.494  0.9759  0.0466  0.7450
  557TMC3    C2 8260   1.498   3.042  10.383  0.2226 -0.6392 -0.2377
  557TMC3    C3 8261   1.491   2.907  10.385  0.3699 -0.6455  0.0372
  557TMC3    C4 8262   1.503   3.050  10.613  0.0246  0.1806  0.2380
  557TMC3    C5 8263   1.490   2.913  10.622 -0.3159  0.4512 -0.0365
  557TMC3    C6 8264   1.492   2.835  10.506  0.1542  0.3402  0.1441
  557TMC3     C 8265   1.559   3.258  10.489  0.2494 -0.3682  0.4932
  557TMC3     O 8266   1.576   3.301  10.377  0.5220 -0.3887 -0.2940
  557TMC3     H 8267   1.480   3.092  10.289  0.5276  0.5697  0.3474
  557TMC3    H1 8268   1.494   3.103  10.707 -1.2438 -2.0023  1.3427
  557TMC3    H2 8269   1.460   2.732  10.506  1.4281 -0.0777 -2.7792
  557TMC3    C7 8270   1.487   2.858  10.754 -0.0108  0.3979 -0.0226
  557TMC3    C8 8271   1.445   2.839  10.264 -0.5478  0.3007 -0.1695
  557TMC3    O1 8272   1.453   2.927  10.846  0.0963 -0.4466 -0.3215
  557TMC3    O2 8273   1.387   2.912  10.184 -0.1048  0.4859 -0.2050
  558TMC3    C1 8274   0.259   0.943   9.815 -0.3600 -0.0520  0.5369
  558TMC3    C2 8275   0.132   0.977   9.854  0.3190  0.5520 -0.0963
  558TMC3    C3 8276   0.022   0.938   9.779 -0.4975 -0.2484 -0.4580
  558TMC3    C4 8277   0.275   0.862   9.710 -0.8729  0.5324  0.0657
  558TMC3    C5 8278   0.167   0.834   9.629 -0.5725 -0.5096 -0.3425
  558TMC3    C6 8279   0.035   0.869   9.666  0.6900 -1.5518 -0.3237
  558TMC3     C 8280   0.355   0.932   9.926  0.7082 -0.3315  0.1755
  558TMC3     O 8281   0.295   0.929  10.033  0.4533  0.3202 -0.2472
  558TMC3     H 8282   0.118   1.027   9.949  1.3856 -2.2980  1.5794
  558TMC3    H1 8283   0.366   0.811   9.680 -1.3865 -0.4914  0.2529
  558TMC3    H2 8284   4.678   0.843   9.600  0.3407  1.2770 -1.0182
  558TMC3    C7 8285   0.197   0.752   9.515  0.5601 -0.6701  0.2097
  558TMC3    C8 8286   4.619   0.931   9.849  0.0182  0.3675 -0.2002
  558TMC3    O1 8287   0.288   0.793   9.443 -0.1370 -0.3629 -0.2697
  558TMC3    O2 8288   4.510   0.924   9.788  0.2155  1.0419 -0.1291
  559MPD2     C 8289   4.584   1.862  10.546  0.1466  0.3476 -0.2543
  559MPD2    C1 8290   4.487   1.794  10.617 -0.0703 -0.8448 -0.0064
  559MPD2    C2 8291   4.529   1.730  10.729 -0.1130 -0.4422  0.7413
  559MPD2    C3 8292   4.660   1.741  10.781  0.6399  0.2627 -0.6102
  559MPD2    C4 8293   0.024   1.822  10.716  0.7332 -0.9401  0.8503
  559MPD2    C5 8294   4.709   1.871  10.597 -0.3716 -0.3989 -0.5949
  559MPD2     H 8295   4.453   1.673  10.782  0.3224  0.1943  2.0650
  559MPD2    H1 8296   0.123   1.842  10.755  1.3827 -0.6733 -0.9422
  559MPD2    H2 8297   4.557   1.910  10.452 -0.7387  0.4527  0.0522
  559MPD2    H3 8298   0.055   1.934  10.544 -1.1979 -0.5382 -1.8610
  559MPD2     N 8299   4.686   1.685  10.911  0.6452 -0.6689  0.6701
  559MPD2    H5 8300   4.618   1.615  10.940  0.4423 -0.1007  1.5747
  559MPD2    N1 8301   4.357   1.791  10.555  0.5676  0.8024 -0.1229
  559MPD2    H7 8302   4.340   1.856  10.479 -4.3023 -0.1139  0.1676
  560TMC3    C1 8303   0.079   1.626  11.108 -0.6984 -0.2488  0.1702
  560TMC3    C2 8304   0.054   1.494  11.087 -0.0567  0.0476 -0.3451
  560TMC3    C3 8305   0.100   1.407  11.185 -0.3475 -0.8163  0.6487
  560TMC3    C4 8306   0.125   1.674  11.224  0.3146 -1.0742  0.2423
  560TMC3    C5 8307   0.173   1.587  11.311  0.2422  0.6539 -0.2421
  560TMC3    C6 8308   0.160   1.451  11.302 -0.2987 -0.3776  0.2617
  560TMC3     C 8309   0.059   1.725  11.003  0.5158 -0.3549  0.4258
  560TMC3     O 8310   0.147   1.810  10.999  0.1574  0.3076  0.3490
  560TMC3     H 8311   0.023   1.451  10.992 -0.6638  0.1582 -0.1925
  560TMC3    H1 8312   0.137   1.782  11.229 -1.9702 -0.9011  1.7798
  560TMC3    H2 8313   0.201   1.391  11.381  1.7318  1.6861  0.7725
  560TMC3    C7 8314   0.221   1.634  11.443 -0.0619  0.7200 -0.0554
  560TMC3    C8 8315   0.119   1.272  11.142  0.4216  0.2700 -0.5557
  560TMC3    O1 8316   0.209   1.560  11.545  0.8724 -0.1688  0.0744
  560TMC3    O2 8317   0.034   1.232  11.061 -0.1745  0.1886 -0.2084
  561TMC3    C1 8318   2.157   1.041  11.607 -0.0188  0.0308 -0.5576
  561TMC3    C2 8319   2.103   1.003  11.732 -0.5357 -0.0822 -0.5575
  561TMC3    C3 8320   2.189   1.009  11.838  0.7155 -0.1371 -1.3223
  561TMC3    C4 8321   2.287   1.078  11.589  0.0662  0.2317  0.1386
  561TMC3    C5 8322   2.360   1.107  11.704  0.1423 -0.2925  0.8583
  561TMC3    C6 8323   2.310   1.070  11.825  0.2089 -0.3187  0.0444
  561TMC3     C 8324   2.101   0.982  11.492 -0.2123  0.7763  0.4257
  561TMC3     O 8325   2.169   0.975  11.395 -0.0338  0.0637 -0.0202
  561TMC3     H 8326   2.015   0.940  11.737 -1.0207  0.3721 -3.0219
  561TMC3    H1 8327   2.336   1.090  11.493  1.1597  0.3641  0.7048
  561TMC3    H2 8328   2.374   1.073  11.913 -1.1369 -0.8661  1.0327
  561TMC3    C7 8329   2.501   1.141  11.692  0.3409 -0.2504  0.2187
  561TMC3    C8 8330   2.160   0.924  11.959  0.2210  0.4949 -0.6797
  561TMC3    O1 8331   2.561   1.136  11.798  0.4050 -0.0224  0.0594
  561TMC3    O2 8332   2.268   0.884  12.006  0.2987  0.1223  0.7059
  562TMC3    C1 8333   3.774   1.780  16.195  0.1871 -0.4498 -0.2967
  562TMC3    C2 8334   3.651   1.834  16.182 -0.0599 -0.0169 -0.4022
  562TMC3    C3 8335   3.575   1.772  16.084 -0.6010  0.2422  0.9281
  562TMC3    C4 8336   3.837   1.685  16.117  0.4814  0.5869 -0.4738
  562TMC3    C5 8337   3.750   1.626  16.028  0.3125  0.0299 -0.5188
  562TMC3    C6 8338   3.620   1.664  16.013 -0.0659 -0.7093 -0.9711
  562TMC3     C 8339   3.827   1.802  16.331  0.8318 -0.2840  0.4499
  562TMC3     O 8340   3.795   1.908  16.384 -1.0267  0.0779  0.0164
  562TMC3     H 8341   3.615   1.928  16.221  0.0589  0.3002 -1.0596
  562TMC3    H1 8342   3.944   1.668  16.130  0.5724  2.1482  0.8286
  562TMC3    H2 8343   3.556   1.605  15.949  0.4789 -1.4131 -0.8668
  562TMC3    C7 8344   3.793   1.506  15.951 -1.0119 -0.7437 -0.0143
  562TMC3    C8 8345   3.447   1.826  16.050 -0.4475  0.1047 -0.2067
  562TMC3    O1 8346   3.703   1.420  15.943 -0.5287 -0.3873  0.2190
  562TMC3    O2 8347   3.388   1.870  16.146  0.3656  0.8952  0.1908
  563MPD2     C 8348   0.900   3.462  15.627  0.3521 -0.4500 -0.2482
  563MPD2    C1 8349   0.971   3.388  15.713 -0.6367 -0.4969  0.2638
  563MPD2    C2 8350   1.052   3.290  15.669 -0.1379 -0.7316  0.2894
  563MPD2    C3 8351   1.070   3.274  15.537 -0.3018 -0.0334 -0.0289
  563MPD2    C4 8352   1.003   3.356  15.442 -0.9200  0.5436 -0.4791
  563MPD2    C5 8353   0.909   3.440  15.495  0.1734  0.3663  0.1476
  563MPD2     H 8354   1.099   3.219  15.737 -0.6533  0.5686  1.9814
  563MPD2    H1 8355   1.018   3.354  15.334 -3.1380 -0.7943 -0.7588
  563MPD2    H2 8356   0.837   3.544  15.658  1.3334 -0.6045  2.1346
  563MPD2    H3 8357   0.862   3.506  15.423  3.3313  1.6634 -0.7531
  563MPD2     N 8358   1.169   3.174  15.508  0.0307 -0.0218  0.5320
  563MPD2    H5 8359   1.190   3.107  15.581  1.6692  1.1775  1.1521
  563MPD2    N1 8360   0.975   3.417  15.851  0.5137  0.4379 -0.4208
  563MPD2    H7 8361   0.920   3.500  15.874 -1.9117 -1.3778  0.3932
  564TMC3    C1 8362   1.016   3.390  16.089 -0.6561 -0.2394 -0.5600
  564TMC3    C2 8363   0.871   3.380  16.110  0.5255  0.2240  0.6053
  564TMC3    C3 8364   0.829   3.306  16.215 -0.6634  0.1343  0.7735
  564TMC3    C4 8365   1.104   3.324  16.169  0.0086 -0.7041  0.3162
  564TMC3    C5 8366   1.047   3.246  16.262  0.1794 -0.7338  0.6545
  564TMC3    C6 8367   0.917   3.244  16.297  0.5305  0.3032 -0.0224
  564TMC3     C 8368   1.045   3.361  15.952  0.5468  0.7346 -0.2470
  564TMC3     O 8369   1.110   3.260  15.952 -0.6558  0.6540  0.0763
  564TMC3     H 8370   0.802   3.442  16.054  0.6559  0.3704  0.6065
  564TMC3    H1 8371   1.211   3.325  16.147 -0.2630 -1.0731 -1.0122
  564TMC3    H2 8372   0.886   3.164  16.363 -0.2155  0.1089 -0.6026
  564TMC3    C7 8373   1.109   3.115  16.265 -0.2889  0.1741 -0.1030
  564TMC3    C8 8374   0.715   3.225  16.184  0.3297  0.3680 -0.7408
  564TMC3    O1 8375   1.092   3.047  16.365  0.2775 -0.2958  0.8298
  564TMC3    O2 8376   0.672   3.150  16.272 -0.6162 -0.4597  0.4684
  565TMC3    C1 8377   1.847   4.581  10.535  0.1736  0.1991 -0.2610
  565TMC3    C2 8378   1.740   4.531  10.593  0.1219 -0.4478  0.0318
  565TMC3    C3 8379   1.638   4.496  10.515 -0.0721 -0.1644  0.3801
  565TMC3    C4 8380   1.862   4.582  10.401 -0.4924 -0.4440  0.2324
  565TMC3    C5 8381   1.765   4.532  10.323 -0.7273 -0.6172 -0.1167
  565TMC3    C6 8382   1.655   4.483  10.379  0.2017  0.0773 -0.2470
  565TMC3     C 8383   1.953   4.647  10.611 -0.2411  0.1342  0.4254
  565TMC3     O 8384   2.056   4.676  10.552 -0.4739  0.0706  0.8779
  565TMC3     H 8385   1.722   4.518  10.699  2.2287 -0.3510  0.3990
  565TMC3    H1 8386   1.952   4.625  10.358 -1.6110 -1.3398 -2.9853
  565TMC3    H2 8387   1.566   4.462  10.321 -1.2472 -0.0724  2.0395
  565TMC3    C7 8388   1.785   4.545  10.177  0.4294  0.2175  0.3765
  565TMC3    C8 8389   1.524   4.433  10.585  0.5920  0.3683  0.1232
  565TMC3    O1 8390   1.854   4.632  10.127 -0.0534  0.4138 -0.0095
  565TMC3    O2 8391   1.520   4.440  10.708  0.0719 -0.1827  0.7605
  566MPD2     C 8392   3.487   1.690  14.326  0.7165 -0.2473  0.2513
  566MPD2    C1 8393   3.468   1.558  14.326 -0.3753 -0.3954  0.5602
  566MPD2    C2 8394   3.353   1.504  14.270  0.3625 -0.5049 -0.8391
  566MPD2    C3 8395   3.261   1.581  14.210 -0.4597  0.6896  1.3039
  566MPD2    C4 8396   3.281   1.719  14.209  0.5633  0.3141 -0.1765
  566MPD2    C5 8397   3.399   1.772  14.271  0.4194 -0.1523  0.2171
  566MPD2     H 8398   3.331   1.398  14.279 -0.9927 -0.2163 -0.7717
  566MPD2    H1 8399   3.212   1.792  14.169 -0.6102  0.4874  2.2024
  566MPD2    H2 8400   3.579   1.727  14.371  0.0535  1.8297 -0.1093
  566MPD2    H3 8401   3.422   1.878  14.271 -1.3483  0.2344 -4.0350
  566MPD2     N 8402   3.166   1.521  14.126  0.1819 -0.2936 -0.8734
  566MPD2    H5 8403   3.106   1.580  14.070 -2.3443 -1.0502  1.0236
  566MPD2    N1 8404   3.568   1.481  14.394  0.1288  0.4952 -0.3237
  566MPD2    H7 8405   3.657   1.529  14.407  0.7714 -1.0143  0.8648
  567TMC3    C1 8406   3.666   1.275  14.450 -0.6097 -0.0129 -0.3972
  567TMC3    C2 8407   3.750   1.272  14.344  0.3512 -0.1206 -0.3644
  567TMC3    C3 8408   3.824   1.160  14.325  0.2404 -0.1680  0.2745
  567TMC3    C4 8409   3.655   1.171  14.538  0.2409  0.3201  0.6400
  567TMC3    C5 8410   3.730   1.065  14.520  0.2228 -0.9466  0.2411
  567TMC3    C6 8411   3.819   1.056  14.415  0.7197 -0.1650  0.5657
  567TMC3     C 8412   3.551   1.353  14.435  0.5803  0.2772  0.2582
  567TMC3     O 8413   3.448   1.286  14.450 -0.5156  0.2304 -0.5611
  567TMC3     H 8414   3.769   1.365  14.291 -2.0061  0.3893 -0.2824
  567TMC3    H1 8415   3.571   1.163  14.606  0.8146 -1.2333  1.1555
  567TMC3    H2 8416   3.886   0.972  14.406  2.1973  1.3399 -2.3070
  567TMC3    C7 8417   3.718   0.942  14.596 -0.2994  0.3966 -0.6208
  567TMC3    C8 8418   3.894   1.148  14.198 -0.5025 -0.2983  0.1145
  567TMC3    O1 8419   3.794   0.852  14.558 -0.2961 -0.3859  0.1425
  567TMC3    O2 8420   3.881   1.238  14.118  0.0005 -0.2605  0.0759
  568MPD2     C 8421   0.805   1.878  16.253 -0.8724  0.2502 -0.4088
  568MPD2    C1 8422   0.745   1.912  16.368  1.4635 -0.3478 -0.1928
  568MPD2    C2 8423   0.665   2.023  16.375 -0.1308 -0.4094 -0.7692
  568MPD2    C3 8424   0.644   2.105  16.268  0.0434 -0.0910 -1.2270
  568MPD2    C4 8425   0.706   2.075  16.145 -0.3300 -0.1401 -0.2131
  568MPD2    C5 8426   0.781   1.960  16.143 -0.1594  0.7346  0.0403
  568MPD2     H 8427   0.656   2.069  16.473  0.8591 -2.3905  0.2393
  568MPD2    H1 8428   0.702   2.144  16.062  2.3992  1.3793  0.9343
  568MPD2    H2 8429   0.858   1.785  16.238  0.9911  1.3146 -0.5497
  568MPD2    H3 8430   0.839   1.949  16.052  1.2475  0.0955  1.0073
  568MPD2     N 8431   0.567   2.225  16.278 -0.6047 -0.1417 -0.5273
  568MPD2    H5 8432   0.531   2.232  16.373 -0.8178  1.8837 -0.7586
  568MPD2    N1 8433   0.748   1.825  16.483  0.3314 -0.2480 -0.6110
  568MPD2    H7 8434   0.790   1.733  16.470 -1.7258 -1.1568 -0.9735
  569TMC3    C1 8435   0.465   2.426  16.246  0.0063  0.5061  0.2021
  569TMC3    C2 8436   0.424   2.416  16.378  0.1610 -0.0476 -0.4870
  569TMC3    C3 8437   0.360   2.524  16.427  0.6100 -0.3237  0.0657
  569TMC3    C4 8438   0.439   2.534  16.164 -0.6477 -0.4188 -0.6016
  569TMC3    C5 8439   0.380   2.642  16.223  0.1225 -0.4206  0.1195
  569TMC3    C6 8440   0.332   2.636  16.354  0.5949  0.1187  0.8032
  569TMC3     C 8441   0.552   2.325  16.188 -0.2071  0.1482 -0.6906
  569TMC3     O 8442   0.591   2.344  16.073  0.7524  0.2061 -0.7840
  569TMC3     H 8443   0.454   2.344  16.453  1.4312 -0.1609 -1.0965
  569TMC3    H1 8444   0.474   2.527  16.061 -0.6605 -2.1782 -0.4826
  569TMC3    H2 8445   0.275   2.718  16.398 -1.8125 -0.1338 -1.8821
  569TMC3    C7 8446   0.399   2.779  16.174 -0.6310  0.0360 -0.0357
  569TMC3    C8 8447   0.408   2.565  16.565  0.2778  0.8999  0.1380
  569TMC3    O1 8448   0.379   2.870  16.256  0.5646 -0.1771  0.0589
  569TMC3    O2 8449   0.337   2.516  16.649 -0.5155 -0.3654  0.7836
  570TMC3    C1 8450   4.644   0.658  16.244 -0.0057  0.3324 -0.9039
  570TMC3    C2 8451   4.683   0.645  16.117 -0.1067 -0.5279 -0.7297
  570TMC3    C3 8452   0.019   0.749  16.054 -0.3826  0.6157  0.4393
  570TMC3    C4 8453   4.659   0.777  16.311  0.4649 -0.2778 -0.3069
  570TMC3    C5 8454   4.712   0.884  16.240 -0.3363  0.0901 -0.1472
  570TMC3    C6 8455   0.039   0.867  16.116 -0.4376  0.0281  0.1284
  570TMC3     C 8456   4.591   0.543  16.319  0.1748  0.1908  0.3289
  570TMC3     O 8457   4.557   0.448  16.248 -0.1132  0.8271  0.3687
  570TMC3     H 8458   4.667   0.549  16.071 -1.2618 -1.3839  1.4606
  570TMC3    H1 8459   4.630   0.794  16.414  1.4367 -1.0819  0.0925
  570TMC3    H2 8460   0.081   0.956  16.071 -0.5800 -0.3763 -0.7929
  570TMC3    C7 8461   0.006   1.011  16.305  0.1514 -0.0708  0.2656
  570TMC3    C8 8462   0.082   0.739  15.929  0.3044  0.2750  0.4734
  570TMC3    O1 8463   0.033   1.011  16.422 -0.1529 -0.5739  0.0053
  570TMC3    O2 8464   0.179   0.810  15.910  0.5229  0.3538  0.7478
  571MPD2     C 8465   2.432   2.293  16.915 -0.1455  0.4432  0.7916
  571MPD2    C1 8466   2.440   2.207  17.022  0.4991  0.1831  0.0831
  571MPD2    C2 8467   2.459   2.250  17.153 -0.4289  0.8631  0.4632
  571MPD2    C3 8468   2.467   2.393  17.175 -0.3253 -0.1924  0.2164
  571MPD2    C4 8469   2.458   2.479  17.068  0.4324  0.8453  0.4555
  571MPD2    C5 8470   2.445   2.430  16.941 -0.9235  0.2754 -0.6831
  571MPD2     H 8471   2.459   2.185  17.240 -0.0686 -0.4455 -0.5126
  571MPD2    H1 8472   2.477   2.585  17.076 -0.2127  1.0518 -0.6747
  571MPD2    H2 8473   2.411   2.250  16.817  0.4957 -0.4595  1.0542
  571MPD2    H3 8474   2.455   2.490  16.852  1.7395  0.8405  0.0074
  571MPD2     N 8475   2.491   2.449  17.302 -0.1428  0.4180  0.2032
  571MPD2    H5 8476   2.467   2.547  17.308 -0.4422  0.3248  0.5893
  571MPD2    N1 8477   2.419   2.070  16.996 -0.6924 -0.1026  0.3882
  571MPD2    H7 8478   2.396   2.052  16.899  1.5707  2.2098 -0.5919
  572TMC3    C1 8479   2.546   2.478  17.525  0.3504 -0.1218  0.0373
  572TMC3    C2 8480   2.545   2.421  17.655  0.2486  0.3966  0.7515
  572TMC3    C3 8481   2.563   2.510   0.060  0.0235  0.4079 -0.1933
  572TMC3    C4 8482   2.555   2.614  17.502  0.0013 -0.6387 -0.6576
  572TMC3    C5 8483   2.577   2.688  17.613 -0.4578 -0.5336 -0.4873
  572TMC3    C6 8484   2.583   2.641   0.038 -0.6198 -0.5123 -0.2527
  572TMC3     C 8485   2.550   2.387  17.406 -0.4263  0.5692 -0.0536
  572TMC3     O 8486   2.616   2.284  17.412  0.0833 -0.8563 -0.5003
  572TMC3     H 8487   2.524   2.316  17.668  0.2626  0.3731  0.5836
  572TMC3    H1 8488   2.575   2.655  17.404  0.1875  0.1996 -0.2681
  572TMC3    H2 8489   2.585   2.709   0.123  0.6904  1.5128 -1.9068
  572TMC3    C7 8490   2.604   2.833  17.586 -0.6964 -0.7933 -0.2815
  572TMC3    C8 8491   2.522   2.457   0.189  0.0898  0.1731  0.0610
  572TMC3    O1 8492   2.575   2.874  17.474 -0.1352 -0.2125  0.0780
  572TMC3    O2 8493   2.452   2.357   0.190 -0.1829  0.1306  0.1182
  573MPD2     C 8494   3.924   3.508   0.745  0.2678  0.6336 -0.0571
  573MPD2    C1 8495   3.937   3.375   0.783  0.3884  0.3165  0.5420
  573MPD2    C2 8496   3.862   3.277   0.712 -0.0386  0.1852 -0.0564
  573MPD2    C3 8497   3.802   3.318   0.597 -0.6306  0.5987  0.1069
  573MPD2    C4 8498   3.805   3.448   0.550 -0.4365  0.0394  0.2918
  573MPD2    C5 8499   3.851   3.544   0.632 -0.0535  0.0388 -0.4728
  573MPD2     H 8500   3.843   3.182   0.760  1.0218  1.2542  2.4579
  573MPD2    H1 8501   3.761   3.480   0.457 -2.1115 -0.2436  0.9832
  573MPD2    H2 8502   3.977   3.579   0.807 -1.4178  0.8283  1.1897
  573MPD2    H3 8503   3.842   3.648   0.600 -0.1470  1.1162  3.0126
  573MPD2     N 8504   3.713   3.233   0.526  0.0893  0.1725 -0.2904
  573MPD2    H5 8505   3.681   3.281   0.442  3.2521 -1.4929 -2.4310
  573MPD2    N1 8506   4.017   3.336   0.893 -0.1494  0.1925  0.0289
  573MPD2    H7 8507   4.071   3.415   0.926 -0.3376 -0.2430  1.3870
  574TMC3    C1 8508   3.563   3.045   0.496  0.3617 -0.4010 -0.2479
  574TMC3    C2 8509   3.464   3.137   0.497 -0.4919 -0.2530 -0.6739
  574TMC3    C3 8510   3.340   3.086   0.478  0.4446 -0.3214 -0.2145
  574TMC3    C4 8511   3.544   2.912   0.481 -0.5881 -0.5811  0.1908
  574TMC3    C5 8512   3.418   2.866   0.467 -0.3955 -0.1004  0.4504
  574TMC3    C6 8513   3.311   2.949   0.477  0.0937  0.8159  0.5369
  574TMC3     C 8514   3.695   3.096   0.543  0.6656  0.4311  0.6445
  574TMC3     O 8515   3.762   3.019   0.616  0.5072 -0.3183  0.4895
  574TMC3     H 8516   3.483   3.235   0.540 -0.7536 -0.8585  0.8197
  574TMC3    H1 8517   3.633   2.850   0.478 -0.4255 -0.4174  1.3666
  574TMC3    H2 8518   3.211   2.910   0.488  0.1828  0.5537  0.4109
  574TMC3    C7 8519   3.399   2.720   0.434 -0.0875 -0.2898 -1.0523
  574TMC3    C8 8520   3.229   3.180   0.486  0.0919 -0.1179  0.5548
  574TMC3    O1 8521   3.488   2.637   0.457 -0.2735  0.0945  0.5015
  574TMC3    O2 8522   3.123   3.129   0.522  0.3223  0.4501  0.1934
  575TMC3    C1 8523   1.026   4.077  11.253 -0.8416 -0.0158  0.5639
  575TMC3    C2 8524   0.918   4.003  11.212 -0.7183 -0.1547 -0.4355
  575TMC3    C3 8525   0.887   4.018  11.080  1.3720  1.0786  0.7871
  575TMC3    C4 8526   1.103   4.136  11.150 -0.5040 -0.1766 -0.1786
  575TMC3    C5 8527   1.063   4.148  11.021 -0.4423 -0.4274  0.2756
  575TMC3    C6 8528   0.949   4.087  10.980  0.1204  0.2727  0.1883
  575TMC3     C 8529   1.063   4.089  11.392 -0.2302  0.1473 -0.3020
  575TMC3     O 8530   0.991   4.023  11.466  0.2841  0.5751 -0.2402
  575TMC3     H 8531   0.855   3.959  11.289 -0.1679 -0.3302 -0.0902
  575TMC3    H1 8532   1.199   4.183  11.168  0.7699 -3.2771  1.2602
  575TMC3    H2 8533   0.898   4.116  10.889 -0.7183 -0.5140  0.4127
  575TMC3    C7 8534   1.153   4.207  10.921 -0.7036  0.7781 -0.0366
  575TMC3    C8 8535   0.751   3.986  11.040  0.2174  0.6758  0.3760
  575TMC3    O1 8536   1.266   4.252  10.942  0.0230  0.4855 -0.3161
  575TMC3    O2 8537   0.673   4.007  11.133 -0.1500 -0.2796  0.1903
  576MPD2     C 8538   1.140   1.119  12.974 -0.5156 -0.2984 -0.2391
  576MPD2    C1 8539   1.274   1.149  12.973 -0.0853 -0.3412  0.0200
  576MPD2    C2 8540   1.324   1.227  13.077 -0.2643  0.0505  0.3969
  576MPD2    C3 8541   1.249   1.258  13.189  0.7073 -0.8140  0.0761
  576MPD2    C4 8542   1.113   1.218  13.193  0.2610  0.3712 -0.1234
  576MPD2    C5 8543   1.068   1.153  13.083 -0.0819 -0.6512  0.0302
  576MPD2     H 8544   1.424   1.267  13.067  0.3023 -0.6736  3.4693
  576MPD2    H1 8545   1.053   1.234  13.282  0.8616 -0.3290  0.4057
  576MPD2    H2 8546   1.093   1.071  12.889  0.8464  1.3022 -1.9126
  576MPD2    H3 8547   0.963   1.124  13.080 -0.6908  1.6300 -0.4051
  576MPD2     N 8548   1.311   1.330  13.299  0.2765 -0.2020  0.2253
  576MPD2    H5 8549   1.404   1.368  13.280 -0.6678  2.0099 -0.0758
  576MPD2    N1 8550   1.359   1.135  12.860  0.8473  0.0755  0.3487
  576MPD2    H7 8551   1.449   1.182  12.857 -0.4959  2.5763 -1.2738
  577TMC3    C1 8552   1.418   1.062  12.651 -0.1129  0.1066 -0.5692
  577TMC3    C2 8553   1.468   0.953  12.587 -0.4076 -0.3504  0.0274
  577TMC3    C3 8554   1.573   0.978  12.505  0.3058 -0.2330  0.0272
  577TMC3    C4 8555   1.437   1.195  12.623  0.1161 -0.0221 -0.4320
  577TMC3    C5 8556   1.529   1.215  12.523 -0.0531  0.1333  0.1529
  577TMC3    C6 8557   1.595   1.109  12.462 -0.1086 -0.1117  0.2970
  577TMC3     C 8558   1.325   1.043  12.759 -0.4381  0.9694 -0.3144
  577TMC3     O 8559   1.271   0.937  12.767  0.0564 -0.2848 -0.6559
  577TMC3     H 8560   1.451   0.854  12.629  0.5998 -1.8627 -3.1444
  577TMC3    H1 8561   1.395   1.277  12.681 -1.5925 -0.6366 -0.7928
  577TMC3    H2 8562   1.678   1.137  12.398 -0.4323  2.2320  0.9007
  577TMC3    C7 8563   1.537   1.349  12.464  0.3682 -0.0818 -0.0213
  577TMC3    C8 8564   1.668   0.875  12.471  0.2959 -0.1905 -0.4836
  577TMC3    O1 8565   1.651   1.393  12.446 -0.0678 -0.0466  0.2273
  577TMC3    O2 8566   1.688   0.778  12.541  0.2132  0.1471  0.2648
  578MPD2     C 8567   4.382   1.621   1.271 -0.0844 -0.3730  0.2665
  578MPD2    C1 8568   4.482   1.609   1.176  0.7476  0.3613 -0.0082
  578MPD2    C2 8569   4.489   1.488   1.101  0.7435 -0.7852  0.5291
  578MPD2    C3 8570   4.407   1.384   1.127 -0.2356 -0.2172  0.3785
  578MPD2    C4 8571   4.311   1.409   1.223  0.0511  0.7096  0.4707
  578MPD2    C5 8572   4.294   1.526   1.291  0.2447  0.0408 -0.1863
  578MPD2     H 8573   4.564   1.467   1.025  0.5857 -1.3299  0.5196
  578MPD2    H1 8574   4.245   1.330   1.257  0.2674  1.2974  2.2465
  578MPD2    H2 8575   4.380   1.705   1.340  1.3423  2.0921 -2.6985
  578MPD2    H3 8576   4.214   1.541   1.363  0.0400  2.0699 -0.8282
  578MPD2     N 8577   4.422   1.273   1.050 -0.4353  0.0340 -0.3356
  578MPD2    H5 8578   4.496   1.285   0.981  0.2669  0.1923  0.4504
  578MPD2    N1 8579   4.571   1.719   1.163 -0.0679  0.1805 -0.1878
  578MPD2    H7 8580   4.555   1.801   1.220 -0.4046 -0.7824  1.1084
  579TMC3    C1 8581   4.346   1.081   0.923 -0.0365 -0.0603 -0.9637
  579TMC3    C2 8582   4.477   1.048   0.884 -0.3637 -0.5348 -0.0566
  579TMC3    C3 8583   4.495   1.006   0.758 -0.4241  0.2963 -0.1399
  579TMC3    C4 8584   4.238   1.050   0.843  0.3311  0.4387  0.5156
  579TMC3    C5 8585   4.273   1.009   0.719 -0.3172  0.1056  0.2870
  579TMC3    C6 8586   4.396   0.986   0.669 -0.2035  0.1627 -0.6930
  579TMC3     C 8587   4.322   1.178   1.032 -0.2849  0.5193  0.6793
  579TMC3     O 8588   4.211   1.181   1.074 -0.7682 -0.3437 -0.4569
  579TMC3     H 8589   4.563   1.066   0.949  0.6276  1.4306 -1.9258
  579TMC3    H1 8590   4.140   1.084   0.874  0.8537  2.7925 -0.4023
  579TMC3    H2 8591   4.420   0.965   0.566  2.3979 -0.7865  0.1030
  579TMC3    C7 8592   4.172   1.018   0.614  0.1503  0.3386  0.1166
  579TMC3    C8 8593   4.627   0.948   0.721  0.6258 -0.2378  0.4900
  579TMC3    O1 8594   4.209   1.027   0.496 -0.0339 -0.4905  0.2734
  579TMC3    O2 8595   4.631   0.896   0.611  0.9711  0.0859  0.3468
  580TMC3    C1 8596   3.773   0.170  11.923  0.1304 -0.6581  0.5594
  580TMC3    C2 8597   3.798   0.140  11.794 -0.1446 -0.1866  0.1557
  580TMC3    C3 8598   3.814   0.010  11.754 -0.1681 -1.1638  0.4505
  580TMC3    C4 8599   3.762   0.070  12.014  0.1470 -0.2343 -1.1841
  580TMC3    C5 8600   3.784   4.665  11.970 -0.1484  0.4631  0.4199
  580TMC3    C6 8601   3.813   4.634  11.841 -0.2575  0.0972  0.1772
  580TMC3     C 8602   3.857   0.274  11.982  0.6726  0.0175 -0.0115
  580TMC3     O 8603   3.861   0.379  11.915 -0.0001  0.3884 -0.3104
  580TMC3     H 8604   3.799   0.218  11.719  1.2417 -1.6160 -1.3136
  580TMC3    H1 8605   3.729   0.095  12.114 -1.9111 -1.1684 -1.6277
  580TMC3    H2 8606   3.832   4.532  11.810  0.8438  0.2627  0.3115
  580TMC3    C7 8607   3.834   4.580  12.080 -0.3147 -0.1047 -0.7306
  580TMC3    C8 8608   3.869   4.707  11.621  0.2754 -0.3871  0.2924
  580TMC3    O1 8609   3.866   4.636  12.185  0.5913 -0.1197  0.0576
  580TMC3    O2 8610   3.869   4.596  11.572 -0.7145 -0.4913  0.6781
  581MPD2     C 8611   1.831   4.204  14.849 -0.1814 -0.1226  0.1220
  581MPD2    C1 8612   1.821   4.311  14.927 -0.0009 -0.1702  0.1214
  581MPD2    C2 8613   1.737   4.420  14.895  0.4118 -0.1425  0.0901
  581MPD2    C3 8614   1.659   4.418  14.785 -0.3287  0.2749 -0.5269
  581MPD2    C4 8615   1.671   4.307  14.705 -0.0454 -0.2033 -1.5748
  581MPD2    C5 8616   1.751   4.200  14.735 -0.3379 -0.1170  0.3669
  581MPD2     H 8617   1.717   4.508  14.956  1.0861 -0.8248  1.2817
  581MPD2    H1 8618   1.605   4.290  14.621  0.9873  0.7121 -2.5732
  581MPD2    H2 8619   1.901   4.125  14.874  1.6639  0.3066 -3.7270
  581MPD2    H3 8620   1.748   4.119  14.663 -0.1480 -0.4995  0.7847
  581MPD2     N 8621   1.551   4.509  14.761  0.0255 -0.1933  0.9691
  581MPD2    H5 8622   1.548   4.592  14.819 -1.3156  0.4198  0.0049
  581MPD2    N1 8623   1.900   4.306  15.048  0.1425 -0.1977 -0.2838
  581MPD2    H7 8624   1.960   4.223  15.051 -0.7146 -0.8526 -1.5566
  582TMC3    C1 8625   1.956   4.317  15.280 -0.0548 -0.5902  0.7604
  582TMC3    C2 8626   1.901   4.355  15.401  0.8563  0.3912  0.2130
  582TMC3    C3 8627   1.917   4.275  15.511 -0.0156 -0.2650  0.1212
  582TMC3    C4 8628   2.012   4.192  15.273 -0.1411 -0.0243 -0.0961
  582TMC3    C5 8629   2.000   4.109  15.380 -0.0736 -0.1462  0.1039
  582TMC3    C6 8630   1.962   4.146  15.506  0.2391  0.4892 -0.0728
  582TMC3     C 8631   1.892   4.377  15.164  0.2685  0.0299  0.0348
  582TMC3     O 8632   1.791   4.440  15.194 -0.5346  0.5006  0.0979
  582TMC3     H 8633   1.849   4.450  15.409 -3.5749 -1.9161 -1.4705
  582TMC3    H1 8634   2.059   4.153  15.183  2.2713  0.6123  0.8909
  582TMC3    H2 8635   1.958   4.087  15.598  0.7239  0.5492 -0.0175
  582TMC3    C7 8636   2.018   3.966  15.366  0.5856  0.0816 -0.4861
  582TMC3    C8 8637   1.888   4.337  15.643 -0.3637 -0.4992 -0.0958
  582TMC3    O1 8638   2.082   3.916  15.457 -0.9441 -0.0497  0.0534
  582TMC3    O2 8639   1.823   4.441  15.643 -0.3833 -0.8183 -1.0966
  583MPD2     C 8640   1.461   1.338  16.086  0.0165  0.8481  0.6177
  583MPD2    C1 8641   1.575   1.419  16.072 -0.7793 -0.1431  0.5690
  583MPD2    C2 8642   1.609   1.508  16.175 -0.1207  0.0707 -0.4977
  583MPD2    C3 8643   1.514   1.520  16.280  0.7130  0.3388  0.1494
  583MPD2    C4 8644   1.402   1.441  16.296  0.6397  0.9949 -0.4097
  583MPD2    C5 8645   1.380   1.349  16.194  0.4724 -0.0986  0.6494
  583MPD2     H 8646   1.704   1.558  16.187  0.3060 -0.5868 -1.1587
  583MPD2    H1 8647   1.340   1.442  16.385 -0.5840 -2.2901 -1.2124
  583MPD2    H2 8648   1.439   1.260  16.014  0.8145  1.1087  0.0853
  583MPD2    H3 8649   1.296   1.281  16.206  1.7102 -1.8662 -0.8019
  583MPD2     N 8650   1.544   1.618  16.384  0.6363 -0.6099 -0.3332
  583MPD2    H5 8651   1.630   1.668  16.360 -0.1451  0.4716 -0.8858
  583MPD2    N1 8652   1.678   1.401  15.980 -0.3054 -0.5747 -0.3045
  583MPD2    H7 8653   1.763   1.457  15.984 -1.0260  0.4104  1.0324
  584TMC3    C1 8654   1.548   1.730  16.601 -0.9296 -0.1068 -0.7154
  584TMC3    C2 8655   1.637   1.823  16.558 -0.2444 -0.5825  0.0730
  584TMC3    C3 8656   1.720   1.874  16.656 -0.5738  0.4588 -0.1949
  584TMC3    C4 8657   1.540   1.685  16.728  0.1523 -0.0498 -0.3968
  584TMC3    C5 8658   1.609   1.751  16.829 -0.4983  0.1183  0.1173
  584TMC3    C6 8659   1.704   1.844  16.789 -0.1955  0.3806 -0.3411
  584TMC3     C 8660   1.482   1.638  16.507 -0.4434  0.5863  0.3785
  584TMC3     O 8661   1.381   1.582  16.547  0.0644  0.8808  0.2868
  584TMC3     H 8662   1.650   1.855  16.455  2.5011 -1.1340  0.2497
  584TMC3    H1 8663   1.469   1.607  16.754 -1.0125  1.4530  0.9466
  584TMC3    H2 8664   1.778   1.886  16.856 -1.8086 -0.5664  2.0416
  584TMC3    C7 8665   1.643   1.675  16.951 -0.0643 -0.2810 -0.9706
  584TMC3    C8 8666   1.832   1.951  16.616  0.3007 -0.2304  0.5244
  584TMC3    O1 8667   1.720   1.728  17.029 -1.1084  0.0413 -0.0637
  584TMC3    O2 8668   1.869   1.924  16.503  0.1673 -0.3311 -0.2504
  585MPD2     C 8669   1.362   0.758   0.843 -0.3778  0.5062  0.1552
  585MPD2    C1 8670   1.414   0.776   0.719  0.8396 -0.6259  0.0260
  585MPD2    C2 8671   1.379   0.695   0.612  0.2599 -0.6684  0.4540
  585MPD2    C3 8672   1.272   0.613   0.637 -0.2157  0.0622 -0.2741
  585MPD2    C4 8673   1.202   0.607   0.753 -0.0401 -0.1605  0.4229
  585MPD2    C5 8674   1.254   0.671   0.868  0.1013 -0.2012 -1.3599
  585MPD2     H 8675   1.420   0.714   0.514  2.7763  0.5962  1.7376
  585MPD2    H1 8676   1.124   0.533   0.752 -0.7164  0.5571 -0.3942
  585MPD2    H2 8677   1.408   0.803   0.930  1.7665 -2.4315  0.5312
  585MPD2    H3 8678   1.214   0.658   0.968 -1.8035 -0.9365 -2.2250
  585MPD2     N 8679   1.212   0.550   0.524  0.0241  0.2414  0.0434
  585MPD2    H5 8680   1.117   0.517   0.536  0.0597 -0.3539 -1.2350
  585MPD2    N1 8681   1.511   0.877   0.697 -0.3000  0.0557 -0.2568
  585MPD2    H7 8682   1.539   0.938   0.773  1.7621 -0.8331 -0.3070
  586TMC3    C1 8683   1.163   0.493   0.301 -0.0495  0.1308 -0.6664
  586TMC3    C2 8684   1.213   0.488   0.175  0.4376 -0.1562 -0.6566
  586TMC3    C3 8685   1.118   0.489   0.076 -0.3192  0.0272 -0.3988
  586TMC3    C4 8686   1.031   0.497   0.328 -0.2372 -0.1069 -0.2148
  586TMC3    C5 8687   0.933   0.494   0.231 -0.0414  0.1343  0.0670
  586TMC3    C6 8688   0.983   0.483   0.105 -0.4794 -0.0879 -0.1410
  586TMC3     C 8689   1.266   0.528   0.403 -0.3968 -0.0654  0.9150
  586TMC3     O 8690   1.377   0.551   0.366  0.3462  0.3902  0.3172
  586TMC3     H 8691   1.319   0.469   0.164  0.4760 -0.0056 -0.5422
  586TMC3    H1 8692   1.000   0.494   0.431 -1.8842 -0.6237 -0.7239
  586TMC3    H2 8693   0.911   0.467   0.025 -0.2332  0.7450 -0.5366
  586TMC3    C7 8694   0.795   0.468   0.256 -0.0086  0.4136 -0.0959
  586TMC3    C8 8695   1.163   0.457  17.641 -0.0809  0.6423 -0.4014
  586TMC3    O1 8696   0.729   0.437   0.158 -0.1833 -0.4415 -0.6138
  586TMC3    O2 8697   1.270   0.407  17.618  0.0626  0.3995 -0.3931
  587TMC3    C1 8698   3.352   4.012  17.150 -0.1848  0.4902  0.6046
  587TMC3    C2 8699   3.317   4.084  17.039 -0.3349 -0.4186 -0.7652
  587TMC3    C3 8700   3.410   4.110  16.945 -0.1621  0.4483 -0.1471
  587TMC3    C4 8701   3.482   3.964  17.153  0.1297 -0.0768  0.2421
  587TMC3    C5 8702   3.575   3.999  17.058  1.5075 -0.0328  0.7955
  587TMC3    C6 8703   3.539   4.073  16.952  0.0939  0.1141  0.1237
  587TMC3     C 8704   3.259   3.941  17.234  0.2137  0.3456  0.1356
  587TMC3     O 8705   3.291   3.827  17.269 -0.5805 -0.3182  0.1512
  587TMC3     H 8706   3.213   4.094  17.008 -0.2457  0.5334 -0.7504
  587TMC3    H1 8707   3.511   3.897  17.234 -0.3868  0.5490  0.9502
  587TMC3    H2 8708   3.602   4.091  16.866 -1.2787 -2.5952 -1.4238
  587TMC3    C7 8709   3.709   3.948  17.054  0.7526 -0.0711  0.2601
  587TMC3    C8 8710   3.372   4.184  16.829  0.6214 -0.2037 -0.1639
  587TMC3    O1 8711   3.781   4.016  16.982 -0.0106  0.7399 -0.5347
  587TMC3    O2 8712   3.454   4.197  16.738  0.0875  0.5101 -0.7139
  588TMC3    C1 8713   1.493   1.541  10.142 -0.3987 -0.0813  0.1779
  588TMC3    C2 8714   1.440   1.413  10.118 -0.3233  0.5375 -0.3617
  588TMC3    C3 8715   1.475   1.311  10.204 -0.0870 -0.1534 -0.3834
  588TMC3    C4 8716   1.573   1.567  10.250 -0.1991 -0.4057  0.1913
  588TMC3    C5 8717   1.612   1.463  10.327 -0.0216 -0.5391 -0.6214
  588TMC3    C6 8718   1.571   1.334  10.302 -0.1175 -0.3029 -0.1659
  588TMC3     C 8719   1.415   1.656  10.094 -0.0238 -0.4996 -0.6672
  588TMC3     O 8720   1.336   1.630  10.002  0.3627  0.1011  0.0065
  588TMC3     H 8721   1.368   1.401  10.037 -0.7536  1.1688 -0.0838
  588TMC3    H1 8722   1.609   1.665  10.280 -0.5140  0.9405 -3.8068
  588TMC3    H2 8723   1.602   1.257  10.372 -0.8869 -1.8669 -1.5631
  588TMC3    C7 8724   1.638   1.490  10.462  0.9981 -0.9800  0.2427
  588TMC3    C8 8725   1.405   1.181  10.198 -0.2969  0.5658 -0.2098
  588TMC3    O1 8726   1.716   1.421  10.523 -0.1427 -0.1338  0.6399
  588TMC3    O2 8727   1.346   1.150  10.093  0.4130 -0.3731  0.6748
  589TMC3    C1 8728   0.173   3.764   1.215  0.1686  0.1546 -0.1808
  589TMC3    C2 8729   0.235   3.852   1.305 -0.3790 -0.0663  0.2503
  589TMC3    C3 8730   0.349   3.802   1.363  0.7771 -0.5203 -0.5906
  589TMC3    C4 8731   0.219   3.637   1.201  0.0037 -0.3605  0.2297
  589TMC3    C5 8732   0.324   3.586   1.273 -1.2118 -0.2536 -0.6059
  589TMC3    C6 8733   0.394   3.672   1.356  0.1368  0.8998  0.7805
  589TMC3     C 8734   0.069   3.815   1.125 -0.6504 -0.0718 -0.5781
  589TMC3     O 8735   0.037   3.744   1.029 -0.3062 -0.5029  0.3222
  589TMC3     H 8736   0.204   3.954   1.322  0.3337  0.3834 -1.1020
  589TMC3    H1 8737   0.156   3.571   1.141 -1.0817  2.1321 -1.4092
  589TMC3    H2 8738   0.467   3.632   1.425 -0.8448  0.0632  1.3264
  589TMC3    C7 8739   0.399   3.480   1.209  0.6377 -0.4910  0.7448
  589TMC3    C8 8740   0.432   3.909   1.434 -0.2612 -0.8112  0.1259
  589TMC3    O1 8741   0.369   3.451   1.094  0.3467 -0.2258  0.0660
  589TMC3    O2 8742   0.372   4.012   1.470  0.6901  0.2565  0.3243
  590MPD2     C 8743   4.014   2.348  16.735  0.5188  0.4842 -0.1295
  590MPD2    C1 8744   4.063   2.467  16.681 -0.5011  0.2654 -0.0890
  590MPD2    C2 8745   4.200   2.487  16.679 -0.1779 -0.3982  0.1401
  590MPD2    C3 8746   4.285   2.386  16.718 -0.3032  0.4380  0.1152
  590MPD2    C4 8747   4.239   2.271  16.767 -0.3245 -0.6083  0.0219
  590MPD2    C5 8748   4.100   2.257  16.780  0.3218 -0.0918 -0.4916
  590MPD2     H 8749   4.252   2.571  16.634 -0.5913  0.2201  0.8150
  590MPD2    H1 8750   4.295   2.179  16.785 -2.9413 -1.7539  2.3698
  590MPD2    H2 8751   3.910   2.325  16.756  1.2564 -2.6361  0.1641
  590MPD2    H3 8752   4.064   2.157  16.801 -0.3183  0.8583  2.9272
  590MPD2     N 8753   4.424   2.404  16.691 -0.4164  0.0552 -0.0915
  590MPD2    H5 8754   4.449   2.496  16.655  0.9043 -0.2696 -0.0312
  590MPD2    N1 8755   3.974   2.556  16.618 -0.3275 -0.2324 -0.8882
  590MPD2    H7 8756   3.877   2.528  16.609 -0.3806 -0.8395  1.5774
  591TMC3    C1 8757   4.644   2.361  16.653 -0.0537  0.4211 -1.3527
  591TMC3    C2 8758   4.711   2.294  16.563 -0.5547 -0.3748  0.0410
  591TMC3    C3 8759   0.045   2.349  16.452  0.2347  0.2625  0.2615
  591TMC3    C4 8760   4.638   2.497  16.641 -0.2605 -0.0475 -0.2984
  591TMC3    C5 8761   4.682   2.554  16.528 -1.0800  0.4182 -0.2050
  591TMC3    C6 8762   0.028   2.483  16.431 -0.2073  0.4610 -0.3202
  591TMC3     C 8763   4.521   2.302  16.687 -0.2307 -0.1642 -0.1110
  591TMC3     O 8764   4.503   2.178  16.688 -0.1530 -0.1408  0.0945
  591TMC3     H 8765   4.712   2.185  16.568 -0.6958 -0.4022 -0.4951
  591TMC3    H1 8766   4.605   2.564  16.720 -1.6714 -0.3588 -0.6414
  591TMC3    H2 8767   0.071   2.532  16.345 -1.7148 -1.6079 -2.2297
  591TMC3    C7 8768   4.581   2.651  16.479  0.3044 -0.4413  0.5220
  591TMC3    C8 8769   0.106   2.264  16.354  0.3253 -0.0005 -0.2973
  591TMC3    O1 8770   4.474   2.649  16.534  0.0704 -0.2097 -0.0228
  591TMC3    O2 8771   0.147   2.158  16.396  0.4667 -0.4889 -0.4463
  592MPD2     C 8772   0.030   4.352  11.919 -0.7188 -0.6040 -0.3330
  592MPD2    C1 8773   0.056   4.353  12.053  0.5102 -0.3402  0.3605
  592MPD2    C2 8774   0.031   4.247  12.139  0.3866  0.4245 -0.2002
  592MPD2    C3 8775   4.699   4.135  12.089 -0.0892  0.2204 -0.2575
  592MPD2    C4 8776   4.660   4.137  11.954  0.2284  0.0250  0.1737
  592MPD2    C5 8777   4.687   4.247  11.877  0.4773  0.6966  0.5931
  592MPD2     H 8778   0.059   4.247  12.244  2.5071 -2.1812 -0.7479
  592MPD2    H1 8779   4.615   4.054  11.901 -1.7743  0.6132  0.9833
  592MPD2    H2 8780   0.063   4.430  11.851 -1.7114  0.1067  0.0004
  592MPD2    H3 8781   4.648   4.244  11.776  0.4155  1.7627  0.5842
  592MPD2     N 8782   4.665   4.031  12.182  0.2628  0.4947 -0.1252
  592MPD2    H5 8783   4.710   4.036  12.273 -0.9740 -1.3551  0.6034
  592MPD2    N1 8784   0.127   4.472  12.090  0.1912 -0.4502 -0.7868
  592MPD2    H7 8785   0.156   4.533  12.015 -2.1598  1.6229 -0.0147
  593TMC3    C1 8786   0.259   4.619  12.217  0.5537 -0.2267  0.2880
  593TMC3    C2 8787   0.283   4.675  12.341  1.2410  0.1143  0.4614
  593TMC3    C3 8788   0.360   0.064  12.347  0.0790  0.1975  0.4527
  593TMC3    C4 8789   0.341   4.650  12.112  0.3118  0.7127  0.0680
  593TMC3    C5 8790   0.419   0.038  12.127  0.5358  0.3714 -0.3005
  593TMC3    C6 8791   0.433   0.108  12.242 -0.0938 -0.4078 -0.7944
  593TMC3     C 8792   0.160   4.513  12.217 -0.1406  0.0585 -0.5193
  593TMC3     O 8793   0.145   4.457  12.325  0.1805  0.2436 -0.0994
  593TMC3     H 8794   0.226   4.640  12.426  1.5061  0.4085  0.7570
  593TMC3    H1 8795   0.352   4.597  12.018  1.8809 -2.7299  2.1890
  593TMC3    H2 8796   0.460   0.213  12.238  3.5870 -1.2079  3.1713
  593TMC3    C7 8797   0.506   0.091  12.022  0.1706 -0.2388 -0.1697
  593TMC3    C8 8798   0.361   0.131  12.475 -0.1850  0.7041  0.0539
  593TMC3    O1 8799   0.593   0.170  12.050  0.3477  0.1119 -0.0728
  593TMC3    O2 8800   0.256   0.144  12.537  0.2849  0.1757 -0.6004
  594MPD2     C 8801   3.428   2.920  14.207 -0.6230 -0.7712 -0.2294
  594MPD2    C1 8802   3.395   2.971  14.329 -0.4263  0.0245  0.4351
  594MPD2    C2 8803   3.496   3.020  14.411  0.5457 -0.0820  0.4548
  594MPD2    C3 8804   3.630   3.013  14.375  0.3950 -0.4585 -0.4249
  594MPD2    C4 8805   3.661   2.961  14.251  0.0691 -0.5395 -0.1065
  594MPD2    C5 8806   3.561   2.908  14.170  0.0139  0.4059 -0.1318
  594MPD2     H 8807   3.476   3.070  14.505 -2.0681  1.7128 -1.0329
  594MPD2    H1 8808   3.761   2.958  14.209 -0.3482 -1.9267 -1.0140
  594MPD2    H2 8809   3.357   2.888  14.132 -0.6266 -0.5750 -0.3083
  594MPD2    H3 8810   3.582   2.869  14.071 -1.1825  0.0682 -0.2516
  594MPD2     N 8811   3.727   3.059  14.463  0.3468  0.1576  0.1705
  594MPD2    H5 8812   3.703   3.096  14.554  0.2414 -2.0911  1.0369
  594MPD2    N1 8813   3.261   2.960  14.366  0.5381 -0.2159 -0.2377
  594MPD2    H7 8814   3.195   2.938  14.292  0.5973  1.0668 -0.6783
  595TMC3    C1 8815   4.141   3.252  14.581 -0.3463  1.0515  0.3171
  595TMC3    C2 8816   4.073   3.145  14.536 -0.7805 -0.2814  0.0181
  595TMC3    C3 8817   3.935   3.149  14.550 -0.5299 -0.3097  0.0411
  595TMC3    C4 8818   4.086   3.344  14.665  0.2139  0.3563  0.2772
  595TMC3    C5 8819   3.952   3.342  14.688 -0.2722 -0.7619  0.2583
  595TMC3    C6 8820   3.877   3.249  14.623  0.3758 -0.4144 -0.2223
  595TMC3     C 8821   4.285   3.264  14.554  0.0435 -0.4775 -0.2985
  595TMC3     O 8822   4.351   3.322  14.640  0.4671 -0.1865  0.0432
  595TMC3     H 8823   4.115   3.077  14.462  0.7676 -0.6206  1.2160
  595TMC3    H1 8824   4.164   3.406  14.708  0.2492  1.9731 -2.1085
  595TMC3    H2 8825   3.769   3.264  14.630  0.0855 -2.4569 -0.1990
  595TMC3    C7 8826   3.891   3.439  14.780  0.3068  0.3760 -0.2102
  595TMC3    C8 8827   3.866   3.072  14.444  0.0894 -0.4770  0.3222
  595TMC3    O1 8828   3.773   3.423  14.801 -0.5592  0.3506  0.0187
  595TMC3    O2 8829   3.927   3.026  14.348 -0.5702 -0.6044  0.4282
  596MPD2     C 8830   3.025   0.837  16.353 -0.5744  0.9177  0.3372
  596MPD2    C1 8831   2.991   0.961  16.305 -0.5675 -0.7917  0.1163
  596MPD2    C2 8832   2.934   0.975  16.180  0.1799  0.4591 -0.7800
  596MPD2    C3 8833   2.921   0.866  16.100 -0.2359  0.7651  0.4411
  596MPD2    C4 8834   2.957   0.739  16.142 -0.6171 -0.6111  0.2251
  596MPD2    C5 8835   3.012   0.726  16.270 -0.0616 -0.0008 -0.3868
  596MPD2     H 8836   2.911   1.074  16.144  0.9305  0.0970 -2.2569
  596MPD2    H1 8837   2.937   0.652  16.081  1.9958 -1.6457  0.8209
  596MPD2    H2 8838   3.059   0.816  16.453  0.4178 -1.3701 -0.5056
  596MPD2    H3 8839   3.040   0.628  16.307 -0.5028  0.3995  0.9912
  596MPD2     N 8840   2.876   0.884  15.964  0.5646 -0.5387  0.1541
  596MPD2    H5 8841   2.901   0.817  15.891  1.5116 -0.5909  0.5291
  596MPD2    N1 8842   3.026   1.079  16.378  0.1763  0.1174  0.0849
  596MPD2    H7 8843   3.009   1.171  16.339  1.0740  0.9000  1.5663
  597TMC3    C1 8844   3.148   1.211  16.537  0.1015  0.0636  0.2644
  597TMC3    C2 8845   3.253   1.225  16.618  0.4219  0.0295  0.8715
  597TMC3    C3 8846   3.287   1.346  16.671  0.1686  0.2936  0.3513
  597TMC3    C4 8847   3.076   1.322  16.497 -0.1590  0.1492 -0.0644
  597TMC3    C5 8848   3.110   1.440  16.554 -0.1255  0.3152 -0.1353
  597TMC3    C6 8849   3.214   1.453  16.644  0.7053  0.0737 -1.3758
  597TMC3     C 8850   3.111   1.078  16.486  0.1155  0.0521  0.1162
  597TMC3     O 8851   3.155   0.989  16.551 -0.3338 -0.1072  0.5335
  597TMC3     H 8852   3.307   1.138  16.655 -0.0932 -0.9707 -0.7416
  597TMC3    H1 8853   2.995   1.322  16.425 -0.3786 -0.2357  0.1850
  597TMC3    H2 8854   3.242   1.545  16.695  0.5566  0.2183 -1.5562
  597TMC3    C7 8855   3.014   1.548  16.536  0.2447  0.2932 -0.7457
  597TMC3    C8 8856   3.355   1.357  16.797 -0.7033 -0.0114  0.6916
  597TMC3    O1 8857   3.063   1.655  16.497  0.8031  0.2210 -0.4514
  597TMC3    O2 8858   3.312   1.442  16.872  0.6806  0.4190  0.3212
  598TMC3    C1 8859   0.750   2.692  15.623 -0.2690  0.1445 -0.9251
  598TMC3    C2 8860   0.665   2.583  15.623  0.4380 -0.7105  0.5332
  598TMC3    C3 8861   0.633   2.526  15.505  0.4301 -0.0031 -0.4180
  598TMC3    C4 8862   0.810   2.734  15.512  0.0237 -0.2227 -0.4332
  598TMC3    C5 8863   0.774   2.676  15.396 -0.4565 -0.9067  0.3240
  598TMC3    C6 8864   0.691   2.571  15.389 -1.0270  0.0493 -0.9229
  598TMC3     C 8865   0.784   2.759  15.745  0.3325 -0.2182 -0.0867
  598TMC3     O 8866   0.847   2.868  15.734 -0.6052  0.9602 -0.6927
  598TMC3     H 8867   0.620   2.546  15.714 -0.3635 -1.0727 -0.0144
  598TMC3    H1 8868   0.896   2.799  15.518 -0.2138  0.3532 -3.0750
  598TMC3    H2 8869   0.658   2.529  15.295  1.6548 -1.4402 -1.1873
  598TMC3    C7 8870   0.828   2.725  15.268 -0.7870  0.1275  0.0577
  598TMC3    C8 8871   0.518   2.444  15.499 -0.0955  0.2366 -0.0863
  598TMC3    O1 8872   0.810   2.651  15.173 -0.0020  0.3334 -0.7043
  598TMC3    O2 8873   0.448   2.460  15.601 -0.0051  0.0116 -0.5408
  599MPD2     C 8874   0.220   0.015  15.498 -0.6158  0.2037  0.0919
  599MPD2    C1 8875   0.340   0.048  15.563  0.6628  0.2331  0.4138
  599MPD2    C2 8876   0.339   0.117  15.682 -0.1424 -0.8842  0.2799
  599MPD2    C3 8877   0.219   0.158  15.739  0.1573  0.1427 -0.3066
  599MPD2    C4 8878   0.103   0.126  15.679  0.2577  0.2650 -0.4959
  599MPD2    C5 8879   0.104   0.057  15.561  0.4824  0.0700 -0.0139
  599MPD2     H 8880   0.427   0.139  15.740 -0.8052 -1.6941  1.6029
  599MPD2    H1 8881   0.009   0.142  15.731  0.3582 -0.7319 -0.0096
  599MPD2    H2 8882   0.219   4.693  15.401 -0.5928 -0.9942  0.6713
  599MPD2    H3 8883   0.007   0.031  15.520  0.9455 -0.8634 -0.5421
  599MPD2     N 8884   0.213   0.232  15.861 -0.5866 -0.3257 -0.3323
  599MPD2    H5 8885   0.121   0.240  15.903 -0.6491 -2.5376 -0.0517
  599MPD2    N1 8886   0.457   0.010  15.497 -0.2819 -0.4892  0.3335
  599MPD2    H7 8887   0.441   4.674  15.417  1.9871  0.9512 -1.1963
  600TMC3    C1 8888   0.270   0.324  16.071 -0.5948 -0.1818  1.1230
  600TMC3    C2 8889   0.172   0.255  16.132  0.5544 -0.4502 -0.3263
  600TMC3    C3 8890   0.137   0.296  16.261 -0.3431  0.2371 -0.3530
  600TMC3    C4 8891   0.333   0.431  16.124  0.5736 -0.6911 -0.3217
  600TMC3    C5 8892   0.296   0.473  16.248 -0.4205  0.3936  0.2121
  600TMC3    C6 8893   0.206   0.398  16.320  0.0446  0.6012 -0.6229
  600TMC3     C 8894   0.319   0.273  15.947 -0.3684 -0.2611 -1.0696
  600TMC3     O 8895   0.441   0.270  15.940  0.1107 -0.5944  0.5270
  600TMC3     H 8896   0.129   0.163  16.095 -0.1853  0.0936 -0.8016
  600TMC3    H1 8897   0.411   0.472  16.061 -1.0765  1.8113 -0.7521
  600TMC3    H2 8898   0.176   0.427  16.420  0.0898  0.1703 -0.4801
  600TMC3    C7 8899   0.359   0.594  16.301 -0.4248  0.0251 -0.4642
  600TMC3    C8 8900   0.054   0.204  16.346 -0.4747  0.2499 -0.2409
  600TMC3    O1 8901   0.314   0.644  16.402 -0.3949  0.1395  0.2859
  600TMC3    O2 8902   0.090   0.198  16.464  0.2914 -0.2387 -0.9065
  601MPD2     C 8903   2.584   3.270   0.145  0.8098  0.4194  0.5020
  601MPD2    C1 8904   2.527   3.243   0.025 -0.1916  0.3204 -0.1527
  601MPD2    C2 8905   2.546   3.116  17.674 -0.1494 -0.1255  0.6738
  601MPD2    C3 8906   2.631   3.027   0.037  0.1719  0.1338 -0.4691
  601MPD2    C4 8907   2.698   3.061   0.155  0.1754  0.4871  0.3537
  601MPD2    C5 8908   2.677   3.186   0.201 -0.1298  0.7310 -0.4578
  601MPD2     H 8909   2.497   3.082  17.583  0.4887  0.6239  0.0504
  601MPD2    H1 8910   2.774   3.005   0.208  1.7495  1.1165 -1.2411
  601MPD2    H2 8911   2.562   3.352   0.212  1.5662  1.0977 -0.0814
  601MPD2    H3 8912   2.736   3.228   0.281  2.0777  0.6276 -2.0528
  601MPD2     N 8913   2.640   2.890   0.002  0.3278  0.6940 -0.6818
  601MPD2    H5 8914   2.665   2.825   0.076 -0.0596  1.0672 -0.2258
  601MPD2    N1 8915   2.440   3.334  17.662 -0.6197 -0.0402 -0.2587
  601MPD2    H7 8916   2.402   3.304  17.573  0.1702  1.3563 -1.0543
  602TMC3    C1 8917   2.351   3.543  17.591 -0.1415 -0.5051 -0.1758
  602TMC3    C2 8918   2.381   3.678  17.575  1.4620  0.4001 -0.2827
  602TMC3    C3 8919   2.291   3.747  17.494  0.3973  0.2825 -0.0884
  602TMC3    C4 8920   2.258   3.480  17.511 -0.2739  0.5961 -0.5322
  602TMC3    C5 8921   2.180   3.552  17.426 -1.0601  0.6230 -0.2098
  602TMC3    C6 8922   2.197   3.688  17.410  1.2635 -0.2024  0.0447
  602TMC3     C 8923   2.428   3.468  17.689 -0.9250 -0.7515  0.0404
  602TMC3     O 8924   2.497   3.537   0.062  0.4074 -0.5780 -0.2214
  602TMC3     H 8925   2.457   3.720  17.640 -0.3793  0.8136  1.6058
  602TMC3    H1 8926   2.238   3.375  17.524  0.9972  0.4107 -0.0315
  602TMC3    H2 8927   2.144   3.745  17.335 -1.1030  1.1909  2.7606
  602TMC3    C7 8928   2.060   3.493  17.380 -0.0012  0.0094 -0.4722
  602TMC3    C8 8929   2.292   3.890  17.493 -0.4914 -0.4506 -0.0547
  602TMC3    O1 8930   2.050   3.373  17.363  0.2480 -0.1529 -0.4228
  602TMC3    O2 8931   2.401   3.945  17.491  0.4464  0.0971 -0.4981
  603TMC3    C1 8932   0.554   4.196  11.642  0.2570  0.2472 -0.1284
  603TMC3    C2 8933   0.593   4.128  11.754 -0.3504 -0.7033  1.0700
  603TMC3    C3 8934   0.730   4.122  11.778 -0.1255  0.7152  0.2853
  603TMC3    C4 8935   0.641   4.257  11.557 -0.6875  0.5818  0.0148
  603TMC3    C5 8936   0.768   4.252  11.589  0.5604 -0.6887  0.1032
  603TMC3    C6 8937   0.814   4.202  11.700 -0.3477  0.2054  0.4945
  603TMC3     C 8938   0.410   4.192  11.614  0.1073  1.2219  0.3598
  603TMC3     O 8939   0.344   4.116  11.683  0.1716  0.1284  0.1551
  603TMC3     H 8940   0.525   4.084  11.826 -0.2676 -0.4060  1.3319
  603TMC3    H1 8941   0.611   4.331  11.483  0.9049  1.5559  0.3372
  603TMC3    H2 8942   0.922   4.209  11.708 -0.2085  0.6022 -1.5859
  603TMC3    C7 8943   0.852   4.344  11.510  0.3076 -0.4971  0.1506
  603TMC3    C8 8944   0.771   4.069  11.910  0.7369  0.1341  0.3998
  603TMC3    O1 8945   0.950   4.392  11.570 -0.7916 -0.0453 -0.5298
  603TMC3    O2 8946   0.702   3.993  11.974 -0.0389  0.7597  0.5217
  604MPD2     C 8947   2.013   2.461  16.369 -0.6010  0.0514 -0.2833
  604MPD2    C1 8948   1.911   2.375  16.323  0.4366 -0.5238 -0.0985
  604MPD2    C2 8949   1.928   2.305  16.205 -0.2207 -0.3750 -0.7811
  604MPD2    C3 8950   2.041   2.328  16.129 -0.6142  0.5928 -0.7178
  604MPD2    C4 8951   2.151   2.403  16.187 -0.2584  0.1748 -0.1577
  604MPD2    C5 8952   2.131   2.467  16.303  0.1513  0.7022 -0.2993
  604MPD2     H 8953   1.851   2.249  16.155 -0.6909 -1.6254  1.3305
  604MPD2    H1 8954   2.238   2.415  16.124  0.9632  0.7774  1.6512
  604MPD2    H2 8955   1.995   2.526  16.454 -1.9831 -0.1259 -0.4459
  604MPD2    H3 8956   2.207   2.533  16.343 -0.8899  0.6188  1.8156
  604MPD2     N 8957   2.049   2.281  15.998  0.1874  0.2594 -0.1341
  604MPD2    H5 8958   1.963   2.262  15.948 -0.0870  0.1400  0.3798
  604MPD2    N1 8959   1.802   2.368  16.406 -0.0254 -0.3375  0.0483
  604MPD2    H7 8960   1.809   2.421  16.492 -1.7875  1.7601 -1.1228
  605TMC3    C1 8961   1.588   2.379  16.451 -0.2094  0.3457  0.4426
  605TMC3    C2 8962   1.638   2.421  16.575 -0.5095  0.4409  0.3656
  605TMC3    C3 8963   1.587   2.536  16.638  0.1171 -0.1255 -0.5036
  605TMC3    C4 8964   1.493   2.456  16.393 -0.0716  0.2118  0.4703
  605TMC3    C5 8965   1.449   2.570  16.453 -0.4291  0.1362 -0.2323
  605TMC3    C6 8966   1.491   2.608  16.580 -0.5072 -0.0053  0.1668
  605TMC3     C 8967   1.682   2.323  16.364 -0.8570 -0.5484  0.0529
  605TMC3     O 8968   1.643   2.265  16.265 -0.2958 -0.1405 -0.1416
  605TMC3     H 8969   1.718   2.366  16.623  1.7867  1.7539 -1.9239
  605TMC3    H1 8970   1.460   2.432  16.292 -0.7198 -0.0103  0.7350
  605TMC3    H2 8971   1.452   2.696  16.630 -0.4679  0.5798 -0.8268
  605TMC3    C7 8972   1.351   2.653  16.385  0.4711 -0.2294  0.5913
  605TMC3    C8 8973   1.675   2.603  16.727 -0.0383 -1.2175  0.6199
  605TMC3    O1 8974   1.297   2.732  16.463  0.7602 -0.0621  0.0330
  605TMC3    O2 8975   1.727   2.545  16.820 -0.2359 -1.1535 -0.6299
  606TMC3    C1 8976   3.078   1.086  16.912  0.3193  0.5264 -0.3137
  606TMC3    C2 8977   3.092   1.202  16.988  0.5146  0.0739 -0.4188
  606TMC3    C3 8978   2.999   1.297  16.963  0.1441  0.0183 -0.4238
  606TMC3    C4 8979   2.981   1.053  16.824  0.1697  0.2981 -0.6894
  606TMC3    C5 8980   2.903   1.162  16.790 -0.1498 -0.0383  0.0124
  606TMC3    C6 8981   2.908   1.284  16.857 -0.1336  0.3503 -0.0613
  606TMC3     C 8982   3.179   0.989  16.944  0.0116  0.2886  0.0980
  606TMC3     O 8983   3.217   0.975  17.059 -0.2313 -0.1004  0.4782
  606TMC3     H 8984   3.177   1.217  17.054 -0.5111 -0.0344  0.9210
  606TMC3    H1 8985   2.987   0.966  16.760  0.6087  0.6392 -1.1099
  606TMC3    H2 8986   2.845   1.367  16.825  0.1796 -0.1788 -2.0191
  606TMC3    C7 8987   2.818   1.153  16.675 -0.7894  0.4681 -0.4541
  606TMC3    C8 8988   3.011   1.434  17.018  0.3114  0.4497 -1.3109
  606TMC3    O1 8989   2.805   1.256  16.613 -0.2065  0.1600 -0.6951
  606TMC3    O2 8990   2.961   1.520  16.945  0.0332 -0.2320  0.1110
  607MPD2     C 8991   0.173   3.671  11.991  0.0750 -0.0294 -0.0090
  607MPD2    C1 8992   0.195   3.729  12.116  0.3770 -0.3273  0.6153
  607MPD2    C2 8993   0.188   3.646  12.229 -0.1283  0.1388 -0.3216
  607MPD2    C3 8994   0.150   3.515  12.215  0.2419 -0.3367  0.3877
  607MPD2    C4 8995   0.122   3.466  12.093 -0.2114 -0.6122  0.0499
  607MPD2    C5 8996   0.123   3.542  11.983 -0.3627 -0.1222 -0.2751
  607MPD2     H 8997   0.196   3.679  12.332 -0.8456 -0.4060 -0.0848
  607MPD2    H1 8998   0.078   3.367  12.082  0.0869 -0.8503  1.0068
  607MPD2    H2 8999   0.180   3.738  11.906  0.5094 -0.6446 -0.4561
  607MPD2    H3 9000   0.086   3.503  11.889 -0.1819 -2.1381  0.4725
  607MPD2     N 9001   0.152   3.441  12.337  0.5229  0.3061 -0.3674
  607MPD2    H5 9002   0.172   3.495  12.421 -0.1115 -0.2470  0.1367
  607MPD2    N1 9003   0.225   3.861  12.139  0.2460  0.6730 -0.1747
  607MPD2    H7 9004   0.244   3.890  12.235 -0.1412  0.6069 -0.0785
  608TMC3    C1 9005   0.347   4.062  12.118 -0.2955  0.6420 -0.3467
  608TMC3    C2 9006   0.414   4.031  12.231 -0.0543 -0.3860  0.4090
  608TMC3    C3 9007   0.489   4.129  12.288  0.1252  0.1046  0.2167
  608TMC3    C4 9008   0.368   4.180  12.046  0.1344 -0.1284 -0.5861
  608TMC3    C5 9009   0.450   4.272  12.109 -0.3736 -0.5788  0.4494
  608TMC3    C6 9010   0.503   4.249  12.234  0.1573  0.2906 -0.4116
  608TMC3     C 9011   0.264   3.957  12.048 -0.0775 -0.0387  0.7205
  608TMC3     O 9012   0.265   3.958  11.928  0.2751  0.5718  0.1825
  608TMC3     H 9013   0.407   3.934  12.280  0.2738  0.2362  1.6653
  608TMC3    H1 9014   0.319   4.196  11.951  0.6737  0.6769 -0.7305
  608TMC3    H2 9015   0.567   4.315  12.291 -3.8257  0.6386  3.6419
  608TMC3    C7 9016   0.505   4.369  12.021  0.4586  0.0339 -0.3011
  608TMC3    C8 9017   0.532   4.118  12.430  0.2024 -0.1723  0.4939
  608TMC3    O1 9018   0.465   4.380  11.902  0.4459  0.3022 -0.0387
  608TMC3    O2 9019   0.512   4.223  12.489  0.8242  0.2554  0.5687
  609TMC3    C1 9020   3.147   3.096   9.123  0.0794  0.1960  0.2951
  609TMC3    C2 9021   3.064   3.007   9.069 -0.0304 -0.0021  0.1079
  609TMC3    C3 9022   3.115   2.909   8.980 -0.2321  0.4574 -1.0950
  609TMC3    C4 9023   3.281   3.086   9.108 -0.5861  0.7296  0.1968
  609TMC3    C5 9024   3.329   2.989   9.028 -0.0731 -0.9202  0.1339
  609TMC3    C6 9025   3.248   2.902   8.960 -1.0505  0.1863  0.1944
  609TMC3     C 9026   3.095   3.172   9.232 -0.3763 -0.2113 -0.5680
  609TMC3     O 9027   2.989   3.142   9.274 -0.5090 -0.1441 -0.5527
  609TMC3     H 9028   2.960   3.016   9.098 -0.4806  2.7465 -2.4148
  609TMC3    H1 9029   3.354   3.153   9.153 -0.9492  0.4572  1.1908
  609TMC3    H2 9030   3.302   2.838   8.890 -1.0833  0.8454 -0.4280
  609TMC3    C7 9031   3.472   3.001   8.990 -0.0805 -0.4346 -0.2679
  609TMC3    C8 9032   3.032   2.797   8.938  0.3533 -0.7580 -0.1380
  609TMC3    O1 9033   3.525   3.115   8.986  0.8150  0.5722  0.4617
  609TMC3    O2 9034   3.090   2.693   8.913 -0.1794 -0.1957 -0.3420
  610TMC3    C1 9035   0.703   3.525  12.976 -1.5895  0.5284  0.3879
  610TMC3    C2 9036   0.725   3.516  12.844 -0.0236 -0.1630 -0.0526
  610TMC3    C3 9037   0.852   3.539  12.797 -0.3686  0.5337  0.9698
  610TMC3    C4 9038   0.797   3.556  13.070  0.5201  0.0533 -0.0419
  610TMC3    C5 9039   0.920   3.579  13.016  0.8874 -0.0325  0.6451
  610TMC3    C6 9040   0.955   3.570  12.884 -0.0909  0.2885  0.3862
  610TMC3     C 9041   0.563   3.508  13.018 -0.0647  0.0887 -0.6185
  610TMC3     O 9042   0.498   3.434  12.944 -0.3491 -0.1068 -0.9377
  610TMC3     H 9043   0.654   3.470  12.776 -0.3179 -0.7160  0.6260
  610TMC3    H1 9044   0.765   3.587  13.168 -0.3736 -2.2820  0.4007
  610TMC3    H2 9045   1.056   3.591  12.849 -0.2117 -0.6794 -0.5479
  610TMC3    C7 9046   1.020   3.515  13.094  0.6350 -0.0465  0.1525
  610TMC3    C8 9047   0.842   3.614  12.670  0.7347 -0.7355 -0.0386
  610TMC3    O1 9048   1.129   3.486  13.040  0.0043 -0.0124 -0.1530
  610TMC3    O2 9049   0.907   3.719  12.668 -0.1954  0.0854  0.3822
  611MPD2     C 9050   0.180   3.984  10.399 -0.1489 -0.5197 -0.4128
  611MPD2    C1 9051   0.183   4.070  10.503 -0.4734 -0.1521 -0.1655
  611MPD2    C2 9052   0.292   4.148  10.514 -0.1199 -0.5896 -0.4400
  611MPD2    C3 9053   0.403   4.130  10.433 -0.4023 -0.2847 -0.1253
  611MPD2    C4 9054   0.399   4.043  10.325  0.1366  0.2842 -0.2903
  611MPD2    C5 9055   0.288   3.963  10.317  0.0517  0.0355 -0.8713
  611MPD2     H 9056   0.301   4.229  10.585 -1.8324  0.8363 -1.8505
  611MPD2    H1 9057   0.484   4.058  10.259  0.3278  0.6159  0.0310
  611MPD2    H2 9058   0.092   3.922  10.385 -1.4794  0.8737  1.7631
  611MPD2    H3 9059   0.262   3.905  10.229  1.6312 -1.1539 -0.5486
  611MPD2     N 9060   0.524   4.194  10.450 -0.2816 -0.3186  0.3737
  611MPD2    H5 9061   0.595   4.185  10.378 -0.1971  0.4184  0.3642
  611MPD2    N1 9062   0.075   4.078  10.590 -0.3916 -0.4354 -0.0199
  611MPD2    H7 9063   0.007   4.002  10.589  0.7540 -1.4237 -2.2736
  612TMC3    C1 9064   0.697   4.313  10.545  0.4493  0.4720 -0.3825
  612TMC3    C2 9065   0.745   4.377  10.660 -0.4195 -0.5797 -0.2087
  612TMC3    C3 9066   0.869   4.423  10.659 -0.4238  0.3553  0.2318
  612TMC3    C4 9067   0.769   4.307  10.428 -0.1816 -0.8738  0.0067
  612TMC3    C5 9068   0.896   4.366  10.436 -0.0398  0.2112  0.7116
  612TMC3    C6 9069   0.947   4.418  10.552  0.4696  0.1186 -0.5407
  612TMC3     C 9070   0.563   4.262  10.564 -0.3531 -0.4224  0.1157
  612TMC3     O 9071   0.496   4.283  10.666 -0.1734 -0.0001  0.2824
  612TMC3     H 9072   0.684   4.371  10.749  0.7959 -1.4251  0.5530
  612TMC3    H1 9073   0.732   4.246  10.347  0.1218 -0.4489 -0.4539
  612TMC3    H2 9074   1.054   4.411  10.567  0.2875  1.1361  1.2152
  612TMC3    C7 9075   0.981   4.356  10.321 -0.3786 -0.0408  0.0933
  612TMC3    C8 9076   0.935   4.472  10.784 -0.4727 -0.0856  0.5271
  612TMC3    O1 9077   0.956   4.269  10.239  0.2223  0.1398  0.3579
  612TMC3    O2 9078   1.039   4.537  10.767  0.1554 -0.3819  0.0175
  613MPD2     C 9079   4.165   1.822  15.941 -0.7190  0.1536 -0.6771
  613MPD2    C1 9080   4.145   1.785  15.809 -0.9187  0.1208  0.3005
  613MPD2    C2 9081   4.239   1.713  15.739 -0.0377 -0.1321  0.2195
  613MPD2    C3 9082   4.360   1.672  15.804 -0.1347  0.7606 -0.2127
  613MPD2    C4 9083   4.375   1.714  15.936 -0.7860  0.3598  0.1164
  613MPD2    C5 9084   4.274   1.785  16.003 -0.0895 -0.5339  0.5044
  613MPD2     H 9085   4.228   1.678  15.637  0.2034 -2.1620  0.8765
  613MPD2    H1 9086   4.465   1.694  15.994 -0.0765  0.6497 -0.8794
  613MPD2    H2 9087   4.080   1.875  15.984 -0.2256  0.4958 -0.1216
  613MPD2    H3 9088   4.281   1.812  16.108 -1.0453 -0.8815  0.6527
  613MPD2     N 9089   4.464   1.607  15.734 -0.0389 -0.2471 -0.4408
  613MPD2    H5 9090   4.446   1.604  15.634 -1.6719  0.7749 -0.1904
  613MPD2    N1 9091   4.035   1.827  15.732 -0.5362  0.3009  0.1832
  613MPD2    H7 9092   4.040   1.798  15.634 -1.0598 -1.0094  0.5331
  614TMC3    C1 9093   3.839   1.908  15.660 -0.7291 -0.0090  0.0110
  614TMC3    C2 9094   3.912   1.908  15.539  0.2298 -0.9571 -0.1958
  614TMC3    C3 9095   3.867   1.832  15.440 -0.2530 -0.4021  0.4372
  614TMC3    C4 9096   3.723   1.838  15.683  1.0654 -0.1030  0.2477
  614TMC3    C5 9097   3.685   1.757  15.576 -0.0941 -0.3814 -0.5670
  614TMC3    C6 9098   3.759   1.750  15.459 -0.2844  0.1007  0.6267
  614TMC3     C 9099   3.930   1.908  15.768 -0.8114  0.4005  0.5844
  614TMC3     O 9100   3.895   1.935  15.883  0.5525  0.1070  0.0704
  614TMC3     H 9101   4.003   1.964  15.521 -0.2653 -0.5510 -1.4239
  614TMC3    H1 9102   3.678   1.834  15.781  1.4129  2.0080  0.5098
  614TMC3    H2 9103   3.721   1.686  15.380 -0.0759  1.7457 -0.8213
  614TMC3    C7 9104   3.600   1.646  15.618  0.0363 -0.0097  0.4298
  614TMC3    C8 9105   3.987   1.768  15.388  0.3217 -0.1055 -0.2874
  614TMC3    O1 9106   3.533   1.662  15.723 -0.2711  0.3838 -0.3528
  614TMC3    O2 9107   4.057   1.731  15.480 -0.5320 -0.3472 -0.0686
  615MPD2     C 9108   3.003   2.618  16.321  0.3339 -0.2700 -0.2616
  615MPD2    C1 9109   3.033   2.673  16.197 -0.4525 -0.0804  0.1097
  615MPD2    C2 9110   2.981   2.608  16.086  0.3409 -0.0290 -0.1747
  615MPD2    C3 9111   2.897   2.505  16.093 -0.2247 -0.0477  0.5185
  615MPD2    C4 9112   2.862   2.468  16.221 -0.6494 -0.7027 -0.6233
  615MPD2    C5 9113   2.916   2.513  16.335 -0.5323 -0.0272 -0.6204
  615MPD2     H 9114   3.010   2.641  15.987 -0.2935  0.0890 -0.3229
  615MPD2    H1 9115   2.788   2.392  16.242 -1.6340  0.3358 -0.3528
  615MPD2    H2 9116   3.055   2.661  16.405  1.5808  2.1070 -2.2550
  615MPD2    H3 9117   2.886   2.472  16.430 -1.8068 -0.9572 -1.4205
  615MPD2     N 9118   2.868   2.439  15.968 -0.4974 -0.0397 -0.3913
  615MPD2    H5 9119   2.895   2.485  15.881  0.2272 -0.2995 -0.2998
  615MPD2    N1 9120   3.125   2.778  16.171  0.0311  1.0804  0.7798
  615MPD2    H7 9121   3.164   2.794  16.079  0.1316  0.4941  0.7160
  616TMC3    C1 9122   3.255   2.975  16.235 -0.2499  0.3815 -1.2530
  616TMC3    C2 9123   3.357   2.948  16.147 -0.0885 -0.1395 -0.0320
  616TMC3    C3 9124   3.420   3.065  16.108  0.4107 -0.1672  0.1132
  616TMC3    C4 9125   3.217   3.104  16.274 -0.0760  0.1867 -0.2033
  616TMC3    C5 9126   3.281   3.211  16.224 -0.0172  0.6104  0.0488
  616TMC3    C6 9127   3.387   3.191  16.149 -0.1966 -0.2211 -1.4443
  616TMC3     C 9128   3.153   2.869  16.267 -0.1187  0.0357 -0.8856
  616TMC3     O 9129   3.091   2.879  16.372 -0.1491  0.2783 -0.2920
  616TMC3     H 9130   3.385   2.848  16.117  1.4104 -0.4043  2.2372
  616TMC3    H1 9131   3.129   3.115  16.336 -0.7681 -2.1265 -0.7909
  616TMC3    H2 9132   3.451   3.274  16.124  0.8954 -0.0859  1.8875
  616TMC3    C7 9133   3.234   3.347  16.252  0.1313 -0.1687  0.4406
  616TMC3    C8 9134   3.533   3.056  16.017 -0.5749 -0.8153  0.2139
  616TMC3    O1 9135   3.307   3.437  16.205  0.0550 -0.2693  0.1563
  616TMC3    O2 9136   3.526   2.969  15.928 -0.1005 -0.0260 -0.0450
  617MPD2     C 9137   1.401   0.655  13.595 -0.1698  0.3319 -0.1224
  617MPD2    C1 9138   1.390   0.698  13.725 -0.1115 -0.1353  0.3508
  617MPD2    C2 9139   1.265   0.700  13.776 -1.0028 -0.2242 -0.1677
  617MPD2    C3 9140   1.147   0.661  13.714  0.2346  0.0456 -0.1045
  617MPD2    C4 9141   1.167   0.614  13.587  0.5704  0.0306 -0.4000
  617MPD2    C5 9142   1.292   0.613  13.525  0.0320  0.1346  0.6652
  617MPD2     H 9143   1.256   0.731  13.880  3.2329  0.4129  0.0198
  617MPD2    H1 9144   1.091   0.576  13.521 -1.4035 -0.4971  2.1773
  617MPD2    H2 9145   1.494   0.666  13.539 -1.0575 -1.5904 -1.9831
  617MPD2    H3 9146   1.306   0.585  13.421 -0.8004 -0.7325  0.7866
  617MPD2     N 9147   1.016   0.654  13.773  0.0333 -0.6591  0.9158
  617MPD2    H5 9148   0.943   0.637  13.705  0.1705  0.6732  0.4330
  617MPD2    N1 9149   1.509   0.734  13.799  0.5109 -0.0874 -0.2303
  617MPD2    H7 9150   1.601   0.734  13.755  1.2502  3.7874  1.2976
  618TMC3    C1 9151   1.646   0.803  13.964 -0.0865 -0.2499 -0.5144
  618TMC3    C2 9152   1.736   0.715  13.914 -0.2978 -0.3724 -0.0779
  618TMC3    C3 9153   1.863   0.767  13.893 -0.2452  0.3065  0.0124
  618TMC3    C4 9154   1.668   0.931  13.984 -0.0716 -0.0953  0.8864
  618TMC3    C5 9155   1.796   0.981  13.955  0.4147 -0.1453  0.2927
  618TMC3    C6 9156   1.886   0.896  13.903  0.1702 -0.3207  0.6138
  618TMC3     C 9157   1.511   0.789  13.925 -0.1620  0.3549  0.2036
  618TMC3     O 9158   1.424   0.802  14.008 -0.4112  0.3501 -0.3419
  618TMC3     H 9159   1.709   0.610  13.904  0.1958 -0.2758 -2.3946
  618TMC3    H1 9160   1.586   0.990  14.023 -0.2785  0.2718 -0.1053
  618TMC3    H2 9161   1.981   0.936  13.868 -0.5853 -0.5544 -1.7442
  618TMC3    C7 9162   1.817   1.122  13.993  0.1566  0.3438  0.1478
  618TMC3    C8 9163   1.932   0.695  13.793 -0.5526  0.5090  0.9028
  618TMC3    O1 9164   1.742   1.164  14.080 -0.0448  0.2076 -0.4410
  618TMC3    O2 9165   1.884   0.610  13.726  0.3135 -0.2733  0.3988
  619MPD2     C 9166   3.185   2.390  13.670 -0.4233  0.2019  0.1526
  619MPD2    C1 9167   3.071   2.456  13.628  0.2250 -0.2028 -0.6539
  619MPD2    C2 9168   2.951   2.387  13.639  0.1993  0.0991 -0.0438
  619MPD2    C3 9169   2.944   2.263  13.693  0.1107  0.2777 -1.0053
  619MPD2    C4 9170   3.061   2.186  13.716  0.2423  0.1314  0.0060
  619MPD2    C5 9171   3.178   2.257  13.701 -0.0504  0.2366 -0.6195
  619MPD2     H 9172   2.855   2.431  13.612  0.8932  0.0305 -2.6558
  619MPD2    H1 9173   3.057   2.083  13.752 -0.0912  0.5877  1.2462
  619MPD2    H2 9174   3.285   2.431  13.667  0.1187 -1.2110 -1.3605
  619MPD2    H3 9175   3.272   2.203  13.713  0.7938  1.2655 -2.7201
  619MPD2     N 9176   2.822   2.192  13.719 -0.6334  0.6198 -0.2486
  619MPD2    H5 9177   2.827   2.110  13.779 -2.1743  1.7342  1.4152
  619MPD2    N1 9178   3.071   2.583  13.559  0.0079 -0.1684  0.9352
  619MPD2    H7 9179   2.984   2.627  13.530  0.9249  1.4764  0.6635
  620TMC3    C1 9180   3.125   2.805  13.500  0.0967 -0.5714  0.1633
  620TMC3    C2 9181   3.031   2.799  13.391 -0.5545 -0.5668  0.7490
  620TMC3    C3 9182   2.994   2.915  13.334  0.3430 -0.1895  0.1902
  620TMC3    C4 9183   3.173   2.923  13.541 -0.2161 -0.1128 -0.5791
  620TMC3    C5 9184   3.118   3.033  13.482 -0.7383  0.4048  0.0998
  620TMC3    C6 9185   3.030   3.035  13.379 -0.6720 -0.2953  0.3057
  620TMC3     C 9186   3.175   2.677  13.560  0.6106  0.3098  1.1657
  620TMC3     O 9187   3.285   2.671  13.609 -0.2204  0.3412 -0.2458
  620TMC3     H 9188   2.978   2.709  13.360 -1.9337 -0.2168  2.1241
  620TMC3    H1 9189   3.260   2.928  13.605 -1.1149  1.5150  0.5165
  620TMC3    H2 9190   3.005   3.126  13.327 -1.8780 -1.4252 -1.0696
  620TMC3    C7 9191   3.099   3.144  13.577  0.3965 -0.6175 -0.1555
  620TMC3    C8 9192   2.853   2.925  13.323  0.3097  0.5062  0.2315
  620TMC3    O1 9193   3.164   3.167  13.678 -0.3055 -0.3594  0.3194
  620TMC3    O2 9194   2.793   3.019  13.371  0.2221 -0.0391 -0.5648
  621MPD2     C 9195   3.726   2.296  10.430  1.3921 -0.3620  0.1042
  621MPD2    C1 9196   3.684   2.243  10.312 -0.9245 -0.2790 -0.2575
  621MPD2    C2 9197   3.651   2.328  10.204  0.1334  0.0275  0.2297
  621MPD2    C3 9198   3.682   2.462  10.212 -0.5014 -0.0103 -0.1017
  621MPD2    C4 9199   3.730   2.516  10.328  0.6172 -0.1526  0.3167
  621MPD2    C5 9200   3.750   2.437  10.438  0.2813  0.0932 -0.5695
  621MPD2     H 9201   3.609   2.277  10.118  0.5094  0.1119 -0.0069
  621MPD2    H1 9202   3.750   2.622  10.330 -0.1639 -0.0074  0.5318
  621MPD2    H2 9203   3.742   2.230  10.514 -0.8848  1.9433  2.3423
  621MPD2    H3 9204   3.804   2.484  10.520 -2.2914 -0.5118  1.4634
  621MPD2     N 9205   3.651   2.545  10.099  0.3642 -0.6925  0.2299
  621MPD2    H5 9206   3.611   2.513  10.012  0.8982  0.2455 -0.3655
  621MPD2    N1 9207   3.673   2.107  10.286  0.1727 -1.0626 -0.3564
  621MPD2    H7 9208   3.644   2.095  10.190  0.0729 -1.7722 -0.2396
  622TMC3    C1 9209   3.639   1.883  10.313  0.4566 -0.0912 -0.3755
  622TMC3    C2 9210   3.560   1.799  10.383  0.5807  0.8874  0.6411
  622TMC3    C3 9211   3.543   1.680  10.330  0.9965 -0.4585  0.2168
  622TMC3    C4 9212   3.716   1.858  10.208 -0.3201  0.1243  0.1325
  622TMC3    C5 9213   3.704   1.731  10.163 -0.1133 -0.1334 -0.2539
  622TMC3    C6 9214   3.613   1.638  10.219  0.2369 -1.2084 -0.2582
  622TMC3     C 9215   3.668   2.005  10.379 -0.3346 -0.4775  0.1934
  622TMC3     O 9216   3.652   2.025  10.498  0.0464 -0.3965 -0.3929
  622TMC3     H 9217   3.518   1.838  10.475  0.6285 -0.1541  1.1062
  622TMC3    H1 9218   3.779   1.930  10.157  0.0184  0.0164  0.3921
  622TMC3    H2 9219   3.599   1.537  10.182 -0.3075 -0.9573 -0.7341
  622TMC3    C7 9220   3.742   1.702  10.023 -0.0261  0.0418  0.3282
  622TMC3    C8 9221   3.416   1.618  10.350  0.4098  0.4909  0.2958
  622TMC3    O1 9222   3.769   1.587  10.000  0.9324  0.4337  0.0920
  622TMC3    O2 9223   3.394   1.504  10.308  0.2459  0.0278 -0.2749
  623MPD2     C 9224   1.666   3.567  15.716  0.4693  0.1179 -0.4446
  623MPD2    C1 9225   1.717   3.437  15.746  0.6743  0.4505  0.1820
  623MPD2    C2 9226   1.777   3.410  15.859 -0.2532 -0.4462  1.0494
  623MPD2    C3 9227   1.797   3.502  15.957 -0.3035  0.7290  0.7893
  623MPD2    C4 9228   1.758   3.634  15.934  0.0784  0.0173 -0.0489
  623MPD2    C5 9229   1.694   3.660  15.811  0.7927 -0.9642  0.7162
  623MPD2     H 9230   1.823   3.312  15.863  1.4470  0.3535  1.0822
  623MPD2    H1 9231   1.759   3.713  16.009  1.6139 -1.2861  1.2895
  623MPD2    H2 9232   1.599   3.578  15.632  0.4100 -1.5811 -0.6159
  623MPD2    H3 9233   1.635   3.750  15.800  1.7870 -0.6259 -1.8939
  623MPD2     N 9234   1.857   3.455  16.077 -0.3640 -0.1633  0.7292
  623MPD2    H5 9235   1.885   3.358  16.074  0.2024  0.1747 -4.3439
  623MPD2    N1 9236   1.685   3.331  15.662 -0.8633  0.2461  0.6033
  623MPD2    H7 9237   1.694   3.242  15.711 -0.6893 -0.8292 -1.3836
  624TMC3    C1 9238   2.163   3.431  16.423 -0.4527 -0.8683  0.0807
  624TMC3    C2 9239   2.111   3.315  16.470 -0.3530 -0.0360  0.2167
  624TMC3    C3 9240   1.997   3.259  16.416  0.4058 -0.1164 -0.4097
  624TMC3    C4 9241   2.092   3.503  16.328 -0.9697 -0.8284 -0.2886
  624TMC3    C5 9242   1.986   3.443  16.271  0.4119 -0.0031  0.1427
  624TMC3    C6 9243   1.933   3.325  16.313  0.2373 -0.1606  0.2565
  624TMC3     C 9244   2.284   3.477  16.483 -0.1073 -0.0615 -0.0585
  624TMC3     O 9245   2.346   3.397  16.551  0.0289  0.3153  0.0197
  624TMC3     H 9246   2.162   3.257  16.546 -0.8823  0.3909  0.9023
  624TMC3    H1 9247   2.128   3.600  16.295  1.8968 -0.9082  2.6311
  624TMC3    H2 9248   1.855   3.274  16.257 -0.9594 -0.9263  2.6437
  624TMC3    C7 9249   1.916   3.532  16.173 -0.6356 -0.1484 -0.5259
  624TMC3    C8 9250   1.924   3.139  16.474  0.2959  0.0881  1.6989
  624TMC3    O1 9251   1.908   3.651  16.197  0.0011 -0.3561 -0.1066
  624TMC3    O2 9252   1.858   3.066  16.399  0.2909 -0.3430 -0.5037
  625MPD2     C 9253   2.492   4.312   0.452  0.0191 -0.3451  0.6670
  625MPD2    C1 9254   2.441   4.230   0.557  0.2275 -0.6834  0.2127
  625MPD2    C2 9255   2.514   4.217   0.671  0.3593 -0.2727 -0.3013
  625MPD2    C3 9256   2.633   4.278   0.683 -0.0690 -0.4041 -0.9878
  625MPD2    C4 9257   2.686   4.343   0.578 -0.3204 -0.5393 -0.1949
  625MPD2    C5 9258   2.618   4.365   0.463 -0.1367  0.1621 -0.3344
  625MPD2     H 9259   2.467   4.171   0.757  0.3125 -0.7471 -0.5761
  625MPD2    H1 9260   2.779   4.398   0.581  0.5608 -2.0135 -0.2567
  625MPD2    H2 9261   2.442   4.327   0.358  2.0562  1.6943 -0.0857
  625MPD2    H3 9262   2.660   4.430   0.388 -2.8090  1.4431 -0.7032
  625MPD2     N 9263   2.698   4.277   0.808  0.2535 -0.3004  0.1769
  625MPD2    H5 9264   2.651   4.230   0.885 -0.8770  0.0619 -0.2860
  625MPD2    N1 9265   2.309   4.185   0.563 -0.4757 -0.3673  0.4862
  625MPD2    H7 9266   2.294   4.118   0.638 -0.8161  0.0807  0.8123
  626TMC3    C1 9267   2.073   4.159   0.491 -0.1623  0.1375  0.2558
  626TMC3    C2 9268   1.987   4.184   0.385  0.3177 -0.0801  0.1841
  626TMC3    C3 9269   1.860   4.211   0.418  0.0065 -0.3423 -0.5985
  626TMC3    C4 9270   2.032   4.169   0.621 -0.1849 -0.3630 -0.3094
  626TMC3    C5 9271   1.899   4.191   0.642  0.5738 -0.1978 -0.1015
  626TMC3    C6 9272   1.808   4.220   0.547 -0.1367 -0.5027  0.4695
  626TMC3     C 9273   2.214   4.210   0.465  0.0014 -0.3364  0.2135
  626TMC3     O 9274   2.230   4.277   0.359 -0.0725  0.5580  0.0231
  626TMC3     H 9275   2.015   4.203   0.282  1.2460 -1.3592  0.1956
  626TMC3    H1 9276   2.096   4.139   0.703 -0.3771  0.3124  0.0761
  626TMC3    H2 9277   1.704   4.251   0.551  0.0195  0.4865 -3.6127
  626TMC3    C7 9278   1.853   4.214   0.779  0.2864  0.2312 -0.0941
  626TMC3    C8 9279   1.779   4.270   0.320 -0.2700  1.1326  0.3909
  626TMC3    O1 9280   1.913   4.163   0.878  0.0455  0.4960 -0.0676
  626TMC3    O2 9281   1.837   4.351   0.250  0.1316 -0.5264  0.1823
  627MPD2     C 9282   0.729   4.641  14.513 -0.0678 -0.0948  0.3918
  627MPD2    C1 9283   0.817   4.538  14.510  0.2409  0.6505 -0.8651
  627MPD2    C2 9284   0.767   4.419  14.469  0.9700  0.1345  0.0555
  627MPD2    C3 9285   0.633   4.404  14.423  0.5528  0.1876  0.5810
  627MPD2    C4 9286   0.552   4.513  14.423 -0.1334 -0.1225 -0.2220
  627MPD2    C5 9287   0.603   4.637  14.463  0.5719 -0.8516 -0.7450
  627MPD2     H 9288   0.831   4.332  14.464  1.4094  0.4472  0.3002
  627MPD2    H1 9289   0.449   4.508  14.389 -0.3569 -1.0718  0.5815
  627MPD2    H2 9290   0.760   0.008  14.560 -1.7085  0.4334  0.4575
  627MPD2    H3 9291   0.535   4.722  14.466  0.0260 -1.3034 -0.4237
  627MPD2     N 9292   0.572   4.281  14.381 -0.1294  0.0957 -0.0698
  627MPD2    H5 9293   0.478   4.276  14.344 -0.5449 -4.2394  1.5440
  627MPD2    N1 9294   0.948   4.546  14.571 -0.6043 -0.2059 -0.3655
  627MPD2    H7 9295   0.987   4.454  14.589 -0.4665 -0.2617 -0.9335
  628TMC3    C1 9296   1.123   4.657  14.690 -0.5581 -0.3902  0.3497
  628TMC3    C2 9297   1.223   4.572  14.648 -0.0992  0.5529  0.1540
  628TMC3    C3 9298   1.350   4.598  14.688  0.0427 -0.1138 -0.3658
  628TMC3    C4 9299   1.148   0.050  14.755  0.1727 -0.4589  0.6788
  628TMC3    C5 9300   1.281   0.082  14.773 -0.2835  0.0777 -0.8232
  628TMC3    C6 9301   1.381   4.719  14.747 -0.3547 -0.0634 -0.3180
  628TMC3     C 9302   1.006   4.666  14.610 -0.8518 -0.3304  0.0892
  628TMC3     O 9303   0.983   0.062  14.584  0.3971  0.0265  0.2122
  628TMC3     H 9304   1.200   4.485  14.588  1.1970 -0.0528  0.5228
  628TMC3    H1 9305   1.065   0.101  14.804 -0.2825 -0.7939  0.2636
  628TMC3    H2 9306   1.484   0.025  14.752 -1.8886  4.8798  0.1269
  628TMC3    C7 9307   1.310   0.202  14.696 -0.1145  0.2744 -0.8405
  628TMC3    C8 9308   1.448   4.495  14.672 -0.3196 -0.9661 -0.5971
  628TMC3    O1 9309   1.424   0.241  14.677 -0.6208 -0.5587  0.1682
  628TMC3    O2 9310   1.417   4.396  14.610 -0.3657  0.1295 -0.1206
  629MPD2     C 9311   4.030   3.125  15.890 -0.0853  0.1195 -0.6446
  629MPD2    C1 9312   4.007   3.156  16.027  0.7524  0.9032  1.1508
  629MPD2    C2 9313   3.883   3.167  16.082  0.0711  0.5211  0.4166
  629MPD2    C3 9314   3.775   3.128  16.009  0.2238  0.0960 -0.4236
  629MPD2    C4 9315   3.793   3.100  15.879  0.3008 -0.7584  0.3828
  629MPD2    C5 9316   3.913   3.094  15.817  0.1566 -0.1272 -0.2706
  629MPD2     H 9317   3.855   3.195  16.183  2.5071  0.3567  1.1559
  629MPD2    H1 9318   3.705   3.080  15.820  0.2016 -0.5664  0.4685
  629MPD2    H2 9319   4.127   3.103  15.846  1.4159  0.7806  2.3270
  629MPD2    H3 9320   3.916   3.059  15.715 -1.4476  0.1657 -0.4199
  629MPD2     N 9321   3.645   3.117  16.072 -0.0832  0.0358  0.1000
  629MPD2    H5 9322   3.626   3.141  16.169 -0.0382 -0.0888  0.1396
  629MPD2    N1 9323   4.119   3.184  16.111 -0.2056  0.2809 -0.3387
  629MPD2    H7 9324   4.204   3.209  16.063 -0.3839  1.9411  0.1854
  630TMC3    C1 9325   4.243   3.273  16.290  0.1783 -0.4422 -0.3948
  630TMC3    C2 9326   4.291   3.375  16.213  0.3161 -0.1664  0.4553
  630TMC3    C3 9327   4.374   3.469  16.265 -0.1306  0.7454  0.4750
  630TMC3    C4 9328   4.270   3.276  16.424 -0.7328  0.8300  0.2415
  630TMC3    C5 9329   4.362   3.357  16.478 -0.1635 -0.2273 -0.0577
  630TMC3    C6 9330   4.410   3.459  16.399  0.4106 -0.0062 -0.4056
  630TMC3     C 9331   4.128   3.191  16.251  0.6501  0.8814 -0.5430
  630TMC3     O 9332   4.054   3.150  16.338  0.6862 -0.1515 -0.5478
  630TMC3     H 9333   4.252   3.382  16.112  0.7679 -0.7350  0.2419
  630TMC3    H1 9334   4.246   3.186  16.480  0.2597 -0.5526 -1.5887
  630TMC3    H2 9335   4.464   3.543  16.443  0.7252  0.5185 -1.7705
  630TMC3    C7 9336   4.458   3.300  16.566 -0.0317 -0.2339  0.1898
  630TMC3    C8 9337   4.492   3.500  16.180  0.1285 -0.4287 -0.2461
  630TMC3    O1 9338   4.437   3.190  16.622 -0.0567  0.0569 -0.7367
  630TMC3    O2 9339   4.593   3.511  16.249  0.3029  0.6988 -0.2017
  631MPD2     C 9340   2.091   2.767  15.920 -0.0497 -0.2564 -0.8247
  631MPD2    C1 9341   2.120   2.789  15.785 -0.1515 -0.1901  0.7768
  631MPD2    C2 9342   2.225   2.719  15.724  0.2580 -0.1472  0.6331
  631MPD2    C3 9343   2.305   2.626  15.797 -0.2610 -0.0483  0.4213
  631MPD2    C4 9344   2.273   2.602  15.930  0.6175 -0.1236  0.3578
  631MPD2    C5 9345   2.164   2.673  15.988 -0.8288 -0.0712  0.0518
  631MPD2     H 9346   2.250   2.739  15.620 -0.8584 -1.7291  0.0641
  631MPD2    H1 9347   2.322   2.530  15.995 -1.7380 -0.7078  1.4999
  631MPD2    H2 9348   2.005   2.813  15.968  2.4090 -0.0773  3.3942
  631MPD2    H3 9349   2.133   2.653  16.090  1.6895 -1.5725  0.5393
  631MPD2     N 9350   2.409   2.548  15.738 -0.4419  0.7141  0.5507
  631MPD2    H5 9351   2.416   2.554  15.637 -0.5590 -2.5153  0.3645
  631MPD2    N1 9352   2.046   2.898  15.728  0.4031  0.1257 -0.3783
  631MPD2    H7 9353   1.968   2.935  15.781  0.5146  1.6863 -1.3119
  632TMC3    C1 9354   2.010   3.081  15.590  0.4611  0.6137 -0.3131
  632TMC3    C2 9355   2.066   3.179  15.660 -0.1820 -0.2836  0.6245
  632TMC3    C3 9356   2.086   3.298  15.595 -0.1654  0.2519 -0.1271
  632TMC3    C4 9357   1.982   3.099  15.461 -0.2827  0.4564  0.0377
  632TMC3    C5 9358   2.014   3.216  15.394  0.1574  0.1269 -0.4046
  632TMC3    C6 9359   2.081   3.315  15.463 -0.0058 -0.5268 -0.0980
  632TMC3     C 9360   2.065   2.946  15.602  0.0059 -0.1453 -0.6829
  632TMC3     O 9361   2.144   2.921  15.517  0.6421  0.1507  0.6311
  632TMC3     H 9362   2.070   3.172  15.769  0.2091  0.3410  0.6500
  632TMC3    H1 9363   1.945   3.022  15.394 -1.0520 -0.7292  1.8172
  632TMC3    H2 9364   2.089   3.414  15.419 -2.7008 -1.0394 -1.7158
  632TMC3    C7 9365   2.089   3.181  15.280 -0.0590  0.0919 -0.5542
  632TMC3    C8 9366   2.101   3.421  15.682 -0.1202 -0.2958 -0.0435
  632TMC3    O1 9367   2.111   3.274  15.206 -0.0880 -0.2073  0.0586
  632TMC3    O2 9368   2.058   3.527  15.641 -0.7621  0.0830 -0.2827
  633MPD2     C 9369   1.726   0.764  16.706  0.4718  0.2313  0.5767
  633MPD2    C1 9370   1.750   0.749  16.575 -0.1962 -0.7214 -0.3746
  633MPD2    C2 9371   1.856   0.671  16.537 -0.8888 -0.1826 -0.0165
  633MPD2    C3 9372   1.943   0.607  16.631  0.0515 -0.1520  0.2509
  633MPD2    C4 9373   1.910   0.626  16.765  0.2475  0.7855  0.5056
  633MPD2    C5 9374   1.809   0.703  16.798  0.2766 -0.4828  0.2649
  633MPD2     H 9375   1.883   0.660  16.433 -1.0779  1.4556 -0.2395
  633MPD2    H1 9376   1.974   0.579  16.838  0.2480  0.0475  0.0251
  633MPD2    H2 9377   1.659   0.843  16.739  0.9391  1.4343 -1.3161
  633MPD2    H3 9378   1.801   0.717  16.905 -1.2145  1.0392 -0.0551
  633MPD2     N 9379   2.049   0.529  16.579  0.1213  0.8749  0.8438
  633MPD2    H5 9380   2.058   0.526  16.477 -4.2989 -0.9173  0.5195
  633MPD2    N1 9381   1.697   0.827  16.474 -0.1405  0.1903 -0.5802
  633MPD2    H7 9382   1.740   0.813  16.383  0.0087 -1.4038 -0.2777
  634TMC3    C1 9383   1.558   0.961  16.342 -0.1983 -0.9039  0.8595
  634TMC3    C2 9384   1.608   0.879  16.243 -0.0929 -0.4182  0.6817
  634TMC3    C3 9385   1.689   0.929  16.141  0.7189 -0.0434 -0.2633
  634TMC3    C4 9386   1.582   1.094  16.339 -0.0301  0.0295  0.2814
  634TMC3    C5 9387   1.661   1.148  16.239  0.0663  0.2384 -0.3919
  634TMC3    C6 9388   1.709   1.067  16.133  0.5507  0.0123 -0.0295
  634TMC3     C 9389   1.584   0.907  16.480 -0.3233  0.4974  0.0438
  634TMC3     O 9390   1.515   0.932  16.579 -0.3369  0.4608  0.0774
  634TMC3     H 9391   1.598   0.771  16.242  1.2063 -0.5267 -0.6476
  634TMC3    H1 9392   1.525   1.146  16.415 -1.0678  2.2697 -2.0580
  634TMC3    H2 9393   1.789   1.101  16.067 -0.1810 -0.0299 -0.9396
  634TMC3    C7 9394   1.764   1.255  16.272  0.8536 -0.0316  0.1025
  634TMC3    C8 9395   1.821   0.882  16.153  0.4159  0.1022 -0.4470
  634TMC3    O1 9396   1.857   1.281  16.195  0.2610 -0.0158 -0.1691
  634TMC3    O2 9397   1.854   0.856  16.267 -0.1243 -0.1351 -0.6805
  635TMC3    C1 9398   2.445   1.835  17.010 -0.9319  0.1966  0.0415
  635TMC3    C2 9399   2.530   1.832  16.906  0.3357  0.2656  0.2019
  635TMC3    C3 9400   2.656   1.780  16.923  0.1924 -0.3294  0.1548
  635TMC3    C4 9401   2.448   1.736  17.107 -0.3605  0.5761 -0.0588
  635TMC3    C5 9402   2.571   1.669  17.116 -0.0544 -0.3282 -0.3818
  635TMC3    C6 9403   2.678   1.691  17.027 -0.1026  0.2664 -0.4037
  635TMC3     C 9404   2.432   1.970  17.081 -0.4417  0.8970  0.7772
  635TMC3     O 9405   2.457   1.964  17.200 -0.2245  0.1075 -0.5397
  635TMC3     H 9406   2.526   1.891  16.815 -0.9296  2.0477  1.4203
  635TMC3    H1 9407   2.382   1.736  17.193  0.4748  1.1442  0.5863
  635TMC3    H2 9408   2.774   1.648  17.052  0.4346  1.5499 -0.2494
  635TMC3    C7 9409   2.593   1.579  17.230 -0.3320 -0.0965  0.3176
  635TMC3    C8 9410   2.763   1.856  16.857  0.9925  0.5794 -0.8990
  635TMC3    O1 9411   2.496   1.513  17.266  0.1899 -0.2224  0.4215
  635TMC3    O2 9412   2.750   1.974  16.818 -0.0607 -0.1481  0.3352
  636MPD2     C 9413   3.899   1.295  15.772  0.4200  0.2680 -0.7088
  636MPD2    C1 9414   3.979   1.393  15.829 -0.1003 -0.3649 -0.9807
  636MPD2    C2 9415   4.113   1.382  15.810 -0.8910 -0.3469  0.5418
  636MPD2    C3 9416   4.169   1.281  15.742 -0.8878 -0.1014 -0.5075
  636MPD2    C4 9417   4.086   1.191  15.677 -0.4562  0.6470 -0.0737
  636MPD2    C5 9418   3.948   1.192  15.698  0.8372  0.5580  0.1626
  636MPD2     H 9419   4.179   1.456  15.854 -0.9585  1.0401 -1.6741
  636MPD2    H1 9420   4.122   1.104  15.624  1.3571  1.2340  0.1699
  636MPD2    H2 9421   3.791   1.293  15.778  0.4150 -1.0999 -1.4401
  636MPD2    H3 9422   3.880   1.119  15.654  2.1594 -0.5631 -0.0444
  636MPD2     N 9423   4.310   1.272  15.738  0.0143 -0.4546  0.0462
  636MPD2    H5 9424   4.369   1.345  15.776 -0.9552 -0.6406  1.9278
  636MPD2    N1 9425   3.928   1.494  15.917  0.2491 -0.3957 -0.2866
  636MPD2    H7 9426   3.981   1.578  15.938 -2.0111  0.6664  1.2142
  637TMC3    C1 9427   4.514   1.239  15.636 -0.0043 -0.2832 -0.4413
  637TMC3    C2 9428   4.555   1.322  15.737  0.1772 -0.3104  0.1460
  637TMC3    C3 9429   4.602   1.441  15.701 -0.5754  0.6028  0.2337
  637TMC3    C4 9430   4.519   1.273  15.501  0.8838  0.4323 -0.2994
  637TMC3    C5 9431   4.552   1.408  15.475 -0.1617 -0.3474 -0.0836
  637TMC3    C6 9432   4.590   1.488  15.574 -0.2083  0.5584 -0.1940
  637TMC3     C 9433   4.377   1.189  15.652 -0.6761  1.1845 -0.5103
  637TMC3     O 9434   4.332   1.112  15.566 -0.0655 -0.3971 -0.4672
  637TMC3     H 9435   4.577   1.282  15.835 -1.4735 -0.9818  0.2428
  637TMC3    H1 9436   4.481   1.196  15.435 -0.6694 -0.9373  2.1710
  637TMC3    H2 9437   4.616   1.591  15.550  1.1643  0.2642  0.0410
  637TMC3    C7 9438   4.441   1.481  15.416  0.4197  0.4355 -0.4974
  637TMC3    C8 9439   4.567   1.537  15.797 -0.5218 -0.1298 -0.2745
  637TMC3    O1 9440   4.404   1.580  15.479 -0.5936 -0.0821 -0.2520
  637TMC3    O2 9441   4.586   1.515  15.914 -0.2393 -0.0749 -0.4731
  638MPD2     C 9442   2.998   0.053  14.784  0.0763  0.0032  0.5239
  638MPD2    C1 9443   3.124   0.001  14.795  0.4445 -0.0394  0.5256
  638MPD2    C2 9444   3.154   4.642  14.898 -0.6654  0.3290  0.6497
  638MPD2    C3 9445   3.055   4.611  14.994  0.0942 -0.0702  0.3867
  638MPD2    C4 9446   2.932   4.670  14.985  0.7549 -0.1817  0.4709
  638MPD2    C5 9447   2.904   0.026  14.882 -0.0071  0.1049 -0.6279
  638MPD2     H 9448   3.250   4.591  14.907 -1.1923 -1.1040 -1.7112
  638MPD2    H1 9449   2.847   4.641  15.046 -1.9132  2.0983 -2.1573
  638MPD2    H2 9450   2.971   0.131  14.714  1.3335  2.0237  2.2642
  638MPD2    H3 9451   2.804   0.067  14.873 -0.6364 -1.6585 -1.5498
  638MPD2     N 9452   3.069   4.519  15.096  0.0531 -0.4520 -0.4008
  638MPD2    H5 9453   2.988   4.507  15.156  1.3863 -0.3087  1.4233
  638MPD2    N1 9454   3.213   0.028  14.690  0.0010 -0.0289  0.2253
  638MPD2    H7 9455   3.162   0.076  14.617  1.8240 -0.7319 -1.5109
  639TMC3    C1 9456   3.146   4.334  15.211 -0.0267  0.3903  0.3960
  639TMC3    C2 9457   3.031   4.266  15.189 -0.3407  0.3346  1.1084
  639TMC3    C3 9458   3.037   4.133  15.216 -0.5954  0.9579 -0.0923
  639TMC3    C4 9459   3.255   4.286  15.277  0.1893  0.2355 -0.4341
  639TMC3    C5 9460   3.242   4.157  15.324  0.3233  0.2039  0.4884
  639TMC3    C6 9461   3.139   4.074  15.285  1.4001  0.0263 -0.3790
  639TMC3     C 9462   3.180   4.445  15.121  0.0401  0.5201  0.2433
  639TMC3     O 9463   3.294   4.448  15.070  0.7521  0.4196 -0.2305
  639TMC3     H 9464   2.948   4.296  15.126  0.2614  0.5932  0.4419
  639TMC3    H1 9465   3.338   4.354  15.290  0.1191  0.5496 -1.7280
  639TMC3    H2 9466   3.133   3.967  15.302 -0.6392  0.3416  0.9109
  639TMC3    C7 9467   3.373   4.101  15.344  0.3587 -0.9889  0.7727
  639TMC3    C8 9468   2.993   4.047  15.112  0.7646  0.3128 -0.0882
  639TMC3    O1 9469   3.462   4.171  15.302  0.9960  0.1834 -0.3540
  639TMC3    O2 9470   3.018   4.094  14.999 -0.1643  0.4498  0.3736
  640MPD2     C 9471   3.818   4.115  10.084 -0.6705  0.5239  0.0107
  640MPD2    C1 9472   3.778   4.197   9.976  0.2265 -0.0771  0.5125
  640MPD2    C2 9473   3.800   4.335   9.989  0.0617 -0.2340 -0.2558
  640MPD2    C3 9474   3.846   4.386  10.107 -0.6802 -0.0769  0.0798
  640MPD2    C4 9475   3.907   4.303  10.198  1.1081 -0.5344  0.3568
  640MPD2    C5 9476   3.886   4.171  10.187 -0.2955 -0.0634 -0.4702
  640MPD2     H 9477   3.778   4.405   9.910 -4.2428 -1.5721 -0.2512
  640MPD2    H1 9478   3.963   4.332  10.287  3.1689  0.9638 -1.4379
  640MPD2    H2 9479   3.794   4.009  10.084  1.3738  0.0601 -0.8584
  640MPD2    H3 9480   3.940   4.104  10.253 -1.4363  0.3282  0.8636
  640MPD2     N 9481   3.867   4.527  10.110  0.7696 -0.1415 -0.1221
  640MPD2    H5 9482   3.825   4.592  10.045 -1.5146 -1.7887 -0.2814
  640MPD2    N1 9483   3.730   4.139   9.851 -0.1314  0.1308  0.2336
  640MPD2    H7 9484   3.735   4.037   9.845 -0.7109  0.1963 -1.2024
  641TMC3    C1 9485   3.668   4.121   9.629 -0.3542  0.0979 -0.7481
  641TMC3    C2 9486   3.759   4.025   9.610  0.1391 -0.6372  1.0814
  641TMC3    C3 9487   3.757   3.965   9.482 -1.1455  0.3577  0.6178
  641TMC3    C4 9488   3.581   4.163   9.527 -0.2433 -0.0416 -0.1111
  641TMC3    C5 9489   3.579   4.096   9.410 -1.0250  0.8554  0.1031
  641TMC3    C6 9490   3.663   3.994   9.385 -0.3281  0.2693  0.0685
  641TMC3     C 9491   3.684   4.209   9.746 -0.3465 -0.3592  0.5747
  641TMC3     O 9492   3.641   4.323   9.736  0.2729 -0.3440  0.1396
  641TMC3     H 9493   3.848   4.018   9.672 -0.0590 -0.3420  1.4002
  641TMC3    H1 9494   3.505   4.235   9.553 -1.4186 -1.4352  0.3490
  641TMC3    H2 9495   3.667   3.940   9.291  2.0357 -0.3805  0.5502
  641TMC3    C7 9496   3.487   4.150   9.306  0.2778 -0.4237 -0.3815
  641TMC3    C8 9497   3.836   3.845   9.452 -0.1303 -0.1743  0.0471
  641TMC3    O1 9498   3.391   4.212   9.341 -0.1517  0.1629  0.1249
  641TMC3    O2 9499   3.840   3.805   9.333 -0.9548  0.4309  0.5608
  642TMC3    C1 9500   4.642   4.623  12.952  0.3668 -0.8333 -0.5579
  642TMC3    C2 9501   4.541   4.613  13.038  0.0604 -0.5165  0.3102
  642TMC3    C3 9502   4.532   4.497  13.109  0.1259 -0.8474  0.4654
  642TMC3    C4 9503   4.724   4.516  12.910  0.6256 -0.2932 -0.0642
  642TMC3    C5 9504   4.695   4.399  12.973 -0.1218  0.9784 -0.0310
  642TMC3    C6 9505   4.600   4.387  13.071  0.6966  0.1334 -0.0879
  642TMC3     C 9506   4.679   0.027  12.904  0.0844 -0.6860  0.7291
  642TMC3     O 9507   0.060   0.034  12.844 -0.6111 -0.1619  0.0397
  642TMC3     H 9508   4.497   4.705  13.076  2.5704  0.2869  1.2343
  642TMC3    H1 9509   0.083   4.527  12.843  1.0704 -0.8954  0.3933
  642TMC3    H2 9510   4.583   4.299  13.132 -3.2786  1.9088  1.3803
  642TMC3    C7 9511   0.006   4.279  12.908 -0.3880  0.1305  0.4259
  642TMC3    C8 9512   4.499   4.499  13.249  0.6008  0.6118  0.5916
  642TMC3    O1 9513   0.006   4.287  12.785 -0.4496  0.2986  0.6570
  642TMC3    O2 9514   4.529   4.609  13.297  0.6923  0.7661 -0.0670
  643TMC3    C1 9515   3.496   0.478   0.688 -0.5989 -0.3709 -0.0522
  643TMC3    C2 9516   3.453   0.593   0.628 -0.1900 -0.4091 -0.3349
  643TMC3    C3 9517   3.424   0.585   0.496  1.3790  0.3084 -0.2492
  643TMC3    C4 9518   3.516   0.357   0.614 -0.1280 -0.0569 -0.6934
  643TMC3    C5 9519   3.488   0.359   0.477  0.1875  0.3239  0.4043
  643TMC3    C6 9520   3.439   0.474   0.418  0.1933 -0.1111  0.1988
  643TMC3     C 9521   3.564   0.486   0.813  0.7704  0.1018  0.1957
  643TMC3     O 9522   3.525   0.574   0.887  0.6466 -0.0045  0.5577
  643TMC3     H 9523   3.456   0.689   0.679  0.4407 -1.0181  0.7991
  643TMC3    H1 9524   3.560   0.269   0.661  3.0805  1.3726 -0.9946
  643TMC3    H2 9525   3.399   0.472   0.317  1.1503 -0.6117 -0.1720
  643TMC3    C7 9526   3.519   0.235   0.406 -0.4288  0.0938  0.6604
  643TMC3    C8 9527   3.417   0.717   0.432 -0.7507  0.3336  0.4767
  643TMC3    O1 9528   3.534   0.257   0.285 -0.4928  0.1329 -0.1365
  643TMC3    O2 9529   3.383   0.815   0.501  0.2024  0.1959  0.1705
  644MPD2     C 9530   4.198   4.075   9.846 -0.0078  0.1493  0.3222
  644MPD2    C1 9531   4.207   4.059   9.711 -0.2762  1.1179 -0.4037
  644MPD2    C2 9532   4.155   4.153   9.625 -0.7597  0.6501  0.8765
  644MPD2    C3 9533   4.083   4.264   9.675 -0.4716  0.1675  0.4829
  644MPD2    C4 9534   4.074   4.281   9.812 -0.0430 -0.0363 -0.1345
  644MPD2    C5 9535   4.127   4.182   9.893 -0.3900  0.3432 -0.0555
  644MPD2     H 9536   4.160   4.138   9.518  0.7359 -1.5853  1.2801
  644MPD2    H1 9537   4.010   4.355   9.860 -1.8709 -2.0975  0.6122
  644MPD2    H2 9538   4.231   3.992   9.908  2.4736 -1.2460 -2.8677
  644MPD2    H3 9539   4.133   4.195  10.000  3.0122  0.3400 -0.2393
  644MPD2     N 9540   4.006   4.340   9.583  0.0468 -1.3432 -0.4702
  644MPD2    H5 9541   4.007   4.308   9.487  0.8168  0.6463 -1.1183
  644MPD2    N1 9542   4.276   3.941   9.671  0.0356  0.6290  0.1932
  644MPD2    H7 9543   4.299   3.884   9.752  0.9659 -0.7801 -1.0703
  645TMC3    C1 9544   3.852   4.492   9.499 -0.0227 -0.0451  0.8520
  645TMC3    C2 9545   3.895   4.458   9.374 -0.1434  0.3964  0.2512
  645TMC3    C3 9546   3.799   4.453   9.270  0.1879 -0.3162  0.6560
  645TMC3    C4 9547   3.722   4.525   9.524  0.4075 -0.0118  0.3881
  645TMC3    C5 9548   3.630   4.504   9.426  0.0999  0.5311 -0.4297
  645TMC3    C6 9549   3.669   4.478   9.299  0.3961  0.6659  0.1491
  645TMC3     C 9550   3.926   4.446   9.615 -0.3434  1.0317  0.6112
  645TMC3     O 9551   3.906   4.506   9.718  0.5104 -0.1265 -0.5058
  645TMC3     H 9552   4.000   4.442   9.357 -0.2933 -1.8168  1.4551
  645TMC3    H1 9553   3.702   4.573   9.619  2.1196  1.4846 -0.0012
  645TMC3    H2 9554   3.591   4.475   9.223 -0.9259  2.7146  1.4515
  645TMC3    C7 9555   3.485   4.510   9.445  0.3468 -0.6803  1.1700
  645TMC3    C8 9556   3.852   4.473   9.135  0.6241  0.5104  0.1008
  645TMC3    O1 9557   3.416   4.564   9.360 -0.5657 -0.6285 -0.2874
  645TMC3    O2 9558   3.971   4.463   9.110 -0.3198 -0.1413  0.3867
  646MPD2     C 9559   3.547   3.646  14.671 -0.3208  0.7504  0.4296
  646MPD2    C1 9560   3.445   3.562  14.721 -0.6750  0.6145  0.7373
  646MPD2    C2 9561   3.319   3.566  14.663 -0.1209  0.3142  0.7340
  646MPD2    C3 9562   3.296   3.644  14.550 -0.6692 -0.1856  0.0090
  646MPD2    C4 9563   3.391   3.727  14.507 -0.3654  0.4262  0.4856
  646MPD2    C5 9564   3.517   3.728  14.565  0.5797  0.9057  0.4748
  646MPD2     H 9565   3.246   3.491  14.691 -0.4433  0.1895 -0.4412
  646MPD2    H1 9566   3.370   3.797  14.427  0.1809  2.4711  2.1213
  646MPD2    H2 9567   3.648   3.635  14.710 -0.3571  2.4397  0.9762
  646MPD2    H3 9568   3.581   3.798  14.512 -0.8124  0.8579 -1.2661
  646MPD2     N 9569   3.164   3.641  14.517 -0.1797  0.3640  0.3988
  646MPD2    H5 9570   3.100   3.600  14.584 -0.2175  2.7758  1.8362
  646MPD2    N1 9571   3.480   3.469  14.818  0.0126 -0.0840 -0.1683
  646MPD2    H7 9572   3.579   3.450  14.830  0.0383 -1.5482 -2.8607
  647TMC3    C1 9573   3.429   3.301  14.993 -0.2006  0.1096 -0.6886
  647TMC3    C2 9574   3.347   3.275  15.095  0.5266  0.1031  0.4041
  647TMC3    C3 9575   3.379   3.177  15.185  0.7455  0.3508 -0.1661
  647TMC3    C4 9576   3.553   3.250  14.987 -0.3645 -0.1856  0.2816
  647TMC3    C5 9577   3.588   3.160  15.083 -0.2773 -0.3744 -0.4972
  647TMC3    C6 9578   3.500   3.123  15.181  0.6344  0.2467 -0.0545
  647TMC3     C 9579   3.392   3.399  14.896  0.0654 -0.0273  0.2101
  647TMC3     O 9580   3.268   3.413  14.893  0.0371 -0.2669 -0.2586
  647TMC3     H 9581   3.245   3.313  15.089  0.1197 -1.1465 -0.6647
  647TMC3    H1 9582   3.617   3.284  14.907 -0.1957 -1.1791 -0.0013
  647TMC3    H2 9583   3.535   3.048  15.251  0.9500  0.9662  0.5577
  647TMC3    C7 9584   3.724   3.149  15.118  0.0599  0.2462  0.3060
  647TMC3    C8 9585   3.276   3.134  15.279  0.3528  0.2342  0.1097
  647TMC3    O1 9586   3.757   3.153  15.237  1.0287  0.2103 -0.3552
  647TMC3    O2 9587   3.183   3.206  15.305  0.2179 -0.8084 -0.5501
  648TMC3    C1 9588   2.782   0.989  15.782 -0.1611  0.1982 -0.3514
  648TMC3    C2 9589   2.781   0.870  15.711  0.6360  0.6000  0.7094
  648TMC3    C3 9590   2.763   0.870  15.574  0.9040 -0.2037 -0.6360
  648TMC3    C4 9591   2.777   1.114  15.727  0.4201 -0.6989  0.8413
  648TMC3    C5 9592   2.748   1.108  15.591 -0.0406 -0.6188 -0.4656
  648TMC3    C6 9593   2.732   0.987  15.519  0.4633 -0.4323  0.3967
  648TMC3     C 9594   2.805   0.989  15.926  0.1248 -0.6653 -0.2436
  648TMC3     O 9595   2.748   1.077  15.986  0.2564  0.2236  0.1467
  648TMC3     H 9596   2.774   0.775  15.762  2.9437  0.4398  0.7202
  648TMC3    H1 9597   2.803   1.205  15.780 -0.3198 -0.0022  0.0029
  648TMC3    H2 9598   2.717   0.995  15.412  2.1584  0.6115  0.2286
  648TMC3    C7 9599   2.691   1.221  15.530 -0.1882  0.4717  1.0506
  648TMC3    C8 9600   2.716   0.754  15.506  0.4312  0.1528 -0.3127
  648TMC3    O1 9601   2.696   1.237  15.408 -0.3141  0.3093  0.2357
  648TMC3    O2 9602   2.618   0.761  15.437 -0.3849  0.1454 -0.5736
  649TMC3    C1 9603   2.233   2.305  12.705  0.4360 -0.1007 -0.0594
  649TMC3    C2 9604   2.366   2.273  12.670 -0.1204  0.2625 -0.0939
  649TMC3    C3 9605   2.432   2.215  12.773  0.8542  0.1899 -0.2616
  649TMC3    C4 9606   2.171   2.268  12.823 -0.5508  0.4278  0.6447
  649TMC3    C5 9607   2.252   2.209  12.917 -0.1106 -0.4554  0.8013
  649TMC3    C6 9608   2.380   2.177  12.895 -0.0457 -0.2255  0.6313
  649TMC3     C 9609   2.152   2.399  12.622 -0.2221  0.1614 -0.0469
  649TMC3     O 9610   2.051   2.438  12.673 -0.1025  0.2994 -0.0092
  649TMC3     H 9611   2.413   2.302  12.578 -0.7925 -0.7234 -0.7524
  649TMC3    H1 9612   2.069   2.295  12.849 -0.7851  1.1186 -0.9986
  649TMC3    H2 9613   2.440   2.127  12.969  2.4949 -0.1632 -1.3912
  649TMC3    C7 9614   2.191   2.175  13.047  0.5927  0.4893 -0.1228
  649TMC3    C8 9615   2.570   2.168  12.751 -0.4330  0.3771  0.7952
  649TMC3    O1 9616   2.071   2.207  13.055 -0.8656 -0.2336 -0.1427
  649TMC3    O2 9617   2.617   2.094  12.832 -0.1982 -0.0905 -0.4712
  650TMC3    C1 9618   4.229   4.244  12.899 -0.0029  0.5009 -0.2093
  650TMC3    C2 9619   4.201   4.371  12.928  0.0541 -0.6419  0.3195
  650TMC3    C3 9620   4.142   4.451  12.832 -0.3195 -0.5956 -0.5115
  650TMC3    C4 9621   4.198   4.195  12.774 -0.0500 -0.0766 -0.3204
  650TMC3    C5 9622   4.151   4.278  12.676 -0.0133  0.1835  0.2103
  650TMC3    C6 9623   4.128   4.407  12.700 -0.5012 -0.4703  0.0718
  650TMC3     C 9624   4.315   4.177  12.995  0.5194 -0.0783 -0.1999
  650TMC3     O 9625   4.322   4.225  13.107  0.5826  0.2154  1.0127
  650TMC3     H 9626   4.229   4.427  13.016  2.5663 -0.9847 -0.2561
  650TMC3    H1 9627   4.219   4.096  12.736 -2.3221 -1.1157  1.1118
  650TMC3    H2 9628   4.084   4.475  12.627 -0.1679  0.5097  0.7908
  650TMC3    C7 9629   4.085   4.217  12.561 -0.4950 -1.0377  0.8074
  650TMC3    C8 9630   4.056   4.557  12.886 -0.6721  0.5932  0.3229
  650TMC3    O1 9631   4.016   4.119  12.580 -0.1018 -0.4827  0.1359
  650TMC3    O2 9632   4.100   4.617  12.980  0.1729  0.3099  0.8092
  651MPD2     C 9633   3.339   1.413  10.701  0.3293  0.5613 -0.0336
  651MPD2    C1 9634   3.358   1.536  10.768 -0.6874 -0.2902  0.2945
  651MPD2    C2 9635   3.476   1.612  10.749 -0.5535 -0.2834  0.3510
  651MPD2    C3 9636   3.573   1.565  10.662  0.0032 -0.2706 -0.8884
  651MPD2    C4 9637   3.554   1.445  10.592 -0.3723 -0.3757 -0.7196
  651MPD2    C5 9638   3.441   1.380  10.613 -0.1486  0.1643 -0.1968
  651MPD2     H 9639   3.496   1.696  10.814 -1.9676  1.6471 -1.6950
  651MPD2    H1 9640   3.631   1.412  10.523  1.3853  0.8115  0.6326
  651MPD2    H2 9641   3.244   1.360  10.699  1.2006 -0.9670 -0.6074
  651MPD2    H3 9642   3.430   1.299  10.542  0.9965 -0.2724  0.1173
  651MPD2     N 9643   3.692   1.638  10.654  0.8265  0.0618 -0.0619
  651MPD2    H5 9644   3.702   1.720  10.712  0.1160  0.8624 -1.0717
  651MPD2    N1 9645   3.266   1.587  10.862 -0.3566 -0.1352  0.4521
  651MPD2    H7 9646   3.273   1.683  10.894 -1.5594 -0.3292  1.3017
  652TMC3    C1 9647   4.128   1.740  10.529 -0.1484  0.1604  0.0803
  652TMC3    C2 9648   4.037   1.645  10.568 -0.2389 -0.8375 -0.1228
  652TMC3    C3 9649   3.911   1.694  10.595  0.8042  0.6138  0.0699
  652TMC3    C4 9650   4.090   1.874  10.530  0.2527 -0.4916  0.0874
  652TMC3    C5 9651   3.969   1.920  10.576  0.0883 -0.0824  0.0218
  652TMC3    C6 9652   3.874   1.824  10.606  0.0577  0.0330  0.2679
  652TMC3     C 9653   4.254   1.710  10.591 -0.1473  0.0614 -0.1660
  652TMC3     O 9654   4.260   1.623  10.676  0.3674 -0.1034  0.0565
  652TMC3     H 9655   4.061   1.539  10.571 -1.6080 -1.1603 -0.7880
  652TMC3    H1 9656   4.161   1.951  10.500  0.4620 -0.8181 -0.2531
  652TMC3    H2 9657   3.772   1.856  10.627 -0.0451  0.3790 -0.7575
  652TMC3    C7 9658   3.963   2.042  10.653 -0.2453  0.4382 -0.4204
  652TMC3    C8 9659   3.813   1.594  10.593  0.1293  0.0217 -0.4520
  652TMC3    O1 9660   3.865   2.062  10.725 -0.2695  0.1331  0.0156
  652TMC3    O2 9661   3.844   1.483  10.553  0.3725  0.1882 -0.2261
  653MPD2     C 9662   1.972   1.137  17.241  0.3128  0.8328  0.1379
  653MPD2    C1 9663   1.955   1.171  17.112 -1.1301  0.4457  0.0205
  653MPD2    C2 9664   1.868   1.101  17.029  0.0819  0.9684 -0.2569
  653MPD2    C3 9665   1.790   0.999  17.083  0.0071 -0.1796  0.2211
  653MPD2    C4 9666   1.828   0.956  17.211  0.0377 -1.1032  0.1731
  653MPD2    C5 9667   1.921   1.026  17.286 -0.5782  0.6276  0.4313
  653MPD2     H 9668   1.850   1.134  16.928 -0.8625 -0.3908 -0.5398
  653MPD2    H1 9669   1.765   0.879  17.255 -0.4085 -0.1423  1.2182
  653MPD2    H2 9670   2.031   1.204  17.302  2.8918 -2.2779  1.1108
  653MPD2    H3 9671   1.937   0.995  17.389  0.6638  1.5867  0.5247
  653MPD2     N 9672   1.678   0.945  17.010 -0.6085 -0.2700 -0.1718
  653MPD2    H5 9673   1.665   0.990  16.920  3.3584 -1.8559 -1.5493
  653MPD2    N1 9674   2.019   1.291  17.066  0.0274 -0.5249  0.4802
  653MPD2    H7 9675   2.061   1.358  17.129  1.0240 -0.9161  0.2290
  654TMC3    C1 9676   1.474   0.835  16.965  0.0619 -0.1639 -0.9993
  654TMC3    C2 9677   1.426   0.941  16.895  0.6250  0.1456  0.1599
  654TMC3    C3 9678   1.327   0.920  16.806  0.5004  0.4077 -0.0734
  654TMC3    C4 9679   1.425   0.708  16.944 -0.1654 -0.0729 -0.4117
  654TMC3    C5 9680   1.335   0.693  16.848  0.3704  0.7531 -0.5960
  654TMC3    C6 9681   1.277   0.793  16.785  0.4748 -0.3982 -0.2556
  654TMC3     C 9682   1.587   0.850  17.059  0.1772 -0.2484 -0.0877
  654TMC3     O 9683   1.589   0.779  17.159 -0.2297 -0.1774  0.6112
  654TMC3     H 9684   1.464   1.042  16.903  0.7865  0.0881  0.1286
  654TMC3    H1 9685   1.479   0.626  16.990 -0.2891 -0.6282 -1.2597
  654TMC3    H2 9686   1.195   0.780  16.716  0.5214 -3.6684  0.3386
  654TMC3    C7 9687   1.275   0.560  16.821 -0.2928 -0.5274 -0.3063
  654TMC3    C8 9688   1.268   1.038  16.750  0.2616 -0.6481 -0.0339
  654TMC3    O1 9689   1.187   0.554  16.737 -0.1762 -0.3716 -0.1428
  654TMC3    O2 9690   1.278   1.139  16.822 -0.0057 -0.1550 -0.8460
  655MPD2     C 9691   3.188   1.103  16.012 -0.8867 -0.6603 -0.9523
  655MPD2    C1 9692   3.117   1.179  15.921 -0.7477  0.2273  0.0483
  655MPD2    C2 9693   3.126   1.143  15.790 -0.9448  0.2864  0.2403
  655MPD2    C3 9694   3.204   1.037  15.752 -0.8614  0.3204  0.3248
  655MPD2    C4 9695   3.272   0.954  15.843 -0.1815  0.4634 -0.3924
  655MPD2    C5 9696   3.268   0.993  15.975  0.5416 -0.3037  0.1077
  655MPD2     H 9697   3.065   1.207  15.727 -0.9163 -0.0887 -0.1704
  655MPD2    H1 9698   3.325   0.866  15.809 -0.6403  0.2937 -0.6806
  655MPD2    H2 9699   3.187   1.117  16.119 -0.2432 -3.7534 -0.5197
  655MPD2    H3 9700   3.315   0.931  16.051  0.2240  1.5684  1.8258
  655MPD2     N 9701   3.204   0.994  15.616  0.1723 -0.3174 -0.5209
  655MPD2    H5 9702   3.250   0.909  15.584 -2.1569 -1.9435  0.4731
  655MPD2    N1 9703   3.034   1.287  15.961 -0.2531  0.1096 -0.4375
  655MPD2    H7 9704   2.978   1.324  15.885  0.2976  0.0667 -0.8606
  656TMC3    C1 9705   2.935   1.458  16.080  0.0174  0.1004 -0.4151
  656TMC3    C2 9706   2.827   1.461  16.162  0.1007 -0.3399 -0.9001
  656TMC3    C3 9707   2.731   1.555  16.148 -1.2233  0.5136  0.5881
  656TMC3    C4 9708   2.960   1.548  15.979  0.4186 -0.4858  0.6548
  656TMC3    C5 9709   2.868   1.647  15.966 -0.0323  0.3490 -0.2360
  656TMC3    C6 9710   2.752   1.652  16.047 -0.6055  0.8573 -0.5417
  656TMC3     C 9711   3.003   1.331  16.086 -0.1707 -0.1718  0.6670
  656TMC3     O 9712   3.024   1.279  16.193 -0.4583  0.5651  0.6968
  656TMC3     H 9713   2.808   1.364  16.206 -1.3668 -1.4162 -3.9520
  656TMC3    H1 9714   3.039   1.525  15.909  2.7779  2.3114  2.4002
  656TMC3    H2 9715   2.671   1.723  16.036  0.6671  2.5429  0.9860
  656TMC3    C7 9716   2.876   1.714  15.840 -0.6645 -0.3753 -0.4833
  656TMC3    C8 9717   2.590   1.515  16.164  0.0134  0.9115  0.4929
  656TMC3    O1 9718   2.969   1.688  15.766 -0.6967  0.2595  0.0014
  656TMC3    O2 9719   2.522   1.551  16.071  0.2487  0.2365 -0.8249
  657TMC3    C1 9720   1.839   0.938  14.768  0.7163  0.4238  0.2159
  657TMC3    C2 9721   1.714   0.909  14.804  0.1231  0.1142  0.0005
  657TMC3    C3 9722   1.636   1.008  14.862 -0.2536  0.6426 -0.0189
  657TMC3    C4 9723   1.887   1.061  14.794  0.6345 -0.6948 -0.3938
  657TMC3    C5 9724   1.805   1.157  14.852 -0.0062 -0.0094  0.9279
  657TMC3    C6 9725   1.672   1.138  14.868  0.1098  0.8332  0.1418
  657TMC3     C 9726   1.932   0.836  14.714 -0.3465 -0.3818  0.1115
  657TMC3     O 9727   2.040   0.885  14.688 -0.7474 -0.0910  0.5415
  657TMC3     H 9728   1.678   0.810  14.778 -0.8390  0.1468  1.2069
  657TMC3    H1 9729   1.992   1.085  14.778  0.6495  0.3871  1.3692
  657TMC3    H2 9730   1.604   1.217  14.899 -2.1529 -2.0727  2.6062
  657TMC3    C7 9731   1.867   1.285  14.896  0.0530 -0.3624  1.1540
  657TMC3    C8 9732   1.496   0.980  14.882 -1.0433 -0.6845  0.4672
  657TMC3    O1 9733   1.971   1.315  14.842 -0.5360 -0.1023  0.9310
  657TMC3    O2 9734   1.414   1.072  14.874  0.3217 -0.0275  0.4743
  658MPD2     C 9735   3.512   0.616  14.920 -0.0483 -0.0061 -1.2406
  658MPD2    C1 9736   3.484   0.737  14.967  0.8040  0.2764  0.3442
  658MPD2    C2 9737   3.525   0.841  14.895 -0.1422  0.7865 -0.4100
  658MPD2    C3 9738   3.612   0.824  14.788  0.0896  0.1612 -0.4202
  658MPD2    C4 9739   3.652   0.697  14.756  0.0884 -0.1084 -0.5075
  658MPD2    C5 9740   3.597   0.588  14.817  0.1296 -0.8944  0.3472
  658MPD2     H 9741   3.478   0.936  14.921 -0.7034  0.8779 -1.7550
  658MPD2    H1 9742   3.727   0.681  14.680  2.1483  0.9275  1.2887
  658MPD2    H2 9743   3.480   0.527  14.974 -0.4897  0.8065 -0.1539
  658MPD2    H3 9744   3.630   0.487  14.792  1.1824 -0.1228 -1.4288
  658MPD2     N 9745   3.639   0.940  14.708 -0.0658  0.0877 -0.5462
  658MPD2    H5 9746   3.602   1.031  14.733  1.1764  1.0719 -2.2562
  658MPD2    N1 9747   3.388   0.749  15.073 -0.9290 -0.1008 -0.8881
  658MPD2    H7 9748   3.344   0.664  15.106 -0.0180 -0.0539  0.4738
  659TMC3    C1 9749   3.248   0.876  15.223 -0.2824 -0.1393 -0.1072
  659TMC3    C2 9750   3.264   0.948  15.339 -0.8748  0.4875  0.7632
  659TMC3    C3 9751   3.148   0.997  15.393 -0.4663 -0.2592 -0.2481
  659TMC3    C4 9752   3.134   0.864  15.151  0.0668  0.4029 -0.2635
  659TMC3    C5 9753   3.027   0.928  15.198  0.5230  0.2286 -0.8151
  659TMC3    C6 9754   3.032   0.999  15.319  0.4044 -0.2756 -0.3391
  659TMC3     C 9755   3.384   0.857  15.158  0.4075  0.2669  0.3753
  659TMC3     O 9756   3.460   0.953  15.165  0.2872  0.4864  0.5839
  659TMC3     H 9757   3.361   0.952  15.389 -1.3775  1.6100  1.6415
  659TMC3    H1 9758   3.142   0.830  15.048 -0.4479  0.1445 -0.2167
  659TMC3    H2 9759   2.944   1.052  15.353  0.8002  1.2231 -1.6542
  659TMC3    C7 9760   2.899   0.944  15.127 -0.4752  0.4479  0.1683
  659TMC3    C8 9761   3.143   1.062  15.521  0.6149  0.1585 -0.2904
  659TMC3    O1 9762   2.817   1.019  15.177  0.2962  0.2540 -0.2007
  659TMC3    O2 9763   3.068   1.158  15.518 -0.3755  0.6347  0.4505
  660MPD2     C 9764   1.563   0.120  13.137 -0.1678 -0.1516 -0.2038
  660MPD2    C1 9765   1.438   0.121  13.088  0.2300 -0.5420 -0.0791
  660MPD2    C2 9766   1.359   0.007  13.097 -0.2538  0.3628  0.3542
  660MPD2    C3 9767   1.404   4.627  13.171  0.0061  0.2884 -1.1164
  660MPD2    C4 9768   1.528   4.630  13.232 -0.5167 -0.0161 -0.2905
  660MPD2    C5 9769   1.607   0.015  13.214 -0.2914 -0.0847  0.1025
  660MPD2     H 9770   1.266   0.005  13.042 -0.4968  0.6351  0.7554
  660MPD2    H1 9771   1.568   4.549  13.292 -0.7695  1.4221  1.8127
  660MPD2    H2 9772   1.622   0.211  13.131 -1.0928  0.3717 -1.4000
  660MPD2    H3 9773   1.705   0.014  13.262  0.2599  0.3073 -1.0086
  660MPD2     N 9774   1.329   4.505  13.196 -0.1982 -0.5012 -0.3383
  660MPD2    H5 9775   1.376   4.428  13.243 -0.4375  0.5746  1.6363
  660MPD2    N1 9776   1.380   0.240  13.041 -0.0515  0.3616  0.0314
  660MPD2    H7 9777   1.447   0.313  13.018 -0.6509  1.3652  1.4131
  661TMC3    C1 9778   1.203   0.377  12.961 -0.2046  0.5613  0.0355
  661TMC3    C2 9779   1.266   0.402  12.839  0.0056 -0.2697 -0.0283
  661TMC3    C3 9780   1.193   0.440  12.728 -0.9336 -0.2200  0.3479
  661TMC3    C4 9781   1.072   0.402  12.976  0.0894  0.1943 -0.4843
  661TMC3    C5 9782   1.003   0.453  12.862 -0.8259 -0.9751  0.1033
  661TMC3    C6 9783   1.059   0.484  12.740  0.0603  0.5117 -0.2831
  661TMC3     C 9784   1.243   0.254  13.025  0.3009  0.1221  0.1604
  661TMC3     O 9785   1.148   0.187  13.070  0.4996 -0.4796  0.1925
  661TMC3     H 9786   1.357   0.347  12.818 -1.8049 -3.1667 -0.4709
  661TMC3    H1 9787   1.019   0.375  13.067  2.4645 -0.3806  0.7020
  661TMC3    H2 9788   0.997   0.530  12.664  0.9119 -0.8158 -1.7952
  661TMC3    C7 9789   0.859   0.460  12.876  0.2135 -0.0653  0.4525
  661TMC3    C8 9790   1.271   0.486  12.617  0.1825 -0.3592 -0.3134
  661TMC3    O1 9791   0.814   0.472  12.988  0.0846  0.3881  0.5776
  661TMC3    O2 9792   1.383   0.436  12.601  0.1629  0.0104 -0.5993
  662MPD2     C 9793   1.014   0.399  17.162 -0.3199 -0.3943 -0.3359
  662MPD2    C1 9794   1.056   0.303  17.250 -0.1488 -0.2064  0.1153
  662MPD2    C2 9795   1.098   0.350  17.381 -0.2121  0.6348 -0.1301
  662MPD2    C3 9796   1.071   0.484  17.419 -0.0944 -0.0945 -0.0726
  662MPD2    C4 9797   1.005   0.571  17.329  0.3389  0.3853 -0.8567
  662MPD2    C5 9798   0.981   0.528  17.205  0.1698 -0.0513 -0.3521
  662MPD2     H 9799   1.136   0.284  17.458  0.6189 -1.6783 -2.5083
  662MPD2    H1 9800   0.984   0.677  17.340 -2.7094 -0.3258  0.2442
  662MPD2    H2 9801   0.989   0.374  17.059 -1.2352 -2.5515  0.4208
  662MPD2    H3 9802   0.940   0.598  17.133  0.0968  0.9124  0.6213
  662MPD2     N 9803   1.084   0.520  17.553  0.2767  0.1786  0.6577
  662MPD2    H5 9804   1.045   0.610  17.580 -0.2028  0.7451 -1.9051
  662MPD2    N1 9805   1.059   0.164  17.221  0.0270 -0.1515 -0.3430
  662MPD2    H7 9806   1.101   0.101  17.289  1.4893  0.9040 -0.2743
  663TMC3    C1 9807   1.018   4.689  17.142  0.3939 -0.2515 -0.1598
  663TMC3    C2 9808   0.974   4.639  17.261  0.0860  0.5889  0.2144
  663TMC3    C3 9809   0.940   4.505  17.269  0.2738  0.5413 -0.2414
  663TMC3    C4 9810   1.011   4.616  17.029 -0.1613  0.0202 -0.2608
  663TMC3    C5 9811   0.981   4.487  17.030 -0.9181  0.3332 -0.9356
  663TMC3    C6 9812   0.946   4.433  17.152 -0.0047  0.3805  0.7058
  663TMC3     C 9813   1.010   0.107  17.109  0.3490  0.3382  0.0919
  663TMC3     O 9814   0.962   0.142  17.002  0.6097 -0.6689  0.2336
  663TMC3     H 9815   0.957   4.715  17.336  0.4569  0.2070  0.6824
  663TMC3    H1 9816   1.042   4.659  16.934 -2.0845  1.1519 -0.3618
  663TMC3    H2 9817   0.895   4.337  17.155  0.3201  0.1900  0.0837
  663TMC3    C7 9818   0.992   4.405  16.914 -0.0777  0.0354  0.4348
  663TMC3    C8 9819   0.820   4.479  17.343 -0.0175 -0.4417 -0.5123
  663TMC3    O1 9820   0.985   4.470  16.808 -0.3029  0.1430  0.2483
  663TMC3    O2 9821   0.732   4.408  17.297 -0.4707  0.1533  0.4567
  664MPD2     C 9822   4.488   2.678  17.518 -0.1639  0.1995 -0.0795
  664MPD2    C1 9823   4.558   2.784  17.567 -0.9162  0.2565  0.4003
  664MPD2    C2 9824   4.553   2.817  17.702 -0.3380 -0.5602  0.3076
  664MPD2    C3 9825   4.482   2.749   0.099 -0.1374  0.0993  0.7276
  664MPD2    C4 9826   4.412   2.638   0.050 -0.0850  0.7884 -0.3715
  664MPD2    C5 9827   4.419   2.610  17.621  0.5986 -0.1488 -0.1257
  664MPD2     H 9828   4.611   2.905   0.025  0.2591 -0.5480 -1.1072
  664MPD2    H1 9829   4.371   2.576   0.128  0.0938 -1.0717 -1.7547
  664MPD2    H2 9830   4.483   2.645  17.415 -0.2654  1.5080 -0.4936
  664MPD2    H3 9831   4.382   2.519  17.576  0.3380  0.5550 -1.3327
  664MPD2     N 9832   4.460   2.809   0.227  1.0368  0.3293  0.3213
  664MPD2    H5 9833   4.487   2.906   0.232 -2.0804  1.0627  2.0073
  664MPD2    N1 9834   4.628   2.881  17.480 -0.5028 -0.3483  0.2188
  664MPD2    H7 9835   4.682   2.957  17.519  0.8365 -1.3033  0.2469
  665TMC3    C1 9836   4.394   2.833   0.448  0.3689  0.9049 -0.5744
  665TMC3    C2 9837   4.428   2.768   0.567  0.6862 -0.2171 -0.0261
  665TMC3    C3 9838   4.430   2.848   0.681  0.2190  0.4142 -0.1395
  665TMC3    C4 9839   4.376   2.966   0.431 -0.1544  0.7111  0.2468
  665TMC3    C5 9840   4.383   3.042   0.548 -0.4774  0.5365  1.0623
  665TMC3    C6 9841   4.403   2.985   0.672  0.2283  0.6478 -0.2807
  665TMC3     C 9842   4.401   2.750   0.333  0.3005 -0.0857 -0.0151
  665TMC3     O 9843   4.358   2.634   0.346  0.4120 -0.8129  0.1253
  665TMC3     H 9844   4.433   2.661   0.579  0.2566 -0.1912  0.3815
  665TMC3    H1 9845   4.366   3.014   0.335 -0.6795 -2.1407 -1.1119
  665TMC3    H2 9846   4.421   3.046   0.760 -1.0788  0.9474 -0.2212
  665TMC3    C7 9847   4.359   3.188   0.537 -0.9063 -0.4685  0.2566
  665TMC3    C8 9848   4.512   2.814   0.795  0.3078  0.3867  0.1275
  665TMC3    O1 9849   4.304   3.215   0.432 -0.7641 -0.0725 -0.2908
  665TMC3    O2 9850   4.516   2.880   0.896  0.2424  0.0055  0.7659
  666TMC3    C1 9851   3.646   2.728   9.959 -0.7932 -0.2835 -0.2755
  666TMC3    C2 9852   3.750   2.685   9.877 -0.3916  0.2982 -0.8166
  666TMC3    C3 9853   3.787   2.770   9.770 -0.2552  0.6152  0.0172
  666TMC3    C4 9854   3.583   2.842   9.939 -0.5634 -0.4426 -0.2899
  666TMC3    C5 9855   3.612   2.917   9.830  0.4320 -0.6590 -0.6279
  666TMC3    C6 9856   3.715   2.882   9.741 -0.6693 -0.2920 -0.6448
  666TMC3     C 9857   3.650   2.684  10.099  0.6935  0.6905 -0.3793
  666TMC3     O 9858   3.631   2.770  10.190  0.2453 -0.0862  0.0679
  666TMC3     H 9859   3.800   2.593   9.903 -1.3690  0.4346  1.4952
  666TMC3    H1 9860   3.525   2.876  10.024  1.5089  3.1727 -0.3505
  666TMC3    H2 9861   3.738   2.948   9.659  1.0072 -2.0940 -1.6041
  666TMC3    C7 9862   3.593   3.061   9.854 -0.6558 -1.1637 -0.1927
  666TMC3    C8 9863   3.927   2.790   9.763  0.1047 -0.1885  0.7196
  666TMC3    O1 9864   3.514   3.087   9.946  0.3429 -0.6801 -0.1999
  666TMC3    O2 9865   3.993   2.695   9.799 -0.5657 -0.3535 -0.0744
  667MPD2     C 9866   0.354   2.330  14.906 -0.0512  0.1481  0.0249
  667MPD2    C1 9867   0.339   2.320  15.040 -0.2999  0.1851 -0.3436
  667MPD2    C2 9868   0.273   2.215  15.096 -1.4572  0.3754  0.4139
  667MPD2    C3 9869   0.222   2.111  15.019 -0.2413  0.2264 -0.0594
  667MPD2    C4 9870   0.245   2.123  14.880  0.4718 -0.4521  0.3380
  667MPD2    C5 9871   0.314   2.227  14.825  0.7736 -0.2274 -0.3441
  667MPD2     H 9872   0.249   2.215  15.202  2.0707 -1.4720  1.2013
  667MPD2    H1 9873   0.206   2.044  14.817  2.4516 -2.1054  1.1745
  667MPD2    H2 9874   0.383   2.420  14.852  0.7283  0.5742  1.1520
  667MPD2    H3 9875   0.319   2.230  14.717  0.0380  1.3500 -0.3253
  667MPD2     N 9876   0.151   2.009  15.086  0.4180 -0.0118  0.1396
  667MPD2    H5 9877   0.142   2.014  15.187  0.1772 -0.6271  0.1497
  667MPD2    N1 9878   0.359   2.422  15.127 -0.1980 -0.5231 -0.3386
  667MPD2    H7 9879   0.336   2.406  15.224 -0.3383 -1.0007 -0.4485
  668TMC3    C1 9880   0.371   2.635  15.203  0.8148  0.5546  0.7348
  668TMC3    C2 9881   0.442   2.748  15.206 -0.4798  0.4952 -0.3825
  668TMC3    C3 9882   0.452   2.819  15.322 -0.4260  0.3957 -0.3192
  668TMC3    C4 9883   0.277   2.607  15.297  0.0502  0.6499  0.1400
  668TMC3    C5 9884   0.295   2.684  15.418  0.0738 -0.3987 -0.3856
  668TMC3    C6 9885   0.385   2.782  15.436 -0.6521 -0.6675  0.3969
  668TMC3     C 9886   0.389   2.551  15.091 -0.6003 -0.4468  0.0404
  668TMC3     O 9887   0.458   2.594  14.999  0.0974  0.2165 -0.0550
  668TMC3     H 9888   0.494   2.794  15.123 -0.2657  0.2479 -0.3847
  668TMC3    H1 9889   0.209   2.522  15.291  2.3003 -1.1448 -0.0994
  668TMC3    H2 9890   0.389   2.852  15.519 -2.0746  0.8675 -0.8121
  668TMC3    C7 9891   0.201   2.660  15.530  0.0533  0.5889 -0.3246
  668TMC3    C8 9892   0.523   2.944  15.332  0.2319  0.8192 -0.5427
  668TMC3    O1 9893   0.226   2.712  15.640  0.0653  0.1663 -0.6175
  668TMC3    O2 9894   0.565   2.962  15.444  0.7422  0.2747  0.2781
  669TMC3    C1 9895   2.943   2.761  14.649 -0.2963 -0.4072 -0.7236
  669TMC3    C2 9896   2.852   2.767  14.547  0.3132 -0.5328 -0.2220
  669TMC3    C3 9897   2.868   2.847  14.440 -0.4512  0.7711  0.1163
  669TMC3    C4 9898   3.060   2.832  14.632  0.2323  0.3350  0.1565
  669TMC3    C5 9899   3.081   2.916  14.524  0.4178  0.1289 -0.3971
  669TMC3    C6 9900   2.984   2.920  14.424 -0.1926  0.6048 -0.4464
  669TMC3     C 9901   2.928   2.660  14.755  0.9893  0.0404 -0.1012
  669TMC3     O 9902   3.036   2.621  14.805  0.3720 -0.2862  0.0438
  669TMC3     H 9903   2.753   2.723  14.545  0.0704  0.0049 -0.0256
  669TMC3    H1 9904   3.132   2.817  14.712  1.4596  0.0185 -1.0135
  669TMC3    H2 9905   3.003   2.980  14.336  0.1679 -0.1286 -0.8677
  669TMC3    C7 9906   3.220   2.961  14.502 -0.0814  0.3815  0.0817
  669TMC3    C8 9907   2.759   2.874  14.349  0.0971  0.1989 -0.1479
  669TMC3    O1 9908   3.296   2.955  14.598  0.6136  0.4975  0.4617
  669TMC3    O2 9909   2.661   2.804  14.366  0.3713 -0.1699  0.1145
  670MPD2     C 9910   1.540   0.275  13.508 -0.0844  0.4275 -0.3692
  670MPD2    C1 9911   1.608   0.346  13.600 -0.6416 -0.2559  0.1924
  670MPD2    C2 9912   1.557   0.356  13.730 -0.8217 -0.3869 -0.3180
  670MPD2    C3 9913   1.441   0.288  13.770 -0.1972  0.2773 -0.2916
  670MPD2    C4 9914   1.384   0.213  13.674  0.4220 -0.4508 -0.0707
  670MPD2    C5 9915   1.429   0.205  13.544  0.3690  0.5731 -0.3700
  670MPD2     H 9916   1.609   0.418  13.802 -2.2873  0.9571 -0.4113
  670MPD2    H1 9917   1.294   0.161  13.707  0.9833 -0.1617  1.8942
  670MPD2    H2 9918   1.579   0.258  13.409 -0.9583  0.3703 -0.6986
  670MPD2    H3 9919   1.381   0.145  13.467  0.5467  0.2934 -0.2612
  670MPD2     N 9920   1.400   0.293  13.903  0.0959  0.2665  0.6756
  670MPD2    H5 9921   1.463   0.341  13.966  1.1869 -0.1665 -0.0943
  670MPD2    N1 9922   1.722   0.427  13.569  1.0744  0.2888  0.2954
  670MPD2    H7 9923   1.762   0.498  13.629  0.4818  0.5284  0.4000
  671TMC3    C1 9924   1.251   0.277  14.093 -0.1260 -0.8621 -0.1101
  671TMC3    C2 9925   1.365   0.238  14.167  0.3117  0.2553 -0.2918
  671TMC3    C3 9926   1.337   0.173  14.276 -0.2721 -0.0794 -0.5702
  671TMC3    C4 9927   1.126   0.244  14.129  0.2461  0.0868  0.1867
  671TMC3    C5 9928   1.105   0.163  14.234  0.5257 -0.2944  0.7539
  671TMC3    C6 9929   1.210   0.132  14.321 -0.5542  0.2447 -0.7346
  671TMC3     C 9930   1.271   0.268  13.948  0.1263  0.8987 -0.0365
  671TMC3     O 9931   1.172   0.237  13.876 -0.1320 -0.5015  0.1466
  671TMC3     H 9932   1.469   0.243  14.136  0.8663 -0.4606  1.4623
  671TMC3    H1 9933   1.043   0.269  14.064 -1.0710 -1.1850  1.3752
  671TMC3    H2 9934   1.195   0.062  14.402  0.6329 -0.0380 -0.7599
  671TMC3    C7 9935   1.028   0.044  14.204  0.1982 -0.5039  0.2179
  671TMC3    C8 9936   1.453   0.107  14.336  0.5666  0.3077  0.3499
  671TMC3    O1 9937   1.089   4.663  14.218 -0.1907  0.3174  0.2139
  671TMC3    O2 9938   1.441   4.715  14.371  0.3597  0.1911  0.0888
  672MPD2     C 9939   1.983   0.551  17.297 -0.0065 -0.7057  0.3424
  672MPD2    C1 9940   2.076   0.570  17.401  0.2044  0.6269 -0.1207
  672MPD2    C2 9941   2.168   0.676  17.393  0.2496  0.0267 -0.5703
  672MPD2    C3 9942   2.158   0.758  17.284 -0.6053  0.3969  0.5157
  672MPD2    C4 9943   2.064   0.743  17.180 -0.3948 -0.1073  0.1905
  672MPD2    C5 9944   1.979   0.635  17.191  0.4247 -0.7848  0.3292
  672MPD2     H 9945   2.241   0.689  17.472 -0.2715  1.8980 -0.4054
  672MPD2    H1 9946   2.048   0.815  17.101 -0.5088 -2.6353 -2.0817
  672MPD2    H2 9947   1.905   0.476  17.290 -1.8334  1.0304  1.8821
  672MPD2    H3 9948   1.904   0.621  17.115  1.2666  2.0114 -1.0062
  672MPD2     N 9949   2.234   0.870  17.308 -0.0095 -0.3950  0.3825
  672MPD2    H5 9950   2.275   0.880  17.400  1.3445  0.2496 -0.2931
  672MPD2    N1 9951   2.069   0.496  17.523 -0.1310 -0.0259 -0.1731
  672MPD2    H7 9952   2.121   0.530  17.603 -2.7470 -0.1563  1.5891
  673TMC3    C1 9953   1.965   0.384  17.682  0.0808 -0.0047 -0.4506
  673TMC3    C2 9954   1.930   0.266   0.039  0.2211 -0.5987 -0.0402
  673TMC3    C3 9955   1.938   0.251   0.176 -0.6976  0.2046  0.1973
  673TMC3    C4 9956   1.991   0.492   0.058 -0.1380  0.6473 -0.2871
  673TMC3    C5 9957   1.985   0.476   0.197 -0.7224 -0.2430  0.5024
  673TMC3    C6 9958   1.969   0.355   0.260  0.0194  0.2750 -0.3030
  673TMC3     C 9959   1.991   0.389  17.542  0.0075 -0.5325 -0.3721
  673TMC3     O 9960   1.923   0.316  17.465 -0.3218  0.3028  0.4367
  673TMC3     H 9961   1.905   0.183  17.675  2.5312 -1.2826 -0.0547
  673TMC3    H1 9962   1.988   0.592   0.018 -1.9061  0.8466  0.3174
  673TMC3    H2 9963   1.973   0.351   0.368 -0.4404  1.2885 -0.2557
  673TMC3    C7 9964   2.013   0.585   0.285  0.3061 -0.0487 -1.2590
  673TMC3    C8 9965   1.991   0.124   0.202 -0.0052 -0.0807 -1.0008
  673TMC3    O1 9966   2.051   0.552   0.397 -1.1345  0.0792 -0.3270
  673TMC3    O2 9967   1.954   0.021   0.143  0.0922 -0.0055  0.1401
  674MPD2     C 9968   1.649   0.820  17.523  0.2588  0.6482  0.0965
  674MPD2    C1 9969   1.656   0.735  17.640  0.2981 -1.0333  0.9235
  674MPD2    C2 9970   1.671   0.801   0.052 -0.8764 -0.2204  0.2003
  674MPD2    C3 9971   1.688   0.935   0.062 -0.8301 -0.4752 -0.2576
  674MPD2    C4 9972   1.691   1.015  17.645  0.4333  0.3064  0.5230
  674MPD2    C5 9973   1.659   0.956  17.530  0.1717  0.1500 -0.0951
  674MPD2     H 9974   1.675   0.744   0.145 -0.7193 -1.2332 -0.4323
  674MPD2    H1 9975   1.708   1.122  17.646 -1.5069  0.6085  1.2874
  674MPD2    H2 9976   1.646   0.777  17.424  1.3271 -1.1255  0.8301
  674MPD2    H3 9977   1.661   1.010  17.436  4.6307 -0.8633 -0.5685
  674MPD2     N 9978   1.698   0.990   0.192 -0.5532  0.5359  0.1154
  674MPD2    H5 9979   1.680   0.924   0.266  4.4651  1.1770  1.9058
  674MPD2    N1 9980   1.638   0.591  17.626 -0.1515 -0.5932  0.3094
  674MPD2    H7 9981   1.621   0.574  17.527  2.6821 -0.4408 -0.1844
  675TMC3    C1 9982   1.626   0.364  17.658  0.3034 -0.4409  0.3071
  675TMC3    C2 9983   1.542   0.275   0.025 -0.1239  0.6065  0.4627
  675TMC3    C3 9984   1.471   0.181  17.655  0.4780  0.5921 -0.2021
  675TMC3    C4 9985   1.649   0.350  17.522 -0.5616  0.4038  0.4799
  675TMC3    C5 9986   1.574   0.249  17.458  0.1892  0.9929  0.0400
  675TMC3    C6 9987   1.485   0.162  17.517 -0.1857  0.0362 -0.8121
  675TMC3     C 9988   1.630   0.494   0.022 -0.6132 -0.5157 -1.6389
  675TMC3     O 9989   1.655   0.499   0.140  0.4752 -0.1667 -0.6171
  675TMC3     H 9990   1.502   0.303   0.122 -1.2922 -0.3124  0.2464
  675TMC3    H1 9991   1.714   0.415  17.465 -1.0121 -0.8179 -1.4184
  675TMC3    H2 9992   1.439   0.073  17.477 -0.3249 -0.5039  0.5313
  675TMC3    C7 9993   1.605   0.229  17.316 -1.1736 -0.9864 -0.1186
  675TMC3    C8 9994   1.340   0.135  17.701  0.5040 -0.0578  0.4053
  675TMC3    O1 9995   1.515   0.184  17.253 -0.2291  0.2675  0.6914
  675TMC3    O2 9996   1.253   0.096  17.622  0.2961 -0.1240 -0.1725
  676MPD2     C 9997   4.130   4.100  11.415  0.4370 -0.0841  0.2390
  676MPD2    C1 9998   4.090   4.013  11.514  0.6507 -0.5248  0.0181
  676MPD2    C2 9999   4.092   3.880  11.485  0.4267  0.0927 -0.3185
  676MPD2    C310000   4.126   3.828  11.367  0.0591  0.6426  0.4718
  676MPD2    C410001   4.165   3.914  11.269  0.0743  0.7806 -0.3240
  676MPD2    C510002   4.164   4.051  11.293 -0.7111  0.0572 -0.4090
  676MPD2     H10003   4.057   3.806  11.556 -0.2603  1.6109  0.9254
  676MPD2    H110004   4.195   3.882  11.170  2.1374  2.7022 -0.3134
  676MPD2    H210005   4.136   4.205  11.440 -0.7353  0.1979 -0.7156
  676MPD2    H310006   4.191   4.126  11.219 -1.1236  1.6322  1.0210
  676MPD2     N10007   4.123   3.694  11.339  0.3484 -0.1251 -0.1162
  676MPD2    H510008   4.157   3.660  11.249 -0.3718 -1.3581  0.0792
  676MPD2    N110009   4.078   4.048  11.650  0.4439 -0.9133 -0.5069
  676MPD2    H710010   4.056   3.981  11.723 -0.6025 -0.3283 -0.2934
  677TMC3    C110011   4.134   4.175  11.845 -0.0446  0.3648  0.0299
  677TMC3    C210012   4.125   4.058  11.916 -0.7563 -0.0911 -0.3970
  677TMC3    C310013   4.208   4.054  12.025 -0.6558  1.1972  1.1081
  677TMC3    C410014   4.212   4.280  11.885 -0.5771  0.3036 -0.3826
  677TMC3    C510015   4.294   4.265  11.996 -0.1714 -0.1906 -0.3887
  677TMC3    C610016   4.292   4.153  12.067 -0.0345 -0.2266  0.0538
  677TMC3     C10017   4.083   4.175  11.707  0.3891  0.6099 -0.0572
  677TMC3     O10018   4.097   4.275  11.644 -0.1612 -0.0903  0.3296
  677TMC3     H10019   4.069   3.968  11.893 -1.6788  0.3301  0.1888
  677TMC3    H110020   4.206   4.374  11.831 -0.7431  0.6083  0.1722
  677TMC3    H210021   4.355   4.136  12.154 -0.7341  2.3246  1.0478
  677TMC3    C710022   4.386   4.374  12.053  0.0667 -0.3320 -0.6479
  677TMC3    C810023   4.217   3.924  12.087  0.5194 -0.1166  0.2210
  677TMC3    O110024   4.426   4.356  12.170 -0.0827 -0.4433  0.3823
  677TMC3    O210025   4.223   3.825  12.020 -0.4820 -0.4768  0.3114
  678MPD2     C10026   0.867   4.157   1.538 -0.5653 -0.2562  0.1025
  678MPD2    C110027   0.898   4.045   1.464 -0.2895  0.1494 -0.6598
  678MPD2    C210028   0.797   3.960   1.431  0.2186 -0.0137 -0.3918
  678MPD2    C310029   0.666   3.984   1.462  0.6454  0.0946 -1.0716
  678MPD2    C410030   0.638   4.099   1.527 -0.1739 -0.1081 -0.0617
  678MPD2    C510031   0.737   4.180   1.572 -0.1652  0.4147  0.2247
  678MPD2     H10032   0.818   3.881   1.360  1.0820 -0.7636  0.7065
  678MPD2    H110033   0.536   4.121   1.555  0.3207  0.7905  1.0476
  678MPD2    H210034   0.938   4.229   1.576 -0.7658 -0.1270  0.2285
  678MPD2    H310035   0.714   4.251   1.651 -1.7291 -1.0333  1.0816
  678MPD2     N10036   0.567   3.891   1.419 -0.1014  0.2798  0.2976
  678MPD2    H510037   0.598   3.804   1.375 -1.5284  1.0070 -2.1688
  678MPD2    N110038   1.026   4.015   1.408 -0.2510 -0.4566 -0.2363
  678MPD2    H710039   1.023   3.936   1.344 -1.0189  0.6362 -1.5624
  679TMC3    C110040   1.421   3.876   1.333 -0.2902 -0.0657 -0.6723
  679TMC3    C210041   1.346   3.954   1.424 -0.2030 -0.5829 -0.1011
  679TMC3    C310042   1.254   4.031   1.369 -0.2182  0.2249 -0.0483
  679TMC3    C410043   1.418   3.891   1.201  0.0750 -0.3811 -0.6733
  679TMC3    C510044   1.330   3.984   1.156  0.3108 -0.3476  0.1090
  679TMC3    C610045   1.240   4.051   1.237  0.5291 -0.2377  0.1579
  679TMC3     C10046   1.505   3.767   1.375 -0.2773  0.1906 -0.3107
  679TMC3     O10047   1.550   3.692   1.291  0.6555 -0.4105 -0.1722
  679TMC3     H10048   1.335   3.922   1.526 -1.9551 -0.4554 -0.2449
  679TMC3    H110049   1.468   3.823   1.133  0.6475 -0.7841  0.1660
  679TMC3    H210050   1.162   4.116   1.200 -0.0165 -1.1362 -0.2826
  679TMC3    C710051   1.351   4.025   1.017 -0.9102 -0.3216  0.5855
  679TMC3    C810052   1.147   4.082   1.450  0.3507  0.1585 -0.7705
  679TMC3    O110053   1.446   3.972   0.966  0.6510 -0.0793 -0.2323
  679TMC3    O210054   1.166   4.123   1.568 -0.3229  0.2346  0.0445
  680MPD2     C10055   1.498   2.570  13.702  0.9687  0.8079  0.5134
  680MPD2    C110056   1.533   2.496  13.811  0.7206 -0.0596  0.0299
  680MPD2    C210057   1.546   2.552  13.934 -0.0742 -0.0559  0.0602
  680MPD2    C310058   1.517   2.687  13.955 -0.5553  0.1188 -0.9687
  680MPD2    C410059   1.478   2.767  13.845 -0.2380  0.1721 -0.1620
  680MPD2    C510060   1.463   2.704  13.717 -0.5206 -0.9894  0.2592
  680MPD2     H10061   1.578   2.484  14.012 -0.0215  0.2351  0.2891
  680MPD2    H110062   1.458   2.873  13.854 -0.0638 -0.0183  2.2607
  680MPD2    H210063   1.475   2.537  13.601  0.5958  3.4935 -0.2787
  680MPD2    H310064   1.443   2.767  13.631  0.1362 -2.1876 -0.7810
  680MPD2     N10065   1.551   2.753  14.075 -0.8037 -0.6776  0.3581
  680MPD2    H510066   1.551   2.855  14.070 -0.5806 -0.6751  0.4292
  680MPD2    N110067   1.567   2.355  13.793 -0.3603 -0.3119  0.2943
  680MPD2    H710068   1.579   2.300  13.878 -1.9160  1.0182  1.3669
  681TMC3    C110069   1.643   2.159  13.701  0.1254  0.0554  0.3891
  681TMC3    C210070   1.594   2.081  13.799  0.3139  0.2381 -0.3007
  681TMC3    C310071   1.654   1.962  13.824 -0.2217  0.2208 -0.5773
  681TMC3    C410072   1.747   2.119  13.625 -1.0101  0.8862 -0.3034
  681TMC3    C510073   1.817   2.010  13.664  0.1239  0.8054 -0.0747
  681TMC3    C610074   1.776   1.938  13.768 -0.3992  0.7169  0.1027
  681TMC3     C10075   1.582   2.289  13.678  0.6288 -0.8648  0.4228
  681TMC3     O10076   1.588   2.336  13.563  0.5683  0.4692 -0.0577
  681TMC3     H10077   1.500   2.108  13.847  1.0926 -1.7051  2.3196
  681TMC3    H110078   1.786   2.174  13.541  2.0737 -2.5533 -1.1339
  681TMC3    H210079   1.818   1.839  13.780  0.6469  1.0211 -1.0423
  681TMC3    C710080   1.950   1.982  13.610  0.6064  0.5658 -0.7221
  681TMC3    C810081   1.628   1.895  13.946  0.0939 -0.1467  0.0235
  681TMC3    O110082   2.008   1.896  13.678  0.4611  0.7482 -0.1813
  681TMC3    O210083   1.661   1.780  13.956  0.0400  0.2240  0.8486
  682MPD2     C10084   3.624   4.035  10.779  0.0547  0.5564  0.9670
  682MPD2    C110085   3.498   3.992  10.738 -0.5046  0.7025  0.5869
  682MPD2    C210086   3.389   4.013  10.816 -0.1287 -0.0384  0.0784
  682MPD2    C310087   3.403   4.073  10.940 -0.4412 -0.1992 -0.0913
  682MPD2    C410088   3.530   4.118  10.981  0.1658  0.0955 -0.8859
  682MPD2    C510089   3.634   4.100  10.895 -0.4197 -0.3339  0.2871
  682MPD2     H10090   3.297   3.976  10.773  1.6463  0.0531 -3.7761
  682MPD2    H110091   3.538   4.181  11.069 -2.2200  0.6092 -1.0285
  682MPD2    H210092   3.712   4.017  10.719  0.8582  1.4010  1.8826
  682MPD2    H310093   3.732   4.140  10.916  0.1000 -0.4700 -1.9339
  682MPD2     N10094   3.293   4.088  11.026 -0.4019  0.4329  0.1465
  682MPD2    H510095   3.315   4.137  11.111  1.1757  3.1319 -1.8290
  682MPD2    N110096   3.478   3.918  10.618  0.0659 -1.0849  0.3856
  682MPD2    H710097   3.388   3.871  10.609 -0.7796  0.2183  2.0340
  683TMC3    C110098   2.964   4.071  11.298  0.6730  0.1889  0.1142
  683TMC3    C210099   2.844   4.088  11.237 -0.1236 -0.4434  0.4573
  683TMC3    C310100   2.831   4.088  11.098  0.4745 -0.3200 -0.3630
  683TMC3    C410101   3.077   4.081  11.221 -0.1049 -0.1962  0.2350
  683TMC3    C510102   3.068   4.100  11.087  0.0877 -0.6845  0.5021
  683TMC3    C610103   2.942   4.103  11.019  1.1733 -0.7234 -0.2722
  683TMC3     C10104   2.981   4.051  11.441 -0.8120 -0.0962 -0.6878
  683TMC3     O10105   3.095   4.034  11.487 -0.3648 -0.1187 -0.4260
  683TMC3     H10106   2.750   4.077  11.289 -0.4238  0.8216  0.1832
  683TMC3    H110107   3.173   4.061  11.267  0.9735  1.5430 -1.2672
  683TMC3    H210108   2.937   4.110  10.911  0.4806  1.5438 -0.0867
  683TMC3    C710109   3.161   4.044  11.000 -0.4809  0.3578 -0.4115
  683TMC3    C810110   2.744   3.982  11.048 -0.0408  0.2654  0.2290
  683TMC3    O110111   3.121   3.960  10.920  0.6036 -0.1108  0.0938
  683TMC3    O210112   2.633   3.975  11.096 -0.0912 -0.2518 -0.0584
  684MPD2     C10113   1.548   3.176  16.037 -0.6025  0.1894 -0.0178
  684MPD2    C110114   1.466   3.219  15.934 -0.3853 -0.1537  0.1970
  684MPD2    C210115   1.418   3.350  15.937  0.5131  0.0669  0.0689
  684MPD2    C310116   1.442   3.428  16.046 -0.1187 -0.3823  0.8515
  684MPD2    C410117   1.516   3.372  16.148 -0.8170 -0.2056 -0.2841
  684MPD2    C510118   1.575   3.253  16.144 -0.1182 -0.2606 -0.1216
  684MPD2     H10119   1.367   3.379  15.846 -1.6655 -1.2299  0.8860
  684MPD2    H110120   1.546   3.429  16.235  1.9202  0.1004 -1.4360
  684MPD2    H210121   1.600   3.081  16.025 -1.4365 -0.3274  0.4319
  684MPD2    H310122   1.635   3.216  16.227 -0.3684  2.4688  1.2919
  684MPD2     N10123   1.398   3.560  16.061 -0.7604  0.1931  0.3017
  684MPD2    H510124   1.432   3.604  16.146 -1.6154 -1.2473  1.4102
  684MPD2    N110125   1.440   3.150  15.815 -0.3789 -0.0427  0.7951
  684MPD2    H710126   1.383   3.195  15.744 -0.6641  0.6423  1.4505
  685TMC3    C110127   1.514   3.039  15.630  0.6583 -0.3179 -0.2319
  685TMC3    C210128   1.392   3.048  15.563 -0.3562 -0.3338 -0.5030
  685TMC3    C310129   1.394   3.134  15.456  0.9793  0.1333 -0.2376
  685TMC3    C410130   1.622   3.113  15.581  0.7312  0.4665  0.0115
  685TMC3    C510131   1.617   3.203  15.483  0.4298 -0.2594  0.6464
  685TMC3    C610132   1.501   3.205  15.413  0.4216 -0.2955  0.5038
  685TMC3     C10133   1.512   3.048  15.776 -0.9229  0.0954 -0.1520
  685TMC3     O10134   1.591   2.976  15.837 -0.2140 -0.6004  0.1228
  685TMC3     H10135   1.305   2.988  15.587  0.0172 -1.2252 -1.3746
  685TMC3    H110136   1.714   3.099  15.637 -0.6929 -0.2870  2.1532
  685TMC3    H210137   1.495   3.285  15.341 -0.2740  1.6037  2.6609
  685TMC3    C710138   1.657   3.337  15.526 -0.4079  0.3786 -0.0803
  685TMC3    C810139   1.268   3.190  15.414 -0.9998 -0.5946  0.1521
  685TMC3    O110140   1.656   3.431  15.448 -0.7878 -0.0639 -0.2728
  685TMC3    O210141   1.255   3.270  15.324  0.3136  0.4511 -0.4721
  686MPD2     C10142   2.662   2.834  15.425 -0.4205 -0.4283 -0.0675
  686MPD2    C110143   2.714   2.774  15.535  0.7897  0.1367  0.2144
  686MPD2    C210144   2.790   2.664  15.507 -0.0430 -0.7593  0.0058
  686MPD2    C310145   2.779   2.592  15.390  0.1098  0.0501  0.0165
  686MPD2    C410146   2.730   2.652  15.282  0.6438  0.5347  0.5565
  686MPD2    C510147   2.673   2.775  15.305 -0.5013  0.2963 -0.0480
  686MPD2     H10148   2.830   2.625  15.600  3.1978  0.0062 -1.0988
  686MPD2    H110149   2.729   2.609  15.183  0.7175 -0.0273  0.7983
  686MPD2    H210150   2.610   2.929  15.435  0.8123  0.5797 -3.0627
  686MPD2    H310151   2.633   2.829  15.220  1.6630  0.9765 -0.6261
  686MPD2     N10152   2.819   2.458  15.372  0.4327  0.7019 -0.4279
  686MPD2    H510153   2.833   2.430  15.276 -3.3610  1.3885 -1.1815
  686MPD2    N110154   2.686   2.825  15.661 -0.0348 -0.5099  0.2904
  686MPD2    H710155   2.614   2.896  15.667 -0.7466 -1.3125  1.2350
  687TMC3    C110156   2.781   2.379  15.604  0.3218  0.8193 -0.6826
  687TMC3    C210157   2.649   2.410  15.608 -0.3345 -0.5912  0.6137
  687TMC3    C310158   2.582   2.379  15.723  0.1729 -0.5970 -0.1536
  687TMC3    C410159   2.846   2.329  15.715 -0.5912 -0.2349  0.3296
  687TMC3    C510160   2.773   2.281  15.818  0.3539  0.7184 -0.7328
  687TMC3    C610161   2.633   2.285  15.808 -0.5743 -0.5641  0.4501
  687TMC3     C10162   2.868   2.379  15.480  0.1617 -0.1199 -0.0595
  687TMC3     O10163   2.945   2.289  15.478  0.6307 -0.4275 -0.1373
  687TMC3     H10164   2.599   2.443  15.518  0.2593  2.1415  1.2867
  687TMC3    H110165   2.955   2.326  15.707 -0.8368 -3.5997 -1.8203
  687TMC3    H210166   2.587   2.262  15.903 -2.2653  0.7202 -0.0517
  687TMC3    C710167   2.809   2.316  15.954  0.6852 -0.9330  0.4126
  687TMC3    C810168   2.508   2.480  15.802  1.1365  0.0565  0.5257
  687TMC3    O110169   2.776   2.238  16.041 -0.1645 -0.4682  0.1029
  687TMC3    O210170   2.523   2.479  15.921 -0.5433  0.2082  0.6354
  688MPD2     C10171   2.548   1.757  16.569 -0.1037  0.1129 -0.3189
  688MPD2    C110172   2.546   1.637  16.630  0.3772  0.7465  0.5234
  688MPD2    C210173   2.663   1.561  16.631  0.3851  0.0371  0.0663
  688MPD2    C310174   2.777   1.605  16.568 -0.2740 -0.6147 -0.4613
  688MPD2    C410175   2.781   1.727  16.507  0.6093  0.9309  0.9306
  688MPD2    C510176   2.667   1.801  16.500 -0.9277 -0.0724 -0.1824
  688MPD2     H10177   2.669   1.464  16.677  0.4595 -0.9674 -2.0501
  688MPD2    H110178   2.869   1.765  16.456  0.8765  1.2157  1.5926
  688MPD2    H210179   2.465   1.826  16.562 -0.5712 -0.5861 -1.6900
  688MPD2    H310180   2.669   1.903  16.464  0.0203 -0.8421 -2.2975
  688MPD2     N10181   2.884   1.520  16.566  0.1655  0.4452 -0.1951
  688MPD2    H510182   2.866   1.429  16.608  1.4883  0.3951  0.2826
  688MPD2    N110183   2.427   1.601  16.707 -0.0932 -0.4512 -0.7442
  688MPD2    H710184   2.429   1.513  16.757  1.0003 -0.1879 -0.3290
  689TMC3    C110185   2.212   1.622  16.802  1.0478  0.3283 -0.1522
  689TMC3    C210186   2.152   1.727  16.873 -0.3932 -0.2002  0.1498
  689TMC3    C310187   2.065   1.701  16.978  0.3179 -0.5202  0.0351
  689TMC3    C410188   2.188   1.484  16.825  0.4880 -0.1392 -0.2592
  689TMC3    C510189   2.100   1.466  16.923 -0.4021 -0.7608 -0.3891
  689TMC3    C610190   2.042   1.566  17.003 -0.5816  0.1806 -0.2318
  689TMC3     C10191   2.307   1.667  16.700 -0.2766  0.0839  1.2555
  689TMC3     O10192   2.271   1.769  16.639 -0.1115  0.2023 -0.0999
  689TMC3     H10193   2.190   1.829  16.872 -1.9119  0.3450 -1.8294
  689TMC3    H110194   2.240   1.396  16.789 -1.7204 -1.5189 -0.1112
  689TMC3    H210195   1.973   1.541  17.083 -0.8483  0.2323 -0.4421
  689TMC3    C710196   2.039   1.328  16.936  0.6378 -0.0342  0.0598
  689TMC3    C810197   2.075   1.782  17.096 -0.5323 -0.2958 -0.6771
  689TMC3    O110198   2.029   1.252  16.837  0.1252 -0.1449  0.3038
  689TMC3    O210199   2.087   1.715  17.199 -0.3450 -0.0798 -0.2990
  690MPD2     C10200   4.042   3.414  15.650  0.8540  0.0219  0.3127
  690MPD2    C110201   3.992   3.396  15.520  0.0984  0.1569  0.3452
  690MPD2    C210202   4.078   3.415  15.411 -0.4204  0.3101  0.4597
  690MPD2    C310203   4.206   3.456  15.435  0.3296  0.2487 -0.2472
  690MPD2    C410204   4.259   3.467  15.564  0.5803  0.1416 -0.3188
  690MPD2    C510205   4.174   3.444  15.667 -0.4109  0.1701  0.0246
  690MPD2     H10206   4.036   3.392  15.314  2.0087 -1.0803 -0.2584
  690MPD2    H110207   4.361   3.492  15.587  0.5298  1.0343 -1.0815
  690MPD2    H210208   3.982   3.412  15.740  0.6735  2.3874  0.2651
  690MPD2    H310209   4.222   3.450  15.765  1.2836 -1.0479 -0.7204
  690MPD2     N10210   4.286   3.485  15.317 -0.1750  0.2955 -0.0787
  690MPD2    H510211   4.240   3.463  15.230  0.0287  0.6370 -0.2698
  690MPD2    N110212   3.861   3.355  15.495  0.2133  0.1850  0.0496
  690MPD2    H710213   3.829   3.339  15.400 -0.1965  1.3270 -0.0023
  691TMC3    C110214   3.649   3.263  15.540  0.3988 -0.0936  0.9175
  691TMC3    C210215   3.543   3.295  15.608 -0.1701  0.3031 -0.2223
  691TMC3    C310216   3.457   3.197  15.650 -0.1986 -0.0646 -0.4648
  691TMC3    C410217   3.684   3.135  15.511 -0.0528 -0.5074  0.4535
  691TMC3    C510218   3.594   3.040  15.549 -0.1185  0.7780 -1.2717
  691TMC3    C610219   3.485   3.066  15.623  0.8133  0.3098  0.3646
  691TMC3     C10220   3.762   3.348  15.590 -0.1624  0.6638 -0.5838
  691TMC3     O10221   3.754   3.393  15.704 -0.8024 -0.1373  0.4389
  691TMC3     H10222   3.525   3.401  15.619  1.1022  0.6547 -1.4164
  691TMC3    H110223   3.785   3.105  15.483 -0.4365 -1.3152 -0.0639
  691TMC3    H210224   3.413   2.988  15.646 -0.4243  1.1668 -0.5741
  691TMC3    C710225   3.600   2.897  15.511  0.7574  0.4233 -0.0168
  691TMC3    C810226   3.335   3.237  15.721 -0.3162  0.1394  0.4546
  691TMC3    O110227   3.523   2.814  15.555  0.3799 -0.2889  0.1699
  691TMC3    O210228   3.334   3.361  15.734 -0.2679  0.0994 -0.0998
  692TMC3    C110229   0.694   0.009  15.439  0.8305 -0.0273  0.4846
  692TMC3    C210230   0.795   0.102  15.423 -0.7423 -0.1270 -0.3412
  692TMC3    C310231   0.921   0.063  15.383 -0.4768 -0.9278 -0.1467
  692TMC3    C410232   0.720   4.600  15.433 -0.3639 -0.3324  0.4158
  692TMC3    C510233   0.848   4.566  15.422 -0.0858  0.0606  0.3745
  692TMC3    C610234   0.948   4.656  15.399 -0.0668 -0.1508 -0.4694
  692TMC3     C10235   0.586   0.059  15.516 -0.6586 -0.0269 -0.0649
  692TMC3     O10236   0.624   0.132  15.605  0.2983 -0.1463 -0.6468
  692TMC3     H10237   0.768   0.204  15.401 -0.7549 -0.0171  0.1910
  692TMC3    H110238   0.638   4.533  15.454 -0.2597 -0.1591  1.3869
  692TMC3    H210239   1.042   4.624  15.354  0.8578  0.0989  1.2721
  692TMC3    C710240   0.886   4.436  15.394  0.1557 -0.0017  0.3247
  692TMC3    C810241   1.024   0.137  15.451  0.7026  0.6411 -0.7350
  692TMC3    O110242   0.836   4.383  15.296 -0.1391 -0.0363  0.2875
  692TMC3    O210243   1.141   0.106  15.450 -0.4873 -0.0559 -0.0822
  693MPD2     C10244   0.896   3.240  11.103  0.1108 -0.6776 -0.1249
  693MPD2    C110245   0.821   3.153  11.176  0.2512  0.2590 -0.7771
  693MPD2    C210246   0.884   3.068  11.263  0.2004 -0.4600 -0.5173
  693MPD2    C310247   1.027   3.069  11.270 -0.4962 -0.7778 -0.0720
  693MPD2    C410248   1.097   3.157  11.194 -0.4018 -0.6721  0.4041
  693MPD2    C510249   1.030   3.243  11.119 -0.0334  0.4392  0.4249
  693MPD2     H10250   0.833   2.987  11.313  0.6025 -0.9938 -0.9722
  693MPD2    H110251   1.203   3.139  11.176 -0.9822 -1.5062 -2.1642
  693MPD2    H210252   0.858   3.324  11.046  1.8122  0.7816  0.9076
  693MPD2    H310253   1.087   3.299  11.046  0.1812 -1.0615 -0.5541
  693MPD2     N10254   1.091   2.959  11.331  0.4072  0.4099 -0.7375
  693MPD2    H510255   1.187   2.941  11.303 -0.1443  0.4684 -2.6544
  693MPD2    N110256   0.679   3.143  11.165 -0.1505 -0.9344 -0.1181
  693MPD2    H710257   0.636   3.084  11.235 -1.2618 -1.3134 -1.1274
  694TMC3    C110258   0.465   3.150  11.071 -0.6080  0.1468 -0.0737
  694TMC3    C210259   0.425   3.096  10.953 -0.2900  0.6368  0.2344
  694TMC3    C310260   0.349   2.981  10.969  0.4412  0.1899  0.9291
  694TMC3    C410261   0.428   3.107  11.187 -0.0977  0.0448  0.8576
  694TMC3    C510262   0.348   3.004  11.204  0.3443  0.5460  0.6414
  694TMC3    C610263   0.317   2.933  11.091  0.3837  0.5709  0.6164
  694TMC3     C10264   0.603   3.202  11.066 -0.3976  0.0141  0.1588
  694TMC3     O10265   0.628   3.251  10.958  0.2003  0.3392 -0.9014
  694TMC3     H10266   0.446   3.150  10.861 -0.6226  0.3711  0.0000
  694TMC3    H110267   0.457   3.163  11.275 -0.6371 -1.1045  1.7750
  694TMC3    H210268   0.282   2.830  11.096 -0.6295  0.9351  1.1688
  694TMC3    C710269   0.265   3.004  11.323 -0.0336  0.0887  0.7462
  694TMC3    C810270   0.290   2.914  10.850 -0.0378 -0.0313 -0.1381
  694TMC3    O110271   0.245   3.114  11.367  0.0718 -0.1481 -0.5776
  694TMC3    O210272   0.238   2.806  10.876 -0.0171 -0.0256  0.4451
  695MPD2     C10273   1.705   4.543  13.698  0.1006 -0.0866  0.3658
  695MPD2    C110274   1.660   4.455  13.791  0.4003 -0.1605  0.5132
  695MPD2    C210275   1.531   4.410  13.790 -0.5802 -0.3511  0.7055
  695MPD2    C310276   1.440   4.467  13.702 -0.2010 -0.8340  0.0646
  695MPD2    C410277   1.478   4.566  13.611 -0.1330 -0.5316 -0.3882
  695MPD2    C510278   1.610   4.603  13.611 -0.5910 -0.4510 -0.5177
  695MPD2     H10279   1.495   4.326  13.849 -1.6458  0.3429  1.0500
  695MPD2    H110280   1.410   4.612  13.540  0.3097 -0.8558 -1.0142
  695MPD2    H210281   1.803   4.588  13.684  0.4207 -1.1901 -0.9870
  695MPD2    H310282   1.653   4.685  13.554  1.2015  0.0170  1.5088
  695MPD2     N10283   1.301   4.429  13.713 -0.5764 -0.2969  0.7182
  695MPD2    H510284   1.282   4.378  13.799  0.4571 -0.1251  1.0589
  695MPD2    N110285   1.738   4.401  13.895  0.0980 -0.1102  0.0958
  695MPD2    H710286   1.695   4.328  13.952  1.4336 -0.7530  0.2691
  696TMC3    C110287   1.079   4.399  13.660  0.1193  0.0858  0.3185
  696TMC3    C210288   1.061   4.311  13.768 -0.2142  0.6690 -1.2122
  696TMC3    C310289   0.932   4.269  13.806 -0.5163 -0.4805  0.1372
  696TMC3    C410290   0.967   4.426  13.579 -0.0194  0.3555  0.2990
  696TMC3    C510291   0.850   4.362  13.608  0.5365  0.2477  0.1527
  696TMC3    C610292   0.827   4.292  13.722 -0.4295 -0.2674  1.0756
  696TMC3     C10293   1.199   4.471  13.629  0.1242  0.2449 -0.2773
  696TMC3     O10294   1.196   4.540  13.528 -0.4079 -0.1258 -0.3772
  696TMC3     H10295   1.144   4.279  13.830 -0.2912  2.3890 -0.2397
  696TMC3    H110296   0.979   4.475  13.483  0.6323 -1.2149 -0.4120
  696TMC3    H210297   0.739   4.231  13.740 -0.9375 -0.4305 -1.9933
  696TMC3    C710298   0.726   4.432  13.583  0.3385  0.2645  0.2641
  696TMC3    C810299   0.913   4.341  13.927 -0.1606 -0.1796  0.3406
  696TMC3    O110300   0.618   4.366  13.587  0.4056 -0.0996  0.2941
  696TMC3    O210301   1.004   4.351  14.005  0.0975 -0.9951 -0.1004
  697MPD2     C10302   0.184   1.288  15.154  0.7572  0.7697 -0.0030
  697MPD2    C110303   0.322   1.309  15.190 -0.8118  0.4849  0.4534
  697MPD2    C210304   0.386   1.430  15.168 -0.9855 -0.9932 -0.4269
  697MPD2    C310305   0.326   1.523  15.085 -0.0560 -0.4049 -0.1797
  697MPD2    C410306   0.195   1.502  15.038 -0.0845 -0.1605  0.5426
  697MPD2    C510307   0.120   1.388  15.077  0.0976 -0.6234  0.6818
  697MPD2     H10308   0.490   1.447  15.194 -0.7370 -2.9246 -0.1471
  697MPD2    H110309   0.150   1.582  14.980  4.4477  0.2386 -2.4722
  697MPD2    H210310   0.134   1.195  15.179  1.2518  0.3084 -0.7422
  697MPD2    H310311   0.022   1.372  15.033  0.2509  0.3832 -0.0152
  697MPD2     N10312   0.396   1.644  15.060 -0.0899  0.4289  0.5001
  697MPD2    H510313   0.483   1.664  15.108 -0.1070  0.4008  0.5430
  697MPD2    N110314   0.386   1.197  15.242 -0.5406 -0.0831 -0.1326
  697MPD2    H710315   0.340   1.111  15.271 -0.1306 -0.4678 -0.6156
  698TMC3    C110316   0.479   1.817  14.928 -0.5287  0.9719  0.8910
  698TMC3    C210317   0.554   1.849  15.043  0.9334 -1.1028  0.3076
  698TMC3    C310318   0.682   1.881  15.019  0.4636 -0.0951 -0.2360
  698TMC3    C410319   0.519   1.836  14.803 -0.8366 -0.5939  0.1776
  698TMC3    C510320   0.654   1.860  14.781  0.0542  0.0472  0.8059
  698TMC3    C610321   0.738   1.892  14.884 -0.5683 -0.2767 -0.5362
  698TMC3     C10322   0.370   1.723  14.946 -0.5139  0.9504  0.1639
  698TMC3     O10323   0.302   1.706  14.846 -0.7484 -0.0050 -0.3213
  698TMC3     H10324   0.515   1.841  15.144 -1.0400  1.7373 -0.2317
  698TMC3    H110325   0.459   1.788  14.727 -1.4353 -1.6985  1.3567
  698TMC3    H210326   0.838   1.931  14.870  0.2595 -1.7892  1.2033
  698TMC3    C710327   0.703   1.845  14.646  0.5156  0.6256 -0.1972
  698TMC3    C810328   0.771   1.852  15.131 -0.7189  0.4767 -0.3329
  698TMC3    O110329   0.615   1.868  14.560  0.1430 -0.6200 -0.2682
  698TMC3    O210330   0.725   1.787  15.219 -0.1947 -0.1976 -0.5071
  699TMC3    C110331   1.149   4.352  13.172 -0.5879  0.2146 -0.6112
  699TMC3    C210332   1.216   4.260  13.252 -0.6339  0.2074  0.5705
  699TMC3    C310333   1.144   4.155  13.292 -0.9342  0.2286  0.2691
  699TMC3    C410334   1.023   4.336  13.122 -0.4047 -0.3701 -0.9724
  699TMC3    C510335   0.943   4.237  13.176  0.8713  0.0282  0.5164
  699TMC3    C610336   1.009   4.148  13.252  0.1183  0.1155 -0.0224
  699TMC3     C10337   1.200   4.490  13.157  0.2527 -0.6604  0.2398
  699TMC3     O10338   1.120   4.570  13.110 -0.0833 -0.2255  0.0727
  699TMC3     H10339   1.316   4.271  13.293 -0.1495  0.1936 -0.6014
  699TMC3    H110340   0.974   4.405  13.054 -0.5741 -0.3188 -0.8001
  699TMC3    H210341   0.962   4.053  13.276  1.0051 -0.6978 -1.5454
  699TMC3    C710342   0.811   4.262  13.207  0.3903 -0.2191  0.4997
  699TMC3    C810343   1.155   4.111  13.433  0.3163  0.2877  0.2227
  699TMC3    O110344   0.775   4.222  13.318  0.3105 -0.0313  0.8159
  699TMC3    O210345   1.053   4.067  13.482 -0.3045  0.3548 -0.4873
  700TMC3    C110346   4.670   2.249  17.450 -0.2617 -0.2299 -0.3892
  700TMC3    C210347   0.031   2.165  17.380 -0.3734  0.1670 -0.7121
  700TMC3    C310348   0.163   2.169  17.423  0.2033 -0.0946  0.0998
  700TMC3    C410349   4.710   2.333  17.548 -0.3658  0.4927  0.5504
  700TMC3    C510350   0.122   2.334  17.572 -0.0075  0.3770 -0.1551
  700TMC3    C610351   0.216   2.263  17.511  0.7425  0.1370 -0.3367
  700TMC3     C10352   4.590   2.317  17.348 -0.7045  0.8784  0.8288
  700TMC3     O10353   4.478   2.278  17.314  1.0315 -0.2279 -0.5346
  700TMC3     H10354   4.722   2.089  17.311  0.2746  1.2650 -2.2492
  700TMC3    H110355   4.634   2.394  17.594 -1.3965 -0.7165  0.4366
  700TMC3    H210356   0.323   2.276  17.524  1.0789  0.4474 -3.4316
  700TMC3    C710357   0.174   2.458  17.628 -0.5983  0.4898 -0.0893
  700TMC3    C810358   0.250   2.069  17.376  0.3877  0.2259 -0.3362
  700TMC3    O110359   0.269   2.505  17.568  0.4017 -0.0222  0.1285
  700TMC3    O210360   0.371   2.093  17.367  0.1284  0.2878 -0.2958
  701TMC3    C110361   4.640   0.910  15.597 -0.0468 -0.1394 -0.2119
  701TMC3    C210362   4.663   0.896  15.464  0.5898 -0.0141 -0.3050
  701TMC3    C310363   0.060   0.952  15.421  0.1053 -0.3839 -0.9892
  701TMC3    C410364   0.000   0.980  15.683 -0.1478  0.5294 -0.1708
  701TMC3    C510365   0.112   1.036  15.629 -0.2897 -0.7273  0.1083
  701TMC3    C610366   0.142   1.019  15.497 -0.1238  0.7027  0.0967
  701TMC3     C10367   4.513   0.884  15.647  0.4760  0.4995  0.0013
  701TMC3     O10368   4.504   0.920  15.768 -0.1618 -0.3596  0.4191
  701TMC3     H10369   4.600   0.837  15.398  0.9680 -0.3444 -0.3647
  701TMC3    H110370   4.697   0.996  15.787  0.9503 -2.0098  0.5280
  701TMC3    H210371   0.238   1.054  15.462  0.4088 -1.3302 -0.4648
  701TMC3    C710372   0.197   1.123  15.704  0.5933  0.0996 -0.2929
  701TMC3    C810373   0.121   0.908  15.294 -0.1902 -0.1874 -0.9643
  701TMC3    O110374   0.229   1.224  15.647 -0.4487 -0.6999  0.3020
  701TMC3    O210375   0.213   0.967  15.243  0.3719  0.3136 -0.2389
  702MPD2     C10376   4.492   3.360  10.907 -0.0424  0.1440 -0.7271
  702MPD2    C110377   4.427   3.451  10.988  0.2326 -0.4830  0.4183
  702MPD2    C210378   4.435   3.592  10.957 -0.3178 -0.9748 -0.2185
  702MPD2    C310379   4.517   3.632  10.850 -1.0528  0.1225 -0.6270
  702MPD2    C410380   4.587   3.540  10.777  0.5457 -0.9070  0.3816
  702MPD2    C510381   4.574   3.403  10.807 -0.0903 -0.2321  0.4349
  702MPD2     H10382   4.380   3.659  11.022  0.0177  0.0179 -0.9712
  702MPD2    H110383   4.664   3.565  10.705 -1.2106  1.2628 -0.7552
  702MPD2    H210384   4.497   3.253  10.923 -1.0588  0.5905  2.6484
  702MPD2    H310385   4.628   3.330  10.747  1.4857 -0.0289  1.6032
  702MPD2     N10386   4.522   3.770  10.812  0.6342  0.1091 -0.8937
  702MPD2    H510387   4.566   3.795  10.724 -0.4476  1.9563 -0.9118
  702MPD2    N110388   4.329   3.420  11.080  0.2531 -0.2396 -0.6330
  702MPD2    H710389   4.265   3.494  11.105  1.5024  0.6157  0.0587
  703TMC3    C110390   4.478   3.992  10.807 -0.3287  0.3675  1.0191
  703TMC3    C210391   4.393   4.098  10.838 -0.7457 -0.0440 -0.0923
  703TMC3    C310392   4.448   4.227  10.829  0.6901  0.2546  0.8545
  703TMC3    C410393   4.608   4.015  10.765  0.1515  0.1752  0.8779
  703TMC3    C510394   4.651   4.144  10.754  0.3228 -0.5480 -0.1016
  703TMC3    C610395   4.573   4.254  10.781 -0.1390 -0.2895  0.3151
  703TMC3     C10396   4.444   3.868  10.869  0.1932 -0.1014 -0.1604
  703TMC3     O10397   4.352   3.868  10.952 -0.1008 -0.0250  0.9596
  703TMC3     H10398   4.286   4.080  10.848 -0.5189 -0.9408  0.7513
  703TMC3    H110399   4.677   3.932  10.771  0.7171  0.6138  0.3072
  703TMC3    H210400   4.616   4.353  10.786 -0.6398 -0.0615  0.2032
  703TMC3    C710401   0.047   4.178  10.677  0.3417 -0.0914  0.0421
  703TMC3    C810402   4.368   4.338  10.870  0.1249 -0.5463  0.5802
  703TMC3    O110403   0.108   4.282  10.695 -0.6107  0.0334  0.2937
  703TMC3    O210404   4.418   4.450  10.857  0.6347  0.3882 -0.2056
  704TMC3    C110405   3.042   1.341  12.575  0.0347 -0.1677  0.1607
  704TMC3    C210406   3.012   1.373  12.448  0.1404  0.0386  0.2148
  704TMC3    C310407   3.065   1.299  12.345 -0.3029 -0.5307  0.0966
  704TMC3    C410408   3.101   1.217  12.609  0.5584 -0.0455  0.1951
  704TMC3    C510409   3.145   1.143  12.498  0.5082  0.5085 -0.0341
  704TMC3    C610410   3.141   1.184  12.366  0.0090  0.1917 -0.3499
  704TMC3     C10411   2.937   1.361  12.669  0.3072 -0.6628 -0.1287
  704TMC3     O10412   2.955   1.331  12.790  0.4517  0.2912 -0.1476
  704TMC3     H10413   2.960   1.463  12.417  2.7135  0.8710 -1.6546
  704TMC3    H110414   3.113   1.182  12.711 -1.0055 -0.4550  0.2365
  704TMC3    H210415   3.188   1.130  12.284 -1.0676  1.2839 -1.6781
  704TMC3    C710416   3.210   1.012  12.512 -0.2695 -0.5080  0.2031
  704TMC3    C810417   3.033   1.340  12.214 -0.6879  0.7043  0.0745
  704TMC3    O110418   3.312   0.997  12.446 -0.2817 -0.8830 -0.7208
  704TMC3    O210419   2.942   1.423  12.202 -0.2421  0.0936 -0.0933
  705MPD2     C10420   0.946   4.315  16.257 -0.3362 -0.3484  0.4372
  705MPD2    C110421   0.971   4.429  16.317 -0.1404 -0.3254 -0.4416
  705MPD2    C210422   0.871   4.494  16.378 -0.1614 -0.1994  0.0596
  705MPD2    C310423   0.740   4.445  16.379 -0.2817  0.2041 -0.4998
  705MPD2    C410424   0.724   4.320  16.322  1.1528  0.3965 -0.0965
  705MPD2    C510425   0.825   4.255  16.264 -0.1696 -0.3838 -0.3627
  705MPD2     H10426   0.901   4.588  16.423 -1.0966 -0.8718  2.0865
  705MPD2    H110427   0.628   4.273  16.307  2.0244 -1.1391 -0.7894
  705MPD2    H210428   1.018   4.265  16.194 -1.8725  0.2657 -1.7924
  705MPD2    H310429   0.819   4.170  16.197 -1.3492 -0.4361 -0.1958
  705MPD2     N10430   0.633   4.509  16.456 -0.6394 -0.0322  0.8322
  705MPD2    H510431   0.552   4.450  16.475 -0.3196  0.0929  2.5692
  705MPD2    N110432   1.096   4.495  16.319 -0.0016 -0.1843  0.3020
  705MPD2    H710433   1.100   4.581  16.372 -1.1937 -0.2426  0.4783
  706TMC3    C110434   1.539   4.642  16.253  0.5002  0.3668 -0.0385
  706TMC3    C210435   1.500   0.030  16.332 -0.1571 -0.5504 -0.1490
  706TMC3    C310436   1.367   0.048  16.362  0.5625 -0.3506  0.2860
  706TMC3    C410437   1.442   4.549  16.225  0.0182  0.5532  0.0673
  706TMC3    C510438   1.309   4.571  16.263  0.0541  0.4061  0.0812
  706TMC3    C610439   1.268   4.682  16.327  0.5405 -0.3368  1.0596
  706TMC3     C10440   1.683   4.619  16.213 -0.6002  0.1348 -0.0185
  706TMC3     O10441   1.770   4.671  16.282  0.1699  0.3153 -0.2053
  706TMC3     H10442   1.571   0.111  16.341 -0.0740 -0.4755 -1.4474
  706TMC3    H110443   1.464   4.463  16.163 -2.7842 -0.4852  0.4804
  706TMC3    H210444   1.166   4.706  16.355  0.0765 -0.7520 -0.2835
  706TMC3    C710445   1.208   4.462  16.245  0.0321  0.5863 -0.2913
  706TMC3    C810446   1.317   0.187  16.370  0.7074 -0.2941  0.6070
  706TMC3    O110447   1.229   4.364  16.173  0.7006  0.2527 -0.1045
  706TMC3    O210448   1.199   0.198  16.345 -0.0563 -0.1030 -0.3521
  707TMC3    C110449   4.512   3.721   1.844 -1.0780 -0.1187 -0.0505
  707TMC3    C210450   4.601   3.622   1.877  0.3065 -0.4620  0.1183
  707TMC3    C310451   4.683   3.651   1.977  0.1420 -0.1870  0.5350
  707TMC3    C410452   4.521   3.853   1.888 -0.4111  0.0041  0.3961
  707TMC3    C510453   4.626   3.881   1.978 -0.4174 -0.3311 -0.6469
  707TMC3    C610454   4.702   3.781   2.026  0.7289  0.9112  0.0729
  707TMC3     C10455   4.407   3.671   1.758  0.4902 -0.5052  0.5903
  707TMC3     O10456   4.397   3.552   1.749 -0.4163  0.3280 -0.7399
  707TMC3     H10457   4.605   3.526   1.828  2.3414 -0.6541  0.6533
  707TMC3    H110458   4.444   3.925   1.861  0.0492 -0.2764 -1.7034
  707TMC3    H210459   0.052   3.795   2.103  0.1918  0.6682  0.6399
  707TMC3    C710460   4.665   4.018   2.010  0.4190  0.3848  0.3082
  707TMC3    C810461   0.055   3.554   2.019  0.5290  0.6312  0.4095
  707TMC3    O110462   4.622   4.104   1.939  0.1363  0.2938 -0.6387
  707TMC3    O210463   0.122   3.582   2.117 -0.3473 -0.1687 -0.2847
  708MPD2     C10464   0.496   2.296  13.666 -0.1946 -0.7118 -0.0053
  708MPD2    C110465   0.499   2.398  13.748  0.5634  0.0350 -0.2704
  708MPD2    C210466   0.465   2.392  13.881 -1.0979  0.2644  0.4883
  708MPD2    C310467   0.419   2.270  13.934 -0.5816  0.0203  0.1616
  708MPD2    C410468   0.432   2.167  13.852 -0.0070 -0.3374  0.0248
  708MPD2    C510469   0.478   2.177  13.725 -0.1891  0.4598 -0.5853
  708MPD2     H10470   0.447   2.483  13.937  2.4368  0.0041  2.0164
  708MPD2    H110471   0.413   2.069  13.895 -0.7239 -0.5466 -0.7726
  708MPD2    H210472   0.539   2.295  13.567  0.5311  2.3263  0.2761
  708MPD2    H310473   0.482   2.092  13.657  0.2103  0.6891 -0.8459
  708MPD2     N10474   0.378   2.259  14.074 -0.2111  0.0308  0.0402
  708MPD2    H510475   0.325   2.173  14.087  1.2553 -1.0100 -0.9223
  708MPD2    N110476   0.547   2.520  13.685  0.4466 -0.4203  0.7990
  708MPD2    H710477   0.575   2.512  13.588 -0.4812 -1.3699  0.6125
  709TMC3    C110478   0.572   2.763  13.661 -0.2591  0.4827 -0.2227
  709TMC3    C210479   0.580   2.752  13.529 -1.1675 -0.7233 -0.4388
  709TMC3    C310480   0.504   2.838  13.450  0.3015  0.8856 -0.5038
  709TMC3    C410481   0.518   2.874  13.719 -0.6070 -0.2221 -0.8344
  709TMC3    C510482   0.433   2.951  13.649  0.7860 -0.3718 -0.0362
  709TMC3    C610483   0.431   2.938  13.509 -0.5817 -0.0151  0.0031
  709TMC3     C10484   0.532   2.647  13.741  0.1659 -0.2849 -0.2257
  709TMC3     O10485   0.465   2.672  13.835  0.6166  0.0514 -0.1627
  709TMC3     H10486   0.629   2.669  13.479  1.4787  0.3295  0.4278
  709TMC3    H110487   0.515   2.896  13.825 -0.0366 -1.3751 -0.5838
  709TMC3    H210488   0.363   3.002  13.455  1.7500  1.3624 -1.2960
  709TMC3    C710489   0.290   2.949  13.693  0.2891  0.0074  0.7817
  709TMC3    C810490   0.518   2.832  13.307 -0.0368  0.0704 -0.6812
  709TMC3    O110491   0.203   3.022  13.647 -0.1542 -0.4594  0.0002
  709TMC3    O210492   0.622   2.779  13.264  0.6498  0.0760 -0.3657
  710TMC3    C110493   0.660   4.646   0.624 -0.1724  0.2101 -1.0076
  710TMC3    C210494   0.660   4.645   0.487 -0.2957 -0.4023 -0.1910
  710TMC3    C310495   0.772   4.596   0.423  0.3463 -0.3447  0.6628
  710TMC3    C410496   0.764   4.592   0.694 -0.0911 -0.3580  0.3752
  710TMC3    C510497   0.872   4.541   0.625  1.1540  1.2974 -0.3479
  710TMC3    C610498   0.885   4.547   0.492 -0.3711  0.2828 -0.0185
  710TMC3     C10499   0.541   4.684   0.689  0.0526 -0.1014  0.4022
  710TMC3     O10500   0.436   4.670   0.625  0.4347  0.3786  0.1012
  710TMC3     H10501   0.573   4.685   0.435 -0.1791 -0.8818 -0.7533
  710TMC3    H110502   0.752   4.572   0.800  1.7255 -3.1982  0.0391
  710TMC3    H210503   0.976   4.523   0.438 -0.4534 -1.3484  0.5752
  710TMC3    C710504   0.983   4.493   0.708 -0.1960  0.3811 -0.1573
  710TMC3    C810505   0.781   4.594   0.282 -0.6704 -0.7766 -0.1856
  710TMC3    O110506   0.971   4.502   0.831 -0.3880  0.0563  0.0020
  710TMC3    O210507   0.895   4.581   0.235 -0.0204  0.4064 -0.2729
  711TMC3    C110508   0.437   0.326  14.910  0.6342 -0.6195  0.3298
  711TMC3    C210509   0.454   0.399  15.026 -1.0083  0.1584 -0.5049
  711TMC3    C310510   0.553   0.368  15.107  0.5579  0.1182  0.4669
  711TMC3    C410511   0.530   0.243  14.866 -0.4293 -0.0022  0.4148
  711TMC3    C510512   0.647   0.231  14.939  0.0237  0.2426 -0.2594
  711TMC3    C610513   0.652   0.288  15.066 -0.2087 -0.2004  0.0093
  711TMC3     C10514   0.306   0.276  14.899  0.0310  0.4711  0.0572
  711TMC3     O10515   0.274   0.225  14.797  0.2933 -0.7605  0.0879
  711TMC3     H10516   0.392   0.485  15.048 -0.1931  0.0885  1.9875
  711TMC3    H110517   0.525   0.194  14.769  0.3577 -1.3549  1.0492
  711TMC3    H210518   0.736   0.266  15.132 -0.9381 -0.6773  0.7745
  711TMC3    C710519   0.746   0.134  14.911 -0.9233 -0.3879  0.2115
  711TMC3    C810520   0.523   0.390  15.240  0.5072 -0.1716  0.7868
  711TMC3    O110521   0.860   0.162  14.952  0.0226 -0.1120 -0.4059
  711TMC3    O210522   0.401   0.396  15.258  0.2671 -0.7867  0.3907
  712MPD2     C10523   2.798   1.462  14.106 -0.1911 -0.6942  0.3095
  712MPD2    C110524   2.696   1.465  14.010 -0.6356 -0.7901  0.4010
  712MPD2    C210525   2.642   1.585  13.966 -0.5458 -0.0408  0.1725
  712MPD2    C310526   2.700   1.701  14.008  0.1852  0.1630 -1.0891
  712MPD2    C410527   2.813   1.703  14.087 -0.2498 -0.1634  0.0627
  712MPD2    C510528   2.855   1.581  14.139  0.0755  0.6810  0.0539
  712MPD2     H10529   2.556   1.577  13.899 -2.2217  0.4280  2.2794
  712MPD2    H110530   2.853   1.800  14.113 -0.8707  0.5429 -1.6205
  712MPD2    H210531   2.847   1.373  14.142 -0.8380 -0.3117  2.1239
  712MPD2    H310532   2.945   1.589  14.200  0.9724  0.3106 -1.2124
  712MPD2     N10533   2.652   1.825  13.964  0.0903  0.0869 -0.7474
  712MPD2    H510534   2.705   1.910  13.980  0.8041  0.1415 -3.3839
  712MPD2    N110535   2.649   1.346  13.949  0.2975 -0.3555 -1.0405
  712MPD2    H710536   2.595   1.356  13.863 -1.1767  0.2166 -0.0462
  713TMC3    C110537   2.516   1.993  13.867 -0.5507  0.5061 -0.4514
  713TMC3    C210538   2.613   2.041  13.791 -0.5250 -0.3278 -0.0804
  713TMC3    C310539   2.586   2.163  13.742 -0.4865  0.0907 -0.1346
  713TMC3    C410540   2.393   2.045  13.888  0.0556 -0.0553 -0.1032
  713TMC3    C510541   2.363   2.156  13.812  0.1772  0.4222 -0.6359
  713TMC3    C610542   2.464   2.221  13.742 -0.2469  0.0065 -0.4665
  713TMC3     C10543   2.529   1.853  13.915 -0.2027  0.2099 -0.3060
  713TMC3     O10544   2.438   1.780  13.892 -0.2726 -0.0312  0.3711
  713TMC3     H10545   2.699   1.986  13.754 -0.4986 -0.5032  0.2461
  713TMC3    H110546   2.314   2.009  13.954  0.5624 -1.1930 -0.1110
  713TMC3    H210547   2.446   2.323  13.710  1.3072 -0.4870 -2.8888
  713TMC3    C710548   2.261   2.246  13.864  0.8010 -0.1774  0.3360
  713TMC3    C810549   2.696   2.232  13.675  0.0718 -0.3431  0.4664
  713TMC3    O110550   2.226   2.216  13.977  0.5630  0.4251 -0.3318
  713TMC3    O210551   2.663   2.319  13.599  0.3506 -0.2006 -0.1043
  714MPD2     C10552   4.155   1.294   1.671  0.3975 -1.0969 -0.9141
  714MPD2    C110553   4.191   1.201   1.568 -0.1087  0.0847 -0.0587
  714MPD2    C210554   4.121   1.206   1.447  0.1635 -0.4518  0.8416
  714MPD2    C310555   4.005   1.281   1.426 -0.0319  0.7238  0.4710
  714MPD2    C410556   3.968   1.362   1.530  0.4630  0.4642  0.1680
  714MPD2    C510557   4.045   1.370   1.649 -0.3049  0.0526 -0.4969
  714MPD2     H10558   4.159   1.137   1.372  0.1220 -1.3127  1.6238
  714MPD2    H110559   3.881   1.426   1.517  1.0446  0.7741 -2.2522
  714MPD2    H210560   4.210   1.304   1.764  2.1593 -1.0161 -1.9559
  714MPD2    H310561   4.022   1.448   1.721 -2.0164 -0.5403 -0.3978
  714MPD2     N10562   3.940   1.273   1.303 -0.0294  0.2451  0.3611
  714MPD2    H510563   3.994   1.226   1.231 -0.5647 -2.4112  1.6855
  714MPD2    N110564   4.314   1.135   1.580  1.2247 -0.1404  0.5846
  714MPD2    H710565   4.358   1.146   1.671  1.5612 -0.2646  0.4371
  715TMC3    C110566   4.493   0.983   1.553 -0.3523  0.6784  0.3582
  715TMC3    C210567   4.522   0.869   1.494  0.2126 -0.3030 -0.3101
  715TMC3    C310568   4.652   0.848   1.466  0.1509  0.5939 -0.0605
  715TMC3    C410569   4.594   1.070   1.597  0.8821  0.0344  0.1392
  715TMC3    C510570   0.003   1.039   1.581 -0.7365  0.2343 -0.4288
  715TMC3    C610571   0.031   0.916   1.523 -0.0356 -0.1574  0.4044
  715TMC3     C10572   4.382   1.054   1.491  0.3478  0.0313  0.3401
  715TMC3     O10573   4.349   1.023   1.379 -0.7171  0.2458 -0.1020
  715TMC3     H10574   4.444   0.803   1.459  0.6925 -1.3881  0.7074
  715TMC3    H110575   4.568   1.172   1.622 -0.5484 -0.5907  1.1715
  715TMC3    H210576   0.134   0.895   1.497 -0.1041  1.6205 -1.3508
  715TMC3    C710577   0.099   1.120   1.652 -0.8990 -0.1546 -0.6267
  715TMC3    C810578   4.688   0.717   1.401  0.1725  0.3548  0.3822
  715TMC3    O110579   0.216   1.107   1.619 -0.5083 -0.3169 -0.2460
  715TMC3    O210580   4.620   0.616   1.406 -0.1234 -0.9284  0.2282
  716MPD2     C10581   4.064   3.675   9.683 -0.8973  0.4583  0.6212
  716MPD2    C110582   4.018   3.709   9.555 -0.0092  0.2939  0.2766
  716MPD2    C210583   4.048   3.633   9.448  0.2892  0.1371  0.1160
  716MPD2    C310584   4.122   3.518   9.468  0.7267  0.5371 -0.3793
  716MPD2    C410585   4.174   3.481   9.592 -0.4285 -0.1266  0.3829
  716MPD2    C510586   4.135   3.563   9.701  0.0471 -0.4512 -0.3757
  716MPD2     H10587   4.015   3.657   9.347  2.4035 -0.4982 -0.7280
  716MPD2    H110588   4.219   3.384   9.604 -1.2786 -0.7189 -1.0897
  716MPD2    H210589   4.039   3.724   9.777 -0.4665 -0.1677  1.0562
  716MPD2    H310590   4.166   3.526   9.798  1.2252  2.2670  0.2833
  716MPD2     N10591   4.155   3.442   9.350  0.7018  0.2522  0.5345
  716MPD2    H510592   4.115   3.481   9.265  0.6127 -1.5910 -0.2801
  716MPD2    N110593   3.921   3.813   9.558 -0.4257  0.9289 -0.6002
  716MPD2    H710594   3.904   3.855   9.649 -0.1088 -0.6116  0.1824
  717TMC3    C110595   4.252   3.286   9.208  0.3086 -0.2333 -0.0838
  717TMC3    C210596   4.130   3.243   9.168 -0.0967  0.2459  0.8316
  717TMC3    C310597   4.126   3.126   9.096 -0.1201 -0.4869 -0.2650
  717TMC3    C410598   4.361   3.211   9.196  0.0594 -0.0881  0.3747
  717TMC3    C510599   4.355   3.100   9.115  0.5498 -0.4249 -0.4092
  717TMC3    C610600   4.238   3.058   9.053 -0.1243 -0.3414  0.1820
  717TMC3     C10601   4.254   3.345   9.337 -0.0133  0.3489  0.4027
  717TMC3     O10602   4.338   3.312   9.422  0.1771 -0.0071  0.2237
  717TMC3     H10603   4.044   3.295   9.208  0.7759 -0.2586  3.3101
  717TMC3    H110604   4.461   3.239   9.227  0.3660 -1.6824  0.7837
  717TMC3    H210605   4.241   2.981   8.976 -1.6565  1.1796 -1.4134
  717TMC3    C710606   4.465   3.011   9.108  0.4378 -0.0398 -0.5817
  717TMC3    C810607   4.000   3.078   9.045  0.4619  0.0653 -0.1439
  717TMC3    O110608   4.466   2.943   9.006 -0.2731  0.2868 -0.4542
  717TMC3    O210609   3.905   3.149   9.078 -0.6832 -0.1392 -0.1878
  718MPD2     C10610   4.222   1.733  12.400  1.2721 -0.1791  0.3702
  718MPD2    C110611   4.129   1.711  12.498 -0.0796 -0.0561 -0.1572
  718MPD2    C210612   4.025   1.616  12.475  0.4919  0.7313  0.0317
  718MPD2    C310613   4.001   1.570  12.349 -0.3487  0.0691  0.2155
  718MPD2    C410614   4.101   1.591  12.249  0.9486 -0.7724  0.1910
  718MPD2    C510615   4.207   1.671  12.278 -0.0012  0.9135 -0.7425
  718MPD2     H10616   3.943   1.614  12.546 -0.6070 -1.5949 -1.3277
  718MPD2    H110617   4.110   1.545  12.152 -0.2410  0.6089 -0.5735
  718MPD2    H210618   4.315   1.788  12.405 -0.7828  3.5496 -2.6841
  718MPD2    H310619   4.269   1.693  12.192  1.0176 -2.8328 -0.9811
  718MPD2     N10620   3.882   1.504  12.318  0.1647 -0.2232 -0.2047
  718MPD2    H510621   3.820   1.485  12.396  1.0230 -0.3733  0.4450
  718MPD2    N110622   4.130   1.791  12.609  0.3891  0.0006  0.4266
  718MPD2    H710623   4.162   1.886  12.593 -0.8032  0.4970  0.9885
  719TMC3    C110624   4.014   1.878  12.786 -0.2411  0.0363  0.5672
  719TMC3    C210625   3.880   1.871  12.803  0.2308  0.1727 -0.2368
  719TMC3    C310626   3.803   1.976  12.778  0.5729  0.4990 -0.4471
  719TMC3    C410627   4.074   1.996  12.749 -0.1331  0.0388 -0.5228
  719TMC3    C510628   3.997   2.105  12.731 -0.1824 -0.6205  0.1083
  719TMC3    C610629   3.858   2.101  12.752 -0.0390  0.1177  0.6487
  719TMC3     C10630   4.067   1.755  12.729  0.1531 -0.0722 -0.2684
  719TMC3     O10631   4.025   1.645  12.769  0.1968  0.0371  0.1165
  719TMC3     H10632   3.840   1.771  12.817 -0.7939  0.5534 -0.4959
  719TMC3    H110633   4.180   2.003  12.727  0.4685 -0.3013  2.2320
  719TMC3    H210634   3.788   2.183  12.755  0.3407  0.4892 -0.4178
  719TMC3    C710635   4.053   2.222  12.663  0.5833 -0.0562  0.5585
  719TMC3    C810636   3.679   1.945  12.715  0.9014 -0.0211 -0.3180
  719TMC3    O110637   4.155   2.210  12.608 -0.5406 -0.1750 -0.2188
  719TMC3    O210638   3.649   1.829  12.711 -0.1662  0.1950  0.1078
  720MPD2     C10639   1.824   3.600  14.173  0.1967  0.8188 -0.4108
  720MPD2    C110640   1.932   3.583  14.090  0.4233 -0.1314  0.4169
  720MPD2    C210641   2.052   3.535  14.147  0.2792  0.1675  0.3138
  720MPD2    C310642   2.055   3.486  14.279 -0.6718  0.0766  0.0646
  720MPD2    C410643   1.947   3.510  14.360  0.5811  0.1803  0.3752
  720MPD2    C510644   1.836   3.566  14.304  0.8608 -0.2963  0.0617
  720MPD2     H10645   2.140   3.526  14.084 -1.1504  0.2951 -1.6801
  720MPD2    H110646   1.941   3.488  14.466  0.4908 -1.3280  0.0501
  720MPD2    H210647   1.731   3.645  14.142  0.0596 -0.2028 -1.4535
  720MPD2    H310648   1.752   3.589  14.369 -1.0669 -2.9808 -1.4931
  720MPD2     N10649   2.160   3.401  14.314  0.4293  0.4969  0.6965
  720MPD2    H510650   2.238   3.384  14.251  0.7116 -2.1404  1.7620
  720MPD2    N110651   1.930   3.617  13.954 -0.5060 -0.2703 -0.4933
  720MPD2    H710652   2.015   3.623  13.899 -0.8010  2.8207 -0.6173
  721TMC3    C110653   2.285   3.261  14.473  0.0892 -0.0717  0.0751
  721TMC3    C210654   2.279   3.176  14.578 -0.6996 -0.5339 -0.7635
  721TMC3    C310655   2.393   3.100  14.607 -0.4554 -0.6007  0.1197
  721TMC3    C410656   2.400   3.292  14.414 -0.2328 -0.0941 -0.0721
  721TMC3    C510657   2.507   3.209  14.432 -0.1906 -0.8146 -0.0437
  721TMC3    C610658   2.507   3.112  14.522 -0.1851 -0.2925 -0.3407
  721TMC3     C10659   2.170   3.352  14.443 -0.6578  0.7276 -0.9497
  721TMC3     O10660   2.087   3.344  14.531 -0.8032  0.1454 -0.7858
  721TMC3     H10661   2.186   3.162  14.632  0.0166 -2.5086 -0.0611
  721TMC3    H110662   2.406   3.367  14.336 -0.5391 -2.0355 -1.9666
  721TMC3    H210663   2.585   3.039  14.537  0.8771  1.0590  0.6958
  721TMC3    C710664   2.634   3.261  14.394  0.5288  1.2440 -0.1904
  721TMC3    C810665   2.399   3.011  14.730 -0.9261 -0.3356 -0.3662
  721TMC3    O110666   2.634   3.362  14.324 -0.6568 -0.2599  0.0360
  721TMC3    O210667   2.490   2.929  14.734  0.6795 -0.1419  0.5676
  722MPD2     C10668   1.443   2.170  13.063 -0.0627  0.8365 -0.7776
  722MPD2    C110669   1.379   2.292  13.076  1.1098 -0.1684  0.1236
  722MPD2    C210670   1.246   2.310  13.026  0.0523 -0.2818  0.3581
  722MPD2    C310671   1.197   2.212  12.940  0.0918 -0.7903 -0.4266
  722MPD2    C410672   1.264   2.098  12.931 -0.6412  0.1128 -0.4212
  722MPD2    C510673   1.383   2.079  12.990  0.0470  0.8793 -0.7383
  722MPD2     H10674   1.204   2.409  13.041 -0.7609 -0.4092 -1.0576
  722MPD2    H110675   1.237   2.020  12.861 -0.0803 -0.1356 -0.3603
  722MPD2    H210676   1.529   2.138  13.121  0.9260  3.3890 -0.8387
  722MPD2    H310677   1.428   1.980  12.982  1.0123  1.1879  0.9473
  722MPD2     N10678   1.075   2.247  12.870 -0.5290  0.2154  0.0350
  722MPD2    H510679   1.027   2.334  12.890 -0.3351 -0.0751  1.8172
  722MPD2    N110680   1.426   2.402  13.154 -0.9112 -0.4139 -0.1819
  722MPD2    H710681   1.364   2.482  13.159 -0.4312 -0.1949  2.1527
  723TMC3    C110682   0.907   2.232  12.704  0.4074 -0.6708 -0.8506
  723TMC3    C210683   0.828   2.163  12.616  0.3253 -0.3780  0.1290
  723TMC3    C310684   0.707   2.215  12.580 -0.1255  0.5858 -1.2656
  723TMC3    C410685   0.870   2.357  12.741 -0.0234 -0.4844 -1.0187
  723TMC3    C510686   0.755   2.411  12.690  0.2859  0.7569  0.5819
  723TMC3    C610687   0.668   2.345  12.610 -0.3914  0.4802  0.0644
  723TMC3     C10688   1.015   2.169  12.777 -0.4142  0.2897  0.7188
  723TMC3     O10689   1.043   2.055  12.747 -0.0911  0.6439 -0.0414
  723TMC3     H10690   0.857   2.059  12.601  2.4359  0.1699  0.3432
  723TMC3    H110691   0.940   2.411  12.803  1.0878 -2.1938 -0.7648
  723TMC3    H210692   0.587   2.395  12.559 -2.7389 -1.7126  1.6447
  723TMC3    C710693   0.749   2.562  12.684  0.3282  0.0770 -0.2124
  723TMC3    C810694   0.603   2.118  12.616  0.8079  0.1630  0.0449
  723TMC3    O110695   0.728   2.621  12.580 -1.1756  0.0779  0.4671
  723TMC3    O210696   0.637   2.003  12.611 -0.2229  0.4046  1.0273
  724TMC3    C110697   2.153   0.103   9.748  0.3062 -0.1423 -0.0031
  724TMC3    C210698   2.062   0.169   9.667  0.3102 -0.0993  0.1973
  724TMC3    C310699   2.098   0.285   9.612 -0.5333 -0.9841  1.0104
  724TMC3    C410700   2.279   0.143   9.766  0.2538  0.4138  0.1061
  724TMC3    C510701   2.316   0.259   9.706 -0.0886 -0.2371  0.5088
  724TMC3    C610702   2.222   0.332   9.631 -0.0070  0.9142 -0.2162
  724TMC3     C10703   2.117   4.700   9.800 -0.3543 -0.0366 -0.1545
  724TMC3     O10704   2.039   4.636   9.729 -0.8207 -0.4678 -0.0736
  724TMC3     H10705   1.970   0.126   9.631 -0.1176 -0.8860  2.2168
  724TMC3    H110706   2.354   0.072   9.797 -0.0336 -0.1376 -0.4604
  724TMC3    H210707   2.256   0.423   9.584  1.4200  0.7549  0.5148
  724TMC3    C710708   2.457   0.289   9.710 -0.8891 -0.4883  0.0905
  724TMC3    C810709   1.996   0.370   9.552  0.2017  0.1873  0.0493
  724TMC3    O110710   2.533   0.221   9.780 -0.8589 -0.0562  0.0008
  724TMC3    O210711   1.878   0.334   9.558  0.0269  0.1055 -0.1155
  725TMC3    C110712   2.746   3.748  13.136 -0.0814  0.0202 -0.9170
  725TMC3    C210713   2.618   3.777  13.100  0.0320 -0.6054  0.3179
  725TMC3    C310714   2.593   3.764  12.966  0.5276 -0.1188  0.0568
  725TMC3    C410715   2.836   3.689  13.058 -0.1130 -0.3735  1.2177
  725TMC3    C510716   2.811   3.666  12.929  0.4557 -0.4558 -0.1323
  725TMC3    C610717   2.692   3.713  12.884 -0.3440  0.6308  0.3116
  725TMC3     C10718   2.819   3.847  13.221 -0.1882 -0.8420 -0.3038
  725TMC3     O10719   2.940   3.866  13.209  0.2353  0.0859 -0.1042
  725TMC3     H10720   2.551   3.827  13.168  0.9361  0.4409  0.4454
  725TMC3    H110721   2.929   3.676  13.111 -0.7837 -1.3196  2.1460
  725TMC3    H210722   2.668   3.711  12.778  0.8221  0.4148  0.0544
  725TMC3    C710723   2.911   3.652  12.826 -0.3241 -0.2838  1.0391
  725TMC3    C810724   2.465   3.800  12.905  0.6111  0.1636 -0.3836
  725TMC3    O110725   2.878   3.701  12.714 -0.0677  0.1817 -0.5456
  725TMC3    O210726   2.370   3.808  12.981  0.1550 -1.2088 -0.2168
  726MPD2     C10727   1.124   1.101  10.857  0.0543 -0.5017  0.0814
  726MPD2    C110728   1.085   1.031  10.743  0.0176 -0.1036  0.4069
  726MPD2    C210729   1.057   0.899  10.759  0.0046 -0.3761 -0.6304
  726MPD2    C310730   1.064   0.837  10.888 -0.4998  0.1090  0.1712
  726MPD2    C410731   1.108   0.913  10.998 -0.4912  0.0496 -0.2616
  726MPD2    C510732   1.148   1.044  10.983 -0.2410 -0.6205 -0.6975
  726MPD2     H10733   1.034   0.842  10.669  1.0055 -2.5514  0.4839
  726MPD2    H110734   1.136   0.867  11.092 -2.1814 -0.5158 -0.0384
  726MPD2    H210735   1.147   1.206  10.842 -0.5772 -0.2477  0.9175
  726MPD2    H310736   1.192   1.097  11.067 -0.0667  0.5324 -1.5258
  726MPD2     N10737   1.037   0.698  10.909 -0.2971 -0.1950 -0.6489
  726MPD2    H510738   1.034   0.667  11.005  2.1969 -0.5545 -0.6831
  726MPD2    N110739   1.060   1.086  10.612 -1.2053 -0.3001 -0.0400
  726MPD2    H710740   1.024   1.024  10.540 -0.5192 -0.0126 -0.6247
  727TMC3    C110741   1.089   1.227  10.427 -0.3529  0.6154 -0.5697
  727TMC3    C210742   1.168   1.320  10.370  0.1612 -0.4035 -0.5929
  727TMC3    C310743   1.120   1.412  10.276  0.2866 -0.2295  0.0119
  727TMC3    C410744   0.960   1.218  10.385  0.3914 -0.3890 -0.0722
  727TMC3    C510745   0.913   1.310  10.295 -0.9058 -0.1977 -0.2069
  727TMC3    C610746   0.992   1.408  10.232 -0.3524  0.0920  0.3836
  727TMC3     C10747   1.103   1.210  10.573 -0.4921  0.7307 -0.7741
  727TMC3     O10748   1.174   1.289  10.630  0.5026 -0.7871  0.3694
  727TMC3     H10749   1.272   1.330  10.398 -0.5276  0.9686  1.4700
  727TMC3    H110750   0.900   1.135  10.421 -1.7400  2.1173  2.1485
  727TMC3    H210751   0.952   1.479  10.160  0.0210 -0.1578 -0.0704
  727TMC3    C710752   0.769   1.313  10.264  0.2737  0.5998  0.5896
  727TMC3    C810753   1.169   1.537  10.320 -0.4221 -0.3255  0.6129
  727TMC3    O110754   0.699   1.293  10.361  0.3455  0.5094 -0.4415
  727TMC3    O210755   1.281   1.539  10.365  0.1601 -0.5062 -0.4644
  728TMC3    C110756   4.470   3.591  15.208  0.3588 -0.2770 -0.1929
  728TMC3    C210757   4.578   3.669  15.217 -0.1232 -0.2295  0.5305
  728TMC3    C310758   4.641   3.710  15.097  0.6094 -0.6511  0.5064
  728TMC3    C410759   4.420   3.547  15.084  0.0888 -0.5599  0.4688
  728TMC3    C510760   4.480   3.593  14.970 -0.0101 -0.0321 -0.2831
  728TMC3    C610761   4.595   3.669  14.973 -0.4381 -0.2004 -0.0843
  728TMC3     C10762   4.394   3.563  15.326  0.6216 -0.6489  0.2568
  728TMC3     O10763   4.417   3.641  15.418 -0.2444  0.5155 -0.3114
  728TMC3     H10764   4.618   3.696  15.314  2.2952  0.1742 -0.5625
  728TMC3    H110765   4.341   3.473  15.079 -1.5785  0.9676  4.2252
  728TMC3    H210766   4.648   3.680  14.879 -1.9069  0.5074 -0.8354
  728TMC3    C710767   4.389   3.623  14.861 -0.4116  0.2170 -0.4744
  728TMC3    C810768   0.055   3.755  15.113  0.0805  0.3215 -0.1301
  728TMC3    O110769   4.291   3.550  14.852  0.0074 -0.3779  0.2636
  728TMC3    O210770   0.113   3.741  15.221 -0.2267  0.9291 -0.0851
  729MPD2     C10771   2.013   0.390  15.762  0.1032  0.0077  0.4599
  729MPD2    C110772   2.149   0.364  15.786  0.0053  0.0280 -1.2738
  729MPD2    C210773   2.200   0.370  15.913 -0.7937  0.3637 -0.4809
  729MPD2    C310774   2.120   0.407  16.021 -0.0728 -0.0504  0.0906
  729MPD2    C410775   1.993   0.464  15.991  0.0325 -0.6816  0.2833
  729MPD2    C510776   1.943   0.451  15.865  0.3322  0.7056 -0.6936
  729MPD2     H10777   2.300   0.336  15.938 -1.7434 -2.3079 -0.2521
  729MPD2    H110778   1.924   0.515  16.057 -0.6598  0.6324 -1.4615
  729MPD2    H210779   1.966   0.378  15.665  1.9976  1.0386 -0.5839
  729MPD2    H310780   1.840   0.481  15.846 -0.1359  0.2353  1.0822
  729MPD2     N10781   2.162   0.408  16.159 -0.1102 -0.1815  0.0005
  729MPD2    H510782   2.096   0.443  16.227  0.1834  0.6606 -0.1522
  729MPD2    N110783   2.219   0.312  15.679  0.5114 -0.8670 -0.0019
  729MPD2    H710784   2.167   0.288  15.594  0.9582  1.9604 -1.0640
  730TMC3    C110785   2.319   0.384  16.341  0.2851  0.3054  0.0255
  730TMC3    C210786   2.452   0.410  16.372  0.2690  0.2172 -0.1544
  730TMC3    C310787   2.477   0.450  16.499  0.1120  0.6955 -0.1443
  730TMC3    C410788   2.219   0.391  16.434 -0.4567  0.5358 -0.3908
  730TMC3    C510789   2.248   0.436  16.558 -0.1596 -0.9452  0.0050
  730TMC3    C610790   2.380   0.459  16.592  0.0663 -0.1425 -0.3998
  730TMC3     C10791   2.293   0.376  16.200  0.4196 -0.2974 -0.5571
  730TMC3     O10792   2.392   0.365  16.127 -0.2165  0.1328 -0.7729
  730TMC3     H10793   2.529   0.402  16.296  0.0825 -1.1779 -0.2045
  730TMC3    H110794   2.117   0.362  16.409 -0.8915  0.1197  1.8715
  730TMC3    H210795   2.404   0.478  16.696 -2.0925  1.4232 -0.1724
  730TMC3    C710796   2.153   0.477  16.648 -0.1355  0.1060 -0.5053
  730TMC3    C810797   2.568   0.565  16.524 -0.7179 -0.0872  0.3649
  730TMC3    O110798   2.173   0.499  16.770 -0.3499  0.6383 -0.3039
  730TMC3    O210799   2.635   0.559  16.625 -0.5236  0.2430  0.1111
  731MPD2     C10800   1.925   4.107  11.873 -0.0579 -0.2810  0.5760
  731MPD2    C110801   2.018   4.008  11.882 -0.2192  0.7497  0.0664
  731MPD2    C210802   2.064   3.961  12.004  0.3489  0.3259 -0.0733
  731MPD2    C310803   2.010   3.998  12.123 -0.3278 -0.2179 -0.1894
  731MPD2    C410804   1.908   4.094  12.113  0.1321 -0.1634  0.0671
  731MPD2    C510805   1.876   4.150  11.995  0.1691  0.5348  0.0522
  731MPD2     H10806   2.141   3.885  12.000 -0.9513 -0.9520 -0.7959
  731MPD2    H110807   1.845   4.123  12.196 -0.1009  2.2093 -0.9485
  731MPD2    H210808   1.876   4.146  11.784 -2.6656 -0.2921  2.0112
  731MPD2    H310809   1.799   4.225  11.995 -2.3293 -2.0270  1.0454
  731MPD2     N10810   2.045   3.924  12.243  0.8098 -0.2266  0.1602
  731MPD2    H510811   2.106   3.844  12.227  0.3540 -0.7159  0.8495
  731MPD2    N110812   2.075   3.960  11.759 -0.2695 -0.0842  0.0335
  731MPD2    H710813   2.020   3.961  11.673  0.2352  0.7946 -0.2748
  732TMC3    C110814   2.208   3.838  11.620  0.7212 -0.2970  0.6342
  732TMC3    C210815   2.104   3.757  11.573  0.1720 -0.2228  0.4146
  732TMC3    C310816   2.123   3.680  11.461 -0.1014 -0.2708 -0.0912
  732TMC3    C410817   2.334   3.816  11.574 -0.1491 -0.1990  0.1038
  732TMC3    C510818   2.352   3.740  11.462 -0.1803 -0.0057  0.6641
  732TMC3    C610819   2.244   3.681  11.391  0.2806  0.4962 -0.0206
  732TMC3     C10820   2.193   3.899  11.751  0.0911 -0.4705  0.4961
  732TMC3     O10821   2.293   3.910  11.826 -0.3872  0.9033  0.0123
  732TMC3     H10822   2.009   3.756  11.625 -0.6873  1.6463 -1.1208
  732TMC3    H110823   2.415   3.864  11.628 -0.6088  1.4667 -0.6791
  732TMC3    H210824   2.261   3.618  11.304 -0.6386 -1.5909  1.3156
  732TMC3    C710825   2.488   3.687  11.437  0.5284  0.3972 -0.1863
  732TMC3    C810826   2.059   3.548  11.476 -0.2998 -0.6273 -0.1998
  732TMC3    O110827   2.507   3.646  11.323  0.3497 -0.5131  0.2270
  732TMC3    O210828   2.049   3.483  11.374  0.2065 -0.3699  0.1522
  733TMC3    C110829   3.505   1.396  12.307  0.6005 -0.1677  0.1594
  733TMC3    C210830   3.640   1.394  12.294  0.2088 -0.0076  0.5445
  733TMC3    C310831   3.694   1.456  12.187  0.3188  0.5929 -0.0561
  733TMC3    C410832   3.432   1.480  12.223 -0.2304 -0.1377 -0.2824
  733TMC3    C510833   3.489   1.559  12.127  0.7201  0.0300 -0.3017
  733TMC3    C610834   3.621   1.542  12.109 -0.1263  0.5469 -0.0005
  733TMC3     C10835   3.446   1.380  12.441  0.4191 -0.2735 -0.1143
  733TMC3     O10836   3.335   1.427  12.462 -0.4255 -0.1365 -0.3313
  733TMC3     H10837   3.697   1.327  12.357  0.1682 -0.6327 -0.0809
  733TMC3    H110838   3.329   1.500  12.250 -0.3655 -3.2596  1.4135
  733TMC3    H210839   3.675   1.614  12.049  0.9055 -1.2229 -1.2097
  733TMC3    C710840   3.445   1.692  12.159 -1.1438 -0.1118  0.8917
  733TMC3    C810841   3.834   1.482  12.186  0.3435 -0.2743  0.2255
  733TMC3    O110842   3.349   1.735  12.105  0.4470 -0.1025 -0.1479
  733TMC3    O210843   3.890   1.499  12.079 -0.5002  0.0943  0.1869
  734MPD2     C10844   0.435   3.829  12.838 -0.2149 -0.4130 -0.1570
  734MPD2    C110845   0.420   3.752  12.726 -0.5093 -0.2750 -0.3306
  734MPD2    C210846   0.449   3.810  12.603 -0.0643  0.1539  0.4686
  734MPD2    C310847   0.500   3.937  12.591 -0.3660  0.3541  0.5981
  734MPD2    C410848   0.513   4.010  12.708 -0.5800 -0.4957 -0.5604
  734MPD2    C510849   0.463   3.963  12.828  0.3143  0.7260 -0.0525
  734MPD2     H10850   0.446   3.748  12.514  1.7351  1.7946 -0.7357
  734MPD2    H110851   0.552   4.111  12.710 -3.7811  0.7455  0.8505
  734MPD2    H210852   0.437   3.782  12.936  1.0872 -0.4557 -0.2134
  734MPD2    H310853   0.470   4.031  12.911  0.6445  1.9690 -1.1095
  734MPD2     N10854   0.525   3.989  12.463 -0.3588  0.0484  0.2660
  734MPD2    H510855   0.521   3.930  12.380  0.0900 -1.2512  1.1689
  734MPD2    N110856   0.383   3.617  12.732  0.1577  0.0689 -0.4516
  734MPD2    H710857   0.391   3.577  12.825  2.2249 -1.2947 -1.2060
  735TMC3    C110858   0.281   3.408  12.667  0.9835  0.2305 -0.6161
  735TMC3    C210859   0.184   3.373  12.583 -0.3116  0.1759 -0.1377
  735TMC3    C310860   0.206   3.273  12.492  0.1996  0.2498 -0.4271
  735TMC3    C410861   0.393   3.337  12.685  0.1282  0.1177  0.6177
  735TMC3    C510862   0.416   3.234  12.598 -0.1417  1.5160 -0.1872
  735TMC3    C610863   0.323   3.201  12.494  0.5218 -0.6124 -0.0973
  735TMC3     C10864   0.321   3.548  12.632  0.1673 -0.2827  0.0607
  735TMC3     O10865   0.286   3.591  12.522  0.0927  0.5039 -0.4704
  735TMC3     H10866   0.093   3.430  12.572  0.7866  2.3646  2.1760
  735TMC3    H110867   0.486   3.377  12.724  0.6127 -1.8491  1.4900
  735TMC3    H210868   0.358   3.150  12.406  1.6516  2.4937 -1.4410
  735TMC3    C710869   0.559   3.210  12.570 -0.4578  0.6626 -0.6797
  735TMC3    C810870   0.162   3.304  12.354 -0.4758  0.1247 -0.4176
  735TMC3    O110871   0.648   3.287  12.610 -0.3907 -0.4158 -0.5887
  735TMC3    O210872   0.185   3.224  12.268 -0.0043  0.8637  0.4090
  736MPD2     C10873   0.741   2.921  12.435  0.4324  0.3597 -0.9691
  736MPD2    C110874   0.711   3.055  12.447 -0.3766  0.3846  0.3570
  736MPD2    C210875   0.807   3.148  12.415 -0.0012  0.2307  0.3703
  736MPD2    C310876   0.938   3.111  12.377 -0.2384  0.2522  0.4410
  736MPD2    C410877   0.965   2.978  12.365  0.3450  0.2304 -0.8307
  736MPD2    C510878   0.868   2.882  12.396 -0.4196 -0.1013  0.9884
  736MPD2     H10879   0.787   3.254  12.419 -1.4447  0.0431 -1.9368
  736MPD2    H110880   1.065   2.935  12.359 -0.0993 -1.1606  1.7281
  736MPD2    H210881   0.666   2.845  12.454  0.7429  0.3549  0.2155
  736MPD2    H310882   0.895   2.777  12.398  0.3841  0.0954  0.4266
  736MPD2     N10883   1.047   3.199  12.348 -0.0984 -0.3327 -0.5091
  736MPD2    H510884   1.142   3.164  12.344  0.3795  0.9662 -0.3150
  736MPD2    N110885   0.583   3.094  12.491  0.1066  0.3947  0.5068
  736MPD2    H710886   0.503   3.035  12.472  1.5221 -1.5284  0.5122
  737TMC3    C110887   1.152   3.395  12.285 -0.6098  0.2099 -0.3969
  737TMC3    C210888   1.154   3.533  12.294  0.3002 -0.4023 -0.2165
  737TMC3    C310889   1.262   3.592  12.242  0.3816 -0.5593  0.4324
  737TMC3    C410890   1.243   3.323  12.212 -0.0608  0.2628  0.2674
  737TMC3    C510891   1.352   3.385  12.167 -0.5260 -0.2361  0.4484
  737TMC3    C610892   1.369   3.522  12.185  0.0598  0.7960 -0.3377
  737TMC3     C10893   1.032   3.335  12.332  0.1304  0.3450  0.3967
  737TMC3     O10894   0.939   3.411  12.355  0.4201 -0.0059  0.0252
  737TMC3     H10895   1.078   3.587  12.349  0.2797 -2.1941  1.5272
  737TMC3    H110896   1.232   3.218  12.188 -2.1317  0.5233  0.1190
  737TMC3    H210897   1.446   3.583  12.141  2.1421 -1.1214  0.6506
  737TMC3    C710898   1.418   3.307  12.070 -0.0084  0.3609  0.6076
  737TMC3    C810899   1.267   3.735  12.234 -0.9901  0.4727 -0.4175
  737TMC3    O110900   1.408   3.183  12.062  0.1350  0.0875  0.5980
  737TMC3    O210901   1.379   3.786  12.234 -0.0959  0.6782 -0.1482
  738MPD2     C10902   0.920   1.898  15.382  0.4823  0.4202 -0.3461
  738MPD2    C110903   0.946   1.969  15.265 -0.0117 -0.2310  0.0377
  738MPD2    C210904   1.038   2.071  15.263  0.1324 -0.3954 -0.3684
  738MPD2    C310905   1.112   2.096  15.380 -0.0069  0.5486  0.1749
  738MPD2    C410906   1.068   2.036  15.496  0.3865  0.2335 -0.0065
  738MPD2    C510907   0.979   1.935  15.498 -0.3823 -0.1870 -0.0281
  738MPD2     H10908   1.065   2.120  15.170 -0.0066  0.6298  0.1393
  738MPD2    H110909   1.107   2.060  15.595 -0.9015 -0.4412  0.6710
  738MPD2    H210910   0.856   1.812  15.396 -0.2941  0.8559 -1.2276
  738MPD2    H310911   0.965   1.877  15.588 -1.0484  0.9611  0.5984
  738MPD2     N10912   1.221   2.182  15.401  1.1401 -0.5708  0.0481
  738MPD2    H510913   1.255   2.199  15.496  0.2314  0.9176  0.1113
  738MPD2    N110914   0.877   1.946  15.145  0.8412 -0.2451 -0.2313
  738MPD2    H710915   0.897   2.000  15.062  0.0369  0.0662 -0.2229
  739TMC3    C110916   1.393   2.324  15.334 -0.3444  0.2266 -0.2106
  739TMC3    C210917   1.417   2.423  15.243 -0.4533  0.1178 -0.2262
  739TMC3    C310918   1.546   2.463  15.248  0.1309  0.1429  0.4906
  739TMC3    C410919   1.478   2.265  15.422 -0.0843  0.0883 -0.1503
  739TMC3    C510920   1.607   2.309  15.421 -0.6028  0.0107  0.0367
  739TMC3    C610921   1.638   2.405  15.332 -0.0382 -0.1713 -0.4444
  739TMC3     C10922   1.285   2.238  15.295 -0.3722 -0.0712  0.3074
  739TMC3     O10923   1.265   2.229  15.175 -0.3669 -0.8434  0.2584
  739TMC3     H10924   1.339   2.470  15.184 -1.2148 -1.1922 -0.2517
  739TMC3    H110925   1.446   2.186  15.490  0.7727  1.0744  1.3979
  739TMC3    H210926   1.734   2.455  15.340  0.5280 -1.0596 -1.6439
  739TMC3    C710927   1.706   2.229  15.495 -0.0430  0.5067 -0.3466
  739TMC3    C810928   1.589   2.532  15.124 -0.5791  0.7164  0.1354
  739TMC3    O110929   1.671   2.179  15.600  0.3173  0.3378 -0.1663
  739TMC3    O210930   1.497   2.554  15.047 -0.7163  0.2115 -0.2369
  740TMC3    C110931   1.984   3.879  14.460  1.2254 -0.1399 -1.2134
  740TMC3    C210932   2.021   3.795  14.564 -0.6361  0.1581 -0.0625
  740TMC3    C310933   2.151   3.759  14.572 -0.3866 -0.2249 -0.0556
  740TMC3    C410934   2.060   3.905  14.345  0.3325  0.5534  0.0330
  740TMC3    C510935   2.186   3.853  14.353 -0.4322 -0.3755 -0.9027
  740TMC3    C610936   2.239   3.788  14.466 -0.3184  0.5173 -0.6010
  740TMC3     C10937   1.842   3.906  14.440  0.1218 -0.1051  1.1350
  740TMC3     O10938   1.813   3.972  14.342 -0.2721 -0.4005 -0.8388
  740TMC3     H10939   1.970   3.779  14.658 -0.7126 -2.1427 -0.4978
  740TMC3    H110940   2.022   3.956  14.257 -0.5116 -0.6894 -0.3251
  740TMC3    H210941   2.347   3.773  14.460 -0.3614  0.3733 -0.9946
  740TMC3    C710942   2.257   3.830  14.225 -0.5743 -0.1668  0.1640
  740TMC3    C810943   2.193   3.687  14.687 -1.0581 -0.5855 -0.1467
  740TMC3    O110944   2.343   3.743  14.234 -0.9379 -0.5677  0.8092
  740TMC3    O210945   2.130   3.676  14.788  0.0974 -0.1131 -0.1114
  741TMC3    C110946   1.424   2.918  15.064 -1.0132  0.1525 -0.3644
  741TMC3    C210947   1.362   2.885  14.942 -0.4611 -0.7991 -0.2325
  741TMC3    C310948   1.252   2.796  14.942  0.3287 -0.3895  0.0843
  741TMC3    C410949   1.368   2.876  15.180 -0.0098 -0.7959  0.1606
  741TMC3    C510950   1.261   2.798  15.180  1.1874 -0.2986 -0.3089
  741TMC3    C610951   1.210   2.745  15.060  0.0456  0.5199 -0.1315
  741TMC3     C10952   1.546   2.996  15.055 -0.5101 -0.2158  0.7662
  741TMC3     O10953   1.597   3.010  15.166 -0.2898  0.2677  0.0753
  741TMC3     H10954   1.394   2.919  14.844 -1.8808 -1.8153 -1.0449
  741TMC3    H110955   1.413   2.922  15.267  0.2398  0.0219 -0.3977
  741TMC3    H210956   1.122   2.682  15.069  0.6135 -0.3126 -0.3689
  741TMC3    C710957   1.219   2.750  15.312  0.6549 -0.3293 -0.0806
  741TMC3    C810958   1.201   2.750  14.813 -0.0937  0.5861  0.2622
  741TMC3    O110959   1.258   2.822  15.402  1.0871  0.3332  0.7451
  741TMC3    O210960   1.225   2.815  14.708 -0.1334  0.0458  0.4347
  742TMC3    C110961   1.073   1.212  15.356  0.4080  0.0928  0.0569
  742TMC3    C210962   1.010   1.205  15.232  0.3105 -0.0999 -0.5577
  742TMC3    C310963   1.088   1.176  15.123  0.4584  0.0858  0.1494
  742TMC3    C410964   1.209   1.227  15.378 -0.4507  0.8566 -0.1541
  742TMC3    C510965   1.285   1.208  15.265 -0.5866  0.3317 -0.1682
  742TMC3    C610966   1.227   1.182  15.142  0.0444  0.0628 -0.1462
  742TMC3     C10967   1.000   1.180  15.480  0.0619  1.0710 -0.7014
  742TMC3     O10968   1.042   1.228  15.586  0.5021  0.4199  0.8710
  742TMC3     H10969   0.906   1.179  15.224  0.9162 -2.3517 -1.1475
  742TMC3    H110970   1.247   1.217  15.479 -3.8431 -0.7238  0.9561
  742TMC3    H210971   1.291   1.180  15.054 -1.2093  0.3626 -1.0557
  742TMC3    C710972   1.431   1.191  15.271 -0.0813  0.2588 -0.5128
  742TMC3    C810973   1.041   1.211  14.982 -0.5554  0.3058 -0.3512
  742TMC3    O110974   1.485   1.168  15.162  0.0023  0.4381  0.4000
  742TMC3    O210975   1.126   1.203  14.897  0.3731 -0.3314 -0.6861
  743MPD2     C10976   0.791   2.860   1.690  0.3538 -0.4684 -0.6747
  743MPD2    C110977   0.749   2.863   1.560 -0.5397  0.5938 -0.8922
  743MPD2    C210978   0.843   2.819   1.462 -0.6034 -0.2566 -0.0111
  743MPD2    C310979   0.965   2.763   1.502 -0.0511 -0.3181  0.1296
  743MPD2    C410980   0.998   2.750   1.635  0.5101 -0.0295  0.6336
  743MPD2    C510981   0.910   2.801   1.728 -0.3562 -0.1830  0.2147
  743MPD2     H10982   0.817   2.839   1.358 -2.7928 -1.3554  0.3367
  743MPD2    H110983   1.094   2.715   1.672 -0.6203 -0.2828  3.3539
  743MPD2    H210984   0.720   2.883   1.768 -0.2682  1.1750 -1.7458
  743MPD2    H310985   0.940   2.798   1.832  2.1118  0.2972 -0.4898
  743MPD2     N10986   1.061   2.727   1.397 -0.2881  0.4517 -0.5597
  743MPD2    H510987   1.035   2.748   1.301 -0.2937  0.9516 -0.4475
  743MPD2    N110988   0.615   2.918   1.535  0.3844 -0.1440 -0.1508
  743MPD2    H710989   0.563   2.946   1.618  0.2680  0.6228 -0.4852
  744TMC3    C110990   0.407   2.936   1.426 -0.1548  0.0057 -0.3354
  744TMC3    C210991   0.362   2.964   1.554  0.5053 -0.3529  0.3449
  744TMC3    C310992   0.223   2.944   1.572  0.1893 -0.3039 -0.5526
  744TMC3    C410993   0.332   2.878   1.326 -0.0898  0.1909 -0.0704
  744TMC3    C510994   0.202   2.865   1.344 -0.1932  0.0023 -0.4134
  744TMC3    C610995   0.142   2.894   1.468  0.7941  0.5323 -0.1868
  744TMC3     C10996   0.550   2.907   1.415  0.5116 -0.1088  0.7441
  744TMC3     O10997   0.593   2.872   1.306 -0.3236 -0.0140  0.1069
  744TMC3     H10998   0.423   3.008   1.632 -3.2720  2.6736  1.5977
  744TMC3    H110999   0.378   2.869   1.229 -1.0975 -2.3616 -0.3053
  744TMC3    H211000   0.038   2.879   1.491  1.2955 -2.6120  0.0578
  744TMC3    C711001   0.113   2.805   1.241 -0.1843  0.0442  0.8136
  744TMC3    C811002   0.143   2.997   1.683 -0.0583 -0.3967 -0.7362
  744TMC3    O111003   4.716   2.830   1.251 -0.0336  0.2711  0.5743
  744TMC3    O211004   0.023   3.029   1.668  0.2980  0.1455  0.4489
  745TMC3    C111005   2.591   1.125  13.897 -0.4929  0.0844 -1.1329
  745TMC3    C211006   2.484   1.098  13.978 -0.2219 -0.0013  0.0572
  745TMC3    C311007   2.372   1.049  13.924  0.0132  0.1733  0.4204
  745TMC3    C411008   2.592   1.114  13.755  0.9778 -0.5331  0.5864
  745TMC3    C511009   2.468   1.089  13.703  0.6144  0.0680 -0.2120
  745TMC3    C611010   2.362   1.053  13.786  0.1441  0.6969  0.0135
  745TMC3     C11011   2.681   1.216  13.973 -0.5454 -0.4758  0.5717
  745TMC3     O11012   2.749   1.174  14.066  0.1337  0.1057 -0.5365
  745TMC3     H11013   2.497   1.105  14.085 -1.7347 -0.1717  0.2525
  745TMC3    H111014   2.684   1.142  13.705 -0.2357  1.3845 -0.5838
  745TMC3    H211015   2.261   1.037  13.749 -0.2077  3.2009 -0.1546
  745TMC3    C711016   2.450   1.074  13.560 -0.4588  0.1416  0.8511
  745TMC3    C811017   2.267   1.113  13.998 -0.1199  0.0045 -0.2302
  745TMC3    O111018   2.342   1.028  13.513  0.3901  0.1542 -0.4370
  745TMC3    O211019   2.162   1.058  14.013 -0.4765  0.1631  1.1534
  746TMC3    C111020   4.067   3.475  11.342  0.0255 -0.2627 -0.2390
  746TMC3    C211021   4.190   3.436  11.286  0.1824  0.2277  0.7780
  746TMC3    C311022   4.197   3.320  11.220 -0.0737  0.3307 -0.0855
  746TMC3    C411023   3.956   3.398  11.320  0.0171  0.0937  0.0620
  746TMC3    C511024   3.968   3.283  11.253 -0.8321 -0.4985 -0.2654
  746TMC3    C611025   4.089   3.237  11.205 -0.5760 -0.5577  0.5220
  746TMC3     C11026   4.046   3.598  11.398 -0.3048  0.2442  0.0421
  746TMC3     O11027   3.957   3.611  11.480  0.1939  0.2872  0.3353
  746TMC3     H11028   4.281   3.487  11.317  1.6438 -2.3278  0.6290
  746TMC3    H111029   3.868   3.434  11.372  0.5109  1.1760  0.1531
  746TMC3    H211030   4.101   3.138  11.164  1.0313 -0.2536  0.2195
  746TMC3    C711031   3.852   3.201  11.239  0.1018 -0.3103  0.2312
  746TMC3    C811032   4.304   3.298  11.125  0.3621 -0.5287 -0.5910
  746TMC3    O111033   3.750   3.258  11.193 -0.6972  0.0676 -0.5943
  746TMC3    O211034   4.341   3.185  11.087  0.2758  0.0335 -0.2204
  747TMC3    C111035   1.683   3.749  11.139  0.3574  0.7354 -0.9983
  747TMC3    C211036   1.620   3.651  11.209 -0.4960 -0.0022 -0.4422
  747TMC3    C311037   1.637   3.651  11.344  0.8466 -0.1382  0.0852
  747TMC3    C411038   1.754   3.853  11.196  0.6959  0.4287  0.1186
  747TMC3    C511039   1.778   3.842  11.332 -0.3114  0.3793  0.0909
  747TMC3    C611040   1.725   3.740  11.408 -0.5052  0.0198  0.3770
  747TMC3     C11041   1.704   3.743  10.993  0.2826  0.5295  0.3160
  747TMC3     O11042   1.771   3.833  10.941  0.7563 -0.1539  0.5786
  747TMC3     H11043   1.566   3.569  11.163 -0.3415 -1.8639  2.7302
  747TMC3    H111044   1.805   3.923  11.131  0.1332  1.1921  0.4990
  747TMC3    H211045   1.753   3.736  11.513 -0.0438  1.4779  0.3118
  747TMC3    C711046   1.864   3.936  11.407  0.4541 -0.3681  0.0145
  747TMC3    C811047   1.635   3.518  11.401 -0.6216 -0.7817 -0.1746
  747TMC3    O111048   1.865   3.952  11.529 -0.5738 -0.3266 -0.1946
  747TMC3    O211049   1.649   3.421  11.323  0.2638 -0.1344 -0.0272
  748MPD2     C11050   3.425   3.897   1.522  0.0295 -0.5368 -0.6760
  748MPD2    C111051   3.547   3.935   1.558 -0.6316  0.4413 -0.7780
  748MPD2    C211052   3.591   4.059   1.514 -0.6792 -0.4043 -0.9793
  748MPD2    C311053   3.505   4.143   1.447 -0.9584  0.1290  0.0114
  748MPD2    C411054   3.374   4.102   1.419  0.1502 -1.4754 -0.1895
  748MPD2    C511055   3.333   3.978   1.454 -0.0238  0.7134  0.0562
  748MPD2     H11056   3.693   4.084   1.540 -1.1385 -0.8951  1.2985
  748MPD2    H111057   3.307   4.166   1.363  0.9017  0.2510  0.8698
  748MPD2    H211058   3.388   3.797   1.544  1.8329 -0.4991  2.4479
  748MPD2    H311059   3.236   3.937   1.428  0.8178 -1.0038 -0.4363
  748MPD2     N11060   3.553   4.269   1.406  0.1714  0.8004  0.2097
  748MPD2    H511061   3.654   4.277   1.409  0.0113  2.6986  0.3445
  748MPD2    N111062   3.625   3.852   1.647 -0.2183  0.2617 -0.0042
  748MPD2    H711063   3.581   3.766   1.677  1.6790 -0.4635  0.6434
  749TMC3    C111064   3.555   4.494   1.317 -0.0574 -0.5345  0.5111
  749TMC3    C211065   3.687   4.474   1.291  0.1646 -0.7406  1.1202
  749TMC3    C311066   3.764   4.575   1.258 -0.1655 -0.1152  0.1373
  749TMC3    C411067   3.494   4.616   1.297 -0.0717  0.1507 -0.5233
  749TMC3    C511068   3.574   4.721   1.261  0.1848 -0.5332  0.3475
  749TMC3    C611069   3.709   4.702   1.252  0.1898  0.1681 -0.0695
  749TMC3     C11070   3.477   4.373   1.362  0.5519  0.0808 -0.2579
  749TMC3     O11071   3.358   4.393   1.376  0.0562 -0.1673  0.7501
  749TMC3     H11072   3.733   4.377   1.311 -0.6649 -1.1284  1.1296
  749TMC3    H111073   3.387   4.629   1.304  0.1383  1.2845  0.6226
  749TMC3    H211074   3.770   0.063   1.229  3.7253 -2.3862 -0.2919
  749TMC3    C711075   3.527   0.136   1.268  0.0467  0.1352 -0.1910
  749TMC3    C811076   3.892   4.575   1.320 -1.0479 -0.4773  0.5645
  749TMC3    O111077   3.605   0.222   1.226  0.1967 -0.0787 -0.4186
  749TMC3    O211078   3.925   4.683   1.369 -0.5296 -0.0767 -0.3509
  750MPD2     C11079   0.034   0.648  11.409 -0.1533 -0.3677  0.6735
  750MPD2    C111080   4.637   0.658  11.465 -0.4997  0.2746  0.0663
  750MPD2    C211081   4.538   0.604  11.394 -0.2803  1.1919 -0.0582
  750MPD2    C311082   4.548   0.544  11.273 -0.1819  0.1155 -0.5830
  750MPD2    C411083   4.669   0.542  11.214  0.1824  0.6234 -0.4482
  750MPD2    C511084   0.052   0.602  11.282 -1.1629  0.6879 -0.6428
  750MPD2     H11085   4.439   0.599  11.438 -1.0875  0.2663 -1.9612
  750MPD2    H111086   4.692   0.505  11.115 -3.0641 -2.0963 -0.1864
  750MPD2    H211087   0.119   0.703  11.447  0.1202 -1.2527  1.3428
  750MPD2    H311088   0.145   0.611  11.227 -1.6720 -2.0882 -1.9760
  750MPD2     N11089   4.436   0.508  11.194 -0.1515 -0.2295 -0.1624
  750MPD2    H511090   4.457   0.469  11.103 -0.6210 -2.6238  0.7773
  750MPD2    N111091   4.625   0.691  11.604 -0.2756 -0.3341 -0.4344
  750MPD2    H711092   4.708   0.734  11.645  0.0251 -0.6447 -0.7227
  751TMC3    C111093   4.211   0.468  11.140  0.0940  0.2813  0.1724
  751TMC3    C211094   4.091   0.426  11.199  0.3632  0.0630 -0.4554
  751TMC3    C311095   4.016   0.337  11.123  0.0165 -0.2781 -0.0378
  751TMC3    C411096   4.249   0.435  11.013 -0.4812  0.7569  0.2167
  751TMC3    C511097   4.167   0.352  10.945  0.1241 -0.0370 -0.6744
  751TMC3    C611098   4.046   0.308  10.997  0.1471  0.6431  1.2942
  751TMC3     C11099   4.306   0.524  11.235  0.2629 -0.0631  0.3068
  751TMC3     O11100   4.257   0.562  11.341  0.0652 -0.4842 -0.1745
  751TMC3     H11101   4.069   0.445  11.303  2.3071 -0.4734  0.0551
  751TMC3    H111102   4.344   0.466  10.970 -0.8534  2.6755  0.7529
  751TMC3    H211103   3.986   0.247  10.930  2.6450  1.2270 -1.4674
  751TMC3    C711104   4.230   0.296  10.826 -0.4944 -0.2297  0.4978
  751TMC3    C811105   3.894   0.282  11.175 -0.2935  0.3314  0.2349
  751TMC3    O111106   4.230   0.176  10.804  0.4872  0.4187 -0.2045
  751TMC3    O211107   3.839   0.192  11.112 -0.2980 -0.1816  1.0323
  752TMC3    C111108   3.026   0.527  16.747 -0.1063  0.0596  0.0107
  752TMC3    C211109   2.932   0.623  16.780  0.1049  0.2709  0.1539
  752TMC3    C311110   2.918   0.659  16.910 -0.6586  0.7980  0.2607
  752TMC3    C411111   3.105   0.470  16.845 -0.7191  0.9123 -1.0582
  752TMC3    C511112   3.089   0.508  16.976  0.5385 -0.4640 -0.3690
  752TMC3    C611113   2.994   0.605  17.018  0.4784 -0.4549 -0.6935
  752TMC3     C11114   2.989   0.430  16.648 -0.4928 -1.1462  0.1959
  752TMC3     O11115   3.017   0.318  16.686  0.6255  0.2883  0.8140
  752TMC3     H11116   2.865   0.666  16.707  0.2174  0.2098  0.0139
  752TMC3    H111117   3.197   0.419  16.819 -0.1990  0.5454  1.4965
  752TMC3    H211118   2.971   0.629  17.121 -0.7240 -1.5817 -0.7058
  752TMC3    C711119   3.153   0.416  17.075  0.1772  0.4442 -0.2529
  752TMC3    C811120   2.831   0.768  16.937  0.2755  0.7131 -0.7352
  752TMC3    O111121   3.202   0.311  17.033 -0.2314  0.0456  0.7510
  752TMC3    O211122   2.772   0.819  16.843  0.4925 -0.9518 -0.2517
  753TMC3    C111123   4.667   1.501  13.242  1.2171 -0.3602  0.2502
  753TMC3    C211124   4.715   1.468  13.368  0.2048 -0.0769  0.6409
  753TMC3    C311125   0.003   1.333  13.396 -0.0826  0.6286  0.0509
  753TMC3    C411126   4.629   1.413  13.150 -0.6478 -0.1832  0.2074
  753TMC3    C511127   4.637   1.281  13.176 -0.0054  0.3904 -0.0593
  753TMC3    C611128   4.686   1.243  13.300 -0.1383  0.1481  0.9535
  753TMC3     C11129   4.673   1.641  13.209 -0.9136 -0.7737 -0.3576
  753TMC3     O11130   4.587   1.678  13.132 -0.5099 -0.3411  0.4758
  753TMC3     H11131   4.720   1.546  13.444 -0.4593 -1.1358  1.7691
  753TMC3    H111132   4.591   1.445  13.054  1.7899  0.7792 -0.4315
  753TMC3    H211133   4.694   1.137  13.321  0.4363  0.2010  1.0125
  753TMC3    C711134   4.652   1.192  13.060  0.7208 -1.0772 -0.1522
  753TMC3    C811135   0.087   1.279  13.499  0.3333 -0.1190 -0.1654
  753TMC3    O111136   4.638   1.251  12.952  0.0744 -0.4429  0.1342
  753TMC3    O211137   0.090   1.159  13.534  0.4637  0.0162 -0.1534
  754MPD2     C11138   4.064   4.514  13.305 -0.0780 -0.3917  0.5259
  754MPD2    C111139   3.993   4.396  13.291  0.5122  0.1027 -0.0485
  754MPD2    C211140   3.851   4.406  13.260 -0.4310  0.3761 -0.1085
  754MPD2    C311141   3.787   4.534  13.264  0.2431  0.5548 -0.4164
  754MPD2    C411142   3.860   4.651  13.275 -0.3694  0.6936 -0.1140
  754MPD2    C511143   3.993   4.638  13.288 -0.6732  0.4259  0.4295
  754MPD2     H11144   3.798   4.313  13.245 -1.0887  1.3064 -3.5466
  754MPD2    H111145   3.822   0.027  13.283 -0.3351  0.5758  1.5873
  754MPD2    H211146   4.171   4.516  13.328 -0.3738 -1.6733  1.9822
  754MPD2    H311147   4.055   4.725  13.304 -0.8393  0.6914 -0.3790
  754MPD2     N11148   3.649   4.559  13.272 -1.1924  0.2196 -0.3117
  754MPD2    H511149   3.611   4.652  13.286 -0.2851  0.5473 -0.0219
  754MPD2    N111150   4.063   4.264  13.308  0.1070 -0.5722 -0.4087
  754MPD2    H711151   4.163   4.271  13.325  0.2105  0.0022 -1.2854
  755MPD2     C11152   3.201   0.530  13.410 -0.3807 -0.6323  0.4422
  755MPD2    C111153   3.152   0.460  13.523 -0.1192  0.0515 -0.0109
  755MPD2    C211154   3.177   0.322  13.524 -0.8909 -0.5440  0.1492
  755MPD2    C311155   3.266   0.268  13.428 -0.2194 -0.4339 -0.1957
  755MPD2    C411156   3.312   0.340  13.323  0.6676 -0.4814 -0.3074
  755MPD2    C511157   3.277   0.471  13.315  0.0648  0.0701 -0.2101
  755MPD2     H11158   3.127   0.262  13.600  0.9795 -0.6942  1.2664
  755MPD2    H111159   3.378   0.297  13.248  0.8379 -1.5701  0.4681
  755MPD2    H211160   3.187   0.636  13.392  0.3743 -0.5836  0.1236
  755MPD2    H311161   3.313   0.522  13.226  1.9669  0.0597  0.5669
  755MPD2     N11162   3.301   0.128  13.417  0.4265 -0.2387  0.2944
  755MPD2    H511163   3.357   0.105  13.336 -1.4114 -2.9514 -0.1912
  755MPD2    N111164   3.068   0.523  13.620  0.8913  0.4864  0.3296
  755MPD2    H711165   3.027   0.463  13.691 -4.1078  1.0134 -2.1645
  756MPD2     C11166   0.175   0.576   9.270 -0.0550  0.8890 -0.4152
  756MPD2    C111167   0.080   0.575   9.375 -0.2391  0.5787 -0.1260
  756MPD2    C211168   4.701   0.489   9.367  0.9735  0.2510  0.0895
  756MPD2    C311169   4.678   0.422   9.249  0.1977  0.2610 -0.1098
  756MPD2    C411170   0.046   0.420   9.145  0.0737 -0.3026  0.4497
  756MPD2    C511171   0.157   0.497   9.164  0.8006 -0.2348 -0.3592
  756MPD2     H11172   4.627   0.482   9.446  0.2998  0.2929 -0.5340
  756MPD2    H111173   0.038   0.354   9.060 -2.5485 -0.8442  1.1048
  756MPD2    H211174   0.273   0.623   9.271  0.6932 -0.6621 -1.0824
  756MPD2    H311175   0.237   0.489   9.092 -0.0826 -1.7378 -1.1739
  756MPD2     N11176   4.569   0.334   9.265 -0.4955  0.1060 -0.3035
  756MPD2    H511177   4.507   0.342   9.344 -0.4579 -0.1461 -0.2475
  756MPD2    N111178   0.095   0.655   9.493 -0.1054  1.0226  0.5184
  756MPD2    H711179   0.025   0.644   9.566 -0.6780  0.9067 -0.0475
  757MPD2     C11180   3.549   0.133   9.173 -0.7531 -0.0620  0.3896
  757MPD2    C111181   3.595   0.139   9.302  0.5631  0.5884 -0.1538
  757MPD2    C211182   3.729   0.119   9.326 -0.3433 -0.5119  0.8570
  757MPD2    C311183   3.819   0.109   9.220  0.0900  0.2171 -0.1719
  757MPD2    C411184   3.776   0.113   9.091 -0.2948  0.9194 -0.4914
  757MPD2    C511185   3.635   0.114   9.070 -0.3339  0.4079 -0.3383
  757MPD2     H11186   3.758   0.099   9.429 -0.3957 -1.1679  0.7429
  757MPD2    H111187   3.843   0.101   9.006 -0.6152 -0.0243 -0.6003
  757MPD2    H211188   3.443   0.137   9.151 -0.8962  3.7387  1.7204
  757MPD2    H311189   3.601   0.104   8.968  2.6569 -0.6564 -1.2176
  757MPD2     N11190   3.955   0.105   9.251 -0.0146 -0.7979 -0.5776
  757MPD2    H511191   3.977   0.091   9.349  0.6305  2.0780 -0.3170
  757MPD2    N111192   3.497   0.157   9.407 -0.7784  0.4928 -0.0684
  757MPD2    H711193   3.398   0.167   9.386 -0.8969 -0.1612  0.1798
  758MPD2     C11194   3.973   3.906  16.080 -0.2460  0.5116  0.5923
  758MPD2    C111195   4.065   3.927  16.179  0.6735  0.3796 -0.5494
  758MPD2    C211196   4.028   3.991  16.297  0.7245 -0.2903 -0.2348
  758MPD2    C311197   3.892   4.028  16.313 -0.2367  0.3554 -0.4656
  758MPD2    C411198   3.804   3.994  16.214 -0.2149  0.6599  0.4249
  758MPD2    C511199   3.843   3.929  16.105 -0.0999  0.3551 -0.3010
  758MPD2     H11200   4.109   4.022  16.361  1.8753 -0.9875 -1.3658
  758MPD2    H111201   3.697   4.011  16.215 -0.1415  1.0904  1.1083
  758MPD2    H211202   3.998   3.873  15.980 -2.1028  0.1199  0.2581
  758MPD2    H311203   3.773   3.906  16.026 -0.9712  0.2030  0.5143
  758MPD2     N11204   3.848   4.100  16.422 -0.2545  0.0127 -0.1545
  758MPD2    H511205   3.749   4.120  16.434 -0.0883  1.0176 -0.3851
  758MPD2    N111206   4.199   3.892  16.154 -0.0419  0.0457 -0.2613
  758MPD2    H711207   4.204   3.849  16.062 -0.1483  0.2310 -0.3550
  759MPD2     C11208   3.252   2.424  10.472 -0.5971  0.9429 -0.2299
  759MPD2    C111209   3.118   2.463  10.472 -0.2905  0.0849 -0.1424
  759MPD2    C211210   3.083   2.576  10.400  0.2409  0.1074 -0.3692
  759MPD2    C311211   3.168   2.651  10.323  0.1905  0.0326  0.0592
  759MPD2    C411212   3.301   2.612  10.321  0.0339  0.5595  0.4626
  759MPD2    C511213   3.338   2.499  10.393  0.5717  0.0629  0.0115
  759MPD2     H11214   2.977   2.599  10.391  0.4739  0.5898 -1.8532
  759MPD2    H111215   3.370   2.665  10.256  0.6855  1.5136  1.9189
  759MPD2    H211216   3.281   2.339  10.534 -1.9032  0.3567 -0.4124
  759MPD2    H311217   3.443   2.472  10.393  0.3508 -0.7946  1.3386
  759MPD2     N11218   3.112   2.754  10.240  0.0081 -0.3944  0.2224
  759MPD2    H511219   3.015   2.775  10.260 -0.2143  0.6951 -1.9884
  759MPD2    N111220   3.022   2.378  10.545  0.0643 -0.1781 -0.3953
  759MPD2    H711221   3.059   2.297  10.593  0.0660  0.7707  1.2197
  760MPD2     C11222   2.132   0.346  12.123 -0.6796  0.3300  0.2382
  760MPD2    C111223   2.269   0.345  12.123 -0.5419 -0.2972  0.5333
  760MPD2    C211224   2.333   0.237  12.190  0.0083 -0.5245  0.3122
  760MPD2    C311225   2.251   0.149  12.264  0.0671  0.1644 -0.1347
  760MPD2    C411226   2.114   0.154  12.269  0.3830  0.2211 -0.7924
  760MPD2    C511227   2.058   0.254  12.196  0.1727 -0.3034  0.0428
  760MPD2     H11228   2.436   0.212  12.170  1.3589  2.6712  3.2342
  760MPD2    H111229   2.040   0.094  12.322  0.8588 -1.1701 -1.7004
  760MPD2    H211230   2.073   0.424  12.076 -0.5007  0.3658  0.0753
  760MPD2    H311231   1.951   0.270  12.195  0.2081 -0.0289  0.7492
  760MPD2     N11232   2.305   0.031  12.319  0.1139  0.2528 -0.3242
  760MPD2    H511233   2.239   4.682  12.343  0.8907 -0.7400 -1.2435
  760MPD2    N111234   2.342   0.433  12.042  0.6205 -0.0409  0.6303
  760MPD2    H711235   2.442   0.417  12.041  0.3765 -1.5527  0.2527
  761MPD2     C11236   3.532   0.217  11.530 -0.3994 -0.3836 -0.3290
  761MPD2    C111237   3.591   0.123  11.445  0.1657  0.8094  0.6948
  761MPD2    C211238   3.699   0.165  11.367 -0.4655  0.7380 -0.4985
  761MPD2    C311239   3.740   0.295  11.367  0.0295  0.1154 -0.7322
  761MPD2    C411240   3.683   0.379  11.455 -0.0907  0.0932  0.7054
  761MPD2    C511241   3.580   0.339  11.534  0.0789 -0.7427  0.5227
  761MPD2     H11242   3.761   0.094  11.315  0.1029  0.3321  0.7298
  761MPD2    H111243   3.717   0.482  11.458 -2.9503  1.0749 -0.3357
  761MPD2    H211244   3.447   0.180  11.587 -1.0406  0.4640 -0.7334
  761MPD2    H311245   3.535   0.421  11.589 -2.9836 -1.4891 -0.8532
  761MPD2     N11246   3.847   0.344  11.289 -0.1656  0.0979 -0.2172
  761MPD2    H511247   3.895   0.430  11.311  1.4949 -1.0668  0.7223
  761MPD2    N111248   3.554   4.714  11.448  0.0134  0.2285 -0.8064
  761MPD2    H711249   3.482   4.688  11.514  0.4241 -2.0329 -1.2488
  762MPD2     C11250   3.954   4.591  11.026 -0.3077 -0.0144  0.9931
  762MPD2    C111251   3.949   4.463  11.083 -0.5098  0.0812  0.7304
  762MPD2    C211252   4.052   4.372  11.063  0.0328 -0.5581  0.2332
  762MPD2    C311253   4.162   4.403  10.984  0.1439 -0.3695  0.3589
  762MPD2    C411254   4.165   4.535  10.936  0.7529 -0.2975  0.2521
  762MPD2    C511255   4.064   4.634  10.957  0.6859  0.2670  0.1511
  762MPD2     H11256   4.052   4.272  11.105  0.0839  0.4366  2.6274
  762MPD2    H111257   4.250   4.571  10.880 -0.4851  0.0967 -1.3726
  762MPD2    H211258   3.867   4.654  11.037 -1.8764 -1.1468 -4.5712
  762MPD2    H311259   4.060   0.002  10.901 -1.7980  0.7947  1.2573
  762MPD2     N11260   4.259   4.306  10.944  0.2923 -0.5057 -0.0456
  762MPD2    H511261   4.237   4.209  10.963  2.4979 -0.4723  2.5040
  762MPD2    N111262   3.835   4.430  11.160 -0.3066  0.3120 -0.1159
  762MPD2    H711263   3.761   4.495  11.186  0.7567  1.6404 -0.4040
  763MPD2     C11264   0.263   4.516  15.971 -0.4671 -0.9128 -0.3862
  763MPD2    C111265   0.376   4.540  15.906  0.3159  0.3220 -0.8228
  763MPD2    C211266   0.468   4.621  15.964 -0.7305  0.6967 -0.5111
  763MPD2    C311267   0.441   4.688  16.087  0.2027 -0.0000 -0.1735
  763MPD2    C411268   0.322   4.656  16.154  0.3765  0.9687 -0.3127
  763MPD2    C511269   0.243   4.565  16.098 -0.5641  0.5334 -0.9646
  763MPD2     H11270   0.564   4.643  15.918  0.4364 -1.1644  1.0339
  763MPD2    H111271   0.281   4.690  16.249 -1.6307 -1.5612 -0.2789
  763MPD2    H211272   0.190   4.452  15.922 -0.4421  0.2938 -2.0118
  763MPD2    H311273   0.152   4.523  16.140 -1.1243  1.1909 -1.5209
  763MPD2     N11274   0.524   0.067  16.126 -0.0644 -0.8957 -0.3018
  763MPD2    H511275   0.587   0.095  16.051 -0.3458 -1.6082 -0.7973
  763MPD2    N111276   0.414   4.484  15.779  0.1393 -1.0191 -0.3083
  763MPD2    H711277   0.513   4.486  15.760  0.4722  1.0531  1.6889
  764MPD2     C11278   3.846   2.021  17.113  0.5703 -0.5961  0.0975
  764MPD2    C111279   3.760   1.920  17.084 -0.1215  0.0537 -0.2013
  764MPD2    C211280   3.746   1.818  17.175 -0.2234 -0.8718 -0.0452
  764MPD2    C311281   3.808   1.826  17.296 -0.2112  0.1323  0.4638
  764MPD2    C411282   3.896   1.926  17.324 -0.1024 -0.0619 -0.0209
  764MPD2    C511283   3.912   2.025  17.230  0.1848  0.2084 -0.0970
  764MPD2     H11284   3.678   1.735  17.165 -1.6251 -0.0740  3.0797
  764MPD2    H111285   3.933   1.943  17.424  1.8781  0.0363 -0.7663
  764MPD2    H211286   3.883   2.099  17.047  2.7077 -1.5103  0.2074
  764MPD2    H311287   3.977   2.110  17.243  1.9103 -1.3915  1.8118
  764MPD2     N11288   3.781   1.722  17.386 -0.2380  0.3123 -0.0204
  764MPD2    H511289   3.709   1.657  17.356  0.6541 -0.0377 -1.3659
  764MPD2    N111290   3.692   1.907  16.958 -0.2111 -0.1356  0.3107
  764MPD2    H711291   3.637   1.822  16.954 -0.6236  0.1281  0.2708
  765MPD2     C11292   2.916   3.171  16.015 -0.4119  0.5604 -0.2451
  765MPD2    C111293   2.964   3.281  15.949 -0.0624 -0.6416 -0.0609
  765MPD2    C211294   3.081   3.274  15.881 -0.3569 -0.0643 -0.9955
  765MPD2    C311295   3.141   3.154  15.859  0.2674 -0.5764  0.2696
  765MPD2    C411296   3.095   3.044  15.926 -0.0451  0.6491  0.7764
  765MPD2    C511297   2.994   3.061  16.010  0.0480  0.0919  0.8244
  765MPD2     H11298   3.126   3.362  15.834 -0.1330  1.0635  1.3351
  765MPD2    H111299   3.157   2.955  15.925 -0.9026  0.0583 -0.2378
  765MPD2    H211300   2.831   3.179  16.082 -0.5475  0.0895 -0.3608
  765MPD2    H311301   2.960   2.969  16.056 -0.3890 -1.3713 -2.4589
  765MPD2     N11302   3.259   3.134  15.779 -0.5666  0.6838  0.4845
  765MPD2    H511303   3.294   3.040  15.759 -2.1219  0.1391  0.3289
  765MPD2    N111304   2.895   3.406  15.966  0.5403  0.4391  0.3015
  765MPD2    H711305   2.807   3.403  16.016 -0.1204  2.0172 -0.7509
  766MPD2     C11306   2.699   3.514  15.323  0.4642  0.0952  0.2652
  766MPD2    C111307   2.806   3.584  15.382  0.0315 -0.2153  0.4469
  766MPD2    C211308   2.920   3.623  15.309  0.0672  0.3597 -0.0349
  766MPD2    C311309   2.919   3.589  15.172 -0.1843 -0.3247 -0.1045
  766MPD2    C411310   2.818   3.520  15.116  0.3787  0.2406 -0.0122
  766MPD2    C511311   2.710   3.479  15.193 -0.4704 -0.0282  0.4102
  766MPD2     H11312   3.000   3.681  15.352 -0.1974 -2.0368  3.7191
  766MPD2    H111313   2.809   3.511  15.008 -0.7518 -1.4835  0.2157
  766MPD2    H211314   2.600   3.495  15.363  0.9446 -2.6621  0.1510
  766MPD2    H311315   2.628   3.424  15.149 -0.0799 -0.5880  0.3723
  766MPD2     N11316   3.022   3.630  15.077  0.0172 -1.0234 -0.1822
  766MPD2    H511317   2.998   3.614  14.979 -0.0639 -3.3709  0.2227
  766MPD2    N111318   2.792   3.634  15.515  0.3199 -0.2996  0.2818
  766MPD2    H711319   2.863   3.701  15.542  1.7212 -2.4152  1.8100
  767MPD2     C11320   2.687   3.828  15.097 -0.1406 -0.8452  0.1230
  767MPD2    C111321   2.810   3.881  15.054 -1.0558  0.0836  0.1020
  767MPD2    C211322   2.822   3.883  14.916  0.3681  0.8911 -0.7495
  767MPD2    C311323   2.730   3.820  14.832 -0.1513 -0.3236  0.5620
  767MPD2    C411324   2.612   3.756  14.880  0.5647  0.1955  0.1346
  767MPD2    C511325   2.596   3.766  15.014  0.1434 -0.3993 -0.5537
  767MPD2     H11326   2.898   3.942  14.865 -0.1983  1.7391 -0.6077
  767MPD2    H111327   2.543   3.702  14.815 -0.3552 -1.6998  2.7097
  767MPD2    H211328   2.667   3.834  15.203  1.2514 -0.5012  0.3667
  767MPD2    H311329   2.513   3.708  15.053  0.3435  0.2772  0.8672
  767MPD2     N11330   2.761   3.817  14.693  0.0395 -0.0597  0.4601
  767MPD2    H511331   2.851   3.855  14.664 -0.8542  0.2201 -1.9672
  767MPD2    N111332   2.893   3.959  15.147 -0.3222 -0.0639 -0.4949
  767MPD2    H711333   2.866   3.962  15.245  1.8211  0.2376  0.0799
  768MPD2     C11334   3.881   2.752  10.633 -1.1596  0.0806 -0.3821
  768MPD2    C111335   3.796   2.710  10.741 -0.3681 -0.9137  0.1524
  768MPD2    C211336   3.851   2.691  10.862 -0.1509 -0.6706 -0.5856
  768MPD2    C311337   3.979   2.736  10.895  0.3197  0.1507 -0.2255
  768MPD2    C411338   4.053   2.794  10.796 -0.5203  0.5219  0.0318
  768MPD2    C511339   4.008   2.801  10.665 -0.3583  0.1878  0.8009
  768MPD2     H11340   3.790   2.641  10.936 -1.9707  2.9143  0.3380
  768MPD2    H111341   4.150   2.840  10.812 -0.1721  0.6202 -2.3920
  768MPD2    H211342   3.856   2.773  10.530  1.7721  1.1029 -0.8840
  768MPD2    H311343   4.066   2.856  10.592  2.1331 -2.1701  0.9921
  768MPD2     N11344   4.040   2.726  11.022 -0.2829 -0.5648  0.4992
  768MPD2    H511345   4.133   2.766  11.032 -0.7566  0.1669  2.0453
  768MPD2    N111346   3.657   2.693  10.729 -0.5559  0.3418  0.0832
  768MPD2    H711347   3.605   2.666  10.813  1.1417 -3.0903  0.0367
  769MPD2     C11348   0.109   0.627  14.873  0.1483 -0.7710 -0.5026
  769MPD2    C111349   0.002   0.597  14.956  0.4157 -0.1141 -0.3949
  769MPD2    C211350   0.014   0.634  15.089  0.3683 -0.6449  0.0342
  769MPD2    C311351   0.103   0.732  15.132  0.0742 -0.6852  0.0083
  769MPD2    C411352   0.205   0.772  15.049  0.1423 -0.2944 -0.8051
  769MPD2    C511353   0.212   0.710  14.923  0.0040 -0.6513  0.4084
  769MPD2     H11354   4.665   0.604  15.162 -1.5532  0.9130 -1.2642
  769MPD2    H111355   0.288   0.838  15.069 -0.4301  0.5300 -1.1700
  769MPD2    H211356   0.109   0.609  14.766 -0.7316 -0.7790 -0.5006
  769MPD2    H311357   0.289   0.740  14.853  0.1146 -3.1006 -0.5282
  769MPD2     N11358   0.073   0.788  15.257 -0.2030 -0.0127 -0.5208
  769MPD2    H511359   4.720   0.751  15.311 -2.2995  2.5786 -1.7593
  769MPD2    N111360   4.620   0.518  14.907 -0.0069  0.1499  0.3328
  769MPD2    H711361   4.629   0.474  14.816 -3.9058  3.6274 -1.6978
  770MPD2     C11362   3.899   4.547  15.260 -0.5923 -0.6749 -0.5165
  770MPD2    C111363   3.999   4.490  15.180 -0.3609  0.0717  0.4696
  770MPD2    C211364   4.053   4.581  15.084 -0.7518 -0.7304  0.1045
  770MPD2    C311365   4.029   4.720  15.081  0.2094 -0.9023 -0.5851
  770MPD2    C411366   3.946   0.044  15.186 -0.0062  0.2988  0.6951
  770MPD2    C511367   3.870   4.682  15.261 -0.8765  0.1453 -0.3152
  770MPD2     H11368   4.123   4.545  15.009 -0.0969 -0.8480  0.7765
  770MPD2    H111369   3.919   0.147  15.205  0.4272  0.5500 -0.0470
  770MPD2    H211370   3.839   4.490  15.330  0.1554 -1.7882 -0.7772
  770MPD2    H311371   3.804   4.720  15.338  1.5717 -0.8785  2.3308
  770MPD2     N11372   4.087   0.073  14.975  0.1609  0.0713  0.1108
  770MPD2    H511373   4.148   0.023  14.912  1.8662  0.2506  1.6108
  770MPD2    N111374   4.021   4.350  15.181 -0.9947  0.3441 -0.4380
  770MPD2    H711375   3.970   4.294  15.248  0.7439 -0.3668  0.2859
  771MPD2     C11376   0.957   3.280  14.025 -0.5333 -0.3237 -0.2994
  771MPD2    C111377   0.846   3.353  13.989  0.0000 -0.6570 -0.3341
  771MPD2    C211378   0.776   3.307  13.877  0.7298 -0.0879 -0.0635
  771MPD2    C311379   0.825   3.205  13.804 -0.1474 -0.2723  0.0546
  771MPD2    C411380   0.937   3.132  13.842  0.2284  0.8916 -0.2736
  771MPD2    C511381   1.003   3.167  13.954 -0.9398 -0.0036 -0.0131
  771MPD2     H11382   0.687   3.364  13.853  1.0208  0.1926 -0.4709
  771MPD2    H111383   0.981   3.057  13.778  1.7120 -0.8254  2.7234
  771MPD2    H211384   1.016   3.306  14.112  0.8395 -1.3956 -0.9024
  771MPD2    H311385   1.096   3.122  13.987 -1.3057  0.5656  1.7697
  771MPD2     N11386   0.757   3.175  13.687 -0.0170  0.1893  0.1833
  771MPD2    H511387   0.674   3.232  13.674  0.8461  0.9588 -1.9619
  771MPD2    N111388   0.815   3.484  14.045 -0.6892  0.4786 -0.3055
  771MPD2    H711389   0.735   3.537  14.013 -2.6217 -2.2438 -0.0344
  772MPD2     C11390   0.289   4.007  14.127  0.2855 -0.1833  0.3024
  772MPD2    C111391   0.330   3.874  14.099 -0.5541  0.1061  0.3793
  772MPD2    C211392   0.235   3.773  14.091  0.0315 -0.0569 -0.2696
  772MPD2    C311393   0.099   3.807  14.103 -0.6881 -0.7659  0.2761
  772MPD2    C411394   0.064   3.932  14.157  0.7799 -0.4498 -0.2745
  772MPD2    C511395   0.158   4.032  14.170  0.4466  0.2321 -0.1554
  772MPD2     H11396   0.268   3.676  14.053 -1.0740 -1.4571  2.3100
  772MPD2    H111397   4.684   3.946  14.183  1.2851  1.0700  0.9567
  772MPD2    H211398   0.366   4.081  14.144  0.6887 -0.4797 -0.2330
  772MPD2    H311399   0.137   4.130  14.210 -0.5052  0.1891 -0.5394
  772MPD2     N11400   4.716   3.713  14.086 -0.2258 -0.1023 -0.4204
  772MPD2    H511401   4.625   3.755  14.097  0.7468  2.1939 -1.1097
  772MPD2    N111402   0.467   3.834  14.081  0.0799  0.5828  0.3304
  772MPD2    H711403   0.489   3.738  14.055 -0.5094  0.6723 -0.4685
  773MPD2     C11404   3.855   0.670   0.360  0.5812  0.1710  0.1611
  773MPD2    C111405   3.904   0.588   0.260  0.4081  0.6232  0.5956
  773MPD2    C211406   3.892   0.453   0.282 -0.5294  0.1335  0.0187
  773MPD2    C311407   3.865   0.396   0.402 -0.0898 -0.1092  0.5047
  773MPD2    C411408   3.840   0.482   0.504 -0.5020 -0.3397  0.3875
  773MPD2    C511409   3.824   0.621   0.479  0.5504  0.0221 -0.4410
  773MPD2     H11410   3.920   0.380   0.207 -0.2919 -0.1251  0.3584
  773MPD2    H111411   3.821   0.444   0.604  2.5615 -1.4729  0.5150
  773MPD2    H211412   3.842   0.777   0.348  1.5536  0.5367  2.3571
  773MPD2    H311413   3.779   0.683   0.555  0.3538 -0.0965 -0.4584
  773MPD2     N11414   3.874   0.253   0.420  0.0668 -0.5377  0.7838
  773MPD2    H511415   3.905   0.192   0.345 -1.0492  0.7582 -0.7326
  773MPD2    N111416   3.940   0.633   0.129 -0.1350 -0.2524  0.1956
  773MPD2    H711417   3.920   0.567   0.054 -0.5969 -1.0659  1.0402
  774MPD2     C11418   3.515   3.337  13.473  0.4122  0.0601 -0.9968
  774MPD2    C111419   3.491   3.428  13.576 -0.3172 -0.2271  0.1130
  774MPD2    C211420   3.528   3.563  13.566  0.5918  0.0760  0.4679
  774MPD2    C311421   3.583   3.613  13.454 -0.0176 -0.2033 -0.8493
  774MPD2    C411422   3.585   3.528  13.346 -0.6098 -0.8010  0.3811
  774MPD2    C511423   3.549   3.393  13.354  0.1826 -0.2673 -0.4245
  774MPD2     H11424   3.509   3.628  13.650 -1.5287  0.5166 -0.3553
  774MPD2    H111425   3.603   3.557  13.243 -2.5000 -0.0096  0.2735
  774MPD2    H211426   3.500   3.231  13.490  1.0774 -0.1710 -1.8737
  774MPD2    H311427   3.546   3.333  13.264  0.2576  1.5901 -1.6728
  774MPD2     N11428   3.620   3.749  13.452  0.1313  0.0288  0.1716
  774MPD2    H511429   3.602   3.802  13.537 -0.8824 -0.5149  0.3058
  774MPD2    N111430   3.434   3.367  13.695 -0.3137  0.2330 -0.5588
  774MPD2    H711431   3.435   3.265  13.701  1.4406  0.1731 -1.6441
  775MPD2     C11432   0.007   0.488  15.656 -0.4425 -0.3930  0.3116
  775MPD2    C111433   0.071   0.605  15.715 -0.1064 -0.5515 -0.2117
  775MPD2    C211434   0.176   0.667  15.644  0.3628 -0.3677 -0.5352
  775MPD2    C311435   0.234   0.607  15.530 -0.4075 -0.5912  0.2880
  775MPD2    C411436   0.180   0.488  15.488  0.7267  0.0269 -0.0237
  775MPD2    C511437   0.071   0.434  15.552  0.1562  0.2335 -0.5639
  775MPD2     H11438   0.222   0.753  15.690 -1.8911  0.1333  0.7888
  775MPD2    H111439   0.224   0.429  15.408  1.7856  2.1101 -0.9849
  775MPD2    H211440   4.652   0.439  15.710 -1.0283 -1.4326 -1.4904
  775MPD2    H311441   0.038   0.338  15.512 -0.2530  0.7877 -1.5669
  775MPD2     N11442   0.333   0.671  15.456 -0.2694 -0.0992  0.2406
  775MPD2    H511443   0.366   0.616  15.378  0.7110  1.6257 -0.5629
  775MPD2    N111444   0.021   0.649  15.846  0.0726  0.6277 -0.0221
  775MPD2    H711445   4.659   0.610  15.881 -0.1487  1.0955 -0.0631
  776MPD2     C11446   0.259   1.107  11.909 -0.1455  0.7666 -0.2509
  776MPD2    C111447   0.121   1.118  11.924  0.2061  0.1804  0.1295
  776MPD2    C211448   0.059   1.228  11.869  0.4733  0.2785 -0.1568
  776MPD2    C311449   0.128   1.332  11.820 -0.2913 -0.0684 -1.2363
  776MPD2    C411450   0.267   1.321  11.813 -0.1748 -0.0963  0.2394
  776MPD2    C511451   0.330   1.210  11.856 -0.1824  0.5874  0.8207
  776MPD2     H11452   4.676   1.239  11.877  0.3284 -1.8843  0.7785
  776MPD2    H111453   0.327   1.401  11.772 -0.8135  0.7366  0.9116
  776MPD2    H211454   0.311   1.018  11.942  1.0317  2.1509  1.5997
  776MPD2    H311455   0.438   1.202  11.844 -0.5625 -3.0896 -0.0513
  776MPD2     N11456   0.059   1.449  11.763 -0.2039 -0.8266 -0.2498
  776MPD2    H511457   0.122   1.512  11.715  0.1765 -0.8561  0.2097
  776MPD2    N111458   0.058   1.006  11.974 -0.8544  0.0093  0.1790
  776MPD2    H711459   0.112   0.920  11.984 -2.1569 -0.7784  0.5012
  777MPD2     C11460   4.225   3.648   0.698 -0.2308 -0.2440  0.0510
  777MPD2    C111461   4.289   3.584   0.803  0.0849  0.3862 -0.1220
  777MPD2    C211462   4.347   3.459   0.784 -0.0179 -0.0922 -0.4486
  777MPD2    C311463   4.341   3.401   0.661 -0.6890 -0.7206  0.6225
  777MPD2    C411464   4.289   3.473   0.551 -0.2819  0.6267 -0.2179
  777MPD2    C511465   4.227   3.588   0.579  0.9973  0.6911  0.3073
  777MPD2     H11466   4.403   3.407   0.860 -4.4845  0.4996  3.2027
  777MPD2    H111467   4.291   3.442   0.447 -1.8833 -0.2402  0.0118
  777MPD2    H211468   4.187   3.750   0.702  0.1601 -0.0987  0.0047
  777MPD2    H311469   4.175   3.638   0.498 -0.0533 -2.9852 -1.2749
  777MPD2     N11470   4.383   3.269   0.647 -0.4116 -0.1285 -0.3299
  777MPD2    H511471   4.427   3.226   0.727  0.3513  1.0753 -0.1016
  777MPD2    N111472   4.294   3.657   0.928  0.0154  0.3655 -0.1805
  777MPD2    H711473   4.233   3.737   0.936  1.0488  0.9236  1.9837
  778MPD2     C11474   0.626   3.226  15.318 -0.2402 -0.1498 -0.4433
  778MPD2    C111475   0.627   3.133  15.210  0.0307 -0.0597  0.0805
  778MPD2    C211476   0.662   3.193  15.083 -0.2056 -0.6320  0.4712
  778MPD2    C311477   0.712   3.321  15.069 -0.4297 -0.0160  0.2082
  778MPD2    C411478   0.716   3.400  15.183 -0.7215  0.3725  0.6561
  778MPD2    C511479   0.662   3.360  15.301  0.3936 -0.6092 -0.4099
  778MPD2     H11480   0.646   3.138  14.991 -2.0803 -1.9662  1.6025
  778MPD2    H111481   0.745   3.504  15.174  0.0084  0.0525 -0.7824
  778MPD2    H211482   0.577   3.192  15.408  0.3049  1.0755  0.3082
  778MPD2    H311483   0.659   3.422  15.390 -0.4234 -1.3319  0.0666
  778MPD2     N11484   0.747   3.369  14.944  0.1268  0.2647  0.2770
  778MPD2    H511485   0.722   3.311  14.864 -0.0630 -0.4400  0.8429
  778MPD2    N111486   0.567   3.006  15.216 -0.1173 -0.6378 -0.5229
  778MPD2    H711487   0.539   2.952  15.135 -0.5920 -1.9283  0.4786
  779MPD2     C11488   0.898   2.348  13.617  0.6216 -0.0677 -0.1801
  779MPD2    C111489   0.854   2.312  13.741 -0.1963  0.5540 -0.4242
  779MPD2    C211490   0.847   2.400  13.842  0.2928  0.3269  0.4854
  779MPD2    C311491   0.877   2.536  13.826  0.1480 -0.0413  0.1132
  779MPD2    C411492   0.920   2.575  13.705 -0.0758  0.3800  0.5134
  779MPD2    C511493   0.932   2.479  13.603 -0.0269 -0.4000  0.0679
  779MPD2     H11494   0.806   2.364  13.936  0.1928  0.2869  0.4267
  779MPD2    H111495   0.953   2.675  13.681 -1.1003  0.9876  1.6242
  779MPD2    H211496   0.914   2.285  13.531 -0.9657 -1.2301  0.3640
  779MPD2    H311497   0.987   2.503  13.513 -1.3839  0.1738 -0.6122
  779MPD2     N11498   0.850   2.618  13.935 -0.3032  0.9029  0.2207
  779MPD2    H511499   0.812   2.565  14.013  0.3420 -1.3041 -0.9546
  779MPD2    N111500   0.821   2.175  13.760 -0.6199  0.1925 -0.0440
  779MPD2    H711501   0.809   2.156  13.859  0.3305 -1.5413 -0.2728
  780MPD2     C11502   1.039   2.265   0.981 -0.1222 -0.2297  0.2930
  780MPD2    C111503   0.965   2.378   1.005  0.1344 -0.0594 -0.2488
  780MPD2    C211504   0.941   2.468   0.902 -0.5798 -0.8601  0.5028
  780MPD2    C311505   0.968   2.429   0.773 -0.0608  0.2068  0.0426
  780MPD2    C411506   1.034   2.312   0.754 -0.0150 -0.0996  0.2658
  780MPD2    C511507   1.073   2.231   0.854  0.2010 -0.1928 -0.3299
  780MPD2     H11508   0.891   2.564   0.912 -1.2371 -1.1328 -0.1090
  780MPD2    H111509   1.043   2.271   0.654 -1.2290  0.9033 -0.2647
  780MPD2    H211510   1.046   2.193   1.062  0.8634 -0.8576 -0.3511
  780MPD2    H311511   1.125   2.139   0.834  2.4242  1.5870 -2.6871
  780MPD2     N11512   0.925   2.507   0.666 -0.4935 -0.1058 -0.2674
  780MPD2    H511513   0.857   2.579   0.684 -2.1621 -2.5334  2.9866
  780MPD2    N111514   0.920   2.397   1.137 -0.1053 -0.2269  0.2906
  780MPD2    H711515   0.946   2.330   1.209 -0.6901 -0.1914  0.5409
  781MPD2     C11516   1.509   4.388  12.111 -0.6258 -1.1126  0.7218
  781MPD2    C111517   1.634   4.384  12.166  0.2462  0.6927  1.0043
  781MPD2    C211518   1.732   4.450  12.108 -0.2172 -0.4617  0.0358
  781MPD2    C311519   1.709   4.503  11.980 -0.5326  0.5052 -0.3730
  781MPD2    C411520   1.585   4.501  11.921 -0.5810  0.5247  0.0486
  781MPD2    C511521   1.487   4.450  11.992  0.3925  0.6467 -0.1194
  781MPD2     H11522   1.834   4.443  12.144 -1.0973  2.6537  3.1652
  781MPD2    H111523   1.559   4.539  11.823 -2.0675  0.6395  0.4901
  781MPD2    H211524   1.418   4.355  12.159 -1.1698 -2.1548 -1.0199
  781MPD2    H311525   1.386   4.456  11.953 -0.7133  1.7494  2.9400
  781MPD2     N11526   1.814   4.547  11.897  0.0688 -0.8801 -0.0686
  781MPD2    H511527   1.799   4.553  11.797  1.2282  0.4528 -0.1761
  781MPD2    N111528   1.651   4.324  12.292  0.0150  0.2983  0.7924
  781MPD2    H711529   1.732   4.340  12.350  1.5557 -1.8122 -0.7898
  782MPD2     C11530   0.668   4.623  10.332 -0.5884  0.0887  0.4019
  782MPD2    C111531   0.605   4.627  10.450  0.1734 -0.1676 -0.3188
  782MPD2    C211532   0.663   4.684  10.557  0.1495 -0.1783 -0.0511
  782MPD2    C311533   0.783   0.028  10.550 -0.2220 -0.3825  0.9026
  782MPD2    C411534   0.851   0.024  10.425 -0.3282  0.0189  0.1139
  782MPD2    C511535   0.788   4.694  10.316 -0.0697  0.4928  0.5548
  782MPD2     H11536   0.607   4.682  10.651 -2.1248 -0.9640 -1.4175
  782MPD2    H111537   0.945   0.076  10.408 -0.3205 -0.9382 -2.7368
  782MPD2    H211538   0.621   4.578  10.245  0.6259  0.7078 -0.5867
  782MPD2    H311539   0.850   4.695  10.228 -1.1142 -1.1091 -0.1869
  782MPD2     N11540   0.819   0.096  10.667  0.8196 -0.1249 -0.0281
  782MPD2    H511541   0.740   0.118  10.727  2.1271  0.2808  1.5494
  782MPD2    N111542   0.471   4.581  10.474  0.1614  0.3134  0.2340
  782MPD2    H711543   0.439   4.592  10.569  0.3210  1.6584  0.1269
  783MPD2     C11544   4.351   0.450  10.528 -0.1947  0.5685 -0.3925
  783MPD2    C111545   4.365   0.368  10.634  0.3091  0.0205  0.4668
  783MPD2    C211546   4.453   0.258  10.633 -0.1192  0.0275  0.2907
  783MPD2    C311547   4.535   0.238  10.520 -0.0287  0.1595 -0.5340
  783MPD2    C411548   4.519   0.319  10.411  0.2081  0.3499  0.2233
  783MPD2    C511549   4.434   0.427  10.414  0.5907  0.1503 -0.4061
  783MPD2     H11550   4.454   0.194  10.720 -3.0414 -0.0052  0.2987
  783MPD2    H111551   4.595   0.312  10.334 -0.1590 -1.7705  0.0488
  783MPD2    H211552   4.285   0.536  10.529 -0.2962  0.4642  1.3332
  783MPD2    H311553   4.417   0.496  10.332 -1.2687  1.1584  0.8197
  783MPD2     N11554   4.633   0.134  10.526  0.0765  0.4779  0.5047
  783MPD2    H511555   4.632   0.076  10.609 -0.5780  0.3318  0.3959
  783MPD2    N111556   4.278   0.397  10.745 -1.1531 -0.4789  0.0267
  783MPD2    H711557   4.236   0.489  10.752 -0.3793 -0.1512  0.4766
  784MPD2     C11558   2.456   4.644   0.299  0.1972 -1.1796  0.4976
  784MPD2    C111559   2.451   0.048   0.347 -0.1798 -0.1548  0.0798
  784MPD2    C211560   2.333   0.119   0.348 -0.2235 -0.1880  1.1694
  784MPD2    C311561   2.218   0.064   0.288  0.2277  0.0291  0.2060
  784MPD2    C411562   2.223   4.657   0.241  0.5062  0.3511  0.3346
  784MPD2    C511563   2.341   4.591   0.253 -0.3959 -0.3778  0.2041
  784MPD2     H11564   2.326   0.220   0.388  0.0400  0.5421 -0.6545
  784MPD2    H111565   2.137   4.611   0.194  0.0959  1.3999  0.0743
  784MPD2    H211566   2.552   4.602   0.273  1.3623  1.2931  0.8022
  784MPD2    H311567   2.335   4.490   0.213 -0.9397 -0.1501 -0.2991
  784MPD2     N11568   2.103   0.145   0.275 -0.6596  0.7979  0.1288
  784MPD2    H511569   2.114   0.241   0.307  0.3570  0.0219  2.1566
  784MPD2    N111570   2.563   0.124   0.381 -0.1637  0.3011 -0.6020
  784MPD2    H711571   2.548   0.221   0.407  2.9115  0.9969 -1.4392
  785MPD2     C11572   3.376   4.182  10.264  0.7981 -0.1637 -0.9095
  785MPD2    C111573   3.295   4.080  10.302 -0.2825  0.5333 -0.1313
  785MPD2    C211574   3.291   3.970  10.219  0.0304  0.4605  0.0489
  785MPD2    C311575   3.370   3.957  10.111  0.0032  0.2738 -0.5419
  785MPD2    C411576   3.464   4.053  10.084  1.1656 -0.6059  0.0061
  785MPD2    C511577   3.459   4.167  10.156  0.0301 -0.9700 -0.3388
  785MPD2     H11578   3.216   3.894  10.236 -0.1519  0.7011  0.3089
  785MPD2    H111579   3.524   4.061   9.995  1.1765  2.0400  0.2271
  785MPD2    H211580   3.375   4.273  10.322  2.5047 -1.7875  1.6839
  785MPD2    H311581   3.516   4.255  10.127 -0.4249 -0.2666  0.8727
  785MPD2     N11582   3.342   3.844  10.034  0.3717  0.1438 -0.5105
  785MPD2    H511583   3.269   3.789  10.078  0.2875  1.8252  1.4317
  785MPD2    N111584   3.220   4.094  10.423 -0.1070  0.0976  0.0236
  785MPD2    H711585   3.221   4.183  10.471 -1.1434 -0.6065  1.3492
  786MPD2     C11586   0.758   1.448  14.628  0.0102  0.1591 -0.9630
  786MPD2    C111587   0.880   1.384  14.622 -0.6912 -0.7327  0.0093
  786MPD2    C211588   0.924   1.316  14.729  0.5287  0.1272 -0.5163
  786MPD2    C311589   0.862   1.324  14.857  0.1184  0.6145 -0.0674
  786MPD2    C411590   0.739   1.386  14.865  0.7977 -0.6761  0.1007
  786MPD2    C511591   0.692   1.445  14.751 -0.0724 -0.5730 -0.1643
  786MPD2     H11592   1.014   1.258  14.708  0.3689 -0.6302  0.8749
  786MPD2    H111593   0.681   1.375  14.956 -0.3139  1.2119 -0.3801
  786MPD2    H211594   0.724   1.503  14.542 -0.5183  1.2774 -0.0423
  786MPD2    H311595   0.597   1.499  14.749  0.4051  0.2157 -1.8189
  786MPD2     N11596   0.914   1.273  14.977  0.2443 -0.5219 -0.2095
  786MPD2    H511597   0.867   1.288  15.065  1.6626  0.4133  0.3897
  786MPD2    N111598   0.955   1.372  14.498  0.5806  0.0501  0.2741
  786MPD2    H711599   1.036   1.311  14.497  3.0589  3.4204 -1.1742
  787MPD2     C11600   1.594   1.446  14.539  0.6441  0.4690  0.4067
  787MPD2    C111601   1.547   1.358  14.444 -0.3151  0.4235 -0.0225
  787MPD2    C211602   1.630   1.249  14.396 -0.5812 -0.0114  0.1173
  787MPD2    C311603   1.744   1.232  14.450  0.5727  0.3758  0.3464
  787MPD2    C411604   1.803   1.321  14.538 -0.0745 -0.6765 -0.6237
  787MPD2    C511605   1.725   1.426  14.585 -0.3838 -0.4667  1.1583
  787MPD2     H11606   1.600   1.179  14.319 -0.0914  1.4888 -1.4448
  787MPD2    H111607   1.901   1.298  14.580 -0.8694  0.7288  2.0442
  787MPD2    H211608   1.548   1.539  14.569 -0.0286  0.3908 -0.3926
  787MPD2    H311609   1.758   1.487  14.668  0.1788  1.9560 -0.8265
  787MPD2     N11610   1.801   1.110  14.412  0.4657  0.4413 -0.2420
  787MPD2    H511611   1.750   1.037  14.364  0.7115 -1.3131  2.1605
  787MPD2    N111612   1.427   1.390  14.379  0.3840 -0.4930  0.5526
  787MPD2    H711613   1.365   1.453  14.429  0.5470  0.5164 -0.5177
  788MPD2     C11614   3.120   0.101   0.988 -0.3663 -0.3459 -0.4183
  788MPD2    C111615   3.094   4.709   0.920 -0.0102 -0.8225 -0.2663
  788MPD2    C211616   3.092   4.713   0.783  0.3269  0.1987 -0.5018
  788MPD2    C311617   3.119   0.098   0.707  0.4949  0.1594  0.4623
  788MPD2    C411618   3.127   0.220   0.773  0.6088 -0.7522  0.0392
  788MPD2    C511619   3.132   0.217   0.912  0.7631  0.7055 -0.1644
  788MPD2     H11620   3.068   4.626   0.724 -0.1012 -0.3820  0.5198
  788MPD2    H111621   3.126   0.311   0.714  0.7923 -0.9578 -0.2800
  788MPD2    H211622   3.107   0.110   1.095 -2.1295 -1.9807 -0.4949
  788MPD2    H311623   3.136   0.312   0.963  0.3772  0.7928 -0.2963
  788MPD2     N11624   3.119   0.106   0.565 -0.0900  0.1285 -0.1894
  788MPD2    H511625   3.145   0.193   0.520 -0.8739  0.3736 -0.1600
  788MPD2    N111626   3.050   4.591   0.985  0.0948 -0.1385  0.3183
  788MPD2    H711627   3.006   4.519   0.929 -0.7099 -0.6434  1.6108
  789MPD2     C11628   3.235   4.360  16.625 -0.2510 -0.0552  0.4292
  789MPD2    C111629   3.184   4.332  16.748 -0.0338  0.3628  0.0635
  789MPD2    C211630   3.068   4.401  16.787  0.2014 -0.1086 -0.4999
  789MPD2    C311631   3.020   4.511  16.712  0.1475  0.0594 -0.1128
  789MPD2    C411632   3.073   4.546  16.595 -1.3134 -0.6550 -0.0648
  789MPD2    C511633   3.183   4.471  16.550 -0.4573 -0.2191  0.2665
  789MPD2     H11634   3.034   4.375  16.886  0.7126 -0.3015 -0.3732
  789MPD2    H111635   3.033   4.622  16.529  1.1439 -0.8357 -1.7765
  789MPD2    H211636   3.320   4.305  16.586  1.0706  1.0784  1.6914
  789MPD2    H311637   3.231   4.497  16.457 -0.2732 -1.4874  0.0002
  789MPD2     N11638   2.901   4.582  16.746 -0.1440 -1.0547 -0.2587
  789MPD2    H511639   2.866   4.657  16.688  1.4904 -0.0148  0.0887
  789MPD2    N111640   3.250   4.243  16.839  0.1256  0.1202  0.0616
  789MPD2    H711641   3.207   4.229  16.930 -2.3406 -1.5995 -1.3560
  790MPD2     C11642   4.251   0.653  13.259 -0.4979 -0.0562  0.2146
  790MPD2    C111643   4.352   0.752  13.258  0.3890  0.2690  0.0924
  790MPD2    C211644   4.364   0.827  13.143  0.6443  0.2203  0.1557
  790MPD2    C311645   4.265   0.820  13.037 -0.1562  0.3534  0.8312
  790MPD2    C411646   4.164   0.731  13.053  0.0094  0.3102  0.1036
  790MPD2    C511647   4.159   0.649  13.163  0.2936 -0.0712  0.4170
  790MPD2     H11648   4.447   0.894  13.122  2.0889 -1.1564  1.4843
  790MPD2    H111649   4.080   0.725  12.985  0.7736  2.3199 -1.0040
  790MPD2    H211650   4.246   0.576  13.335 -0.4581  0.4801  0.7601
  790MPD2    H311651   4.081   0.575  13.173  1.3835 -1.0477  1.6413
  790MPD2     N11652   4.268   0.911  12.922 -0.5967 -0.5640  0.5292
  790MPD2    H511653   4.341   0.982  12.919 -2.3133  1.1493 -0.5126
  790MPD2    N111654   4.445   0.745  13.363  0.1208 -0.4982 -0.8009
  790MPD2    H711655   4.411   0.680  13.432 -1.9396  0.7250 -0.6500
  791MPD2     C11656   3.877   1.167  12.120 -0.0842  0.4329 -0.6125
  791MPD2    C111657   3.843   1.132  12.248 -0.2891 -0.0994 -0.6471
  791MPD2    C211658   3.731   1.051  12.261 -0.5568  0.0284 -0.1692
  791MPD2    C311659   3.638   1.026  12.164  0.6380  0.0565  0.4184
  791MPD2    C411660   3.663   1.076  12.039 -0.0788  0.9741  0.0410
  791MPD2    C511661   3.783   1.143  12.022 -0.1525 -0.3777 -0.2531
  791MPD2     H11662   3.717   1.001  12.355  0.9534  0.4221  0.2719
  791MPD2    H111663   3.604   1.061  11.949 -1.5153 -0.7348  1.2688
  791MPD2    H211664   3.972   1.217  12.106 -1.3125  2.7890 -0.4274
  791MPD2    H311665   3.796   1.203  11.933 -1.7777  0.6939  0.2461
  791MPD2     N11666   3.530   0.944  12.189  0.0718  0.3466 -1.1460
  791MPD2    H511667   3.535   0.901  12.281  0.2344 -0.6225 -1.6097
  791MPD2    N111668   3.943   1.138  12.346  0.3585  0.2708  0.8047
  791MPD2    H711669   4.032   1.178  12.317 -0.6927  1.4495 -0.8061
  792MPD2     C11670   0.386   1.037  11.181  0.0686  0.8340 -0.1731
  792MPD2    C111671   0.259   1.080  11.157  0.4933  0.2223 -0.2452
  792MPD2    C211672   0.167   0.987  11.089 -0.8209  0.1809  0.0513
  792MPD2    C311673   0.217   0.863  11.058  0.0018 -0.3375 -0.8369
  792MPD2    C411674   0.347   0.826  11.086  0.4901  0.8267 -0.9069
  792MPD2    C511675   0.430   0.915  11.148 -0.1043 -0.4660 -0.2528
  792MPD2     H11676   0.064   1.018  11.074 -0.5150  1.1934 -0.0120
  792MPD2    H111677   0.386   0.727  11.064 -1.2739  0.1956 -1.1682
  792MPD2    H211678   0.453   1.102  11.237 -2.4943  2.3551  1.1267
  792MPD2    H311679   0.534   0.892  11.166  0.4781  2.0302 -0.5411
  792MPD2     N11680   0.140   0.769  10.986  0.3835 -0.3073  0.1025
  792MPD2    H511681   0.195   0.708  10.928  2.0410  1.0021  0.2806
  792MPD2    N111682   0.233   1.212  11.191 -0.0445  0.1476 -0.0258
  792MPD2    H711683   0.295   1.270  11.246  1.0177 -0.7308 -0.2912
  793MPD2     C11684   4.414   0.939  10.079 -0.2884  0.5261 -0.1909
  793MPD2    C111685   4.544   0.906  10.089 -0.3111  0.2669 -0.0161
  793MPD2    C211686   4.591   0.872  10.218  0.5251  0.6948 -0.5090
  793MPD2    C311687   4.504   0.853  10.321  0.3509 -0.0566 -0.1404
  793MPD2    C411688   4.375   0.887  10.299  0.0615 -0.2426 -0.0959
  793MPD2    C511689   4.324   0.935  10.181 -1.1054 -0.3278  0.0269
  793MPD2     H11690   4.696   0.844  10.225  0.2205 -0.7795 -1.7789
  793MPD2    H111691   4.311   0.879  10.386 -2.5638 -0.4003 -2.0345
  793MPD2    H211692   4.377   0.987   9.989 -0.0301 -0.0433 -0.5997
  793MPD2    H311693   4.223   0.974  10.172 -0.7390  1.2404  2.9307
  793MPD2     N11694   4.555   0.788  10.439 -0.0317 -0.3642 -0.9285
  793MPD2    H511695   4.648   0.748  10.429 -1.0873 -3.0308 -0.0332
  793MPD2    N111696   4.641   0.913   9.984 -0.4498 -0.7414  0.2697
  793MPD2    H711697   0.015   0.898   9.998 -0.2632  1.2683  1.2020
  794MPD2     C11698   3.888   0.424  17.124  1.1808  0.4791 -0.1340
  794MPD2    C111699   3.875   0.560  17.125  0.3195 -0.3889  0.0478
  794MPD2    C211700   3.841   0.630  17.017 -0.2923  0.1184  0.1071
  794MPD2    C311701   3.809   0.562  16.901 -0.1581 -0.0063 -0.9315
  794MPD2    C411702   3.822   0.421  16.898 -0.4592 -0.1197  0.1726
  794MPD2    C511703   3.864   0.353  17.009  0.6170 -0.8491 -0.2110
  794MPD2     H11704   3.840   0.738  17.028  0.3449  0.0279  1.0454
  794MPD2    H111705   3.814   0.358  16.810 -1.5407 -0.8552  0.7980
  794MPD2    H211706   3.929   0.377  17.214 -0.4835 -0.3103  0.2170
  794MPD2    H311707   3.872   0.245  17.008  2.3573 -0.7469  2.0301
  794MPD2     N11708   3.760   0.621  16.778  0.3015 -0.0024  0.0019
  794MPD2    H511709   3.734   0.552  16.709  2.5812 -2.2324  1.3619
  794MPD2    N111710   3.906   0.634  17.243  0.9462  0.0758 -0.0874
  794MPD2    H711711   3.899   0.735  17.229  0.6478 -0.0909 -1.1378
  795MPD2     C11712   1.892   2.595  13.779  0.5679  0.4106  0.8724
  795MPD2    C111713   1.945   2.550  13.659  1.0554 -0.4824 -0.4347
  795MPD2    C211714   2.048   2.456  13.649 -0.3831 -0.5550 -0.3245
  795MPD2    C311715   2.099   2.405  13.765 -0.4470  0.0524  0.1362
  795MPD2    C411716   2.048   2.446  13.887 -0.0097  0.0665 -0.7781
  795MPD2    C511717   1.949   2.538  13.890 -0.2984 -0.9539 -0.1329
  795MPD2     H11718   2.088   2.423  13.554  0.0693 -2.5504  0.5581
  795MPD2    H111719   2.090   2.418  13.983 -0.4718 -3.6350 -1.6402
  795MPD2    H211720   1.817   2.671  13.797 -1.5751 -1.4157 -0.3518
  795MPD2    H311721   1.924   2.564  13.992  1.4849 -1.2767  0.4025
  795MPD2     N11722   2.201   2.311  13.760  0.4543 -0.3049  0.0544
  795MPD2    H511723   2.235   2.292  13.667 -1.0457  0.4994 -0.6562
  795MPD2    N111724   1.901   2.595  13.535  0.7390  0.2375  0.3191
  795MPD2    H711725   1.919   2.540  13.451  0.4936  0.8760 -0.1513
  796MPD2     C11726   1.224   4.053  15.449  0.2920 -0.3260  0.0493
  796MPD2    C111727   1.216   4.115  15.573 -0.5335 -0.0774  0.0789
  796MPD2    C211728   1.143   4.231  15.575 -0.0489  1.2803  0.2109
  796MPD2    C311729   1.067   4.277  15.465 -0.1890 -0.2766  0.7404
  796MPD2    C411730   1.078   4.212  15.347 -0.5187 -0.9489 -0.2385
  796MPD2    C511731   1.161   4.102  15.339 -0.0279 -0.4857 -0.4657
  796MPD2     H11732   1.118   4.274  15.671 -2.1094 -2.3870  1.3186
  796MPD2    H111733   1.021   4.234  15.258  3.0382 -1.1835 -2.5574
  796MPD2    H211734   1.284   3.962  15.448 -0.5077 -0.8538  0.4338
  796MPD2    H311735   1.160   4.040  15.251  0.0835 -1.2350  0.0580
  796MPD2     N11736   0.991   4.398  15.474  0.4885 -0.2023  0.0298
  796MPD2    H511737   1.002   4.448  15.562  1.9527 -1.8396  0.8040
  796MPD2    N111738   1.246   4.038  15.691  0.1146  0.0076 -0.3843
  796MPD2    H711739   1.262   3.941  15.667  0.8824 -0.0421  0.3459
  797MPD2     C11740   1.790   3.468  17.242 -0.4709  0.2448  1.0447
  797MPD2    C111741   1.841   3.582  17.298 -0.2519 -0.1199  0.7436
  797MPD2    C211742   1.754   3.694  17.287 -0.3322 -0.0127  0.3554
  797MPD2    C311743   1.641   3.699  17.204  0.3970  0.4682  0.1749
  797MPD2    C411744   1.605   3.587  17.141  0.6121  0.1965  0.1925
  797MPD2    C511745   1.678   3.474  17.159  0.0392  0.4442  0.5749
  797MPD2     H11746   1.782   3.785  17.339  5.4820 -1.1625 -0.7424
  797MPD2    H111747   1.520   3.581  17.074  0.3702  0.9535  0.4353
  797MPD2    H211748   1.840   3.373  17.241  0.9686  1.0159  0.3978
  797MPD2    H311749   1.648   3.383  17.107  1.1354  0.3446  0.1125
  797MPD2     N11750   1.572   3.818  17.197 -0.0887  0.6521  0.0819
  797MPD2    H511751   1.613   3.890  17.257  2.7721 -1.1046  0.2166
  797MPD2    N111752   1.969   3.595  17.360  0.3314  0.1400  0.4529
  797MPD2    H711753   1.982   3.685  17.405  0.7319 -0.2399  1.0965
  798MPD2     C11754   2.043   4.311  17.350 -0.0496 -0.1702 -0.6530
  798MPD2    C111755   1.956   4.207  17.361  0.6365  0.4842  0.0211
  798MPD2    C211756   1.997   4.086  17.414  0.3183  0.7138 -0.1186
  798MPD2    C311757   2.129   4.075  17.450 -0.4928 -0.1286 -0.1379
  798MPD2    C411758   2.215   4.178  17.441 -0.2825  0.0860  0.0535
  798MPD2    C511759   2.169   4.301  17.395  0.3194 -0.2010  0.0773
  798MPD2     H11760   1.934   3.998  17.424 -0.6596  1.5174  0.7586
  798MPD2    H111761   2.316   4.165  17.478  0.0584  1.8237 -0.2436
  798MPD2    H211762   2.007   4.405  17.311  0.8420  1.2918  2.0143
  798MPD2    H311763   2.238   4.383  17.377 -0.2147  0.0234 -0.9588
  798MPD2     N11764   2.168   3.942  17.491 -0.3754 -0.1212 -0.3850
  798MPD2    H511765   2.089   3.881  17.508 -0.9614  1.0300  1.0124
  798MPD2    N111766   1.831   4.221  17.307 -0.1386 -0.3745 -0.4482
  798MPD2    H711767   1.826   4.303  17.248 -2.5495  0.2781  0.6622
  799MPD2     C11768   1.276   0.483  14.598  0.3543 -0.1943  0.5339
  799MPD2    C111769   1.191   0.376  14.578  0.3522  0.0153 -0.2538
  799MPD2    C211770   1.088   0.393  14.485  0.4493  0.2441 -0.1418
  799MPD2    C311771   1.060   0.508  14.420 -0.3285  0.7320  0.3423
  799MPD2    C411772   1.143   0.611  14.443  0.0599 -0.2009  0.2588
  799MPD2    C511773   1.247   0.602  14.536 -0.8245  1.4595  0.2399
  799MPD2     H11774   1.022   0.309  14.465 -0.9991  1.4845 -0.5973
  799MPD2    H111775   1.128   0.710  14.402  1.0720 -0.9078 -1.8373
  799MPD2    H211776   1.352   0.472  14.675  0.7338 -1.4048 -0.0058
  799MPD2    H311777   1.307   0.691  14.548  2.6633 -0.9969  1.0020
  799MPD2     N11778   0.960   0.522  14.319 -0.3297  0.2228  0.4302
  799MPD2    H511779   0.948   0.622  14.309  1.4586  0.4624  0.6648
  799MPD2    N111780   1.195   0.258  14.651  0.8719  0.4025  0.4537
  799MPD2    H711781   1.114   0.197  14.656  1.3758 -0.1326  2.2949
  800MPD2     C11782   2.100   1.522  14.263  0.6817  0.0147  0.4513
  800MPD2    C111783   2.212   1.556  14.186  0.2182  0.1985 -0.9881
  800MPD2    C211784   2.276   1.470  14.106 -0.2751 -0.3468  0.0726
  800MPD2    C311785   2.232   1.337  14.093  1.0197  0.3513 -0.2848
  800MPD2    C411786   2.117   1.309  14.165  0.2966  0.6467  0.2259
  800MPD2    C511787   2.055   1.397  14.255  0.4223  0.1012 -0.2904
  800MPD2     H11788   2.353   1.504  14.039 -0.3834 -0.5974 -0.1794
  800MPD2    H111789   2.068   1.212  14.160  0.1894  0.6908  0.4641
  800MPD2    H211790   2.067   1.585  14.345  0.8837 -1.0852  1.3737
  800MPD2    H311791   1.981   1.356  14.324  0.4360 -3.4462 -2.3771
  800MPD2     N11792   2.299   1.243  14.007  0.3213 -0.3431 -0.2216
  800MPD2    H511793   2.368   1.278  13.940  0.3314  0.7903  0.3884
  800MPD2    N111794   2.270   1.685  14.180  0.3484  0.3233 -0.0681
  800MPD2    H711795   2.346   1.699  14.115 -0.4203 -1.2027 -1.2984
  801MPD2     C11796   2.132   2.513  14.335  0.1176 -0.2879 -0.8588
  801MPD2    C111797   2.116   2.388  14.401 -0.4305  0.1168  0.2030
  801MPD2    C211798   2.018   2.369  14.495  0.3401 -0.1609  0.2519
  801MPD2    C311799   1.928   2.471  14.523  0.5372 -0.2172 -0.0949
  801MPD2    C411800   1.937   2.596  14.451  0.1375  0.1451 -0.2707
  801MPD2    C511801   2.046   2.615  14.368 -0.1349 -0.3795  0.5939
  801MPD2     H11802   2.010   2.277  14.552  0.9350 -0.0664  0.4911
  801MPD2    H111803   1.868   2.678  14.468 -0.3092 -0.2673 -0.0835
  801MPD2    H211804   2.212   2.539  14.267  0.2443 -0.6472 -0.8419
  801MPD2    H311805   2.061   2.709  14.315  0.1771 -0.1033  1.1695
  801MPD2     N11806   1.820   2.456  14.614  0.4782  0.8499  0.2873
  801MPD2    H511807   1.750   2.530  14.621  1.1627  1.5537 -0.3850
  801MPD2    N111808   2.193   2.275  14.372 -0.5746 -0.4929 -0.3789
  801MPD2    H711809   2.159   2.189  14.414  0.5031 -0.8684 -0.2674
  802MPD2     C11810   1.291   3.836  17.556 -0.2226 -0.0103  1.4828
  802MPD2    C111811   1.240   3.709  17.545  0.2717  0.2920  0.9671
  802MPD2    C211812   1.331   3.606  17.557  0.0499  0.1364 -0.6066
  802MPD2    C311813   1.464   3.624  17.575  0.4918 -0.4195  0.1155
  802MPD2    C411814   1.514   3.753  17.583 -0.2706 -0.2182 -0.2509
  802MPD2    C511815   1.427   3.853  17.578  0.2367  0.8200  0.5058
  802MPD2     H11816   1.296   3.506  17.533 -0.6805  0.4218 -0.7435
  802MPD2    H111817   1.618   3.782  17.593 -0.4506  1.1593 -2.3379
  802MPD2    H211818   1.236   3.929  17.557  1.4435  0.9996 -0.3688
  802MPD2    H311819   1.461   3.955  17.594  0.7170  0.4673  1.6682
  802MPD2     N11820   1.555   3.505  17.566  0.2509 -0.3220 -0.2757
  802MPD2    H511821   1.519   3.412  17.545 -0.8892 -0.0338  0.3791
  802MPD2    N111822   1.103   3.681  17.551  0.9530  0.0163  0.6183
  802MPD2    H711823   1.079   3.583  17.544 -0.3713  0.2203  2.3685
  803MPD2     C11824   2.281   1.529  11.783  0.3061 -0.9201  0.3933
  803MPD2    C111825   2.406   1.517  11.831  0.4770  0.1426 -0.0871
  803MPD2    C211826   2.426   1.443  11.953  0.4156 -0.5158 -0.2133
  803MPD2    C311827   2.315   1.381  12.018 -0.1400 -0.0537  0.5148
  803MPD2    C411828   2.199   1.381  11.948  0.2402 -0.4831  0.0338
  803MPD2    C511829   2.180   1.451  11.826 -0.4064 -0.0366  0.3195
  803MPD2     H11830   2.525   1.436  11.997 -0.9039  1.3778  3.0333
  803MPD2    H111831   2.110   1.322  11.969  0.5441 -1.2473 -0.7868
  803MPD2    H211832   2.263   1.583  11.690 -2.0367 -0.3213  1.2199
  803MPD2    H311833   2.082   1.454  11.779  0.0266  1.4960 -0.5098
  803MPD2     N11834   2.322   1.311  12.141  0.3347 -0.2031 -0.3667
  803MPD2    H511835   2.241   1.257  12.169  0.8567 -0.7627  0.0657
  803MPD2    N111836   2.519   1.579  11.773 -0.0947 -0.1385 -0.0820
  803MPD2    H711837   2.610   1.579  11.818 -1.2666  2.7838  2.3269
  804MPD2     C11838   2.070   2.126  16.571 -0.4985  0.1938 -0.8205
  804MPD2    C111839   1.981   2.138  16.682  0.6936 -0.1655  0.0981
  804MPD2    C211840   1.999   2.248  16.763 -0.3649 -0.1696  0.0180
  804MPD2    C311841   2.100   2.343  16.736  0.6898  0.1836  0.3785
  804MPD2    C411842   2.179   2.324  16.624  0.3533 -0.0219  0.6199
  804MPD2    C511843   2.168   2.212  16.548  0.0262  0.6344 -0.0203
  804MPD2     H11844   1.929   2.265  16.844  2.5884 -0.7705  2.6572
  804MPD2    H111845   2.257   2.394  16.600 -0.6945  0.7135 -0.6516
  804MPD2    H211846   2.057   2.053  16.492  0.0435 -2.0025  1.0947
  804MPD2    H311847   2.216   2.229  16.452  0.0241  1.1538  0.0732
  804MPD2     N11848   2.105   2.458  16.814 -0.1278  0.5463 -0.1177
  804MPD2    H511849   2.045   2.464  16.896  1.9437  1.4419  1.3585
  804MPD2    N111850   1.870   2.047  16.703 -0.4718  0.4627  0.9356
  804MPD2    H711851   1.814   2.055  16.787 -1.4114 -2.0768  0.5533
  805MPD2     C11852   0.511   0.414  15.536 -0.5894  0.5446 -0.1645
  805MPD2    C111853   0.628   0.427  15.463 -0.0999 -0.1453  0.0248
  805MPD2    C211854   0.744   0.471  15.528  0.3626  0.8252  0.1182
  805MPD2    C311855   0.739   0.497  15.661 -0.0707  0.3110  0.0177
  805MPD2    C411856   0.618   0.488  15.727 -0.0985  0.1657 -0.0405
  805MPD2    C511857   0.509   0.436  15.668  0.2501  0.1297  0.2139
  805MPD2     H11858   0.834   0.490  15.470  0.2501 -0.5287 -0.5092
  805MPD2    H111859   0.605   0.516  15.831  0.9069  0.1458  0.0934
  805MPD2    H211860   0.421   0.374  15.489  0.2681 -1.7644  0.1396
  805MPD2    H311861   0.420   0.421  15.728  0.2069 -2.4812 -0.5321
  805MPD2     N11862   0.854   0.554  15.724  0.7611  0.2481  0.5515
  805MPD2    H511863   0.937   0.572  15.668  1.2494 -0.0367  1.1669
  805MPD2    N111864   0.631   0.414  15.321  1.0924  0.8092  0.4130
  805MPD2    H711865   0.723   0.409  15.278  1.1790  1.5608  0.5106
  806MPD2     C11866   0.988   0.177   0.377  0.0171 -0.1891  0.2922
  806MPD2    C111867   1.117   0.148   0.430 -0.0645 -0.2539  0.0768
  806MPD2    C211868   1.227   0.159   0.350  0.1581  0.3278  1.0506
  806MPD2    C311869   1.215   0.159   0.208 -0.1626  0.1040  0.3517
  806MPD2    C411870   1.086   0.169   0.156 -0.0880  0.0744 -0.0923
  806MPD2    C511871   0.977   0.178   0.238 -0.7937  0.5001 -0.1127
  806MPD2     H11872   1.330   0.157   0.386  0.9666 -0.6909 -1.3028
  806MPD2    H111873   1.050   0.144   0.057 -2.2668  0.5987  0.5687
  806MPD2    H211874   0.901   0.186   0.441  0.2657 -3.1924  1.0123
  806MPD2    H311875   0.881   0.180   0.189  0.1508 -0.3599 -2.0302
  806MPD2     N11876   1.333   0.148   0.138  0.0945 -0.2432 -0.3924
  806MPD2    H511877   1.419   0.145   0.192  0.7519  0.8585 -1.3790
  806MPD2    N111878   1.116   0.146   0.572  0.2360 -0.1194 -0.1351
  806MPD2    H711879   1.033   0.169   0.625  0.9545 -0.9481  1.3620
  807MPD2     C11880   0.675   4.715   1.156 -0.3989  0.1929  0.0202
  807MPD2    C111881   0.771   0.070   1.211  0.2461  0.1404  0.3152
  807MPD2    C211882   0.753   0.126   1.338 -0.3182 -0.1066 -0.0244
  807MPD2    C311883   0.639   0.103   1.408 -0.7525  0.0426  0.1473
  807MPD2    C411884   0.543   0.022   1.346  0.6732 -0.5249  0.7412
  807MPD2    C511885   0.556   4.695   1.220 -0.4914 -0.0118  0.0620
  807MPD2     H11886   0.835   0.186   1.376 -0.7104  0.3658  0.0811
  807MPD2    H111887   0.453   4.716   1.396 -1.0354  1.2313 -1.2347
  807MPD2    H211888   0.688   4.673   1.057  0.0083  3.1004 -1.1730
  807MPD2    H311889   0.482   4.631   1.174 -0.3880  0.7139 -1.1096
  807MPD2     N11890   0.629   0.150   1.534  0.1898 -0.5267  0.5464
  807MPD2    H511891   0.695   0.220   1.565  1.2550 -0.4064 -1.9518
  807MPD2    N111892   0.896   0.081   1.140 -0.1994 -0.0162 -0.2009
  807MPD2    H711893   0.978   0.124   1.183 -0.7165  2.2701 -1.5579
  808MPD2     C11894   2.682   1.497   9.296 -0.1547 -0.7409  0.3357
  808MPD2    C111895   2.557   1.555   9.317 -0.2913 -0.7871  0.3120
  808MPD2    C211896   2.546   1.686   9.355  0.4450 -0.0487  0.6441
  808MPD2    C311897   2.656   1.759   9.390  0.3286  0.2167 -0.5330
  808MPD2    C411898   2.779   1.703   9.369  0.2492 -0.3516  0.0844
  808MPD2    C511899   2.794   1.578   9.319 -0.1437  0.4505 -0.0931
  808MPD2     H11900   2.443   1.719   9.364  0.4993  0.9051 -2.3125
  808MPD2    H111901   2.871   1.757   9.388 -0.2664  0.0854  1.3179
  808MPD2    H211902   2.704   1.398   9.260  0.0569 -0.6851  0.3117
  808MPD2    H311903   2.890   1.538   9.288  0.0113  0.9757 -0.2935
  808MPD2     N11904   2.656   1.892   9.436 -0.5911  0.3278 -0.2588
  808MPD2    H511905   2.748   1.929   9.459 -0.1531 -1.0104  0.1428
  808MPD2    N111906   2.430   1.491   9.294 -0.5052  0.1320 -0.4597
  808MPD2    H711907   2.349   1.549   9.314  0.2696  0.4492  1.7044
  809MPD2     C11908   3.253   2.643   9.669  0.0226  0.4051 -0.2255
  809MPD2    C111909   3.260   2.525   9.585  0.3715 -0.5285  0.3241
  809MPD2    C211910   3.135   2.460   9.565 -0.4997 -0.2902  0.0426
  809MPD2    C311911   3.020   2.500   9.634  0.0394  0.4230 -0.2721
  809MPD2    C411912   3.016   2.622   9.712 -0.3511  0.0150  0.0679
  809MPD2    C511913   3.137   2.689   9.725 -0.2386  0.3293 -0.4008
  809MPD2     H11914   3.141   2.388   9.485 -0.0334  0.6551 -0.7663
  809MPD2    H111915   2.927   2.662   9.758  0.5582  1.7109  0.3271
  809MPD2    H211916   3.344   2.698   9.685 -0.2917  0.6401  0.7585
  809MPD2    H311917   3.141   2.780   9.783 -3.0927 -0.1782  0.5832
  809MPD2     N11918   2.900   2.436   9.618  0.3012  0.2088  0.0542
  809MPD2    H511919   2.822   2.482   9.665  1.1534  1.0822  0.6017
  809MPD2    N111920   3.376   2.480   9.525 -0.4767 -0.9183 -1.3434
  809MPD2    H711921   3.372   2.392   9.474 -5.3855 -0.4153 -1.9016
  810MPD2     C11922   1.283   1.184  11.468 -0.3695 -0.0513  0.3731
  810MPD2    C111923   1.330   1.185  11.338  0.5890  0.2260 -0.2054
  810MPD2    C211924   1.306   1.299  11.263 -0.5319 -0.3454  0.8991
  810MPD2    C311925   1.256   1.412  11.318  0.4795 -0.3255 -0.0387
  810MPD2    C411926   1.203   1.407  11.442 -1.0740  0.1811 -0.6076
  810MPD2    C511927   1.214   1.292  11.514  0.8611  0.1262 -0.4927
  810MPD2     H11928   1.332   1.301  11.158 -0.3391  2.3708  0.9886
  810MPD2    H111929   1.148   1.493  11.478 -2.8206 -0.4680 -1.6740
  810MPD2    H211930   1.280   1.097  11.532  2.0041 -1.6417 -1.7009
  810MPD2    H311931   1.154   1.290  11.604 -0.5085  1.7214 -1.3656
  810MPD2     N11932   1.247   1.535  11.242 -0.9503 -0.1348 -0.9440
  810MPD2    H511933   1.211   1.615  11.294  0.2863 -1.5370  2.0566
  810MPD2    N111934   1.391   1.066  11.289  0.3982 -0.4161 -0.2495
  810MPD2    H711935   1.391   0.985  11.350 -0.3260  0.0712  0.3965
  811MPD2     C11936   1.265   0.755  10.440 -0.1590 -0.1293  0.0482
  811MPD2    C111937   1.361   0.816  10.518  0.1098 -0.0529 -0.0022
  811MPD2    C211938   1.406   0.945  10.476 -1.0390  0.3819  0.0644
  811MPD2    C311939   1.374   0.992  10.348 -0.5194  0.2756 -0.6307
  811MPD2    C411940   1.295   0.913  10.265  0.5785 -0.6402  0.0229
  811MPD2    C511941   1.235   0.801  10.314 -0.2137 -0.0105 -0.5105
  811MPD2     H11942   1.476   1.014  10.522 -1.0647  1.6417 -1.7788
  811MPD2    H111943   1.278   0.934  10.161  0.6501 -2.6524 -0.3994
  811MPD2    H211944   1.212   0.667  10.475  3.4591 -2.9694 -1.6910
  811MPD2    H311945   1.168   0.745  10.250  1.6623  0.4823 -2.8600
  811MPD2     N11946   1.426   1.116  10.310  0.3278 -0.1776 -0.0819
  811MPD2    H511947   1.463   1.167  10.390 -0.8040 -0.0507  0.3552
  811MPD2    N111948   1.375   0.774  10.658 -0.0016  0.4283  0.2765
  811MPD2    H711949   1.315   0.698  10.688 -1.0267  1.3065  0.4541
  812MPD2     C11950   0.754   1.702  12.478 -0.3414  0.0166 -0.5183
  812MPD2    C111951   0.620   1.657  12.486 -0.3100 -0.7894 -0.1607
  812MPD2    C211952   0.599   1.523  12.496  0.4759 -0.1647  0.0065
  812MPD2    C311953   0.702   1.432  12.455 -0.0047  0.5742  0.5020
  812MPD2    C411954   0.830   1.482  12.431  0.7346  0.3859 -0.2747
  812MPD2    C511955   0.854   1.613  12.455  0.5381  0.8811 -0.2670
  812MPD2     H11956   0.501   1.478  12.508  0.1441  0.6665  0.3601
  812MPD2    H111957   0.921   1.428  12.405 -1.1297 -2.9041 -0.0501
  812MPD2    H211958   0.774   1.807  12.462 -2.8034  0.5267 -0.3240
  812MPD2    H311959   0.956   1.649  12.466  0.1482  1.6551  0.8470
  812MPD2     N11960   0.665   1.297  12.440 -0.0986  0.5879  0.5408
  812MPD2    H511961   0.570   1.275  12.469 -0.1561 -1.0167 -0.7998
  812MPD2    N111962   0.525   1.750  12.493  0.1479  0.4457  0.6711
  812MPD2    H711963   0.548   1.848  12.503 -0.1957  0.3742  2.1354
  813MPD2     C11964   4.345   2.869  12.852 -0.2741 -0.3229 -0.1296
  813MPD2    C111965   4.344   2.996  12.906  0.6074 -0.4251  0.4457
  813MPD2    C211966   4.268   3.010  13.022  0.0247 -0.7058 -0.0088
  813MPD2    C311967   4.192   2.911  13.078 -0.1504  0.1047  0.5162
  813MPD2    C411968   4.187   2.785  13.019  0.3969 -0.3702 -0.5989
  813MPD2    C511969   4.261   2.770  12.900 -0.7344 -0.3070 -0.2320
  813MPD2     H11970   4.249   3.106  13.070 -0.0188 -1.4516  1.4592
  813MPD2    H111971   4.128   2.704  13.060 -0.8636  0.5461 -0.5661
  813MPD2    H211972   4.391   2.833  12.760  0.1774  2.3805 -0.9816
  813MPD2    H311973   4.270   2.679  12.841 -2.3005 -0.1170 -0.7724
  813MPD2     N11974   4.109   2.945  13.188 -0.0185  0.3828 -0.4562
  813MPD2    H511975   4.122   3.038  13.227 -0.1097  0.6766 -1.1321
  813MPD2    N111976   4.419   3.102  12.838 -0.0850 -0.0536  0.1836
  813MPD2    H711977   4.420   3.191  12.887 -1.8796  0.9749 -1.6611
  814MPD2     C11978   0.079   3.781  12.860  0.6709 -0.3972  0.1403
  814MPD2    C111979   0.017   3.870  12.775 -0.0282 -0.9755  0.1360
  814MPD2    C211980   0.008   3.998  12.819 -0.2519  0.2752 -0.9359
  814MPD2    C311981   0.052   4.041  12.945  0.0021  0.1485  0.1800
  814MPD2    C411982   0.097   3.945  13.034  0.2321 -0.4951 -0.2240
  814MPD2    C511983   0.109   3.815  12.994  0.1599 -0.9393  0.2194
  814MPD2     H11984   4.687   4.070  12.751 -2.1131  0.2461  0.3028
  814MPD2    H111985   0.143   3.973  13.128 -1.8387 -0.6516  0.8369
  814MPD2    H211986   0.096   3.677  12.837 -0.6189 -0.3738 -0.9365
  814MPD2    H311987   0.160   3.741  13.054  1.8043  1.5374  1.8714
  814MPD2     N11988   0.041   4.173  12.985 -0.1427 -0.6758  0.4609
  814MPD2    H511989   0.063   4.193  13.082  0.4549  1.2147 -0.0614
  814MPD2    N111990   4.704   3.840  12.643 -0.6425 -0.3073  0.0201
  814MPD2    H711991   4.668   3.919  12.589  0.0694  1.5473  2.3006
  815MPD2     C11992   0.174   3.207  11.762 -0.0196  0.5598 -0.5170
  815MPD2    C111993   0.217   3.078  11.784 -0.1416 -0.3616  0.6603
  815MPD2    C211994   0.128   2.992  11.847 -0.7558  0.3067  0.5834
  815MPD2    C311995   0.007   3.040  11.895  0.2275  0.6430 -0.0594
  815MPD2    C411996   4.683   3.172  11.870 -0.0778 -0.4873  0.6119
  815MPD2    C511997   0.055   3.249  11.812 -0.9073 -0.1199  0.5416
  815MPD2     H11998   0.161   2.893  11.875 -0.7980 -0.4303 -2.0256
  815MPD2    H111999   4.582   3.206  11.889  0.1408  0.7232 -0.4118
  815MPD2    H212000   0.239   3.274  11.708 -0.7670  2.0259  0.4122
  815MPD2    H312001   0.027   3.350  11.782 -1.0756 -0.0560  0.9070
  815MPD2     N12002   4.657   2.944  11.964  0.1693  0.1954 -0.2661
  815MPD2    H512003   4.700   2.856  11.988  3.6257  1.3951 -2.1328
  815MPD2    N112004   0.341   3.038  11.734  0.6150  0.1751 -0.2283
  815MPD2    H712005   0.405   3.106  11.694  0.2944  1.6029  1.6852
  816MPD2     C12006   0.138   1.727  17.294 -0.2480 -0.0580 -0.0180
  816MPD2    C112007   0.222   1.837  17.288 -0.0927  0.9072 -0.0147
  816MPD2    C212008   0.339   1.825  17.211  0.6222 -0.5786  0.4562
  816MPD2    C312009   0.370   1.709  17.134 -0.0304  0.0590 -0.1536
  816MPD2    C412010   0.285   1.601  17.152 -0.2788  0.5836 -0.3555
  816MPD2    C512011   0.171   1.608  17.233 -0.6613 -0.3808  0.7202
  816MPD2     H12012   0.414   1.902  17.202 -1.5849  1.4422 -0.8616
  816MPD2    H112013   0.293   1.507  17.100 -2.5568 -0.7451  1.6474
  816MPD2    H212014   0.054   1.729  17.363 -1.5078  1.6092 -1.5995
  816MPD2    H312015   0.117   1.517  17.254  1.2296 -1.4882  0.7191
  816MPD2     N12016   0.486   1.706  17.051  0.1018 -0.0857 -0.0812
  816MPD2    H512017   0.539   1.791  17.036  0.8642 -0.6637 -0.6617
  816MPD2    N112018   0.182   1.950  17.361  0.1523  0.0290  0.3495
  816MPD2    H712019   0.092   1.935  17.407  1.7647 -0.6233  3.2736
  817MPD2     C12020   0.016   3.154  10.036 -0.4308 -0.2061 -0.1378
  817MPD2    C112021   0.081   3.165   9.913  0.0285 -0.2921  0.4900
  817MPD2    C212022   0.042   3.258   9.824  0.2597  0.2175 -0.2389
  817MPD2    C312023   4.651   3.338   9.846  0.4555  0.7119 -0.1109
  817MPD2    C412024   4.584   3.312   9.967 -0.0961 -0.0354 -0.5041
  817MPD2    C512025   4.634   3.234  10.060  0.5797 -0.1175 -0.4104
  817MPD2     H12026   0.107   3.271   9.738 -1.2080  3.9640 -0.7955
  817MPD2    H112027   4.489   3.359   9.991 -0.5366 -0.0903 -2.1218
  817MPD2    H212028   0.051   3.097  10.121  0.5899 -0.2228 -0.5661
  817MPD2    H312029   4.577   3.211  10.149  2.3048 -1.5638  0.3229
  817MPD2     N12030   4.613   3.433   9.748 -0.1247  0.2968  0.3002
  817MPD2    H512031   4.674   3.449   9.669 -0.3081 -0.2596  0.0472
  817MPD2    N112032   0.200   3.098   9.879  0.1232 -0.1817  0.0794
  817MPD2    H712033   0.251   3.134   9.799  0.5984  1.1863  0.9831
  818MPD2     C12034   3.708   3.554   9.832  0.5251  0.0384 -0.0229
  818MPD2    C112035   3.664   3.473   9.933  0.7729 -0.1057  0.3078
  818MPD2    C212036   3.659   3.337   9.918  0.1203 -0.2030 -0.2642
  818MPD2    C312037   3.680   3.281   9.793 -0.2015 -0.2215  0.1373
  818MPD2    C412038   3.733   3.365   9.695  0.1788 -0.3682 -0.3208
  818MPD2    C512039   3.750   3.499   9.712  0.3684 -0.1248  1.1264
  818MPD2     H12040   3.624   3.269   9.994  2.7183 -0.9238  0.2807
  818MPD2    H112041   3.778   3.325   9.605 -0.1165  0.4263 -0.8220
  818MPD2    H212042   3.726   3.661   9.841 -0.3619  0.1048  0.9345
  818MPD2    H312043   3.787   3.563   9.632  0.0951 -1.9097 -0.4090
  818MPD2     N12044   3.674   3.141   9.772 -0.3098  0.2783 -0.1645
  818MPD2    H512045   3.731   3.107   9.695  2.3274  2.7441  0.6771
  818MPD2    N112046   3.610   3.526  10.050  0.7223  0.3958 -0.2000
  818MPD2    H712047   3.580   3.461  10.123  2.4464  0.8547  0.9141
  819MPD2     C12048   1.278   4.691  15.755 -0.5476 -0.1274  0.1352
  819MPD2    C112049   1.386   4.646  15.689  0.5445 -0.1466  0.6123
  819MPD2    C212050   1.512   4.662  15.738  0.1270  0.0648 -0.7686
  819MPD2    C312051   1.534   0.009  15.850 -0.5150 -0.4199  0.3482
  819MPD2    C412052   1.418   0.051  15.926  0.5528 -0.6238 -0.0522
  819MPD2    C512053   1.292   0.019  15.875  0.5522 -0.1238 -0.2803
  819MPD2     H12054   1.599   4.621  15.688  2.4652  2.4219  1.3600
  819MPD2    H112055   1.426   0.108  16.018 -1.4613  0.2765 -0.4373
  819MPD2    H212056   1.175   4.671  15.725 -0.3352  2.5245 -2.3260
  819MPD2    H312057   1.208   0.053  15.934  1.9561  0.8960  1.1487
  819MPD2     N12058   1.665   0.029  15.897 -0.2802 -0.5985  0.0555
  819MPD2    H512059   1.743   4.708  15.851 -1.6006 -1.4886 -1.2851
  819MPD2    N112060   1.367   4.599  15.557  0.2774  0.4134 -0.1441
  819MPD2    H712061   1.269   4.609  15.534 -0.3923  2.0500  3.4955
  820MPD2     C12062   0.729   4.506  14.817 -0.0497 -0.3245  0.1671
  820MPD2    C112063   0.768   4.617  14.888 -0.3118  0.1568 -0.1538
  820MPD2    C212064   0.882   4.612  14.963  0.3702  0.3184 -0.2589
  820MPD2    C312065   0.958   4.494  14.963  0.2748 -0.2785 -0.9794
  820MPD2    C412066   0.923   4.382  14.885  0.6362 -0.1735  0.2465
  820MPD2    C512067   0.812   4.397  14.802 -0.4286 -0.2161  0.6063
  820MPD2     H12068   0.906   4.689  15.036  0.1214 -1.3624  1.6230
  820MPD2    H112069   0.984   4.293  14.871 -1.9060 -1.7213 -1.0595
  820MPD2    H212070   0.645   4.518  14.749  0.0080 -2.5823 -0.3167
  820MPD2    H312071   0.794   4.316  14.732  0.9503 -0.3906  0.4429
  820MPD2     N12072   1.075   4.481  15.036  0.1055 -0.3983  0.3217
  820MPD2    H512073   1.099   4.384  15.054  0.7735  0.1274  2.2801
  820MPD2    N112074   0.693   0.011  14.885  0.2436  0.1393 -0.2766
  820MPD2    H712075   0.601   0.007  14.841  1.0462 -1.0246 -1.8617
  821MPD2     C12076   2.517   1.062  13.279 -0.6309  0.4324  0.5966
  821MPD2    C112077   2.563   1.162  13.361 -0.4895  0.3431 -0.3234
  821MPD2    C212078   2.660   1.246  13.318  0.0602 -0.3182 -0.6406
  821MPD2    C312079   2.699   1.240  13.183  0.0882  0.3005 -0.1216
  821MPD2    C412080   2.662   1.133  13.113  0.1443  0.0409 -0.2097
  821MPD2    C512081   2.573   1.046  13.160 -0.4600  0.3599  0.5669
  821MPD2     H12082   2.712   1.317  13.382 -0.1242 -0.6404 -0.1351
  821MPD2    H112083   2.696   1.129  13.010  0.1119 -5.8864 -0.0109
  821MPD2    H212084   2.445   0.987  13.311  0.4459 -0.7465  0.2635
  821MPD2    H312085   2.537   0.963  13.101 -0.5763 -1.0921  2.6869
  821MPD2     N12086   2.782   1.336  13.126  0.4740 -0.0313  0.8106
  821MPD2    H512087   2.805   1.327  13.027 -0.2776  1.0603  0.5370
  821MPD2    N112088   2.537   1.160  13.499  0.1791 -0.3044 -0.1578
  821MPD2    H712089   2.579   1.229  13.561 -0.0727  0.8244 -1.2453
  822MPD2     C12090   2.551   1.492  15.496  0.2168 -0.2802 -0.5752
  822MPD2    C112091   2.577   1.434  15.616  0.5638 -0.2406 -0.6727
  822MPD2    C212092   2.527   1.494  15.725  0.1943  0.2380 -0.2329
  822MPD2    C312093   2.446   1.605  15.724 -0.0342  0.2207 -0.7546
  822MPD2    C412094   2.427   1.670  15.600 -0.3595 -0.3593 -0.3275
  822MPD2    C512095   2.475   1.604  15.486 -0.0895  0.7860 -0.7762
  822MPD2     H12096   2.547   1.446  15.820 -1.1342  1.5907  0.7323
  822MPD2    H112097   2.373   1.763  15.585  0.0783  0.0301  0.4866
  822MPD2    H212098   2.567   1.442  15.401 -1.8078 -1.0856 -0.4931
  822MPD2    H312099   2.460   1.654  15.391 -0.9508  1.1624 -0.4409
  822MPD2     N12100   2.402   1.663  15.846  0.4901 -0.1772  0.3565
  822MPD2    H512101   2.433   1.613  15.929  0.1111 -1.0256 -0.0192
  822MPD2    N112102   2.637   1.299  15.624 -0.6171 -0.5137  0.6972
  822MPD2    H712103   2.645   1.270  15.721 -1.4531 -2.6375  0.1162
  823MPD2     C12104   1.952   1.610  16.589  0.4713  0.0024 -0.7895
  823MPD2    C112105   1.980   1.584  16.457 -0.0963 -0.1136  0.3437
  823MPD2    C212106   1.911   1.481  16.396  0.4399 -0.1110 -0.1993
  823MPD2    C312107   1.809   1.413  16.460  0.3018  0.0651  0.3481
  823MPD2    C412108   1.793   1.440  16.596  0.3647 -0.5500  0.4980
  823MPD2    C512109   1.853   1.538  16.662 -0.4776  0.3626 -0.0763
  823MPD2     H12110   1.953   1.459  16.299  0.1983  4.0204 -1.2648
  823MPD2    H112111   1.727   1.381  16.657  0.3951 -0.6684  0.4153
  823MPD2    H212112   2.008   1.686  16.641 -0.9152  0.4271  0.0952
  823MPD2    H312113   1.832   1.558  16.766  1.7095  0.4303  0.3670
  823MPD2     N12114   1.744   1.298  16.403  0.3488  0.6357  1.0896
  823MPD2    H512115   1.682   1.255  16.471 -1.9446  0.6536 -0.9678
  823MPD2    N112116   2.081   1.662  16.392  0.0045 -0.2239 -0.6981
  823MPD2    H712117   2.144   1.716  16.450 -0.3643 -0.6265  0.0761
  824MPD2     C12118   2.639   0.479  15.442  0.0816 -0.2545  0.4986
  824MPD2    C112119   2.755   0.513  15.503 -0.3136 -0.0744 -0.5843
  824MPD2    C212120   2.852   0.417  15.530  0.5940  0.5484  0.9616
  824MPD2    C312121   2.834   0.287  15.500  0.0463 -0.7940  0.1267
  824MPD2    C412122   2.713   0.248  15.441  0.5467 -0.3426 -0.0700
  824MPD2    C512123   2.621   0.346  15.407 -0.1515  0.3954  0.6451
  824MPD2     H12124   2.951   0.444  15.565  0.7285  0.7371  0.4346
  824MPD2    H112125   2.692   0.143  15.425 -1.1568 -0.1550  0.9844
  824MPD2    H212126   2.564   0.550  15.407 -0.1398  0.3488  2.2272
  824MPD2    H312127   2.525   0.320  15.364 -0.1390  1.6802 -0.1612
  824MPD2     N12128   2.946   0.206  15.533 -0.0012 -0.1149  0.0852
  824MPD2    H512129   3.030   0.251  15.568  0.4516 -1.1547  0.3514
  824MPD2    N112130   2.793   0.649  15.535 -0.3801 -0.7252  0.2624
  824MPD2    H712131   2.877   0.655  15.591 -0.4610  0.8499  0.2185
  825MPD2     C12132   3.628   0.086  15.009 -0.7883 -0.1795 -0.1991
  825MPD2    C112133   3.567   0.149  15.116 -0.1653  0.3195  0.3771
  825MPD2    C212134   3.621   0.272  15.162 -0.7570 -0.2522  0.3168
  825MPD2    C312135   3.706   0.343  15.079 -0.3737 -0.7313  0.6946
  825MPD2    C412136   3.743   0.288  14.959 -0.0691  0.5351  0.3196
  825MPD2    C512137   3.715   0.158  14.924 -0.0221  0.0234  0.5484
  825MPD2     H12138   3.600   0.309  15.261  0.7722 -0.3347  0.6830
  825MPD2    H112139   3.803   0.345  14.889  0.0848  0.2082  0.1838
  825MPD2    H212140   3.603   4.711  14.974  1.9711 -0.3836 -1.5812
  825MPD2    H312141   3.738   0.123  14.824 -0.9435 -0.0058  0.3480
  825MPD2     N12142   3.747   0.477  15.108 -0.0617 -0.1944 -0.7289
  825MPD2    H512143   3.787   0.528  15.030  0.6900  1.1166  0.5149
  825MPD2    N112144   3.467   0.079  15.194  0.1173  0.0724 -0.2767
  825MPD2    H712145   3.470   4.704  15.181  1.2704 -0.0585  0.9836
  826MPD2     C12146   3.377   0.640  14.000  0.3656  0.4468 -0.0737
  826MPD2    C112147   3.373   0.674  13.863 -0.2118  0.1569  0.5025
  826MPD2    C212148   3.298   0.792  13.829 -0.6829 -0.0227 -0.3348
  826MPD2    C312149   3.242   0.872  13.934  0.3836 -0.6175  0.0866
  826MPD2    C412150   3.260   0.837  14.065 -0.6096 -0.6622 -0.2399
  826MPD2    C512151   3.323   0.725  14.097  1.0258  0.4445 -0.5490
  826MPD2     H12152   3.291   0.839  13.731  1.1126 -0.2161 -0.5614
  826MPD2    H112153   3.210   0.898  14.139 -1.4316 -0.7359 -0.7355
  826MPD2    H212154   3.439   0.558  14.032 -0.8456 -0.6452 -0.5035
  826MPD2    H312155   3.319   0.696  14.202 -1.2960  1.9836 -0.2105
  826MPD2     N12156   3.177   0.998  13.906 -0.1933  0.6597  0.0966
  826MPD2    H512157   3.152   1.049  13.990  2.0498 -0.3462  1.3675
  826MPD2    N112158   3.435   0.587  13.776 -0.6021  0.4144  0.0256
  826MPD2    H712159   3.474   0.498  13.805 -1.4832  0.4849  1.4257
  827MPD2     C12160   4.586   2.449   9.814 -0.2200  0.2741 -0.4576
  827MPD2    C112161   4.617   2.349   9.901 -0.6871 -0.3763 -0.1174
  827MPD2    C212162   4.632   2.218   9.849  0.2867 -0.7420 -0.5897
  827MPD2    C312163   4.631   2.195   9.709 -0.4234  0.2510  0.8834
  827MPD2    C412164   4.607   2.302   9.624  0.0055  0.1468  0.6513
  827MPD2    C512165   4.579   2.427   9.677 -0.1105 -0.2380  0.1345
  827MPD2     H12166   4.652   2.137   9.919 -1.2488 -1.2345 -0.7161
  827MPD2    H112167   4.609   2.288   9.516  1.0726  0.4316  0.6360
  827MPD2    H212168   4.573   2.552   9.846 -3.7207 -1.0397  2.2997
  827MPD2    H312169   4.543   2.508   9.614  0.7672  0.3236  0.3479
  827MPD2     N12170   4.663   2.060   9.676 -0.4411  0.7400  0.4464
  827MPD2    H512171   4.658   1.988   9.746  2.5515  1.1531  1.1118
  827MPD2    N112172   4.610   2.376  10.039 -0.1926  0.2646 -0.4709
  827MPD2    H712173   4.569   2.464  10.071 -2.4247 -0.3756 -1.5734
  828MPD2     C12174   3.050   1.701  12.622  0.4287  0.1172  0.5307
  828MPD2    C112175   2.940   1.725  12.545 -0.1770  0.3497 -0.5333
  828MPD2    C212176   2.953   1.743  12.412 -0.2331 -0.5119  0.0515
  828MPD2    C312177   3.074   1.725  12.344 -0.6959  0.3347 -0.5658
  828MPD2    C412178   3.185   1.700  12.421  0.3156 -0.0222 -0.2295
  828MPD2    C512179   3.173   1.692  12.555  0.5209 -0.0841 -0.7476
  828MPD2     H12180   2.859   1.774  12.366 -1.3300 -1.0457  1.9435
  828MPD2    H112181   3.281   1.679  12.375  0.7371  2.6502 -0.5727
  828MPD2    H212182   3.057   1.666  12.725  1.7652  1.1914  0.8044
  828MPD2    H312183   3.261   1.666  12.613 -3.5670 -0.9866  5.0303
  828MPD2     N12184   3.091   1.744  12.204  0.0388  0.0067 -0.3422
  828MPD2    H512185   3.184   1.741  12.163 -0.5286 -3.1905 -1.4244
  828MPD2    N112186   2.814   1.734  12.611 -0.3352 -0.0596 -0.1301
  828MPD2    H712187   2.740   1.758  12.546 -0.2203  2.4406  0.6777
  829MPD2     C12188   2.229   2.170  12.227  1.1236  0.4219  0.1944
  829MPD2    C112189   2.154   2.144  12.342  0.1219 -0.9424 -0.1680
  829MPD2    C212190   2.212   2.069  12.438 -0.1297 -0.3927 -0.2402
  829MPD2    C312191   2.341   2.032  12.429  0.8930 -0.3516 -0.4282
  829MPD2    C412192   2.415   2.053  12.317  0.6364  0.2830 -0.1605
  829MPD2    C512193   2.359   2.122  12.218 -0.3680  0.1775 -0.3800
  829MPD2     H12194   2.148   2.021  12.511 -0.2364 -1.7133 -1.1817
  829MPD2    H112195   2.517   2.016  12.307  1.0834  1.3015  0.6200
  829MPD2    H212196   2.196   2.240  12.152 -1.6882 -0.1079  0.9469
  829MPD2    H312197   2.408   2.137  12.123  0.9150  3.6141  0.8350
  829MPD2     N12198   2.410   1.946  12.522 -0.6704  0.0874 -0.0555
  829MPD2    H512199   2.502   1.916  12.492 -0.5579  0.0566  0.3216
  829MPD2    N112200   2.021   2.178  12.352 -0.0782  0.1805  0.0319
  829MPD2    H712201   1.994   2.240  12.276 -0.7212  0.9991  0.9257
  830MPD2     C12202   2.219   4.404  15.640 -0.2006 -0.5558 -0.3603
  830MPD2    C112203   2.151   4.520  15.622 -0.0597  0.2539 -0.7777
  830MPD2    C212204   2.151   4.572  15.492  0.2673  0.1249  0.7587
  830MPD2    C312205   2.205   4.505  15.386  0.3458  1.1392 -0.3965
  830MPD2    C412206   2.277   4.396  15.412  0.5124  0.1842 -0.2404
  830MPD2    C512207   2.281   4.344  15.536 -0.8820 -0.3026 -0.2265
  830MPD2     H12208   2.113   4.670  15.466  0.5758 -0.3184 -1.3872
  830MPD2    H112209   2.332   4.346  15.333 -0.1894  0.9303 -1.1955
  830MPD2    H212210   2.231   4.362  15.739  2.9324  1.6577  0.1938
  830MPD2    H312211   2.343   4.256  15.539  0.6610  0.8139  0.5329
  830MPD2     N12212   2.205   4.552  15.255  0.2957  0.0434  0.5130
  830MPD2    H512213   2.267   4.516  15.183 -2.9366 -1.6056 -1.4634
  830MPD2    N112214   2.096   4.586  15.734 -0.2110  0.1009  0.1723
  830MPD2    H712215   2.110   4.547  15.827  0.1730 -1.7991 -0.6804
  831MPD2     C12216   2.389   1.326  16.408 -0.5155 -0.0524 -0.2881
  831MPD2    C112217   2.432   1.362  16.281 -0.4516  0.0451 -0.3647
  831MPD2    C212218   2.341   1.354  16.172  0.3776 -0.5064 -1.0141
  831MPD2    C312219   2.214   1.309  16.200 -0.0832 -0.4649  0.3384
  831MPD2    C412220   2.177   1.269  16.324  0.2363  0.2329  0.3586
  831MPD2    C512221   2.268   1.284  16.425  0.8756 -0.5454  0.5999
  831MPD2     H12222   2.374   1.385  16.074  3.0642  0.1669  0.0896
  831MPD2    H112223   2.077   1.229  16.339  0.5546 -0.5069  0.4976
  831MPD2    H212224   2.450   1.334  16.496 -1.7009  2.9127  0.2747
  831MPD2    H312225   2.225   1.262  16.522  1.4653 -3.9062  0.0845
  831MPD2     N12226   2.120   1.296  16.097  0.6663 -0.3149 -0.9705
  831MPD2    H512227   2.025   1.293  16.132  1.7750  0.8402  2.0517
  831MPD2    N112228   2.558   1.438  16.271  0.0366  0.1698 -0.2510
  831MPD2    H712229   2.623   1.436  16.349 -1.3742 -1.6357  0.8797
  832MPD2     C12230   1.024   2.992  17.219 -0.3539 -0.1785  0.1391
  832MPD2    C112231   0.967   3.092  17.146  0.2165 -0.3424  0.3422
  832MPD2    C212232   0.836   3.076  17.093 -0.0259  0.1548  0.3097
  832MPD2    C312233   0.778   2.957  17.101 -0.3417  0.2667 -0.1229
  832MPD2    C412234   0.838   2.857  17.174  0.2495  0.7109  0.8230
  832MPD2    C512235   0.961   2.875  17.231 -1.1140  0.2103 -0.3540
  832MPD2     H12236   0.804   3.149  17.019  1.2166 -0.6380 -1.0152
  832MPD2    H112237   0.794   2.759  17.188  1.6273  0.1008  0.9103
  832MPD2    H212238   1.124   3.003  17.259  0.0924 -0.5516 -0.8734
  832MPD2    H312239   1.008   2.790  17.280 -0.7171 -0.1597 -1.3636
  832MPD2     N12240   0.660   2.924  17.038  0.4606 -0.1040 -0.1347
  832MPD2    H512241   0.622   2.832  17.058 -0.8955  0.5815  0.4138
  832MPD2    N112242   1.043   3.212  17.127 -0.0601 -0.2644 -0.4192
  832MPD2    H712243   1.142   3.215  17.150  0.0472 -1.9478 -0.6050
  833MPD2     C12244   2.684   4.269  12.789 -0.9150 -0.7598  0.5002
  833MPD2    C112245   2.784   4.361  12.757  0.4412  0.0864  0.5526
  833MPD2    C212246   2.892   4.306  12.688 -0.4634  1.2142 -0.8104
  833MPD2    C312247   2.890   4.176  12.627 -0.2638 -0.1920 -0.8778
  833MPD2    C412248   2.780   4.094  12.664  0.6863  0.5022 -0.1241
  833MPD2    C512249   2.680   4.141  12.742  0.8656 -0.1213  0.0850
  833MPD2     H12250   2.983   4.362  12.668  0.4767 -0.4889 -1.3335
  833MPD2    H112251   2.781   3.992  12.626  2.1183  0.4993 -0.0964
  833MPD2    H212252   2.600   4.302  12.850 -0.2250 -0.2626  1.1762
  833MPD2    H312253   2.594   4.080  12.765  0.6509  0.3794  0.6268
  833MPD2     N12254   2.986   4.118  12.539  0.8515 -0.2577  0.2061
  833MPD2    H512255   2.974   4.019  12.522 -1.2047  0.0975 -0.4739
  833MPD2    N112256   2.774   4.498  12.797  0.1352 -0.1022  0.0131
  833MPD2    H712257   2.683   4.534  12.822 -0.0717  0.5641 -1.6664
  834MPD2     C12258   2.691   3.999  11.664 -0.0726 -0.4703 -0.3121
  834MPD2    C112259   2.827   4.012  11.626 -0.4428  1.0572 -0.0044
  834MPD2    C212260   2.922   4.034  11.731  0.4928 -0.3867  0.1698
  834MPD2    C312261   2.888   4.007  11.865 -0.1028 -0.1949 -0.6558
  834MPD2    C412262   2.755   4.006  11.895  0.4153  0.2352  0.9899
  834MPD2    C512263   2.660   4.002  11.801 -0.1839 -0.5787 -0.1466
  834MPD2     H12264   3.022   4.071  11.710 -0.2901  2.1146  0.8407
  834MPD2    H112265   2.722   4.015  11.998  1.9542  2.0197  1.3078
  834MPD2    H212266   2.618   3.987  11.585  0.5219  2.4886 -1.3301
  834MPD2    H312267   2.555   3.986  11.823 -0.1587 -0.1065  0.3269
  834MPD2     N12268   2.992   4.028  11.959  0.0351  0.4849 -0.2390
  834MPD2    H512269   3.088   4.034  11.926  0.0983 -0.3947 -0.2265
  834MPD2    N112270   2.859   4.015  11.491  0.4506  0.4776 -0.3446
  834MPD2    H712271   2.791   3.994  11.419  1.1559 -3.1636  0.0541
  835MPD2     C12272   3.539   2.390  11.521  0.3007 -0.3698 -0.3511
  835MPD2    C112273   3.458   2.490  11.568  0.2855 -0.1340 -0.2268
  835MPD2    C212274   3.468   2.522  11.702  0.1743 -0.2705 -0.3215
  835MPD2    C312275   3.555   2.453  11.786 -0.3230 -0.6435 -0.5287
  835MPD2    C412276   3.635   2.355  11.737  0.7129 -0.3187  0.0058
  835MPD2    C512277   3.627   2.327  11.606 -0.0044 -0.0259  0.4855
  835MPD2     H12278   3.414   2.607  11.742  1.2514 -0.9309  2.5623
  835MPD2    H112279   3.699   2.303  11.808  2.6284  4.3321  1.7242
  835MPD2    H212280   3.542   2.366  11.416  3.8000  0.8597 -0.5184
  835MPD2    H312281   3.688   2.246  11.567 -0.2975 -0.1450  0.2766
  835MPD2     N12282   3.568   2.477  11.924  0.1088  0.3761  0.0944
  835MPD2    H512283   3.636   2.425  11.979  0.7920 -0.5378 -1.5979
  835MPD2    N112284   3.369   2.559  11.495  0.3669  0.4206 -0.1025
  835MPD2    H712285   3.314   2.623  11.553  0.1808  0.6295 -0.5053
  836MPD2     C12286   3.278   3.027  12.441  0.7817 -0.1335 -0.0525
  836MPD2    C112287   3.291   2.892  12.455  0.5324  0.1788  0.8068
  836MPD2    C212288   3.190   2.824  12.517 -0.0250  0.5442  0.0513
  836MPD2    C312289   3.083   2.881  12.576  0.1687 -0.0969 -0.5423
  836MPD2    C412290   3.071   3.017  12.562 -0.0118 -0.2114 -0.4695
  836MPD2    C512291   3.167   3.090  12.494 -0.3778  0.6657  1.3400
  836MPD2     H12292   3.188   2.716  12.525  1.7578  0.7881  3.5667
  836MPD2    H112293   2.988   3.074  12.601  0.6437  0.3163  0.1611
  836MPD2    H212294   3.360   3.092  12.413 -0.2111  2.1141  2.2870
  836MPD2    H312295   3.164   3.197  12.481  0.8316  0.6689  1.0472
  836MPD2     N12296   2.985   2.798  12.637  0.3103  0.0520 -0.1075
  836MPD2    H512297   2.999   2.698  12.634  1.8383  0.3066 -1.2212
  836MPD2    N112298   3.415   2.834  12.406 -0.1754 -0.3540  0.5272
  836MPD2    H712299   3.470   2.890  12.342 -0.9904  1.0196  1.0202
  837MPD2     C12300   1.696   1.670  10.692 -0.1312  0.2974  0.1309
  837MPD2    C112301   1.606   1.693  10.592 -0.6138 -0.6884 -0.6807
  837MPD2    C212302   1.546   1.823  10.583 -0.1594 -0.2059  0.7669
  837MPD2    C312303   1.579   1.920  10.672  0.6913  0.0295  0.1070
  837MPD2    C412304   1.674   1.901  10.767  0.0174 -0.4426  0.0700
  837MPD2    C512305   1.727   1.776  10.774  0.4046 -0.3920 -0.2016
  837MPD2     H12306   1.470   1.836  10.508  0.2441 -2.6980 -0.0919
  837MPD2    H112307   1.741   1.968  10.819 -0.2824  0.9177 -1.3235
  837MPD2    H212308   1.744   1.574  10.701  0.2756  0.6901  2.1737
  837MPD2    H312309   1.806   1.760  10.846 -1.1048  1.2058  1.8512
  837MPD2     N12310   1.513   2.042  10.651  0.1148  0.1011  0.5764
  837MPD2    H512311   1.460   2.052  10.565  1.1735 -0.1238 -0.0982
  837MPD2    N112312   1.566   1.605  10.497  0.5374 -0.0306 -0.1241
  837MPD2    H712313   1.505   1.640  10.424  1.9041  1.1686 -0.6979
  838MPD2     C12314   4.255   0.049  11.283  0.1041  0.2582  0.1267
  838MPD2    C112315   4.255   0.140  11.384  0.2986  0.1997  0.1681
  838MPD2    C212316   4.147   0.163  11.474  0.2250 -0.1886  0.3814
  838MPD2    C312317   4.044   0.078  11.472 -0.4911 -0.1173 -0.0122
  838MPD2    C412318   4.037   4.708  11.368  0.0090 -0.4970 -0.2357
  838MPD2    C512319   4.143   4.697  11.279  0.2794 -0.3105  0.2203
  838MPD2     H12320   4.134   0.244  11.545  1.0659  0.2237  0.0624
  838MPD2    H112321   3.955   4.638  11.350  0.1154 -0.7053  0.0850
  838MPD2    H212322   4.335   0.032  11.212 -0.9416  1.9737 -1.4746
  838MPD2    H312323   4.143   4.613  11.211  1.4422  0.6208 -0.9144
  838MPD2     N12324   3.949   0.084  11.577  0.0633  0.6584  0.3601
  838MPD2    H512325   3.980   0.158  11.640 -0.7316  1.1461  0.1756
  838MPD2    N112326   4.372   0.213  11.412 -0.2352 -0.4792  0.1216
  838MPD2    H712327   4.369   0.261  11.502  1.1937  0.4559 -0.3332
  839MPD2     C12328   4.558   4.623  12.093  0.7130 -0.3880  0.0154
  839MPD2    C112329   4.498   4.583  11.974 -1.0629  0.0032  0.4605
  839MPD2    C212330   4.507   4.674  11.874  0.3764  1.2421 -0.7005
  839MPD2    C312331   4.593   0.061  11.875  0.5846  0.3815  0.4973
  839MPD2    C412332   4.649   0.096  11.995  0.2780 -0.0830  0.2727
  839MPD2    C512333   4.627   0.014  12.102  0.4996 -0.3152  0.0905
  839MPD2     H12334   4.451   4.651  11.784  1.6791 -0.9335 -0.9559
  839MPD2    H112335   4.697   0.192  12.013 -0.2395  0.0992  0.6768
  839MPD2    H212336   4.554   4.545  12.168 -0.5986 -1.4486 -1.1368
  839MPD2    H312337   4.681   0.036  12.193 -1.3366  1.7573  0.6682
  839MPD2     N12338   4.606   0.140  11.761  0.2786 -0.0686 -0.7640
  839MPD2    H512339   4.540   0.124  11.686 -0.8422  1.0736 -0.0236
  839MPD2    N112340   4.410   4.472  11.955  0.7944 -0.1956  0.7417
  839MPD2    H712341   4.371   4.450  11.864 -1.7934 -1.3394  2.1496
  840MPD2     C12342   0.250   2.823  10.350  0.0860  1.0720 -0.1472
  840MPD2    C112343   0.174   2.772  10.454  0.5013 -0.4119  0.6331
  840MPD2    C212344   0.200   2.821  10.580  0.3767  0.6452  0.0228
  840MPD2    C312345   0.287   2.930  10.602  0.5407 -0.1842 -0.4436
  840MPD2    C412346   0.348   2.983  10.502 -0.1592 -0.6354  0.6574
  840MPD2    C512347   0.331   2.925  10.380  0.4875 -0.4577  0.3679
  840MPD2     H12348   0.153   2.779  10.668  1.2928  0.2518  0.3256
  840MPD2    H112349   0.413   3.067  10.524 -1.3142  0.0659  1.3615
  840MPD2    H212350   0.242   2.776  10.253 -0.6156 -0.1531  0.5038
  840MPD2    H312351   0.393   2.959  10.297 -0.7606  0.2736 -0.2651
  840MPD2     N12352   0.317   2.978  10.731  0.4178 -0.3054 -0.5727
  840MPD2    H512353   0.375   3.061  10.733 -1.0233  0.7177 -0.6115
  840MPD2    N112354   0.096   2.659  10.430  0.3948 -0.2742  0.1987
  840MPD2    H712355   0.111   2.611  10.342  0.3193 -0.7243  0.4302
  841MPD2     C12356   4.083   1.698  14.640  0.3027 -0.1943  0.2261
  841MPD2    C112357   4.185   1.612  14.638 -0.6252 -0.2670  0.1275
  841MPD2    C212358   4.272   1.617  14.747  0.4795 -0.8859 -0.3314
  841MPD2    C312359   4.248   1.698  14.854  0.2511 -0.0191 -0.0711
  841MPD2    C412360   4.146   1.793  14.848 -0.7848 -0.1411 -0.4619
  841MPD2    C512361   4.061   1.785  14.741 -0.3030  0.4660  0.0114
  841MPD2     H12362   4.354   1.548  14.762  1.3266  0.0102 -0.8089
  841MPD2    H112363   4.134   1.864  14.929  0.2950 -0.0315 -0.3951
  841MPD2    H212364   4.011   1.709  14.559 -0.0524  1.1209  0.7196
  841MPD2    H312365   3.972   1.847  14.746  0.2803  1.3035  0.0050
  841MPD2     N12366   4.345   1.708  14.954  0.0546  0.2625 -0.4570
  841MPD2    H512367   4.428   1.650  14.945 -1.0158 -1.1953 -1.0152
  841MPD2    N112368   4.210   1.521  14.536 -1.1879 -0.1287 -0.2555
  841MPD2    H712369   4.299   1.474  14.547  0.5077  2.7906 -1.4514
  842MPD2     C12370   0.088   3.408  16.563  1.0386 -0.1470  0.6109
  842MPD2    C112371   4.701   3.339  16.610 -0.2017  0.3474 -0.0495
  842MPD2    C212372   4.713   3.258  16.724  0.0523 -0.0177  0.5352
  842MPD2    C312373   0.112   3.238  16.783  0.0821 -0.5588 -0.1155
  842MPD2    C412374   0.224   3.295  16.730 -0.3850  0.1376 -0.0509
  842MPD2    C512375   0.212   3.382  16.619 -0.5673  0.2122 -0.0840
  842MPD2     H12376   4.631   3.195  16.756  0.3370 -0.3529  0.6108
  842MPD2    H112377   0.323   3.282  16.772 -0.0210 -1.3893 -1.4086
  842MPD2    H212378   0.084   3.480  16.482 -1.0384 -0.7142  0.1945
  842MPD2    H312379   0.306   3.429  16.589 -0.7880  0.2085 -0.7794
  842MPD2     N12380   0.138   3.156  16.894 -0.5280  0.5804  0.1153
  842MPD2    H512381   0.234   3.156  16.927 -1.0778  1.1264  1.7346
  842MPD2    N112382   4.578   3.365  16.544 -1.0811 -0.0854 -0.0172
  842MPD2    H712383   4.576   3.430  16.467 -0.4439 -0.8007 -0.6343
  843MPD2     C12384   1.750   3.895   0.120 -0.0003  0.0891  0.2950
  843MPD2    C112385   1.841   3.823   0.191 -0.3083 -0.4498  0.1328
  843MPD2    C212386   1.973   3.868   0.180  0.1491  0.5663  0.7710
  843MPD2    C312387   2.010   3.986   0.119 -0.2916 -0.1635  0.1633
  843MPD2    C412388   1.914   4.059   0.062  0.4151  0.6403 -0.5550
  843MPD2    C512389   1.788   4.009   0.060 -0.2632  0.7289  0.5156
  843MPD2     H12390   2.049   3.808   0.228 -0.7081 -2.3488 -1.5495
  843MPD2    H112391   1.929   4.152   0.008  2.1743  0.4718 -0.3440
  843MPD2    H212392   1.647   3.861   0.119 -0.3757  1.2380 -0.1528
  843MPD2    H312393   1.711   4.069   0.013 -2.2105 -0.2777  2.4635
  843MPD2     N12394   2.143   4.030   0.120  0.1445 -0.1919  0.3990
  843MPD2    H512395   2.166   4.118   0.075 -0.9480  0.5725  1.3261
  843MPD2    N112396   1.801   3.705   0.267 -0.1745  0.0707  0.9428
  843MPD2    H712397   1.703   3.687   0.251  0.2376 -1.1325 -0.1994
  844MPD2     C12398   0.572   2.581  16.810 -1.4023 -0.7132  1.1635
  844MPD2    C112399   0.604   2.646  16.687 -0.7918 -0.4949  0.3533
  844MPD2    C212400   0.718   2.723  16.681  0.2973  0.6181  0.2725
  844MPD2    C312401   0.808   2.739  16.785  0.0617 -0.2720 -0.1142
  844MPD2    C412402   0.779   2.665  16.899  0.1986 -0.3596  0.1335
  844MPD2    C512403   0.665   2.592  16.908 -0.1724 -0.3392 -0.5604
  844MPD2     H12404   0.733   2.777  16.588  1.3980 -1.8750 -1.0052
  844MPD2    H112405   0.851   2.658  16.979 -0.6502  0.1351  0.9346
  844MPD2    H212406   0.485   2.519  16.830 -1.3004 -1.4035 -0.5651
  844MPD2    H312407   0.644   2.533  16.996  0.4553 -0.0031 -0.1883
  844MPD2     N12408   0.917   2.820  16.764 -0.2104  0.2635 -0.8725
  844MPD2    H512409   0.933   2.857  16.671  1.7734  2.6104  0.4113
  844MPD2    N112410   0.532   2.631  16.566  0.0466 -0.0381 -0.0801
  844MPD2    H712411   0.565   2.668  16.478  0.1830 -1.1452 -0.4979
  845MPD2     C12412   1.110   3.678  16.493  0.4064 -0.2722 -0.2396
  845MPD2    C112413   1.025   3.629  16.586 -1.1888 -0.1753 -0.1907
  845MPD2    C212414   1.035   3.503  16.628 -0.4023  0.0318 -0.0557
  845MPD2    C312415   1.135   3.420  16.578 -0.0465 -0.2919  0.5312
  845MPD2    C412416   1.225   3.470  16.491 -0.6976 -0.2947  0.9686
  845MPD2    C512417   1.209   3.599  16.443  0.9601 -0.4908  0.2111
  845MPD2     H12418   0.963   3.455  16.693 -0.6408 -1.6879 -1.5974
  845MPD2    H112419   1.310   3.408  16.463 -0.3226  0.1240  1.1956
  845MPD2    H212420   1.102   3.782  16.461 -0.2757 -0.3062 -0.1836
  845MPD2    H312421   1.280   3.635  16.369  1.1093  1.4522  1.3106
  845MPD2     N12422   1.133   3.293  16.631 -0.0522 -0.3213  0.2086
  845MPD2    H512423   1.055   3.264  16.689 -1.7420  2.2454 -0.8037
  845MPD2    N112424   0.931   3.725  16.632  0.1412 -0.3767  0.3936
  845MPD2    H712425   0.935   3.817  16.590 -0.8147 -0.2707  0.5371
  846MPD2     C12426   2.421   3.942  13.740  0.4789  0.8074  0.5782
  846MPD2    C112427   2.317   4.022  13.772 -0.3818  0.0771  0.1708
  846MPD2    C212428   2.258   4.006  13.898 -0.3716  0.4879 -0.1590
  846MPD2    C312429   2.285   3.904  13.989  0.0274  0.1158  0.2173
  846MPD2    C412430   2.399   3.835  13.956  0.1232 -0.0701  1.1154
  846MPD2    C512431   2.465   3.855  13.833  0.6658  0.3382 -0.8508
  846MPD2     H12432   2.188   4.082  13.931 -1.3902  0.5875 -2.5446
  846MPD2    H112433   2.435   3.762  14.027  1.5875 -0.7380 -0.3021
  846MPD2    H212434   2.483   3.952  13.652  0.7404 -1.1156  0.5566
  846MPD2    H312435   2.543   3.786  13.804 -0.8201 -1.1930 -1.1762
  846MPD2     N12436   2.218   3.904  14.113 -0.2099  0.0905  0.2877
  846MPD2    H512437   2.138   3.967  14.107 -0.5981 -0.2483  1.8875
  846MPD2    N112438   2.278   4.130  13.685  0.8170 -0.8530  0.2232
  846MPD2    H712439   2.207   4.194  13.719  0.6751  0.1586 -1.9763
  847MPD2     C12440   2.164   4.596  14.646  0.3837  0.0631 -0.0878
  847MPD2    C112441   2.289   4.547  14.617  0.1989  0.0661 -0.9374
  847MPD2    C212442   2.324   4.427  14.669 -0.3057 -0.0886 -0.3210
  847MPD2    C312443   2.242   4.360  14.756 -0.3942 -0.3705 -0.1875
  847MPD2    C412444   2.116   4.407  14.788 -0.0703 -0.4887 -0.7047
  847MPD2    C512445   2.079   4.526  14.725  0.5581 -0.2446  0.2612
  847MPD2     H12446   2.407   4.370  14.628  1.2279  0.2990  2.2301
  847MPD2    H112447   2.048   4.357  14.857  2.8395 -1.4302  1.4855
  847MPD2    H212448   2.130   4.692  14.610 -1.3181 -0.3358  0.4474
  847MPD2    H312449   1.989   4.579  14.751  1.7385  2.2115 -0.6118
  847MPD2     N12450   2.302   4.243  14.809  0.2495 -0.4645  0.6408
  847MPD2    H512451   2.399   4.231  14.781  0.2948 -0.1227  0.6526
  847MPD2    N112452   2.382   4.606  14.531 -0.1091  0.1454 -0.1212
  847MPD2    H712453   2.468   4.556  14.511  0.6579  0.4593  2.3321
  848MPD2     C12454   0.132   3.093  16.409  0.6726 -0.4234  0.2715
  848MPD2    C112455   0.264   3.106  16.436 -0.2774 -0.3843  0.6427
  848MPD2    C212456   0.335   3.204  16.368  0.9854 -0.1807  0.1145
  848MPD2    C312457   0.269   3.288  16.277 -0.6209 -0.1123 -0.3919
  848MPD2    C412458   0.137   3.267  16.253 -0.6695  0.2848 -0.2232
  848MPD2    C512459   0.070   3.177  16.330 -0.4215 -0.1391 -0.5285
  848MPD2     H12460   0.443   3.201  16.375  0.7566 -1.2569  3.5712
  848MPD2    H112461   0.073   3.337  16.200  1.0738  2.0347 -0.0122
  848MPD2    H212462   0.066   3.015  16.446  0.7794 -0.2771  0.7617
  848MPD2    H312463   4.689   3.168  16.310 -0.6214  1.2948 -0.1416
  848MPD2     N12464   0.342   3.381  16.201 -0.2253  0.3466 -0.5018
  848MPD2    H512465   0.287   3.427  16.129 -0.4963 -1.6828 -1.5776
  848MPD2    N112466   0.331   3.022  16.528  0.7806  0.1967 -0.1056
  848MPD2    H712467   0.427   3.047  16.549  0.1124  0.0108  3.1303
  849MPD2     C12468   0.049   2.909  13.871 -0.1875 -0.4529 -0.0767
  849MPD2    C112469   0.153   2.822  13.863 -0.3227  0.0080  0.3670
  849MPD2    C212470   0.154   2.716  13.937  0.0668  0.1325  0.3567
  849MPD2    C312471   0.054   2.692  14.030  0.0302  0.5485 -0.0816
  849MPD2    C412472   4.675   2.775  14.040  0.5348 -1.0027 -0.1322
  849MPD2    C512473   4.668   2.881  13.955  0.1903  0.1024  0.0068
  849MPD2     H12474   0.234   2.644  13.924 -0.2370 -0.1829  0.2336
  849MPD2    H112475   4.593   2.755  14.108  0.2727 -0.0356 -0.1583
  849MPD2    H212476   0.036   2.995  13.806  2.2550  0.4915  0.6805
  849MPD2    H312477   4.584   2.949  13.954  0.9865  1.0980 -0.3746
  849MPD2     N12478   0.078   2.580  14.112 -0.4896 -0.4330  0.1951
  849MPD2    H512479   0.161   2.523  14.100  0.2725  0.5991  0.5340
  849MPD2    N112480   0.271   2.848  13.784 -0.2183  1.1048  0.5296
  849MPD2    H712481   0.343   2.777  13.796 -0.7351  0.5412  0.2848
  850MPD2     C12482   2.597   0.822  14.717 -0.0886 -0.3613  0.2630
  850MPD2    C112483   2.586   0.923  14.812 -0.4154 -0.6544  0.2761
  850MPD2    C212484   2.681   0.935  14.911  0.4258 -0.2643  0.3077
  850MPD2    C312485   2.782   0.847  14.924  0.1078  0.5819 -0.5452
  850MPD2    C412486   2.784   0.742  14.835  0.1407  0.2270 -0.3650
  850MPD2    C512487   2.695   0.734  14.740  0.9042  0.1506  0.0270
  850MPD2     H12488   2.682   1.023  14.975  2.5288  0.1825 -0.3307
  850MPD2    H112489   2.860   0.665  14.832 -1.4345 -1.3036 -0.3702
  850MPD2    H212490   2.522   0.801  14.641  1.1958 -1.8328 -0.5968
  850MPD2    H312491   2.717   0.647  14.678  1.5008  1.6746 -1.9135
  850MPD2     N12492   2.892   0.857  15.019 -0.2341  0.1957 -0.1802
  850MPD2    H512493   2.968   0.791  15.007 -0.7455 -0.5723  0.8380
  850MPD2    N112494   2.465   0.998  14.812 -0.1733 -0.1544 -0.0996
  850MPD2    H712495   2.395   0.972  14.744  0.1219 -1.6354  0.1644
  851MPD2     C12496   2.566   0.614  15.085  0.7839 -0.2485 -0.1446
  851MPD2    C112497   2.430   0.608  15.051  0.5552  0.1279  0.1067
  851MPD2    C212498   2.380   0.485  15.009  0.0312  0.4183  0.1006
  851MPD2    C312499   2.458   0.369  15.009  0.7521 -0.0800 -0.0951
  851MPD2    C412500   2.589   0.376  15.049 -0.8232  1.3057 -0.1671
  851MPD2    C512501   2.638   0.493  15.092 -0.3601 -0.1151  0.1234
  851MPD2     H12502   2.281   0.474  14.968  0.8394 -0.2084 -1.6889
  851MPD2    H112503   2.652   0.288  15.048 -2.0916  0.3791  1.7803
  851MPD2    H212504   2.610   0.711  15.104 -0.3791  0.3170 -0.2930
  851MPD2    H312505   2.736   0.495  15.139  0.4653 -2.8188 -1.4797
  851MPD2     N12506   2.394   0.256  14.953 -0.0757  0.5237  0.1317
  851MPD2    H512507   2.296   0.268  14.932 -0.1246  0.3942  0.2839
  851MPD2    N112508   2.356   0.729  15.040 -0.3893 -0.1746  0.3022
  851MPD2    H712509   2.404   0.818  15.035  0.7852 -0.8186  0.2894
  852MPD2     C12510   2.790   3.819   9.491  0.2946  1.0666 -0.2931
  852MPD2    C112511   2.807   3.869   9.619 -0.0745  0.4381  0.5407
  852MPD2    C212512   2.703   3.946   9.675 -0.5096  0.3637 -0.6532
  852MPD2    C312513   2.604   3.994   9.600 -0.0035  1.3298  0.5005
  852MPD2    C412514   2.587   3.952   9.471  0.6570  0.2584 -0.2712
  852MPD2    C512515   2.675   3.855   9.422 -0.5930  0.0104 -0.6449
  852MPD2     H12516   2.721   3.990   9.772 -1.2406  0.9451 -0.7892
  852MPD2    H112517   2.507   3.993   9.410  2.6483  1.5966 -1.9910
  852MPD2    H212518   2.855   3.751   9.439 -0.3288 -0.9687  1.5898
  852MPD2    H312519   2.664   3.807   9.325 -0.6656 -3.8418  1.2544
  852MPD2     N12520   2.521   4.086   9.664 -0.1783 -0.4974  0.2219
  852MPD2    H512521   2.560   4.126   9.749 -1.8259 -0.8939  1.1838
  852MPD2    N112522   2.912   3.818   9.696 -0.5839  0.4080 -0.6442
  852MPD2    H712523   2.908   3.838   9.795 -3.4828  1.8196 -1.0516
  853MPD2     C12524   4.107   3.221  12.673 -0.2843  0.1152  0.2467
  853MPD2    C112525   4.051   3.344  12.649  0.4770  0.2885 -0.5608
  853MPD2    C212526   4.034   3.375  12.515  0.7079  0.1887 -0.4745
  853MPD2    C312527   4.061   3.286  12.414  0.7095  0.2038  0.3889
  853MPD2    C412528   4.128   3.170  12.445 -0.4169 -0.0223  0.0419
  853MPD2    C512529   4.141   3.129  12.578  0.5785  0.2838 -0.0053
  853MPD2     H12530   4.004   3.477  12.491 -0.1577 -0.4604 -2.1379
  853MPD2    H112531   4.157   3.106  12.363 -1.1297  2.2935 -1.9861
  853MPD2    H212532   4.119   3.189  12.776 -1.4042  1.1435  0.6885
  853MPD2    H312533   4.195   3.037  12.598  0.5997  0.0240 -1.2693
  853MPD2     N12534   4.049   3.322  12.276 -0.5377 -0.1879  0.6903
  853MPD2    H512535   4.093   3.267  12.203 -1.2409  0.9521 -0.5945
  853MPD2    N112536   4.046   3.442  12.749 -0.0932 -0.0979 -0.3605
  853MPD2    H712537   4.103   3.441  12.834  1.3364 -0.4635 -1.3308
  854MPD2     C12538   0.994   3.393  13.437  0.7306  0.3634  0.9944
  854MPD2    C112539   1.059   3.426  13.325 -0.5110 -0.4603 -0.2443
  854MPD2    C212540   1.193   3.397  13.318  0.1426  0.4529 -0.7362
  854MPD2    C312541   1.262   3.338  13.421 -0.3822  0.5272  0.2499
  854MPD2    C412542   1.196   3.302  13.535 -0.2494 -0.1549  0.2200
  854MPD2    C512543   1.062   3.331  13.541  0.3639 -0.6741 -0.0648
  854MPD2     H12544   1.247   3.431  13.230  4.1534 -1.5031  0.9523
  854MPD2    H112545   1.246   3.249  13.615 -0.8122 -0.7252  0.1914
  854MPD2    H212546   0.890   3.417  13.455  1.2481  1.8625  2.0203
  854MPD2    H312547   1.005   3.314  13.632  3.0920 -3.2922  1.1611
  854MPD2     N12548   1.396   3.302  13.421  0.2350 -0.2634 -0.2877
  854MPD2    H512549   1.435   3.246  13.496  0.9408 -0.0755 -0.5158
  854MPD2    N112550   0.985   3.492  13.225 -0.3864 -0.9781 -0.0124
  854MPD2    H712551   0.890   3.518  13.248 -0.1283  2.1613 -2.5479
  855MPD2     C12552   2.073   3.188  14.091  0.2198  0.4509  0.1787
  855MPD2    C112553   1.941   3.178  14.067 -0.1207 -0.2533 -0.1141
  855MPD2    C212554   1.906   3.211  13.938 -0.0959  0.3391 -0.2153
  855MPD2    C312555   1.992   3.247  13.841 -0.7693 -0.2312 -0.5243
  855MPD2    C412556   2.127   3.255  13.863 -0.6113 -0.6914 -0.7249
  855MPD2    C512557   2.163   3.219  13.989 -0.6028  0.5560  0.2181
  855MPD2     H12558   1.801   3.209  13.911 -0.0850  0.3217 -0.2552
  855MPD2    H112559   2.206   3.286  13.795 -0.3965 -3.0414 -1.5528
  855MPD2    H212560   2.106   3.153  14.188 -0.2530  1.2326  0.6240
  855MPD2    H312561   2.268   3.230  14.016 -0.4987  1.5999 -0.5900
  855MPD2     N12562   1.945   3.264  13.712 -0.1496  0.4058 -0.1961
  855MPD2    H512563   2.013   3.263  13.637  1.8208  0.5232  1.5889
  855MPD2    N112564   1.842   3.127  14.158  0.0297  0.1151 -0.2809
  855MPD2    H712565   1.747   3.112  14.126 -1.4238  1.5942  3.4180
  856MPD2     C12566   3.060   4.131  13.867  0.4874 -0.2020  0.7787
  856MPD2    C112567   3.129   4.173  13.977  0.4253 -0.1460 -0.4395
  856MPD2    C212568   3.125   4.312  14.000 -0.1562 -0.4100 -0.4463
  856MPD2    C312569   3.042   4.397  13.927 -0.0290 -0.0616 -0.4974
  856MPD2    C412570   2.957   4.349  13.836  0.5657  0.3859 -0.7203
  856MPD2    C512571   2.970   4.219  13.803 -0.2655  0.4541  0.2254
  856MPD2     H12572   3.190   4.342  14.081 -0.3017 -1.4182  0.0421
  856MPD2    H112573   2.873   4.404  13.794 -0.3957 -0.1953  0.4379
  856MPD2    H212574   3.068   4.029  13.831  2.9928  0.3562 -0.2057
  856MPD2    H312575   2.902   4.179  13.728  1.5004 -0.9993 -0.5876
  856MPD2     N12576   3.040   4.538  13.952 -0.4963 -0.1885  0.3658
  856MPD2    H512577   2.970   4.589  13.900 -0.7902 -0.0485  0.8927
  856MPD2    N112578   3.223   4.097  14.046  0.8097 -0.0646 -0.1146
  856MPD2    H712579   3.280   4.157  14.105  0.5008 -0.2028  0.3226
  857MPD2     C12580   0.136   1.969  12.793  0.1859 -0.5065  0.6219
  857MPD2    C112581   0.257   1.905  12.794 -0.0259  0.2063  0.1923
  857MPD2    C212582   0.374   1.967  12.737  0.5191  0.3841 -0.1835
  857MPD2    C312583   0.374   2.100  12.700  0.2113  0.5529  0.2765
  857MPD2    C412584   0.250   2.162  12.704  0.9578 -0.2963 -0.0033
  857MPD2    C512585   0.139   2.096  12.755 -0.3584 -0.4175  0.4442
  857MPD2     H12586   0.467   1.911  12.738  0.0529 -0.3795  1.8213
  857MPD2    H112587   0.228   2.262  12.668  0.4408 -0.7097 -0.8457
  857MPD2    H212588   0.053   1.925  12.847  1.0036 -2.6167  0.1677
  857MPD2    H312589   0.048   2.155  12.753 -0.3714 -0.3544  3.3437
  857MPD2     N12590   0.491   2.178  12.662  0.5558  0.6253 -0.2432
  857MPD2    H512591   0.485   2.279  12.676 -2.8008  0.3509  0.0763
  857MPD2    N112592   0.254   1.771  12.844 -0.3781 -0.8877  0.4948
  857MPD2    H712593   0.165   1.726  12.861 -1.2662  1.2107  1.2929
  858MPD2     C12594   0.389   0.567  16.737 -0.3077  0.3566 -0.4540
  858MPD2    C112595   0.520   0.563  16.685 -0.3413 -0.2619 -0.2774
  858MPD2    C212596   0.615   0.636  16.753 -0.3978  0.9146  0.1449
  858MPD2    C312597   0.582   0.722  16.857  0.2713  0.2202  0.2549
  858MPD2    C412598   0.453   0.736  16.898  0.1516  0.3812 -0.2543
  858MPD2    C512599   0.356   0.652  16.839 -0.3934  0.0149 -0.1763
  858MPD2     H12600   0.719   0.647  16.724 -0.9822  4.0834 -0.8139
  858MPD2    H112601   0.418   0.788  16.987 -1.0676  0.3470 -0.7090
  858MPD2    H212602   0.308   0.505  16.698  3.2016 -3.7052 -1.3031
  858MPD2    H312603   0.259   0.638  16.885 -0.8212  0.3506 -0.9805
  858MPD2     N12604   0.668   0.811  16.919 -0.0435  0.3657 -0.5851
  858MPD2    H512605   0.626   0.877  16.983  0.3693 -2.0034  2.1240
  858MPD2    N112606   0.558   0.488  16.576 -0.5874  0.3267  0.4516
  858MPD2    H712607   0.495   0.416  16.541 -0.4844  0.9727 -1.0664
  859MPD2     C12608   4.081   2.708  15.930  0.1953 -0.4017  0.3297
  859MPD2    C112609   4.208   2.660  15.892 -0.1030 -0.5781  0.4069
  859MPD2    C212610   4.277   2.580  15.973  0.1995  0.0538  0.4461
  859MPD2    C312611   4.221   2.521  16.084 -0.3266 -0.6583 -0.6963
  859MPD2    C412612   4.091   2.562  16.122  0.1902  0.1394  0.4208
  859MPD2    C512613   4.020   2.654  16.043 -0.4515 -0.5590  0.1429
  859MPD2     H12614   4.370   2.539  15.935 -0.5585 -1.2860  0.0157
  859MPD2    H112615   4.035   2.523  16.206  0.0986 -0.0626  0.2692
  859MPD2    H212616   4.027   2.782  15.872  1.1398  1.3044  1.6416
  859MPD2    H312617   3.918   2.674  16.072 -0.0298  0.2341  1.0746
  859MPD2     N12618   4.290   2.422  16.157  0.1633 -0.1691  0.7209
  859MPD2    H512619   4.236   2.366  16.222 -1.9213  2.6170  1.3601
  859MPD2    N112620   4.273   2.694  15.777 -0.4019  0.3784 -0.1926
  859MPD2    H712621   4.360   2.644  15.760 -0.0481  1.3840 -1.3678
  860MPD2     C12622   2.011   3.282  11.576  0.7992 -0.0870  0.3053
  860MPD2    C112623   2.001   3.393  11.658 -0.3608  0.0180 -0.2535
  860MPD2    C212624   1.960   3.374  11.789 -0.1909  0.9408 -0.8248
  860MPD2    C312625   1.924   3.244  11.842 -0.3750  0.7924 -0.4408
  860MPD2    C412626   1.944   3.132  11.755 -0.3183 -0.2683  0.1477
  860MPD2    C512627   1.987   3.159  11.626  0.5831 -0.0020 -0.3384
  860MPD2     H12628   1.957   3.458  11.857 -0.9912 -0.3290  0.6983
  860MPD2    H112629   1.926   3.028  11.779  0.2865 -0.2988  0.4631
  860MPD2    H212630   2.042   3.283  11.472 -1.5144 -1.6681 -0.3975
  860MPD2    H312631   1.998   3.072  11.562  0.8863 -0.3525  0.1831
  860MPD2     N12632   1.901   3.242  11.984 -0.0719  0.1728 -0.0400
  860MPD2    H512633   1.895   3.328  12.038  1.0567  0.5301 -0.4840
  860MPD2    N112634   2.029   3.520  11.606 -0.1682 -0.1099  0.9812
  860MPD2    H712635   2.027   3.600  11.669 -3.2769  1.7229 -1.4076
  861MPD2     C12636   0.838   1.553  11.430 -0.0050 -0.3292 -0.0526
  861MPD2    C112637   0.770   1.663  11.476 -0.3670  0.4005  0.3973
  861MPD2    C212638   0.692   1.723  11.381  0.2294  0.8635  0.1053
  861MPD2    C312639   0.679   1.682  11.251  0.4714  0.8072  0.3115
  861MPD2    C412640   0.735   1.568  11.209 -0.5154 -0.2994  0.0888
  861MPD2    C512641   0.820   1.503  11.301 -1.0415  0.3995 -0.6526
  861MPD2     H12642   0.645   1.814  11.417 -0.0598  0.5561  0.5005
  861MPD2    H112643   0.725   1.538  11.105  0.3929 -0.7569  0.1289
  861MPD2    H212644   0.890   1.482  11.494  0.2886  0.0963  0.1815
  861MPD2    H312645   0.892   1.428  11.268  0.2635  1.9240 -1.2894
  861MPD2     N12646   0.612   1.759  11.150 -0.2226 -0.0127  0.2190
  861MPD2    H512647   0.591   1.712  11.063 -0.1948 -1.9071  1.2294
  861MPD2    N112648   0.773   1.713  11.609  0.4219 -0.2926  0.4421
  861MPD2    H712649   0.699   1.773  11.644  0.9551  0.3329  0.4976
  862MPD2     C12650   0.302   1.665  10.504 -0.1105 -0.5515  0.9022
  862MPD2    C112651   0.356   1.639  10.629 -0.3201 -0.1117 -0.4752
  862MPD2    C212652   0.405   1.513  10.662  0.2670 -0.5307  0.8015
  862MPD2    C312653   0.380   1.407  10.579  0.2446 -0.8818  0.2128
  862MPD2    C412654   0.302   1.422  10.461  0.2658  0.0490 -0.7905
  862MPD2    C512655   0.287   1.555  10.419 -0.0439  0.4393  0.1018
  862MPD2     H12656   0.460   1.505  10.755  0.8275 -1.1896  0.4084
  862MPD2    H112657   0.297   1.348  10.381  4.2015 -1.4250  0.3424
  862MPD2    H212658   0.291   1.764  10.461  0.2164  0.2047  2.5790
  862MPD2    H312659   0.258   1.586  10.320  0.7447  0.1188 -0.2311
  862MPD2     N12660   0.436   1.280  10.609  0.2106  0.4608 -0.0372
  862MPD2    H512661   0.435   1.209  10.536 -1.6444  1.6702 -1.1913
  862MPD2    N112662   0.387   1.737  10.723 -0.5253  0.3636  0.3363
  862MPD2    H712663   0.443   1.701  10.800 -1.6898 -1.9430  0.1068
  863MPD2     C12664   4.227   4.186  17.071 -0.5200 -0.4458  0.7145
  863MPD2    C112665   4.123   4.277  17.082  0.0377  0.3048 -0.4612
  863MPD2    C212666   4.102   4.352  17.198  0.1366  0.2175 -0.2023
  863MPD2    C312667   4.203   4.356  17.295  0.8795 -0.6174  0.2313
  863MPD2    C412668   4.321   4.281  17.283 -0.4327 -0.2645  0.0678
  863MPD2    C512669   4.325   4.196  17.168  0.6840  0.9631 -0.2581
  863MPD2     H12670   4.011   4.408  17.214 -0.5664 -0.9484 -0.1993
  863MPD2    H112671   4.410   4.288  17.344 -1.2303 -0.6712  1.2757
  863MPD2    H212672   4.236   4.115  16.989 -1.9972 -0.7476  0.8215
  863MPD2    H312673   4.413   4.132  17.170 -0.0714 -0.0743 -0.3290
  863MPD2     N12674   4.201   4.436  17.409 -0.1335 -0.4565 -0.2380
  863MPD2    H512675   4.285   4.436  17.466 -0.1902 -0.2183 -0.1532
  863MPD2    N112676   4.032   4.266  16.975  0.4820  0.4451  0.0571
  863MPD2    H712677   4.061   4.200  16.903  1.3941 -0.7290  1.4986
  864MPD2     C12678   0.207   1.108  17.339  0.2038 -0.0584 -0.2352
  864MPD2    C112679   0.211   1.016  17.242  0.6879 -0.2127 -0.0889
  864MPD2    C212680   0.287   1.054  17.131 -0.0743  0.0444  0.5616
  864MPD2    C312681   0.353   1.175  17.120 -0.3381  0.5051 -0.2878
  864MPD2    C412682   0.342   1.262  17.224  0.1714  0.6231 -0.0017
  864MPD2    C512683   0.268   1.233  17.336  0.3619  0.2517 -0.3449
  864MPD2     H12684   0.292   0.988  17.045  1.6326  2.5478 -1.2432
  864MPD2    H112685   0.397   1.355  17.228  1.3839 -0.1175  0.7390
  864MPD2    H212686   0.157   1.075  17.429  1.2973  0.5782  0.6017
  864MPD2    H312687   0.258   1.298  17.422 -1.2288 -0.0771 -0.2766
  864MPD2     N12688   0.424   1.220  17.013 -0.0161  0.2660  0.2194
  864MPD2    H512689   0.451   1.317  17.006 -0.6327  0.4482  0.3885
  864MPD2    N112690   0.126   0.898  17.252 -0.5468  0.5935 -0.1648
  864MPD2    H712691   0.062   0.893  17.331  1.3368  2.1785  1.4465
  865MPD2     C12692   0.029   1.348  16.147 -0.3450 -0.1432  0.4770
  865MPD2    C112693   0.057   1.252  16.247  0.5987 -0.4936  0.3581
  865MPD2    C212694   0.139   1.283  16.354  0.0531  0.5570  0.0092
  865MPD2    C312695   0.193   1.409  16.359 -0.2058  0.0543 -0.4761
  865MPD2    C412696   0.169   1.506  16.269  0.3229  0.4419  0.7106
  865MPD2    C512697   0.081   1.472  16.161  0.0365 -0.6455  0.2004
  865MPD2     H12698   0.163   1.210  16.431  3.0835  1.7597  0.1891
  865MPD2    H112699   0.205   1.607  16.284 -1.6534  1.3379 -0.6938
  865MPD2    H212700   4.686   1.326  16.066 -0.2948  0.6878  0.2123
  865MPD2    H312701   0.056   1.555  16.095  0.2025 -0.9307 -0.2217
  865MPD2     N12702   0.286   1.439  16.459  0.3531  0.4242 -0.2534
  865MPD2    H512703   0.335   1.527  16.447 -0.7441  1.2752  1.6067
  865MPD2    N112704   0.011   1.117  16.216 -0.7298 -0.3604  0.1880
  865MPD2    H712705   4.700   1.104  16.122 -0.1369  2.6024 -0.4281
  866MPD2     C12706   1.372   1.938  11.930 -0.4283  0.1908  0.3992
  866MPD2    C112707   1.419   2.034  11.844 -0.0878  0.1049 -0.3006
  866MPD2    C212708   1.333   2.100  11.762 -0.1313 -0.2154  0.5579
  866MPD2    C312709   1.197   2.071  11.765 -0.0978  0.1046 -0.5236
  866MPD2    C412710   1.150   1.984  11.860  0.0284  0.6661  0.2104
  866MPD2    C512711   1.238   1.919  11.946  0.2156  0.2968 -0.6018
  866MPD2     H12712   1.366   2.184  11.701 -1.4435 -0.4113 -0.4233
  866MPD2    H112713   1.043   1.968  11.867 -0.0394  1.1913  0.3806
  866MPD2    H212714   1.445   1.896  11.998 -0.9528  0.7886  1.3319
  866MPD2    H312715   1.204   1.857  12.028 -1.6484  0.1226 -1.4851
  866MPD2     N12716   1.109   2.135  11.679 -0.0301 -0.6208  0.4965
  866MPD2    H512717   1.011   2.115  11.690 -0.1905  0.4838  1.1350
  866MPD2    N112718   1.561   2.051  11.837  0.0934  0.3651 -1.1318
  866MPD2    H712719   1.622   1.997  11.897 -0.9700 -2.0890 -2.2167
  867MPD2     C12720   3.409   1.291  16.223 -0.3700 -0.4561  0.5201
  867MPD2    C112721   3.475   1.281  16.345 -0.1298  0.0126 -0.4967
  867MPD2    C212722   3.499   1.396  16.421 -0.3316 -0.4729 -0.1299
  867MPD2    C312723   3.440   1.514  16.383 -0.5317 -1.0705  0.0107
  867MPD2    C412724   3.369   1.521  16.264  0.6834 -0.1193  0.2297
  867MPD2    C512725   3.364   1.408  16.181 -0.7653 -0.6042  0.2599
  867MPD2     H12726   3.538   1.390  16.522 -0.3162  0.6242 -0.0733
  867MPD2    H112727   3.324   1.613  16.227 -0.8745 -0.1660  2.0638
  867MPD2    H212728   3.392   1.203  16.162 -1.1578 -0.5519  0.8768
  867MPD2    H312729   3.323   1.422  16.081 -2.7104 -3.7508  0.6538
  867MPD2     N12730   3.451   1.638  16.451 -0.1821  0.7415 -0.1817
  867MPD2    H512731   3.395   1.717  16.422  0.3833  1.5057  0.8224
  867MPD2    N112732   3.524   1.147  16.376 -0.0557 -0.0625  0.3171
  867MPD2    H712733   3.513   1.079  16.301  0.3747  2.0793 -1.6835
  868MPD2     C12734   0.540   4.406  13.016 -0.6902 -1.0003 -0.2610
  868MPD2    C112735   0.599   4.362  13.126 -0.0448 -0.2779 -0.4604
  868MPD2    C212736   0.520   4.337  13.241  0.5790 -0.2311 -0.6288
  868MPD2    C312737   0.386   4.360  13.236 -1.2661 -0.0352 -0.9747
  868MPD2    C412738   0.331   4.401  13.121 -0.0937  0.4060  0.4154
  868MPD2    C512739   0.406   4.423  13.013 -0.3455 -0.1556 -0.5781
  868MPD2     H12740   0.564   4.306  13.335 -0.9275  1.7217  0.7244
  868MPD2    H112741   0.225   4.420  13.116 -0.3851 -1.2837  0.1334
  868MPD2    H212742   0.607   4.422  12.933 -0.4405 -1.5624 -0.1674
  868MPD2    H312743   0.360   4.460  12.922  0.0312 -1.5515 -1.3336
  868MPD2     N12744   0.308   4.333  13.348 -0.2721  0.4520 -0.1129
  868MPD2    H512745   0.351   4.308  13.436  0.6954 -2.4945 -1.4269
  868MPD2    N112746   0.740   4.332  13.112 -0.1057 -0.2263 -0.1771
  868MPD2    H712747   0.782   4.355  13.023 -0.8226 -1.7510 -0.9063
  869MPD2     C12748   1.298   3.001   1.704 -0.4610 -0.3636  0.4895
  869MPD2    C112749   1.312   2.989   1.570  0.4659 -0.2835  0.0635
  869MPD2    C212750   1.440   2.960   1.526 -0.3463  0.2628  0.6589
  869MPD2    C312751   1.554   2.956   1.605 -0.2729 -0.5969 -0.1959
  869MPD2    C412752   1.533   2.978   1.739  0.3319 -0.3607  0.1207
  869MPD2    C512753   1.407   2.989   1.793  0.6875 -0.2218 -0.2013
  869MPD2     H12754   1.447   2.958   1.418 -0.1217 -2.2076  0.7065
  869MPD2    H112755   1.615   2.974   1.809 -1.2389 -0.0477  1.9668
  869MPD2    H212756   1.202   3.034   1.741 -0.2270  0.0379  0.7340
  869MPD2    H312757   1.388   3.005   1.899 -0.3294  0.0393 -0.4274
  869MPD2     N12758   1.691   2.967   1.563 -0.5855 -0.4812 -0.1464
  869MPD2    H512759   1.761   2.975   1.637 -2.8131 -1.2419  2.0497
  869MPD2    N112760   1.204   3.034   1.486 -0.1383  0.6704  0.1568
  869MPD2    H712761   1.126   3.066   1.543 -0.2684 -0.9967  0.9265
  870MPD2     C12762   1.094   1.767   1.132 -0.1881 -0.2145  0.3455
  870MPD2    C112763   1.120   1.893   1.171 -0.0850  0.3079  0.2797
  870MPD2    C212764   1.197   1.976   1.086  1.1406  0.2333 -1.1001
  870MPD2    C312765   1.263   1.929   0.972  1.0274 -0.2977 -0.5118
  870MPD2    C412766   1.230   1.800   0.933 -0.2322  0.3854  0.2818
  870MPD2    C512767   1.145   1.727   1.014  0.2648 -0.0859 -0.2209
  870MPD2     H12768   1.228   2.070   1.130 -1.2052  0.1012  0.8312
  870MPD2    H112769   1.267   1.761   0.839 -1.7106 -1.1936  0.3544
  870MPD2    H212770   1.044   1.696   1.197  0.4515 -1.0586 -0.0813
  870MPD2    H312771   1.121   1.626   0.984  1.0120 -0.4597  0.4542
  870MPD2     N12772   1.342   2.006   0.889  0.9911 -0.6503  0.3531
  870MPD2    H512773   1.351   2.100   0.927  1.9536 -0.2752 -0.8179
  870MPD2    N112774   1.065   1.941   1.293 -0.5878  0.4331 -0.1677
  870MPD2    H712775   1.030   1.867   1.354 -0.7512  0.5868 -0.0753
  871MPD2     C12776   2.107   0.950  16.127  0.1414 -0.0158 -0.0964
  871MPD2    C112777   2.034   0.872  16.038 -0.2211  0.5372 -0.0311
  871MPD2    C212778   2.108   0.805  15.944 -0.5765 -0.2928 -0.3711
  871MPD2    C312779   2.245   0.808  15.942 -0.0492  0.2678 -0.5624
  871MPD2    C412780   2.308   0.889  16.033 -0.1722 -0.5770 -0.0090
  871MPD2    C512781   2.239   0.955  16.132 -0.0949 -0.0461 -0.4624
  871MPD2     H12782   2.062   0.737  15.872  0.9191  1.3602 -2.9011
  871MPD2    H112783   2.416   0.898  16.035 -0.2697  0.9218 -0.8083
  871MPD2    H212784   2.061   0.996  16.214 -0.4234 -1.9700  0.6378
  871MPD2    H312785   2.294   1.020  16.201 -1.8525 -0.0814  0.9809
  871MPD2     N12786   2.317   0.725  15.849 -0.1971 -0.7312  0.0569
  871MPD2    H512787   2.267   0.662  15.786 -1.6203 -1.1157  1.5729
  871MPD2    N112788   1.894   0.865  16.037 -0.8006 -0.4302  0.0545
  871MPD2    H712789   1.846   0.841  15.951  0.1198  0.4288 -0.7010
  872MPD2     C12790   3.129   3.323  14.517  0.2754  0.0602  0.1897
  872MPD2    C112791   3.077   3.333  14.390  0.2344 -0.3437 -0.3755
  872MPD2    C212792   2.936   3.301  14.379  0.3247 -0.4559  0.0124
  872MPD2    C312793   2.861   3.250  14.481  0.0848 -0.2146  0.1780
  872MPD2    C412794   2.927   3.239  14.603  0.8158  0.3345  0.3397
  872MPD2    C512795   3.056   3.274  14.620 -0.0682  0.4033  0.3127
  872MPD2     H12796   2.879   3.310  14.287  0.9240  0.5068 -0.2683
  872MPD2    H112797   2.886   3.201  14.696 -1.8285  1.8502 -0.2063
  872MPD2    H212798   3.231   3.352  14.537  1.3426 -1.8241 -2.5240
  872MPD2    H312799   3.117   3.262  14.708 -1.8291 -0.0690  1.4687
  872MPD2     N12800   2.728   3.213  14.474 -0.1083 -0.0589  0.0764
  872MPD2    H512801   2.698   3.171  14.562  1.4207 -1.2667  0.0236
  872MPD2    N112802   3.156   3.359  14.276  0.1904 -0.2544  0.8173
  872MPD2    H712803   3.111   3.332  14.189  1.2710  1.5411 -0.3010
  873MPD2     C12804   0.676   3.260   1.314 -0.2471 -0.2614 -0.2032
  873MPD2    C112805   0.602   3.334   1.226  0.2107 -0.0861 -0.2901
  873MPD2    C212806   0.631   3.332   1.089  0.0674  0.0401 -0.6076
  873MPD2    C312807   0.715   3.241   1.035  0.3868  0.3556  0.1582
  873MPD2    C412808   0.759   3.146   1.118 -0.5384 -0.2157  0.1863
  873MPD2    C512809   0.745   3.161   1.257  0.3382  0.1254 -0.0153
  873MPD2     H12810   0.581   3.396   1.018 -0.3414  1.9460  1.3863
  873MPD2    H112811   0.832   3.072   1.087 -0.3259 -0.0076  0.1922
  873MPD2    H212812   0.677   3.276   1.421  1.5489 -0.9664 -0.1080
  873MPD2    H312813   0.790   3.085   1.320 -0.3805 -1.4155 -1.3688
  873MPD2     N12814   0.762   3.235   0.902  0.2139  0.1432  0.2637
  873MPD2    H512815   0.812   3.151   0.874  0.8159  0.3745  0.6494
  873MPD2    N112816   0.509   3.432   1.272  0.4060 -0.2513  0.4716
  873MPD2    H712817   0.509   3.441   1.374  0.3605 -0.7614  0.5174
  874MPD2     C12818   4.509   3.602  15.828 -0.4508 -0.0847 -0.5584
  874MPD2    C112819   4.558   3.563  15.952  0.3623  0.1630 -0.0726
  874MPD2    C212820   4.695   3.568  15.971  0.8016  0.3769 -0.1857
  874MPD2    C312821   0.062   3.628  15.884 -0.1974 -0.4216  0.8331
  874MPD2    C412822   0.009   3.682  15.765  0.5553  0.3463 -0.8341
  874MPD2    C512823   4.602   3.660  15.737 -0.2903 -0.7777  0.0462
  874MPD2     H12824   0.021   3.530  16.059  1.3184  0.7250 -0.3331
  874MPD2    H112825   0.066   3.748  15.699 -0.9623  0.6643 -1.8292
  874MPD2    H212826   4.406   3.589  15.798 -0.9917  2.3555  0.1603
  874MPD2    H312827   4.565   3.691  15.640  1.1511 -1.5396 -0.7488
  874MPD2     N12828   0.196   3.620  15.934 -0.1400  0.5897  0.1451
  874MPD2    H512829   0.212   3.546  16.001  1.0785 -1.8519 -2.8347
  874MPD2    N112830   4.458   3.520  16.051  1.0129 -0.1323 -0.4239
  874MPD2    H712831   4.362   3.519  16.018  0.4578 -0.3846  1.1872
  875MPD2     C12832   1.045   1.746  14.279 -0.2335 -0.6855  0.1118
  875MPD2    C112833   0.910   1.783  14.266  0.3457  0.0720 -0.0094
  875MPD2    C212834   0.839   1.813  14.385  0.2767 -0.2327  0.0968
  875MPD2    C312835   0.907   1.798  14.516 -0.3794 -0.1181  0.1538
  875MPD2    C412836   1.034   1.749  14.520 -0.6967  0.7087 -0.2453
  875MPD2    C512837   1.105   1.747  14.405 -0.0799 -0.1954 -0.4652
  875MPD2     H12838   0.734   1.837  14.367  0.6652  0.7996 -0.7516
  875MPD2    H112839   1.082   1.745  14.617  2.1685  0.4438 -1.6585
  875MPD2    H212840   1.115   1.724  14.199  0.4379  1.8348  0.0024
  875MPD2    H312841   1.211   1.726  14.408  0.1435  1.0958  0.7356
  875MPD2     N12842   0.846   1.817  14.637  0.3477  0.5013  0.3174
  875MPD2    H512843   0.908   1.797  14.714 -0.0137  1.2298  0.7942
  875MPD2    N112844   0.848   1.796  14.139  0.1846  0.4670 -0.5123
  875MPD2    H712845   0.748   1.808  14.152  0.1589 -0.9718  0.6493
  876MPD2     C12846   4.360   2.942  16.122 -0.3389  0.5034  0.3525
  876MPD2    C112847   4.497   2.966  16.124  0.2022 -0.5745  0.5418
  876MPD2    C212848   4.584   2.891  16.198  0.1285  0.1781  0.0243
  876MPD2    C312849   4.532   2.805  16.293 -0.5121  0.4119  0.8473
  876MPD2    C412850   4.391   2.785  16.298  0.0768 -0.6011 -0.5004
  876MPD2    C512851   4.310   2.851  16.210 -0.7710  0.3885  0.3327
  876MPD2     H12852   4.687   2.923  16.208 -0.6181  3.1305 -1.6465
  876MPD2    H112853   4.347   2.714  16.367  0.1655  1.4189  1.6378
  876MPD2    H212854   4.291   2.980  16.048  1.0623  4.5408  1.0948
  876MPD2    H312855   4.203   2.831  16.207 -0.3590 -1.8266 -0.0282
  876MPD2     N12856   4.621   2.735  16.377  0.3309  0.0994 -0.2167
  876MPD2    H512857   4.719   2.748  16.357  0.0208  4.2473  1.1455
  876MPD2    N112858   4.558   3.066  16.044 -0.1642  0.1766  0.4522
  876MPD2    H712859   4.659   3.067  16.033  0.0185 -1.3150  2.0085
  877MPD2     C12860   4.520   3.227  15.223 -0.0789  0.2828 -0.2629
  877MPD2    C112861   4.625   3.302  15.281  0.3401 -0.2717 -0.1297
  877MPD2    C212862   4.721   3.352  15.194  0.5384  0.0166 -0.0364
  877MPD2    C312863   4.710   3.324  15.059 -0.2504 -0.1774  0.7442
  877MPD2    C412864   4.601   3.259  15.000 -0.5613  0.1224 -0.6624
  877MPD2    C512865   4.510   3.206  15.087 -0.0108  0.4159  0.3221
  877MPD2     H12866   0.086   3.397  15.233 -0.0196 -0.3139  1.6307
  877MPD2    H112867   4.578   3.254  14.894  0.2030 -0.8015 -0.7754
  877MPD2    H212868   4.439   3.182  15.279 -1.1900  1.1376 -1.1768
  877MPD2    H312869   4.429   3.146  15.048  1.1631 -0.1908 -1.1907
  877MPD2     N12870   0.080   3.369  14.963 -0.3647 -0.0166  0.2376
  877MPD2    H512871   0.036   3.388  14.874  1.2795  3.2609  0.1565
  877MPD2    N112872   4.636   3.333  15.422 -0.0214  0.5064 -0.6725
  877MPD2    H712873   4.715   3.392  15.443 -0.4987  0.9900 -0.2475
  878MPD2     C12874   0.345   2.951  12.834 -0.5756 -0.4604  0.4644
  878MPD2    C112875   0.279   3.032  12.928 -0.2333 -0.3104  0.2306
  878MPD2    C212876   0.310   3.006  13.061  0.4571  0.7482  0.9132
  878MPD2    C312877   0.399   2.912  13.097 -0.2197  0.3801 -0.0531
  878MPD2    C412878   0.459   2.826  13.013 -0.5316 -0.2013  0.0408
  878MPD2    C512879   0.433   2.853  12.882 -0.7539  0.0118 -0.2261
  878MPD2     H12880   0.251   3.063  13.133 -0.7436  0.3487  0.2294
  878MPD2    H112881   0.523   2.740  13.035 -0.4294  0.1218  0.9940
  878MPD2    H212882   0.319   2.962  12.729  0.1911 -3.2333 -0.0041
  878MPD2    H312883   0.483   2.786  12.813 -2.5798 -0.1412 -1.4165
  878MPD2     N12884   0.422   2.901  13.240 -0.3019  0.2471 -0.4104
  878MPD2    H512885   0.361   2.952  13.304  1.6085  2.9539 -0.7458
  878MPD2    N112886   0.171   3.116  12.877 -0.7482 -0.2790 -0.6446
  878MPD2    H712887   0.162   3.113  12.776 -1.2131 -0.3756 -0.6020
  879MPD2     C12888   0.477   0.016  17.323  0.1930 -0.3847  0.3949
  879MPD2    C112889   0.354   4.699  17.371 -0.5615 -0.0208 -0.0970
  879MPD2    C212890   0.285   4.597  17.305 -0.2081  0.7122  0.2632
  879MPD2    C312891   0.324   4.540  17.186 -0.9299 -0.1447  0.4131
  879MPD2    C412892   0.454   4.582  17.145 -0.5547  0.6746  0.0475
  879MPD2    C512893   0.520   4.686  17.208  0.3197 -0.1444 -0.5252
  879MPD2     H12894   0.190   4.566  17.346 -0.4448  1.0764 -0.0023
  879MPD2    H112895   0.498   4.538  17.056  2.3889  1.1062  1.2904
  879MPD2    H212896   0.532   0.091  17.379 -1.0456  0.1810  0.8454
  879MPD2    H312897   0.620   4.706  17.170  1.4867 -1.6325  1.7363
  879MPD2     N12898   0.251   4.433  17.114  0.2535  0.5030 -0.5311
  879MPD2    H512899   0.297   4.381  17.041 -0.3800  1.0309 -1.3039
  879MPD2    N112900   0.311   0.024  17.498 -0.0490 -0.0939  0.1069
  879MPD2    H712901   0.378   0.090  17.534 -0.0224 -0.2319  0.3087
  880MPD2     C12902   2.055   1.086   0.409 -0.7431  0.4510  0.3948
  880MPD2    C112903   2.039   1.082   0.278 -0.0234  0.1866  0.1046
  880MPD2    C212904   2.034   0.954   0.222 -0.2374  0.1517  0.0155
  880MPD2    C312905   2.024   0.836   0.288 -0.7673 -0.0775  0.5959
  880MPD2    C412906   2.042   0.845   0.422 -0.1567 -0.9064  0.2380
  880MPD2    C512907   2.045   0.969   0.482  0.1920  0.1911  0.3606
  880MPD2     H12908   2.033   0.960   0.114 -1.6911  0.2987  0.0463
  880MPD2    H112909   2.052   0.755   0.482  0.0955 -0.1631  1.2976
  880MPD2    H212910   2.061   1.184   0.456  1.0882 -0.7541  2.6518
  880MPD2    H312911   2.053   0.971   0.590 -0.5957 -2.0963  0.4708
  880MPD2     N12912   2.015   0.709   0.221 -0.9579 -0.2858  0.2140
  880MPD2    H512913   1.998   0.713   0.121  1.2917 -0.2486 -0.1676
  880MPD2    N112914   2.035   1.205   0.209 -0.3755 -0.3992  0.0675
  880MPD2    H712915   2.030   1.290   0.264  1.6495 -0.7111  0.7615
  881MPD2     C12916   1.566   1.324  17.031  0.1771 -0.0709  0.4957
  881MPD2    C112917   1.642   1.440  17.040 -0.4470  0.3659  0.0872
  881MPD2    C212918   1.692   1.470  17.169  0.2279  0.3824 -0.2731
  881MPD2    C312919   1.702   1.370  17.266 -0.0680 -0.2507 -0.2266
  881MPD2    C412920   1.633   1.255  17.248 -0.2724 -0.2034  0.1456
  881MPD2    C512921   1.563   1.240  17.136  0.4560 -0.4546  0.4990
  881MPD2     H12922   1.749   1.562  17.179  0.8183 -0.0157 -0.0115
  881MPD2    H112923   1.639   1.175  17.322  0.2384  1.0107  1.4133
  881MPD2    H212924   1.496   1.311  16.950  0.3176 -0.2154  0.3959
  881MPD2    H312925   1.501   1.151  17.133 -1.9800  1.3572 -2.4098
  881MPD2     N12926   1.780   1.371  17.387 -0.7379  0.4858 -0.0324
  881MPD2    H512927   1.772   1.296  17.453  0.2016 -0.0986 -0.5750
  881MPD2    N112928   1.611   1.542  16.948  0.4518 -0.0645  0.2591
  881MPD2    H712929   1.560   1.518  16.863 -0.8747  0.9980  0.7524
  882MPD2     C12930   4.723   3.173  14.295  0.1987 -0.3280  0.6371
  882MPD2    C112931   4.702   3.238  14.418 -0.3599 -0.4406 -0.6713
  882MPD2    C212932   4.574   3.248  14.465 -0.5272 -0.0398 -0.4381
  882MPD2    C312933   4.463   3.200  14.394 -0.6015  0.6190  0.4658
  882MPD2    C412934   4.487   3.140  14.273  0.4529 -0.3040 -0.3220
  882MPD2    C512935   4.611   3.135  14.223  0.2269  0.2244 -0.1738
  882MPD2     H12936   4.561   3.295  14.562  0.5580  0.3279 -0.4698
  882MPD2    H112937   4.407   3.101  14.211  1.0454 -2.1048  0.0324
  882MPD2    H212938   0.094   3.159  14.247  0.0128  1.6233 -0.3044
  882MPD2    H312939   4.634   3.089  14.127  1.2498 -0.2376  0.2861
  882MPD2     N12940   4.330   3.206  14.438  0.2541  0.0300 -0.0928
  882MPD2    H512941   4.266   3.175  14.366 -0.4376  1.0355  0.0917
  882MPD2    N112942   0.096   3.298  14.485 -0.1513 -0.3420  0.4502
  882MPD2    H712943   0.186   3.281  14.442  0.6414  0.8511  1.6823
  883MPD2     C12944   1.745   3.886  16.692  0.6498  0.3602  0.7293
  883MPD2    C112945   1.839   3.980  16.656 -0.5042 -0.0764 -0.4286
  883MPD2    C212946   1.928   4.016  16.749 -0.3017 -0.0631  0.3109
  883MPD2    C312947   1.931   3.960  16.874  0.4304 -0.2652 -0.4766
  883MPD2    C412948   1.845   3.861  16.918 -0.0638  0.2621 -0.0420
  883MPD2    C512949   1.752   3.828  16.821 -0.8059  0.0169  0.1769
  883MPD2     H12950   2.015   4.077  16.724 -0.2578  0.5935  2.0582
  883MPD2    H112951   1.847   3.808  17.013  0.1891 -0.6685 -0.5747
  883MPD2    H212952   1.672   3.844  16.624 -0.3976  0.2775  1.9117
  883MPD2    H312953   1.671   3.759  16.841 -1.4263  0.9733  0.9764
  883MPD2     N12954   2.046   3.996  16.945 -0.5667  0.6584 -0.0663
  883MPD2    H512955   2.107   4.064  16.902 -0.2819  1.1867  1.1875
  883MPD2    N112956   1.855   4.030  16.523  0.3301  0.2391 -0.0448
  883MPD2    H712957   1.912   4.112  16.506 -0.3712  0.6641 -0.3665
  884MPD2     C12958   3.714   3.746  15.462  0.3463 -0.0304 -0.3179
  884MPD2    C112959   3.728   3.866  15.402  0.6078  0.0343 -0.2360
  884MPD2    C212960   3.616   3.948  15.386 -0.2455  1.3516  0.0522
  884MPD2    C312961   3.493   3.909  15.424  0.2660 -0.3698  0.5421
  884MPD2    C412962   3.480   3.782  15.491 -0.7597  0.4672 -1.0100
  884MPD2    C512963   3.595   3.712  15.515 -0.5449 -0.3409 -0.3626
  884MPD2     H12964   3.631   4.038  15.327 -0.8776  0.6581 -1.1704
  884MPD2    H112965   3.388   3.739  15.529 -0.6888  0.3865 -0.9302
  884MPD2    H212966   3.797   3.680  15.484  2.8628  2.7812 -1.3221
  884MPD2    H312967   3.585   3.621  15.572 -2.2193 -1.0169 -1.7606
  884MPD2     N12968   3.381   3.983  15.413  0.3907  0.0371 -0.8386
  884MPD2    H512969   3.291   3.954  15.450  1.1473 -1.8972 -0.4819
  884MPD2    N112970   3.848   3.933  15.353  0.7788 -0.1720 -0.0571
  884MPD2    H712971   3.840   4.032  15.333 -0.3626 -0.3130 -0.3155
  885MPD2     C12972   1.450   4.160   0.209 -0.0866  0.1917 -0.4853
  885MPD2    C112973   1.563   4.237   0.213 -0.1450  0.2351  0.5574
  885MPD2    C212974   1.583   4.326   0.108 -0.1195 -0.4612 -0.3910
  885MPD2    C312975   1.497   4.324  17.697 -0.2706  0.1708 -0.1261
  885MPD2    C412976   1.385   4.244  17.699 -0.0605 -0.5145 -0.1399
  885MPD2    C512977   1.356   4.169   0.109 -0.0035 -0.2316 -0.3837
  885MPD2     H12978   1.668   4.393   0.107  1.2938 -2.2419  0.8321
  885MPD2    H112979   1.306   4.251  17.625  0.8669 -0.4318 -1.1229
  885MPD2    H212980   1.423   4.087   0.285 -3.4729  0.9247 -0.9710
  885MPD2    H312981   1.266   4.113   0.131 -1.1107  1.7693  0.1813
  885MPD2     N12982   1.530   4.409  17.591 -0.3558 -0.1056  0.5350
  885MPD2    H512983   1.603   4.475  17.613  0.3555 -0.3364 -1.1663
  885MPD2    N112984   1.657   4.211   0.312  0.2069  0.0275 -0.2035
  885MPD2    H712985   1.637   4.128   0.366  0.2134 -1.7123 -2.8695
  886MPD2     C12986   3.077   2.771  15.594 -0.4746 -0.0195 -0.3311
  886MPD2    C112987   3.172   2.719  15.513  0.2155  0.0141 -0.1881
  886MPD2    C212988   3.237   2.793  15.408  0.2759  0.3589  0.0253
  886MPD2    C312989   3.209   2.925  15.392 -0.4513  0.0741  0.4840
  886MPD2    C412990   3.121   2.984  15.484 -0.1706  0.0900 -0.2138
  886MPD2    C512991   3.062   2.908  15.581  0.2487 -0.9900 -0.2852
  886MPD2     H12992   3.320   2.744  15.358  1.4659  1.2578  1.1313
  886MPD2    H112993   3.095   3.089  15.479 -1.4348 -0.1920  0.4104
  886MPD2    H212994   3.033   2.724  15.680  2.9714  0.1767  1.5404
  886MPD2    H312995   2.999   2.961  15.650 -1.2189 -2.6174 -0.3595
  886MPD2     N12996   3.290   3.002  15.302  0.7743  0.1284  0.2474
  886MPD2    H512997   3.364   2.956  15.249  0.3386 -1.3666  0.9279
  886MPD2    N112998   3.216   2.588  15.527 -0.3994  0.4345  0.3712
  886MPD2    H712999   3.292   2.559  15.466 -0.1154  0.5302  0.6800
  887MPD2     C13000   3.785   2.497  15.261 -0.1103 -0.0211 -0.9686
  887MPD2    C113001   3.659   2.517  15.302 -0.1617  1.0802 -0.1212
  887MPD2    C213002   3.628   2.642  15.356  0.4174 -0.1529 -0.2685
  887MPD2    C313003   3.726   2.747  15.362 -0.2444  0.4036 -0.8648
  887MPD2    C413004   3.847   2.719  15.302  1.1105  0.2643  0.0475
  887MPD2    C513005   3.874   2.599  15.246 -0.5846  0.4099  0.3185
  887MPD2     H13006   3.527   2.664  15.388  0.5034  0.4725 -0.4039
  887MPD2    H113007   3.921   2.798  15.303  2.8579 -1.3663 -1.5896
  887MPD2    H213008   3.822   2.398  15.237  1.9027  0.3950  0.3955
  887MPD2    H313009   3.971   2.585  15.199 -0.5762  1.2734  0.0751
  887MPD2     N13010   3.711   2.873  15.425 -0.1631  0.2331 -0.0581
  887MPD2    H513011   3.774   2.948  15.401 -0.2696 -0.0172 -1.1329
  887MPD2    N113012   3.570   2.403  15.308  0.1714 -0.0648 -0.2360
  887MPD2    H713013   3.607   2.309  15.321 -0.6838 -0.3272  0.3073
  888MPD2     C13014   0.886   2.889  15.026 -0.0289  0.1416 -0.0303
  888MPD2    C113015   0.921   2.924  15.155 -0.3892  0.9214 -0.2087
  888MPD2    C213016   0.988   3.043  15.183  0.4561  0.2621  0.0342
  888MPD2    C313017   1.021   3.124  15.075 -0.7175  0.3300 -0.8255
  888MPD2    C413018   0.985   3.089  14.948  0.6004  0.4701  0.3102
  888MPD2    C513019   0.922   2.970  14.921 -0.2931  0.3985 -0.1070
  888MPD2     H13020   1.003   3.071  15.287  1.1826  0.8757 -0.2421
  888MPD2    H113021   1.006   3.151  14.862  1.8642 -0.7007 -0.2163
  888MPD2    H213022   0.827   2.800  15.009 -0.2444  0.4292 -0.8111
  888MPD2    H313023   0.904   2.930  14.822 -2.8090  0.1283  0.4680
  888MPD2     N13024   1.101   3.239  15.092 -0.3679 -0.3627  0.4783
  888MPD2    H513025   1.144   3.251  15.183 -1.9016 -2.9167  1.5537
  888MPD2    N113026   0.880   2.851  15.271 -0.0819  0.5766  0.1275
  888MPD2    H713027   0.897   2.906  15.355  1.3053 -0.6613  0.6535
  889MPD2     C13028   0.821   2.846  12.730 -0.3537  0.9406 -0.9342
  889MPD2    C113029   0.787   2.757  12.830  0.1262 -0.3012 -0.2237
  889MPD2    C213030   0.794   2.804  12.962 -0.4413 -0.3213  0.7239
  889MPD2    C313031   0.800   2.943  12.988  0.4387 -0.2834 -0.4345
  889MPD2    C413032   0.832   3.025  12.884  1.1597  0.4526 -0.1550
  889MPD2    C513033   0.847   2.974  12.758 -0.1424  0.1885  0.5846
  889MPD2     H13034   0.766   2.741  13.045 -1.7573  0.0865  0.5916
  889MPD2    H113035   0.840   3.132  12.901  2.2489  0.3247  0.1424
  889MPD2    H213036   0.857   2.801  12.638  0.1813 -0.5940  0.0275
  889MPD2    H313037   0.883   3.046  12.686 -0.9496  1.6213  1.6146
  889MPD2     N13038   0.780   3.000  13.112 -1.0176 -0.1325  0.1456
  889MPD2    H513039   0.745   2.942  13.188 -2.1958 -0.9289 -1.0247
  889MPD2    N113040   0.783   2.618  12.806  0.0016  0.2799 -0.7114
  889MPD2    H713041   0.792   2.563  12.891  2.3274 -0.3000 -1.3330
  890MPD2     C13042   4.216   4.005  14.573 -0.0510 -0.4484  0.1731
  890MPD2    C113043   4.276   4.055  14.683 -0.3234  0.7651  0.0485
  890MPD2    C213044   4.332   3.971  14.770 -0.1172  0.6618 -0.2547
  890MPD2    C313045   4.330   3.835  14.740 -0.3465 -0.6264 -0.8165
  890MPD2    C413046   4.260   3.783  14.636  0.1517  0.4872 -0.0980
  890MPD2    C513047   4.202   3.870  14.553 -0.1266  0.0547 -0.0809
  890MPD2     H13048   4.376   4.012  14.860  0.0654 -0.3177  0.1038
  890MPD2    H113049   4.269   3.680  14.607  2.9083  0.8266 -0.4553
  890MPD2    H213050   4.173   4.068  14.496  0.9377  1.9852  1.6298
  890MPD2    H313051   4.159   3.824  14.465 -0.9184 -0.4115  0.5556
  890MPD2     N13052   4.408   3.752  14.822 -0.1661  0.5268  0.1843
  890MPD2    H513053   4.481   3.799  14.876  0.6092  1.4166 -1.6316
  890MPD2    N113054   4.304   4.189  14.685 -0.2108  0.1924  0.2006
  890MPD2    H713055   4.272   4.241  14.604 -1.5813  1.8643  1.8232
  891MPD2     C13056   2.422   3.813  16.482 -0.6780 -0.2221  0.4440
  891MPD2    C113057   2.412   3.677  16.515  0.5875 -0.6760  0.7833
  891MPD2    C213058   2.524   3.617  16.562 -0.0734 -0.3921  0.3933
  891MPD2    C313059   2.644   3.686  16.583  0.9673 -0.2874  0.4055
  891MPD2    C413060   2.645   3.817  16.555 -0.3866 -0.6176 -0.7529
  891MPD2    C513061   2.532   3.881  16.506  0.5662 -0.0642 -0.4784
  891MPD2     H13062   2.526   3.514  16.594  1.0898 -0.3465  0.4972
  891MPD2    H113063   2.732   3.877  16.577 -0.2526 -1.0622 -0.0817
  891MPD2    H213064   2.337   3.873  16.453  0.2223  0.3150 -1.0503
  891MPD2    H313065   2.533   3.986  16.482  3.2488 -0.5166 -2.2791
  891MPD2     N13066   2.755   3.607  16.617  0.6521 -0.0223  0.5708
  891MPD2    H513067   2.743   3.507  16.617  2.8793 -0.2939 -0.3238
  891MPD2    N113068   2.302   3.609  16.463  0.3405 -0.3769 -0.1208
  891MPD2    H713069   2.227   3.665  16.421  1.2541  0.5168 -0.5602
  892MPD2     C13070   3.848   3.924  14.928  0.1472  0.9016 -0.2229
  892MPD2    C113071   3.757   3.821  14.939 -0.3410 -0.3049 -0.6001
  892MPD2    C213072   3.800   3.690  14.918  0.6583  0.1805 -0.2709
  892MPD2    C313073   3.932   3.661  14.882 -0.1380  0.6771 -1.5158
  892MPD2    C413074   4.022   3.767  14.876  0.2185 -0.0720 -0.1430
  892MPD2    C513075   3.978   3.893  14.902  0.3152  0.0555 -0.3248
  892MPD2     H13076   3.733   3.609  14.942 -0.7687  1.2895 -0.4969
  892MPD2    H113077   4.122   3.747  14.839 -0.2337  0.0739 -1.4607
  892MPD2    H213078   3.817   4.027  14.911  2.3559  1.7847  1.1378
  892MPD2    H313079   4.039   3.973  14.863 -0.6583  1.6806  1.4812
  892MPD2     N13080   3.978   3.535  14.830 -0.0327  0.0589  0.6072
  892MPD2    H513081   4.075   3.519  14.806 -0.0022 -1.0643  1.4730
  892MPD2    N113082   3.618   3.834  14.982  0.2772  0.3033 -0.2528
  892MPD2    H713083   3.567   3.750  15.007 -0.8167  0.8658 -0.5865
  893MPD2     C13084   1.243   2.788  17.669  0.0367 -0.3798 -0.7191
  893MPD2    C113085   1.300   2.712   0.071  0.0744 -0.2266  0.3706
  893MPD2    C213086   1.239   2.595   0.099  0.2096  0.2092 -0.1047
  893MPD2    C313087   1.134   2.545   0.021 -0.4594  0.0641  0.5645
  893MPD2    C413088   1.092   2.611  17.615 -0.2251 -0.0223 -0.6166
  893MPD2    C513089   1.145   2.734  17.594  0.1969 -1.0457  0.5479
  893MPD2     H13090   1.271   2.541   0.188  0.8579 -1.4373 -1.3416
  893MPD2    H113091   1.013   2.579  17.547  0.8999 -3.1170 -0.4897
  893MPD2    H213092   1.281   2.887  17.648 -1.0148 -0.1139 -1.3586
  893MPD2    H313093   1.110   2.793  17.510  0.7733 -0.3593  0.7890
  893MPD2     N13094   1.085   2.412   0.040 -0.0096 -0.2073  0.0560
  893MPD2    H513095   1.003   2.393  17.686 -0.1685 -1.0949  0.5964
  893MPD2    N113096   1.396   2.768   0.154 -0.3477 -0.2197  0.3771
  893MPD2    H713097   1.411   2.868   0.144  0.7965 -0.5385 -1.0758
  894MPD2     C13098   2.994   1.152   1.122  0.0638 -0.5652  0.4046
  894MPD2    C113099   3.073   1.050   1.183 -0.8026  0.5838  0.5183
  894MPD2    C213100   3.211   1.049   1.158  0.0943  0.4577  0.4111
  894MPD2    C313101   3.270   1.147   1.077 -0.3402 -0.1732  0.4375
  894MPD2    C413102   3.184   1.232   1.006  0.2602  0.2210 -0.3836
  894MPD2    C513103   3.047   1.231   1.024 -0.6518  0.3211  0.0511
  894MPD2     H13104   3.271   0.984   1.221  0.2759 -1.1921 -1.4554
  894MPD2    H113105   3.217   1.305   0.934  0.7175  0.7208  0.3283
  894MPD2    H213106   2.889   1.162   1.149  0.4048 -0.8368  1.8589
  894MPD2    H313107   2.986   1.309   0.981 -1.4798 -0.1766  0.3271
  894MPD2     N13108   3.413   1.151   1.055 -0.0852 -0.0682  0.0096
  894MPD2    H513109   3.470   1.103   1.124 -1.3512  0.3806  1.3460
  894MPD2    N113110   3.012   0.953   1.269  0.0358  0.1545 -0.4319
  894MPD2    H713111   3.058   0.866   1.296  0.8804  1.2508  1.6611
  895MPD2     C13112   2.735   3.511  13.685  0.4451 -0.1312  0.0168
  895MPD2    C113113   2.673   3.409  13.624 -0.2758 -1.0687  1.0575
  895MPD2    C213114   2.753   3.299  13.596  0.7036  0.0687  0.1035
  895MPD2    C313115   2.893   3.289  13.622 -0.2961 -0.3306 -0.6252
  895MPD2    C413116   2.953   3.394  13.691 -0.2580  0.6436  0.3431
  895MPD2    C513117   2.866   3.502  13.717  0.0164 -0.6778  0.1713
  895MPD2     H13118   2.708   3.231  13.524  0.2324 -0.7770  1.1949
  895MPD2    H113119   3.055   3.387  13.725 -0.4068  1.7485  1.0447
  895MPD2    H213120   2.704   3.615  13.693 -2.4545 -0.7952 -2.9072
  895MPD2    H313121   2.909   3.586  13.769  0.5266 -1.2994  0.7634
  895MPD2     N13122   2.962   3.180  13.567 -0.1469 -0.2644 -0.4129
  895MPD2    H513123   2.908   3.112  13.514  0.8621 -1.1163 -0.3683
  895MPD2    N113124   2.543   3.405  13.567 -0.7443 -0.6774 -0.6621
  895MPD2    H713125   2.511   3.325  13.513 -0.4920 -0.4690 -1.1279
  896MPD2     C13126   0.391   0.839   0.769  0.0786  0.3165 -0.1270
  896MPD2    C113127   0.358   0.936   0.866  0.0611  0.7537 -0.4604
  896MPD2    C213128   0.233   0.992   0.868 -0.0749  0.7941  1.0360
  896MPD2    C313129   0.141   0.941   0.785  0.3923  0.3315  0.3429
  896MPD2    C413130   0.169   0.828   0.707 -0.2029 -0.0285 -0.4253
  896MPD2    C513131   0.300   0.786   0.680  0.1670 -0.0129  0.2841
  896MPD2     H13132   0.204   1.083   0.920  0.9369  0.7611  1.6718
  896MPD2    H113133   0.093   0.786   0.642 -0.2483 -0.0100 -0.3839
  896MPD2    H213134   0.496   0.812   0.759  0.1303  0.4287  0.1086
  896MPD2    H313135   0.328   0.727   0.594  0.0513 -0.0244  0.2545
  896MPD2     N13136   0.008   0.995   0.794 -0.2289 -0.9237  0.4082
  896MPD2    H513137   4.719   1.065   0.866  0.3116 -0.5523  0.1515
  896MPD2    N113138   0.464   0.992   0.943  0.2867 -0.5879  0.1814
  896MPD2    H713139   0.556   0.957   0.918  0.2398 -1.3405  1.0922
  897MPD2     C13140   1.629   2.536  10.881  0.4773  0.0337 -0.5264
  897MPD2    C113141   1.556   2.654  10.886 -0.8992 -0.4383 -0.0372
  897MPD2    C213142   1.483   2.670  11.004  0.3710  0.1707  0.1022
  897MPD2    C313143   1.475   2.578  11.105  0.5716  0.1942  0.3537
  897MPD2    C413144   1.550   2.459  11.094 -0.3033  0.2721 -0.7222
  897MPD2    C513145   1.628   2.447  10.987 -0.1847 -0.3870 -0.8698
  897MPD2     H13146   1.402   2.742  11.005  0.4773  0.2974 -1.0778
  897MPD2    H113147   1.551   2.374  11.162  0.6694 -0.7289 -1.9724
  897MPD2    H213148   1.691   2.516  10.794  0.7340  3.4445 -1.1447
  897MPD2    H313149   1.684   2.355  10.972  0.4490  0.0992 -1.4792
  897MPD2     N13150   1.385   2.603  11.209  0.5881 -0.0105 -0.1319
  897MPD2    H513151   1.345   2.696  11.212  0.9530  0.1740 -0.7937
  897MPD2    N113152   1.537   2.729  10.767  0.4485  0.1002 -0.1620
  897MPD2    H713153   1.573   2.696  10.678 -2.3719 -0.8339 -0.9531
  898MPD2     C13154   3.067   3.412   0.484 -0.2756  0.4377 -0.0342
  898MPD2    C113155   3.164   3.392   0.394  0.1832  0.2574 -0.0606
  898MPD2    C213156   3.183   3.479   0.290  0.3356  0.1176 -0.0172
  898MPD2    C313157   3.101   3.588   0.287 -0.1998 -0.1280  0.2374
  898MPD2    C413158   2.996   3.606   0.374 -0.0052 -0.1481 -0.3154
  898MPD2    C513159   2.984   3.519   0.477  0.3062 -0.0460 -0.1375
  898MPD2     H13160   3.266   3.477   0.220 -0.2572 -0.2626 -0.6973
  898MPD2    H113161   2.937   3.697   0.370 -0.6355 -0.5704 -0.6040
  898MPD2    H213162   3.065   3.352   0.574 -1.5893  1.3587  0.5638
  898MPD2    H313163   2.913   3.533   0.558  1.2084  0.9886  0.4795
  898MPD2     N13164   3.128   3.675   0.180 -0.0111 -0.4043  0.1782
  898MPD2    H513165   3.201   3.646   0.116 -1.3345 -1.5767 -0.7942
  898MPD2    N113166   3.254   3.289   0.411  0.6344 -0.1935  0.0650
  898MPD2    H713167   3.340   3.291   0.357 -0.1470 -0.6147 -1.2077
  899MPD2     C13168   3.718   4.487   0.370 -0.1310 -0.5298  0.5286
  899MPD2    C113169   3.748   4.600   0.291 -1.1525  0.7745  0.5947
  899MPD2    C213170   3.679   4.721   0.328  0.1573 -0.0810 -0.7894
  899MPD2    C313171   3.589   4.723   0.438  0.4667 -0.3313  0.3503
  899MPD2    C413172   3.556   4.608   0.497 -0.2093  0.5034  0.2408
  899MPD2    C513173   3.618   4.493   0.462  0.2583 -0.9297  0.4438
  899MPD2     H13174   3.711   0.088   0.281 -0.4035 -0.4218 -1.8372
  899MPD2    H113175   3.481   4.604   0.575 -1.3227 -1.6735 -0.9108
  899MPD2    H213176   3.759   4.389   0.349  0.0283 -0.6792  1.5651
  899MPD2    H313177   3.593   4.402   0.515 -0.2808 -0.1681  1.5275
  899MPD2     N13178   3.531   0.114   0.480 -0.8703  0.3430  0.1997
  899MPD2    H513179   3.493   0.116   0.574 -0.9783  0.6697  0.1518
  899MPD2    N113180   3.851   4.595   0.190 -0.7567  1.0635  0.1065
  899MPD2    H713181   3.886   4.501   0.177 -0.9439  1.1066 -0.6846
  900MPD2     C13182   4.149   0.865  12.226 -0.2407 -0.0365  0.1841
  900MPD2    C113183   4.041   0.788  12.263  0.3372  0.2204  0.4788
  900MPD2    C213184   3.939   0.779  12.169 -0.4649 -0.0796  0.4654
  900MPD2    C313185   3.945   0.824  12.036  0.0663 -0.5860 -0.6046
  900MPD2    C413186   4.054   0.895  12.005  0.2017 -0.2740  0.1436
  900MPD2    C513187   4.149   0.926  12.100  0.5638  0.9926  0.5033
  900MPD2     H13188   3.845   0.733  12.195 -0.5661  0.1002  0.4141
  900MPD2    H113189   4.066   0.947  11.911 -0.4779 -0.9426 -0.3002
  900MPD2    H213190   4.241   0.871  12.282  0.0950  3.1182 -0.6627
  900MPD2    H313191   4.222   1.002  12.073  0.1079  0.5653 -1.9795
  900MPD2     N13192   3.832   0.798  11.954 -0.2025 -0.4489 -0.2590
  900MPD2    H513193   3.751   0.756  11.998 -0.7258 -0.8909 -1.6440
  900MPD2    N113194   4.038   0.715  12.388 -0.1715  0.1657  0.0504
  900MPD2    H713195   4.113   0.725  12.456  1.3451 -2.4670 -1.2395
  901MPD2     C13196   3.719   4.648  12.787  0.2786 -0.2800 -0.0166
  901MPD2    C113197   3.846   4.676  12.827  0.2574  0.7700 -0.2163
  901MPD2    C213198   3.883   0.078  12.862  0.7533  0.6790 -0.0378
  901MPD2    C313199   3.792   0.184  12.845 -0.5510 -0.1053  0.3045
  901MPD2    C413200   3.662   0.152  12.808  0.4079 -0.2686  0.2827
  901MPD2    C513201   3.628   0.023  12.784  0.6209  0.5573  0.5030
  901MPD2     H13202   3.981   0.097  12.905  1.7238 -3.4821 -0.4101
  901MPD2    H113203   3.583   0.226  12.812  2.2721  1.6122  2.0819
  901MPD2    H213204   3.688   4.549  12.753  2.5763 -0.8780 -0.3845
  901MPD2    H313205   3.528   0.003  12.747  0.4844  1.3726  0.4467
  901MPD2     N13206   3.826   0.316  12.863 -0.6384  0.3520  0.7290
  901MPD2    H513207   3.925   0.328  12.881 -0.5004  2.3489 -1.4135
  901MPD2    N113208   3.938   4.567  12.811 -0.3088  0.6391  0.3234
  901MPD2    H713209   3.906   4.478  12.776  0.0615  1.4988 -2.1811
  902MPD2     C13210   3.246   3.492  12.836  1.2533  0.7552  0.0388
  902MPD2    C113211   3.134   3.544  12.776 -0.6895  0.5738 -0.2177
  902MPD2    C213212   3.115   3.542  12.638  0.4291  0.1978 -0.1490
  902MPD2    C313213   3.216   3.490  12.557  0.1919  0.2196 -0.6339
  902MPD2    C413214   3.330   3.447  12.621  0.3676  0.3378 -0.6654
  902MPD2    C513215   3.351   3.453  12.757 -0.6043  0.6941 -0.0756
  902MPD2     H13216   3.029   3.582  12.586 -0.2636  0.5959  1.3098
  902MPD2    H113217   3.418   3.415  12.568 -0.1888  0.2811 -1.5538
  902MPD2    H213218   3.257   3.490  12.944  1.4842 -1.4517 -0.0394
  902MPD2    H313219   3.440   3.411  12.803  1.0199  3.7512 -0.4476
  902MPD2     N13220   3.204   3.478  12.414  0.0903  0.3631  0.3868
  902MPD2    H513221   3.279   3.435  12.361  0.4572  2.4445 -0.7695
  902MPD2    N113222   3.026   3.585  12.865 -0.4081 -0.3083  0.0952
  902MPD2    H713223   3.044   3.559  12.961  0.5532  0.1369  0.0288
  903MPD2     C13224   2.987   3.606  11.527 -0.0039  0.6354  0.2280
  903MPD2    C113225   2.926   3.609  11.644 -0.2441  0.4602 -0.3244
  903MPD2    C213226   2.788   3.628  11.643 -0.4445  0.1495  0.0866
  903MPD2    C313227   2.721   3.667  11.536 -0.1042 -0.8215 -0.7253
  903MPD2    C413228   2.790   3.679  11.415 -0.0511  0.7263 -0.2686
  903MPD2    C513229   2.919   3.641  11.411  0.0054  0.4581 -0.5105
  903MPD2     H13230   2.734   3.619  11.736  0.9625 -0.4987  0.8424
  903MPD2    H113231   2.746   3.708  11.320  1.3871  2.0087 -0.5298
  903MPD2    H213232   3.089   3.572  11.514 -0.3522 -0.0328 -0.7233
  903MPD2    H313233   2.974   3.632  11.318  1.2097 -0.4237  0.2928
  903MPD2     N13234   2.576   3.684  11.545  0.3002 -0.2306 -0.1026
  903MPD2    H513235   2.528   3.694  11.633  1.2701 -0.2214  0.4270
  903MPD2    N113236   3.001   3.586  11.762 -0.2659 -0.2535 -0.1760
  903MPD2    H713237   3.098   3.564  11.740  0.0304 -0.3813  1.2618
  904MPD2     C13238   2.726   2.870  13.743  0.0950 -0.1728  0.7157
  904MPD2    C113239   2.698   2.736  13.782 -0.4638 -0.0881 -0.0628
  904MPD2    C213240   2.797   2.665  13.845 -0.1513 -0.2900  0.1482
  904MPD2    C313241   2.921   2.714  13.873 -0.4718 -0.0530 -0.1194
  904MPD2    C413242   2.949   2.839  13.839 -0.8134 -0.6469 -0.1271
  904MPD2    C513243   2.854   2.910  13.768  0.1288 -0.0284  0.3605
  904MPD2     H13244   2.778   2.562  13.874 -0.5637  0.0547  1.0856
  904MPD2    H113245   3.049   2.881  13.851 -0.7110 -1.0194  0.3182
  904MPD2    H213246   2.652   2.940  13.707  2.5401  0.4896 -3.0065
  904MPD2    H313247   2.889   3.007  13.737  0.7734 -0.2551  0.3794
  904MPD2     N13248   3.015   2.629  13.941  0.3511 -0.3245  0.0957
  904MPD2    H513249   2.995   2.530  13.951  2.0973 -0.7282 -0.4903
  904MPD2    N113250   2.568   2.689  13.772 -0.0426  0.4590  0.0046
  904MPD2    H713251   2.517   2.746  13.704 -3.9540  0.0163  2.5582
  905MPD2     C13252   2.421   2.658  13.245 -0.0680 -0.1391  0.2157
  905MPD2    C113253   2.443   2.750  13.346 -0.2767  0.2800  0.7898
  905MPD2    C213254   2.570   2.816  13.348 -0.9245  0.0180 -0.4811
  905MPD2    C313255   2.664   2.785  13.250  0.4317 -0.1854 -0.0977
  905MPD2    C413256   2.643   2.678  13.170  0.3791  0.1274 -0.0295
  905MPD2    C513257   2.520   2.616  13.164 -0.0519 -0.2728  0.3214
  905MPD2     H13258   2.603   2.885  13.424 -2.2614 -1.2405  1.2595
  905MPD2    H113259   2.715   2.647  13.095  0.4788 -0.0271  0.1302
  905MPD2    H213260   2.331   2.600  13.235  0.1332 -0.8947  2.5933
  905MPD2    H313261   2.500   2.527  13.105  0.4059 -0.9181  1.1250
  905MPD2     N13262   2.800   2.825  13.249 -0.8549  0.2825 -0.4950
  905MPD2    H513263   2.861   2.769  13.191 -1.2540 -0.6093 -0.0405
  905MPD2    N113264   2.348   2.760  13.452  0.1576 -0.0906  0.4606
  905MPD2    H713265   2.263   2.705  13.442  0.0902 -0.3562  2.6243
  906MPD2     C13266   0.039   2.931  11.528 -0.0748  0.1940  0.2042
  906MPD2    C113267   0.124   2.848  11.455 -0.2104 -0.0618  0.4306
  906MPD2    C213268   0.097   2.712  11.471  0.5801  0.4360 -0.2113
  906MPD2    C313269   4.723   2.666  11.552  0.0323  0.0539 -0.4722
  906MPD2    C413270   4.634   2.751  11.611  0.2128  0.0176 -0.0160
  906MPD2    C513271   4.660   2.885  11.605 -0.2620  0.0062 -0.5975
  906MPD2     H13272   0.151   2.642  11.408  0.5045  0.1988 -0.0083
  906MPD2    H113273   4.558   2.711  11.676  1.4659 -1.8865  0.2608
  906MPD2    H213274   0.051   3.039  11.533 -2.5997  0.4879 -0.0497
  906MPD2    H313275   4.598   2.953  11.663  1.8002  0.5363  0.9954
  906MPD2     N13276   4.692   2.531  11.550  0.4352 -0.1554  0.0179
  906MPD2    H513277   4.596   2.519  11.581  0.6159 -0.9212  0.2703
  906MPD2    N113278   0.219   2.881  11.354  0.7444  0.0619 -0.0520
  906MPD2    H713279   0.276   2.806  11.317 -0.4329 -0.7168 -0.2966
  907MPD2     C13280   3.527   1.143  15.632  0.4156  1.7116  0.1059
  907MPD2    C113281   3.616   1.169  15.535 -0.7054  1.0623  0.2236
  907MPD2    C213282   3.631   1.302  15.500 -0.8311  0.3903 -0.1284
  907MPD2    C313283   3.579   1.402  15.580 -0.0613 -0.3655 -0.1609
  907MPD2    C413284   3.489   1.371  15.680  0.7262 -0.3028 -1.5430
  907MPD2    C513285   3.462   1.243  15.703  0.5015  0.2640 -0.1702
  907MPD2     H13286   3.702   1.335  15.425  0.2537 -0.1651  0.6548
  907MPD2    H113287   3.461   1.449  15.750 -0.4232 -3.8173  1.8761
  907MPD2    H213288   3.501   1.043  15.664  1.0038  1.3554 -0.5249
  907MPD2    H313289   3.399   1.215  15.787  0.2625  1.0310 -0.0909
  907MPD2     N13290   3.628   1.533  15.543  0.8684 -0.0121  0.3961
  907MPD2    H513291   3.706   1.541  15.478  0.0835  0.3588 -0.5040
  907MPD2    N113292   3.678   1.077  15.451  0.2151 -0.3575 -0.3648
  907MPD2    H713293   3.718   1.106  15.363  2.4668  0.4756  0.9317
  908MPD2     C13294   1.400   2.446   9.957 -0.1904 -0.8565 -0.4991
  908MPD2    C113295   1.531   2.444  10.008  0.5713  0.1158 -0.3541
  908MPD2    C213296   1.565   2.538  10.106  0.0077  0.6236 -0.4043
  908MPD2    C313297   1.473   2.634  10.140  0.1384 -0.2645  0.3472
  908MPD2    C413298   1.344   2.633  10.088 -0.4327 -0.2261 -0.3802
  908MPD2    C513299   1.307   2.541   9.992 -0.2498  0.5752 -0.5149
  908MPD2     H13300   1.664   2.534  10.151  0.4352  2.6614 -1.2030
  908MPD2    H113301   1.264   2.705  10.103 -0.7184 -0.2367 -1.9397
  908MPD2    H213302   1.370   2.370   9.886  0.1280 -1.7381  0.3080
  908MPD2    H313303   1.213   2.543   9.937 -1.8285 -2.3583  2.1090
  908MPD2     N13304   1.499   2.714  10.252 -0.0769  0.4689 -0.3141
  908MPD2    H513305   1.579   2.687  10.310  0.0751  0.5607 -0.4801
  908MPD2    N113306   1.625   2.342   9.957 -1.2254  0.2796 -0.0917
  908MPD2    H713307   1.590   2.271   9.894  0.4914  2.7889 -3.8099
  909MPD2     C13308   2.044   0.735  12.144 -0.1234 -0.4775  0.2519
  909MPD2    C113309   1.987   0.851  12.110 -0.1693 -0.7536  0.6465
  909MPD2    C213310   1.875   0.900  12.173 -0.2447 -0.5142  0.3945
  909MPD2    C313311   1.837   0.843  12.292 -1.6529  0.3289  0.4097
  909MPD2    C413312   1.888   0.724  12.329 -0.0539  0.2561 -0.2948
  909MPD2    C513313   1.995   0.670  12.258  0.2351 -0.0650 -0.0762
  909MPD2     H13314   1.819   0.986  12.136 -0.9370 -0.4892  1.5088
  909MPD2    H113315   1.860   0.668  12.417  1.2856 -0.3458 -0.2538
  909MPD2    H213316   2.121   0.689  12.084  0.7123  0.2804  0.7468
  909MPD2    H313317   2.033   0.571  12.279 -0.8204 -0.5909 -0.6496
  909MPD2     N13318   1.729   0.913  12.353 -0.0549 -0.4801 -0.4559
  909MPD2    H513319   1.687   0.987  12.299 -0.2971  0.8278  1.5237
  909MPD2    N113320   2.028   0.926  12.002  0.6652  0.2601 -0.7142
  909MPD2    H713321   1.963   0.998  11.972  2.0130  0.7656 -2.3892
  910MPD2     C13322   3.193   1.916  15.952 -0.0695 -0.3431  0.0051
  910MPD2    C113323   3.294   1.879  15.869 -0.4932 -0.2857 -0.4290
  910MPD2    C213324   3.279   1.913  15.733 -0.1046  0.9297 -0.0707
  910MPD2    C313325   3.171   1.998  15.686 -0.2718 -0.8058  0.0757
  910MPD2    C413326   3.076   2.034  15.771  0.0739  0.4751 -0.1486
  910MPD2    C513327   3.091   1.993  15.899  0.4530  0.0579  0.0175
  910MPD2     H13328   3.366   1.891  15.672 -0.4115 -2.4314  0.6976
  910MPD2    H113329   2.989   2.087  15.735 -1.0715 -0.9340  0.5440
  910MPD2    H213330   3.191   1.905  16.060  0.0291  1.4059  0.1906
  910MPD2    H313331   3.018   2.025  15.971 -1.1305 -0.7867 -1.2085
  910MPD2     N13332   3.152   2.026  15.547 -0.0989 -0.0149  0.0609
  910MPD2    H513333   3.084   2.095  15.519 -1.0151 -1.1567 -0.5674
  910MPD2    N113334   3.407   1.804  15.916  0.2265 -0.0750  0.2256
  910MPD2    H713335   3.473   1.766  15.849  1.9469  2.0068  0.7231
  911MPD2     C13336   1.333   2.723  16.015  0.2305  0.5860  0.4483
  911MPD2    C113337   1.312   2.744  16.151  0.2382 -0.1566 -0.2368
  911MPD2    C213338   1.255   2.861  16.191  0.4780 -0.2077  1.6880
  911MPD2    C313339   1.210   2.955  16.101  0.0558 -0.2067  0.5894
  911MPD2    C413340   1.238   2.935  15.966  0.8046  0.3627 -0.3308
  911MPD2    C513341   1.297   2.821  15.927 -0.3169  0.1830 -0.6085
  911MPD2     H13342   1.251   2.882  16.298  0.2349  0.8156  1.4833
  911MPD2    H113343   1.220   3.009  15.890  0.2164 -0.5532 -1.0764
  911MPD2    H213344   1.398   2.641  15.988 -0.7164 -0.0424  0.0636
  911MPD2    H313345   1.315   2.805  15.821  1.1972  0.8526 -0.4522
  911MPD2     N13346   1.153   3.077  16.141  0.1220 -0.1732  0.5137
  911MPD2    H513347   1.132   3.143  16.067  1.2974  0.6924  0.9472
  911MPD2    N113348   1.369   2.656  16.245 -0.0732 -0.4257  0.5444
  911MPD2    H713349   1.444   2.594  16.215  0.6070  1.0858 -0.8823
  912MPD2     C13350   0.601   3.132  15.851 -0.0209  0.2628 -0.0031
  912MPD2    C113351   0.611   3.116  15.987  0.0408  0.0223  0.5283
  912MPD2    C213352   0.542   3.012  16.049 -0.0041  0.0147 -0.1851
  912MPD2    C313353   0.491   2.905  15.976  0.0514 -0.2911  0.1153
  912MPD2    C413354   0.491   2.917  15.839  0.2970 -0.2921  0.4296
  912MPD2    C513355   0.537   3.030  15.778  0.2004  0.2083 -0.2294
  912MPD2     H13356   0.533   3.011  16.157 -1.5155 -0.3224 -0.3290
  912MPD2    H113357   0.437   2.847  15.776 -0.5945  0.9419 -0.1782
  912MPD2    H213358   0.647   3.219  15.805 -5.1912  3.4625  0.9351
  912MPD2    H313359   0.532   3.043  15.670 -1.2695 -0.1388 -0.2016
  912MPD2     N13360   0.439   2.791  16.040 -0.6329 -0.5210  0.0228
  912MPD2    H513361   0.431   2.704  15.987  0.0181 -0.5461 -0.0334
  912MPD2    N113362   0.688   3.218  16.045 -0.3692 -0.5170 -0.3134
  912MPD2    H713363   0.726   3.287  15.982 -3.6313 -1.3775 -3.1651
  913MPD2     C13364   1.117   4.113  10.560 -0.1592  0.6814 -0.2653
  913MPD2    C113365   1.169   4.185  10.672 -0.3552  0.1505  0.5726
  913MPD2    C213366   1.276   4.273  10.656 -0.0387 -0.0560  0.3321
  913MPD2    C313367   1.340   4.275  10.528  0.1568 -0.3190 -0.1347
  913MPD2    C413368   1.288   4.204  10.424  0.1524  0.0919  0.0924
  913MPD2    C513369   1.175   4.127  10.436  0.0809 -0.7588 -0.5832
  913MPD2     H13370   1.318   4.338  10.732 -1.6949  0.1829  1.0331
  913MPD2    H113371   1.334   4.209  10.326  1.4539  1.9319  0.8035
  913MPD2    H213372   1.031   4.048  10.557  1.5142 -1.5215 -0.8261
  913MPD2    H313373   1.129   4.075  10.352 -0.1860 -2.1556  0.4276
  913MPD2     N13374   1.457   4.351  10.499 -0.2792  1.0276  0.7750
  913MPD2    H513375   1.484   4.346  10.402 -0.2961 -0.2347  0.8360
  913MPD2    N113376   1.112   4.161  10.800  0.5650  0.3357 -0.1092
  913MPD2    H713377   1.034   4.097  10.796 -1.1536  2.3050  2.1956
  914MPD2     C13378   3.870   4.223  12.095 -0.3636 -0.6967 -0.5951
  914MPD2    C113379   3.908   4.351  12.127  0.1400  0.7158 -0.2925
  914MPD2    C213380   3.988   4.375  12.238 -0.0364  0.0082 -0.1578
  914MPD2    C313381   4.009   4.273  12.326 -0.6747 -0.2150  0.1714
  914MPD2    C413382   3.973   4.145  12.291 -0.3129  0.4197 -0.1805
  914MPD2    C513383   3.903   4.123  12.178 -0.9252  1.0793  0.6614
  914MPD2     H13384   4.031   4.473  12.249  1.6590 -0.6464 -0.8816
  914MPD2    H113385   3.981   4.066  12.365 -0.4910  1.0372  0.5012
  914MPD2    H213386   3.827   4.199  11.999 -1.1703  1.2548 -0.7325
  914MPD2    H313387   3.888   4.019  12.151  2.4903  0.0887  2.6364
  914MPD2     N13388   4.075   4.302  12.447 -0.5827 -0.1613 -0.2976
  914MPD2    H513389   4.124   4.391  12.452 -0.0778 -0.6452  3.0902
  914MPD2    N113390   3.852   4.449  12.040 -0.0148  0.6954  0.0099
  914MPD2    H713391   3.805   4.422  11.954 -0.0368 -0.8016  0.4915
  915MPD2     C13392   2.039   4.322  15.983  0.2957  0.3706  0.2923
  915MPD2    C113393   1.935   4.347  15.892 -0.2689 -0.0309  0.3555
  915MPD2    C213394   1.825   4.416  15.935  0.2442  0.8141 -0.5085
  915MPD2    C313395   1.817   4.467  16.061  0.4301  0.1322 -1.0802
  915MPD2    C413396   1.920   4.448  16.151  0.2129  0.3603  0.4293
  915MPD2    C513397   2.033   4.379  16.108 -0.1471  0.4339 -0.0950
  915MPD2     H13398   1.743   4.432  15.865  0.9965  2.1240 -1.0994
  915MPD2    H113399   1.925   4.494  16.249 -1.1763 -0.7258  1.0003
  915MPD2    H213400   2.121   4.261  15.948  0.0180  1.0221 -1.5354
  915MPD2    H313401   2.112   4.363  16.182  0.3162 -1.2542 -0.9624
  915MPD2     N13402   1.692   4.525  16.108  0.1918 -0.1669  0.1607
  915MPD2    H513403   1.612   4.515  16.046  0.4193 -0.3011 -0.1096
  915MPD2    N113404   1.955   4.296  15.758 -0.6953  0.4118 -0.6227
  915MPD2    H713405   2.033   4.232  15.745  0.9901  1.7622  2.8640
  916MPD2     C13406   0.191   2.361  16.007  0.2228 -0.0497 -0.4521
  916MPD2    C113407   0.191   2.278  16.113  0.0780  0.0799  0.4104
  916MPD2    C213408   0.253   2.153  16.098  0.7150  0.4219  0.0665
  916MPD2    C313409   0.308   2.109  15.980  0.3639  0.7880 -0.2727
  916MPD2    C413410   0.298   2.194  15.876 -0.0178  0.8893 -0.0178
  916MPD2    C513411   0.241   2.319  15.893 -0.2418 -0.4277 -0.7679
  916MPD2     H13412   0.265   2.095  16.189  1.7737  1.5143  0.6204
  916MPD2    H113413   0.339   2.160  15.782 -0.8975 -0.6544  0.1669
  916MPD2    H213414   0.140   2.456  16.012 -0.0237 -0.1553 -0.9815
  916MPD2    H313415   0.254   2.387  15.809 -1.4785 -0.1494 -0.7392
  916MPD2     N13416   0.378   1.979  15.973  0.5510  0.3165 -0.2510
  916MPD2    H513417   0.363   1.922  16.056  0.8246  2.8571  1.5333
  916MPD2    N113418   0.128   2.326  16.233  0.0561 -0.9998  0.8815
  916MPD2    H713419   0.094   2.421  16.223  4.8314  0.6735  0.4181
  917MPD2     C13420   0.422   0.086  11.656  0.0856  0.9341  0.2060
  917MPD2    C113421   0.498   0.117  11.765 -0.1274 -0.5868  0.6858
  917MPD2    C213422   0.614   0.189  11.746  0.0025 -0.0669 -0.3492
  917MPD2    C313423   0.643   0.244  11.623  0.6960  0.2593  0.0824
  917MPD2    C413424   0.558   0.221  11.513 -0.1566 -0.8937  0.1978
  917MPD2    C513425   0.447   0.144  11.532  0.2851  0.2464  0.0996
  917MPD2     H13426   0.676   0.216  11.831  0.9942 -0.0157 -1.0737
  917MPD2    H113427   0.578   0.264  11.415 -0.9367 -3.2840 -1.0154
  917MPD2    H213428   0.340   0.015  11.660  1.1149 -0.0873  3.2313
  917MPD2    H313429   0.385   0.122  11.445 -0.4906  0.5700  0.5694
  917MPD2     N13430   0.758   0.321  11.600 -1.1837 -0.4900 -0.3981
  917MPD2    H513431   0.770   0.374  11.515 -2.5522 -4.3583 -3.0283
  917MPD2    N113432   0.457   0.064  11.891 -0.6291  0.8666  0.1958
  917MPD2    H713433   0.377   0.001  11.894 -0.3752  0.5808  0.8822
  918MPD2     C13434   0.575   0.433  12.829  0.3293  0.2539 -0.2268
  918MPD2    C113435   0.672   0.389  12.740  0.0061  0.1123  0.2388
  918MPD2    C213436   0.632   0.317  12.630  0.2079 -0.1453  0.1224
  918MPD2    C313437   0.495   0.285  12.605 -0.1333  0.0108 -0.5312
  918MPD2    C413438   0.398   0.339  12.686  0.6373 -0.6727 -0.7059
  918MPD2    C513439   0.442   0.410  12.800 -0.4659 -1.1755  1.0733
  918MPD2     H13440   0.703   0.271  12.563  3.3913  3.0129  1.3939
  918MPD2    H113441   0.290   0.336  12.669  0.1688  0.1987  2.1694
  918MPD2    H213442   0.601   0.483  12.922  1.5853  1.9572 -1.5040
  918MPD2    H313443   0.373   0.456  12.870 -0.1360  1.7334 -0.5104
  918MPD2     N13444   0.477   0.204  12.494 -0.0397  0.4518 -0.4129
  918MPD2    H513445   0.555   0.173  12.437  0.0124 -0.7973  0.3411
  918MPD2    N113446   0.808   0.408  12.762  0.8292  0.4706  0.0139
  918MPD2    H713447   0.871   0.377  12.688  1.1037 -0.7567  0.7537
  919MPD2     C13448   1.202   4.015  12.195  0.0057 -0.2264  0.2351
  919MPD2    C113449   1.118   3.915  12.155 -0.7436  0.0531  1.0386
  919MPD2    C213450   1.006   3.949  12.079  0.0185 -1.0081  0.6551
  919MPD2    C313451   0.985   4.080  12.033 -0.5246  0.0010 -0.6005
  919MPD2    C413452   1.079   4.173  12.065 -0.1430 -0.0653  0.0014
  919MPD2    C513453   1.183   4.140  12.147  0.3397 -0.5508  0.4253
  919MPD2     H13454   0.934   3.876  12.047 -1.2373  0.4773  0.0720
  919MPD2    H113455   1.074   4.277  12.033 -0.6226 -0.2756 -0.6160
  919MPD2    H213456   1.293   3.994  12.250 -0.5009 -0.3863  1.0178
  919MPD2    H313457   1.237   4.222  12.192  0.3783  1.0475 -2.5262
  919MPD2     N13458   0.892   4.124  11.943 -0.0948  0.2804  0.5076
  919MPD2    H513459   0.917   4.209  11.892 -1.1755  0.5561  0.4351
  919MPD2    N113460   1.140   3.782  12.196 -0.0785  0.4773 -0.1847
  919MPD2    H713461   1.067   3.713  12.183 -0.4344  0.4259  2.1372
  920MPD2     C13462   1.048   4.525  11.060 -0.0737  0.2825 -0.5648
  920MPD2    C113463   0.927   4.468  11.037  0.4103 -0.2607  0.3630
  920MPD2    C213464   0.860   4.410  11.147  0.0299 -0.4038  0.5973
  920MPD2    C313465   0.899   4.416  11.277  0.0404 -0.0283 -0.1015
  920MPD2    C413466   1.032   4.459  11.294 -0.0906  0.7984  0.4725
  920MPD2    C513467   1.099   4.521  11.190 -0.6195  0.6255  0.1597
  920MPD2     H13468   0.773   4.353  11.119  0.6944  0.7097 -3.7601
  920MPD2    H113469   1.079   4.462  11.391  0.7918  2.9356 -0.0125
  920MPD2    H213470   1.122   4.562  10.990  0.1512 -0.5710 -0.7687
  920MPD2    H313471   1.202   4.548  11.212 -0.3780  1.0829 -1.5198
  920MPD2     N13472   0.832   4.339  11.374  0.2332  0.5626 -0.0816
  920MPD2    H513473   0.748   4.292  11.343 -0.4257  0.9312  1.1657
  920MPD2    N113474   0.871   4.444  10.906 -0.3616  0.2561 -0.0172
  920MPD2    H713475   0.772   4.432  10.893  0.0476 -1.6857 -1.3344
  921MPD2     C13476   1.953   3.007  16.817  0.0704  0.4018  0.4783
  921MPD2    C113477   1.923   3.007  16.680  0.2863  0.1033 -0.1917
  921MPD2    C213478   1.853   2.898  16.632 -0.2731 -0.4063 -0.0877
  921MPD2    C313479   1.810   2.798  16.715  0.3475 -0.0228 -0.1037
  921MPD2    C413480   1.847   2.794  16.854  0.5123 -0.1349  0.4604
  921MPD2    C513481   1.921   2.903  16.903 -0.0983 -0.3929  0.7892
  921MPD2     H13482   1.808   2.897  16.533 -0.5717  0.9596  0.0296
  921MPD2    H113483   1.819   2.716  16.924  2.3611 -1.2939 -0.0893
  921MPD2    H213484   2.009   3.091  16.857  1.3027 -0.8662  1.3934
  921MPD2    H313485   1.929   2.921  17.009 -0.0071  1.9560  0.3794
  921MPD2     N13486   1.718   2.709  16.662 -0.4034 -0.1346 -0.0266
  921MPD2    H513487   1.701   2.715  16.563 -0.1422  1.3669  0.0298
  921MPD2    N113488   1.954   3.119  16.605 -0.0326  0.1440 -0.1654
  921MPD2    H713489   1.995   3.194  16.661 -0.0613 -0.6557  0.9134
  922MPD2     C13490   2.680   1.054  16.443  0.1409 -0.2410  0.5632
  922MPD2    C113491   2.711   0.971  16.546  0.2889  0.1096  0.1220
  922MPD2    C213492   2.679   0.835  16.541  0.2674  0.0459 -0.5513
  922MPD2    C313493   2.608   0.786  16.430  0.3507 -0.3010 -0.5468
  922MPD2    C413494   2.577   0.869  16.327  0.3647 -0.3804  0.0852
  922MPD2    C513495   2.621   0.999  16.334  0.2115  0.2754  0.3398
  922MPD2     H13496   2.709   0.772  16.624 -1.3354 -0.2058 -0.1714
  922MPD2    H113497   2.545   0.820  16.235  0.6200 -1.7725  0.7471
  922MPD2    H213498   2.697   1.161  16.444 -0.9364 -0.0803  1.7200
  922MPD2    H313499   2.607   1.057  16.243 -2.5170  2.8790  2.4145
  922MPD2     N13500   2.567   0.657  16.421  0.1974  0.9471  0.4044
  922MPD2    H513501   2.529   0.626  16.332  1.8200  0.6889 -0.2065
  922MPD2    N113502   2.778   1.023  16.661  1.0078  0.3993 -0.5221
  922MPD2    H713503   2.793   0.960  16.739  3.5268  1.6189 -0.0497
  923MPD2     C13504   3.677   2.722   8.853  0.3281 -0.0409 -0.6676
  923MPD2    C113505   3.655   2.846   8.914 -0.2080  0.4010  0.0711
  923MPD2    C213506   3.757   2.924   8.949  0.1564 -0.2295  0.3295
  923MPD2    C313507   3.890   2.879   8.928 -0.2201 -0.2817 -0.3510
  923MPD2    C413508   3.906   2.753   8.871 -0.4008  0.2484  0.8888
  923MPD2    C513509   3.802   2.679   8.832  0.1444 -0.2877 -1.2676
  923MPD2     H13510   3.743   3.021   8.995  2.6748  0.1285  0.3430
  923MPD2    H113511   4.005   2.712   8.857 -2.2666 -3.2466 -1.8628
  923MPD2    H213512   3.592   2.658   8.832  0.0245  0.5255 -1.1418
  923MPD2    H313513   3.807   2.580   8.790 -1.3372  0.0578 -2.2752
  923MPD2     N13514   4.003   2.954   8.975  0.2677  0.0954  0.0792
  923MPD2    H513515   4.085   2.900   8.949  1.5244  2.4084 -0.7076
  923MPD2    N113516   3.520   2.876   8.948  0.0412  0.1183 -0.3861
  923MPD2    H713517   3.457   2.796   8.945 -0.9359  0.8068  2.1559
  924MPD2     C13518   4.231   1.404  15.119  0.0219  0.8749  0.0825
  924MPD2    C113519   4.269   1.471  15.235  0.0366 -0.3689  1.0633
  924MPD2    C213520   4.187   1.567  15.286  0.2218 -0.0154 -0.6866
  924MPD2    C313521   4.076   1.612  15.216  0.2712 -0.2897 -0.1126
  924MPD2    C413522   4.043   1.548  15.094 -0.3111 -0.3200  0.2856
  924MPD2    C513523   4.117   1.443  15.044 -0.7883  0.8215  0.0669
  924MPD2     H13524   4.210   1.611  15.382 -1.4816 -2.4877  0.8399
  924MPD2    H113525   3.965   1.586  15.029  0.9825  3.4227  0.9246
  924MPD2    H213526   4.290   1.322  15.079 -0.0230  1.7506 -1.7440
  924MPD2    H313527   4.102   1.396  14.948 -0.8931  2.5494 -0.7606
  924MPD2     N13528   3.982   1.714  15.258 -0.2962 -0.4289 -0.1596
  924MPD2    H513529   3.910   1.740  15.191  0.2954 -0.6243 -0.8704
  924MPD2    N113530   4.382   1.420  15.308 -0.1225 -0.3520 -0.1991
  924MPD2    H713531   4.432   1.337  15.279 -1.9221 -1.7743  0.7654
  925MPD2     C13532   2.358   2.861  14.981 -0.3434 -0.4879 -0.0333
  925MPD2    C113533   2.291   2.978  14.947  0.6606  0.4375  0.0994
  925MPD2    C213534   2.220   3.041  15.048 -0.3628 -0.2762  0.4411
  925MPD2    C313535   2.224   2.998  15.179  0.1825 -0.8189  0.2013
  925MPD2    C413536   2.283   2.880  15.205 -0.3338 -0.9229 -0.3712
  925MPD2    C513537   2.362   2.819  15.108  0.6261 -0.9206 -0.8097
  925MPD2     H13538   2.161   3.129  15.026 -0.4312  0.5661  3.8883
  925MPD2    H113539   2.288   2.838  15.305 -0.3615 -1.4106 -0.5776
  925MPD2    H213540   2.418   2.803  14.912 -0.5725 -1.0325  0.2183
  925MPD2    H313541   2.424   2.733  15.130  2.1348 -0.2557 -2.3561
  925MPD2     N13542   2.149   3.057  15.280 -0.2010  0.2684 -0.5389
  925MPD2    H513543   2.139   2.999  15.363  1.9758 -2.6210 -2.3128
  925MPD2    N113544   2.307   3.047  14.824  0.1579 -0.2955  0.2550
  925MPD2    H713545   2.270   3.138  14.799 -1.8520 -1.8239 -2.3670
  926MPD2     C13546   2.233   1.989  13.523  0.7078  0.3070  0.1025
  926MPD2    C113547   2.126   2.048  13.447  0.6232 -0.0058 -0.2739
  926MPD2    C213548   2.140   2.100  13.328  0.5480  0.3601  0.2241
  926MPD2    C313549   2.264   2.081  13.270 -0.6759 -0.2505 -0.1716
  926MPD2    C413550   2.372   2.031  13.342  0.3827 -0.1094  0.0799
  926MPD2    C513551   2.356   1.973  13.468  0.2812  0.7497 -0.2163
  926MPD2     H13552   2.059   2.155  13.281  0.4078 -0.5346 -0.5748
  926MPD2    H113553   2.472   2.009  13.307 -0.4711 -0.8737 -1.8694
  926MPD2    H213554   2.219   1.940  13.618 -1.2896  2.2545  0.8076
  926MPD2    H313555   2.424   1.908  13.521  2.1789  1.7497 -1.4150
  926MPD2     N13556   2.288   2.131  13.138 -0.0379  0.0162 -0.6409
  926MPD2    H513557   2.385   2.132  13.108  0.4646  0.7270  1.0177
  926MPD2    N113558   1.991   2.057  13.499 -0.7146  1.1181  0.1168
  926MPD2    H713559   1.920   2.118  13.461 -0.1355  1.7804  0.0903
  927MPD2     C13560   0.513   4.530   0.056  0.3469 -0.7650 -0.7088
  927MPD2    C113561   0.637   4.556   0.092 -0.7647 -0.3403 -0.2096
  927MPD2    C213562   0.741   4.562  17.695  0.4497  0.5731  0.1742
  927MPD2    C313563   0.716   4.536  17.564 -0.3707 -0.1957 -0.2474
  927MPD2    C413564   0.583   4.505  17.524  1.1063 -0.4631  1.3534
  927MPD2    C513565   0.481   4.504  17.622 -0.1922  0.1727  0.2644
  927MPD2     H13566   0.842   4.589   0.019  1.7794 -2.5705 -1.8412
  927MPD2    H113567   0.563   4.485  17.419 -0.3712  1.3664  1.2801
  927MPD2    H213568   0.430   4.532   0.127 -1.3521  1.0823 -2.7335
  927MPD2    H313569   0.377   4.496  17.593 -0.3661 -3.1958  1.8537
  927MPD2     N13570   0.824   4.526  17.475 -0.1819 -0.3233  0.1380
  927MPD2    H513571   0.908   4.566  17.515  1.3231 -3.0567 -0.2897
  927MPD2    N113572   0.659   4.580   0.226 -0.4532  0.0438 -0.6039
  927MPD2    H713573   0.573   4.574   0.279  0.5545  0.9269  1.1116
  928MPD2     C13574   0.204   2.562   0.979 -0.1113 -0.4570  0.2429
  928MPD2    C113575   0.130   2.666   1.036  0.2805  0.1131  0.6478
  928MPD2    C213576   0.018   2.715   0.974 -0.6515 -1.0319  0.1104
  928MPD2    C313577   4.689   2.654   0.860  0.7110 -0.2638  0.3480
  928MPD2    C413578   0.018   2.532   0.819  0.5893  0.6674 -0.5632
  928MPD2    C513579   0.139   2.492   0.883  0.1077  0.5762  0.2137
  928MPD2     H13580   4.702   2.807   1.014  3.8075  0.8955  0.2074
  928MPD2    H113581   4.711   2.479   0.731  2.4436 -0.5934 -0.4838
  928MPD2    H213582   0.291   2.516   1.022  0.2720  0.1228  0.0924
  928MPD2    H313583   0.194   2.412   0.836 -3.2735 -0.4246 -2.0283
  928MPD2     N13584   4.590   2.706   0.773  0.0572  0.3376  0.4072
  928MPD2    H513585   4.585   2.666   0.680  3.2285  0.6611  0.0838
  928MPD2    N113586   0.178   2.719   1.156 -0.1057  0.2366 -0.0119
  928MPD2    H713587   0.266   2.685   1.192  0.4659  2.7776  0.9784
  929MPD2     C13588   4.217   3.147  10.004 -0.1202  0.6595 -0.1147
  929MPD2    C113589   4.204   3.014  10.033  0.6828 -0.2000  0.0030
  929MPD2    C213590   4.130   2.931   9.946 -0.4330 -0.1421  0.5412
  929MPD2    C313591   4.058   2.993   9.845 -0.0896  0.2785  0.3485
  929MPD2    C413592   4.083   3.125   9.816 -0.3602  0.1785  0.5397
  929MPD2    C513593   4.178   3.199   9.882 -0.9556  0.2123 -0.4756
  929MPD2     H13594   4.105   2.830   9.977 -0.8923 -0.3515 -0.5052
  929MPD2    H113595   4.029   3.182   9.740  0.7007  0.0702 -0.2998
  929MPD2    H213596   4.271   3.203  10.080  0.0808 -1.5042  1.3291
  929MPD2    H313597   4.201   3.303   9.858 -1.9764  0.4720 -0.3480
  929MPD2     N13598   3.958   2.924   9.765  0.5279  0.7204  0.0985
  929MPD2    H513599   3.913   2.985   9.697  1.8029  0.5439 -0.8933
  929MPD2    N113600   4.270   2.978  10.148  0.3426 -0.6882  0.0398
  929MPD2    H713601   4.327   3.045  10.198  0.1063  1.1746 -2.2179
  930MPD2     C13602   0.670   0.012  14.147  0.0213 -0.0993 -0.1644
  930MPD2    C113603   0.804   4.707  14.127 -0.6941  0.0199 -0.1652
  930MPD2    C213604   0.842   4.594  14.052 -0.4510 -0.1602  0.0684
  930MPD2    C313605   0.747   4.500  14.012 -0.2021  0.2633 -0.3393
  930MPD2    C413606   0.612   4.532  14.034  0.2301  0.0316 -0.7467
  930MPD2    C513607   0.577   4.647  14.105  0.2695  0.5244  0.3747
  930MPD2     H13608   0.947   4.574  14.034 -0.6905 -0.4002 -1.0334
  930MPD2    H113609   0.531   4.463  14.011  0.7429 -0.7035 -0.3692
  930MPD2    H213610   0.635   0.092  14.212  1.0105  0.6715 -0.5917
  930MPD2    H313611   0.475   4.671  14.132  1.1340  2.2226  2.1976
  930MPD2     N13612   0.787   4.390  13.929  0.6957  0.0960 -0.1959
  930MPD2    H513613   0.714   4.341  13.878  0.5827 -1.2547  1.2775
  930MPD2    N113614   0.897   0.075  14.178  0.2649  0.0735  0.6738
  930MPD2    H713615   0.871   0.165  14.217  0.5496  0.9007 -1.0702
  931MPD2     C13616   1.300   4.321   0.610  0.2112  0.0642 -0.6035
  931MPD2    C113617   1.191   4.348   0.686 -0.6579  0.7551  0.1433
  931MPD2    C213618   1.182   4.275   0.810  0.0592 -0.3796 -0.1842
  931MPD2    C313619   1.280   4.183   0.840 -0.6901  0.4171  0.0852
  931MPD2    C413620   1.384   4.157   0.756 -0.0150  0.0786 -0.9367
  931MPD2    C513621   1.393   4.224   0.641  0.0901 -0.3410 -0.0782
  931MPD2     H13622   1.089   4.275   0.865 -0.5687  0.4581 -1.2523
  931MPD2    H113623   1.457   4.078   0.767  0.1207  0.2068 -0.9115
  931MPD2    H213624   1.315   4.365   0.512 -0.2618  0.7762 -0.3647
  931MPD2    H313625   1.476   4.205   0.575  0.4251 -0.8049  0.4762
  931MPD2     N13626   1.263   4.109   0.959  0.6615  0.4624  0.2508
  931MPD2    H513627   1.188   4.125   1.026 -0.2904 -1.1247 -0.4430
  931MPD2    N113628   1.088   4.433   0.635 -0.1068 -0.0027  0.0102
  931MPD2    H713629   1.079   4.457   0.536  0.1094  2.5466  0.6165
  932MPD2     C13630   2.663   3.698  11.023  0.4303  0.3081 -0.1610
  932MPD2    C113631   2.788   3.749  10.998 -0.2923  0.3867 -0.3796
  932MPD2    C213632   2.892   3.667  10.980 -0.4988 -0.1879  0.1784
  932MPD2    C313633   2.885   3.531  11.022  0.3513  0.0976 -0.3272
  932MPD2    C413634   2.765   3.487  11.070 -0.0792  0.1929 -0.0031
  932MPD2    C513635   2.652   3.567  11.055  0.0706  0.4819  0.5886
  932MPD2     H13636   2.993   3.704  10.967 -0.4554 -0.8381 -1.2977
  932MPD2    H113637   2.735   3.386  11.094  1.6757 -0.1751  0.6000
  932MPD2    H213638   2.580   3.767  11.023 -0.0416 -0.2541 -0.7781
  932MPD2    H313639   2.557   3.523  11.083  0.4550 -1.4880 -1.2112
  932MPD2     N13640   2.994   3.440  11.026  0.4905 -0.6317  0.0446
  932MPD2    H513641   2.975   3.344  11.052  1.1956 -0.6513  0.4963
  932MPD2    N113642   2.816   3.885  10.988 -0.0490  0.1720 -0.0790
  932MPD2    H713643   2.914   3.903  10.967 -0.6132 -0.8277 -3.5409
  933MPD2     C13644   0.281   3.092   2.000  0.5535 -0.1333  0.0266
  933MPD2    C113645   0.204   3.108   1.893 -0.6881 -0.5074  0.8026
  933MPD2    C213646   0.123   3.218   1.876 -0.0924  0.3180  0.1052
  933MPD2    C313647   0.116   3.321   1.971 -1.2307  0.3854 -0.1114
  933MPD2    C413648   0.184   3.296   2.086 -0.0639 -0.4110  0.5994
  933MPD2    C513649   0.270   3.184   2.098 -0.0358  0.6305 -0.2578
  933MPD2     H13650   0.087   3.222   1.774 -0.1809 -0.1004  0.1209
  933MPD2    H113651   0.176   3.366   2.169 -0.0410 -1.8656  1.8192
  933MPD2    H213652   0.345   3.006   2.006  0.2516 -0.3809 -0.2709
  933MPD2    H313653   0.324   3.162   2.189 -1.1687  2.9759  0.9937
  933MPD2     N13654   0.039   3.436   1.943  0.0464  0.2503  0.7060
  933MPD2    H513655   4.714   3.449   1.855  0.6036  0.7538  0.4639
  933MPD2    N113656   0.230   3.022   1.789 -0.8013 -0.6321  0.5687
  933MPD2    H713657   0.319   2.973   1.783  0.3746  1.5248  0.5602
  934MPD2     C13658   0.271   1.380   2.059  0.3495 -0.7522  0.1126
  934MPD2    C113659   0.328   1.351   1.938 -0.2786  0.3267  0.0211
  934MPD2    C213660   0.258   1.286   1.837 -0.6319 -0.1331  0.4794
  934MPD2    C313661   0.127   1.245   1.862 -0.5117  0.6330 -0.6645
  934MPD2    C413662   0.067   1.269   1.984 -0.1001  0.2848  0.2226
  934MPD2    C513663   0.137   1.345   2.081 -0.4439 -0.0554 -0.6182
  934MPD2     H13664   0.304   1.264   1.741 -2.4038 -0.2843 -0.3277
  934MPD2    H113665   4.696   1.234   2.019 -0.5006 -0.3939 -1.5653
  934MPD2    H213666   0.322   1.432   2.140 -1.8238  0.3040  0.8050
  934MPD2    H313667   0.101   1.369   2.181 -0.1177  0.6381 -0.6714
  934MPD2     N13668   0.042   1.178   1.770  0.4417  0.2023  0.4216
  934MPD2    H513669   4.672   1.150   1.792  1.0034 -1.0691  1.2919
  934MPD2    N113670   0.457   1.389   1.911 -0.1460 -0.0631 -0.4111
  934MPD2    H713671   0.494   1.363   1.820 -1.6542  0.2764 -1.1111
  935MPD2     C13672   0.155   0.518   0.975 -0.2290  0.4698  0.0435
  935MPD2    C113673   0.046   0.485   1.048 -0.3813 -0.6369  0.3601
  935MPD2    C213674   0.013   0.554   1.166 -0.2249  0.7026  0.5506
  935MPD2    C313675   0.100   0.650   1.205  0.4118 -0.5209  0.3451
  935MPD2    C413676   0.213   0.680   1.131 -0.4502 -0.5980  0.4192
  935MPD2    C513677   0.235   0.612   1.012  0.7682 -0.2161 -0.2738
  935MPD2     H13678   4.643   0.533   1.213 -0.0107 -0.4909  0.4713
  935MPD2    H113679   0.277   0.762   1.160 -0.6103 -0.3339  0.0336
  935MPD2    H213680   0.184   0.467   0.884  2.0169 -1.0882  1.6263
  935MPD2    H313681   0.314   0.641   0.943 -0.5715 -0.7735 -2.0336
  935MPD2     N13682   0.072   0.732   1.314  0.1644  0.3959 -0.0030
  935MPD2    H513683   0.127   0.817   1.309  0.5573  0.1240 -0.2916
  935MPD2    N113684   4.671   0.385   1.014  0.3340  0.8834  0.2044
  935MPD2    H713685   4.600   0.363   1.083  0.6360 -0.9376 -0.0526
  936MPD2     C13686   3.422   1.974  12.270 -0.0123  0.5977 -0.2084
  936MPD2    C113687   3.498   1.874  12.331 -0.1501 -0.0494  0.0265
  936MPD2    C213688   3.565   1.900  12.451  0.7847 -0.7142 -0.4160
  936MPD2    C313689   3.553   2.014  12.525  0.0142  0.0709  0.2783
  936MPD2    C413690   3.479   2.112  12.466 -0.1894 -0.2061 -0.1337
  936MPD2    C513691   3.415   2.088  12.345  0.6597  0.7653  0.3585
  936MPD2     H13692   3.623   1.818  12.491  1.5907 -0.0031 -0.1266
  936MPD2    H113693   3.471   2.205  12.520 -1.3518 -1.0969  1.2343
  936MPD2    H213694   3.367   1.964  12.177  3.5785  2.8805 -2.5711
  936MPD2    H313695   3.365   2.179  12.315 -1.5802 -0.5859  0.0111
  936MPD2     N13696   3.628   2.043  12.640  0.1849  0.3010 -0.2378
  936MPD2    H513697   3.628   2.137  12.680  0.4667  0.6582 -1.0723
  936MPD2    N113698   3.511   1.747  12.267  0.2940 -0.1881 -0.3823
  936MPD2    H713699   3.562   1.680  12.322  1.1749  1.7858  1.1842
  937MPD2     C13700   1.581   3.220  11.819 -0.4843  0.5007  0.8726
  937MPD2    C113701   1.553   3.349  11.852  0.0432  0.3046 -0.4016
  937MPD2    C213702   1.566   3.442  11.755  0.0526  0.1343  0.0015
  937MPD2    C313703   1.600   3.413  11.624  0.0277 -0.0284 -0.5258
  937MPD2    C413704   1.639   3.287  11.592 -1.1487  0.5694  0.5152
  937MPD2    C513705   1.627   3.191  11.692  0.3655 -0.3985  0.4331
  937MPD2     H13706   1.541   3.545  11.778 -0.4165  0.2929 -1.2571
  937MPD2    H113707   1.674   3.263  11.492  0.2747  1.4710  0.7895
  937MPD2    H213708   1.570   3.138  11.890  1.7794  0.8393  1.6010
  937MPD2    H313709   1.662   3.091  11.668 -0.9533 -0.6370 -0.4555
  937MPD2     N13710   1.602   3.524  11.535 -0.4358  0.2134  0.0788
  937MPD2    H513711   1.575   3.615  11.570  0.6217  0.6273 -0.1672
  937MPD2    N113712   1.487   3.392  11.972 -0.3309 -0.7523 -0.5334
  937MPD2    H713713   1.455   3.488  11.979  0.0838 -0.4448 -2.7298
  938MPD2     C13714   3.146   0.485   1.262 -0.4643  0.0527  0.1164
  938MPD2    C113715   3.259   0.477   1.178 -0.1320 -1.0475 -0.5105
  938MPD2    C213716   3.343   0.366   1.192  0.2839 -0.2854 -0.5048
  938MPD2    C313717   3.315   0.268   1.291 -0.3455  0.4438  1.0056
  938MPD2    C413718   3.196   0.275   1.360  0.0335 -0.0241 -0.2470
  938MPD2    C513719   3.110   0.380   1.340  0.6337  0.1450  0.8565
  938MPD2     H13720   3.420   0.345   1.120  0.0295 -1.5229 -0.4301
  938MPD2    H113721   3.170   0.208   1.441  0.9064  0.9277  0.8133
  938MPD2    H213722   3.086   0.575   1.263  0.9904  1.0496 -0.4750
  938MPD2    H313723   3.032   0.384   1.415  0.0526 -0.6974  0.3009
  938MPD2     N13724   3.396   0.146   1.310 -0.0945  0.5777 -0.7182
  938MPD2    H513725   3.354   0.074   1.367 -0.1729  1.8178  0.7918
  938MPD2    N113726   3.286   0.577   1.072 -0.0028  0.3076 -0.1504
  938MPD2    H713727   3.380   0.582   1.033 -0.2242 -2.4963 -1.0159
  939MPD2     C13728   0.436   1.229   0.658  0.1500  0.1166  0.4566
  939MPD2    C113729   0.496   1.346   0.691  0.0228  0.3689  0.7906
  939MPD2    C213730   0.620   1.375   0.635  0.3502  0.3793  0.0938
  939MPD2    C313731   0.676   1.289   0.544  0.1425  0.1667  0.2845
  939MPD2    C413732   0.618   1.162   0.524  0.3052  1.2174  0.7633
  939MPD2    C513733   0.493   1.135   0.576  0.4993 -0.2647  0.2454
  939MPD2     H13734   0.658   1.474   0.654  3.0682 -0.4650 -0.8965
  939MPD2    H113735   0.662   1.086   0.461 -2.0854  2.7075 -2.6980
  939MPD2    H213736   0.343   1.199   0.705 -1.0445  1.1625 -1.2525
  939MPD2    H313737   0.428   1.056   0.541  2.0956 -1.9486  1.0809
  939MPD2     N13738   0.798   1.326   0.482  0.4435  0.0967 -0.0023
  939MPD2    H513739   0.824   1.424   0.493 -0.4825  0.5261 -1.6389
  939MPD2    N113740   0.427   1.431   0.777 -0.0522  0.1228 -0.2770
  939MPD2    H713741   0.342   1.384   0.805  0.5650 -0.7865  0.0622
  940MPD2     C13742   4.428   1.989  12.837  0.0270  0.1218 -0.4397
  940MPD2    C113743   4.376   1.859  12.854 -0.4173 -0.4877  0.0797
  940MPD2    C213744   4.398   1.758  12.759 -0.1746 -0.3487  0.1902
  940MPD2    C313745   4.475   1.784  12.644  0.3210 -0.1476 -0.1088
  940MPD2    C413746   4.536   1.907  12.633 -0.0853 -0.0827  0.3901
  940MPD2    C513747   4.507   2.006  12.724 -0.7494 -0.7411  0.3649
  940MPD2     H13748   4.361   1.661  12.788  2.8943 -0.7749  2.6938
  940MPD2    H113749   4.614   1.924  12.559 -0.0516  0.1396  0.4769
  940MPD2    H213750   4.397   2.070  12.902  0.2124 -0.6022  0.5573
  940MPD2    H313751   4.543   2.107  12.711  1.3281 -1.2544  2.0069
  940MPD2     N13752   4.512   1.686  12.554 -0.3098  0.2938 -0.4996
  940MPD2    H513753   4.560   1.728  12.475  0.2746 -1.7769 -1.2578
  940MPD2    N113754   4.298   1.823  12.963 -0.1294 -0.0317 -0.5301
  940MPD2    H713755   4.268   1.727  12.971 -0.4676 -0.0480 -2.0765
  941MPD2     C13756   4.606   1.245   9.375  0.5058 -0.0319  0.4044
  941MPD2    C113757   4.612   1.236   9.513  0.0766  0.1176 -0.2065
  941MPD2    C213758   4.509   1.159   9.573 -0.0411  0.2768 -0.0626
  941MPD2    C313759   4.421   1.084   9.494 -0.0561  0.0594  0.7586
  941MPD2    C413760   4.428   1.089   9.354 -0.1422  0.6072  0.0231
  941MPD2    C513761   4.521   1.173   9.292 -0.3195  0.1221 -0.5725
  941MPD2     H13762   4.487   1.172   9.678  1.1410  0.1691  0.2022
  941MPD2    H113763   4.366   1.025   9.292  0.5048 -0.6325  0.6716
  941MPD2    H213764   4.670   1.310   9.316  2.0608 -0.9762  1.0541
  941MPD2    H313765   4.528   1.191   9.186 -0.3460 -1.2193 -0.7972
  941MPD2     N13766   4.332   1.010   9.569  0.2541 -0.1186 -0.4161
  941MPD2    H513767   4.360   0.988   9.665 -0.5085 -2.3729 -0.7091
  941MPD2    N113768   4.704   1.307   9.591 -0.6665  0.6943 -0.1544
  941MPD2    H713769   4.686   1.305   9.690  1.1005  1.1021  0.1741
  942MPD2     C13770   3.254   2.975   9.511 -0.0524  0.8618 -0.1527
  942MPD2    C113771   3.249   2.870   9.418 -0.3616 -0.0014 -1.4624
  942MPD2    C213772   3.359   2.830   9.347 -0.2500  0.2599 -0.1199
  942MPD2    C313773   3.474   2.902   9.364 -0.5630 -0.0725  0.3598
  942MPD2    C413774   3.489   2.998   9.464 -0.1850  0.0755  0.1199
  942MPD2    C513775   3.374   3.034   9.533 -0.3770  0.5307  0.2375
  942MPD2     H13776   3.349   2.751   9.272 -2.9450 -0.3804  0.9197
  942MPD2    H113777   3.581   3.056   9.472  0.2305 -0.9109  2.5731
  942MPD2    H213778   3.171   3.014   9.569 -0.1790  0.2632  0.0617
  942MPD2    H313779   3.370   3.112   9.609 -2.5981  1.8277 -1.2160
  942MPD2     N13780   3.596   2.857   9.313 -0.3904  0.6290 -0.0117
  942MPD2    H513781   3.675   2.920   9.324 -0.0279  0.5141 -1.8776
  942MPD2    N113782   3.126   2.812   9.389 -0.1065 -0.2587 -0.1005
  942MPD2    H713783   3.119   2.742   9.315 -0.3999 -0.6607  0.3061
  943MPD2     C13784   3.241   0.064  10.672  0.0059  0.2776 -1.2113
  943MPD2    C113785   3.117   0.086  10.608 -0.7499  0.0181  0.5448
  943MPD2    C213786   3.115   0.138  10.480 -0.7019 -0.0634  0.2236
  943MPD2    C313787   3.238   0.168  10.420 -0.1071  0.4060 -0.8669
  943MPD2    C413788   3.358   0.142  10.489  1.3549 -0.6973  0.2224
  943MPD2    C513789   3.355   0.089  10.616  0.4505 -0.0976  0.2708
  943MPD2     H13790   3.026   0.159  10.423  0.4381  4.4157  0.0317
  943MPD2    H113791   3.454   0.159  10.442  0.0319  0.1417 -2.1887
  943MPD2    H213792   3.245   0.030  10.774 -1.3258  0.2650 -1.1584
  943MPD2    H313793   3.447   0.056  10.662 -0.0821 -0.7138  0.9126
  943MPD2     N13794   3.257   0.243  10.300 -0.9076  0.4688 -0.0648
  943MPD2    H513795   3.349   0.276  10.271  0.1772 -3.3113 -0.9128
  943MPD2    N113796   3.004   0.080  10.688 -0.0194  0.2228  0.1555
  943MPD2    H713797   3.018   0.042  10.781  0.9885  1.6323  0.5723
  944MPD2     C13798   1.674   4.671  11.506  0.7139  0.2144  0.0398
  944MPD2    C113799   1.803   4.719  11.491 -0.2048 -0.5240  0.4962
  944MPD2    C213800   1.851   0.078  11.585 -0.3384  0.4932  0.0361
  944MPD2    C313801   1.781   0.115  11.692  0.4468  0.7248 -0.5420
  944MPD2    C413802   1.653   0.074  11.710 -0.4168 -0.2465 -0.0240
  944MPD2    C513803   1.597   4.717  11.615 -0.1763 -0.1772 -0.3766
  944MPD2     H13804   1.954   0.114  11.588  0.4713 -1.8385 -0.3224
  944MPD2    H113805   1.585   0.110  11.786 -0.1824  1.5106 -0.6555
  944MPD2    H213806   1.618   4.615  11.432 -1.0840  1.2555  0.6042
  944MPD2    H313807   1.495   4.683  11.623  0.1258 -0.8723  0.6604
  944MPD2     N13808   1.844   0.205  11.780  0.4915 -0.9210  0.3237
  944MPD2    H513809   1.933   0.241  11.748 -0.1788  0.7279  0.3489
  944MPD2    N113810   1.872   4.667  11.382  0.3637  0.3567 -0.1291
  944MPD2    H713811   1.824   4.596  11.327 -2.0183  1.3490  0.6425
    1TCq1    O113812   0.413   0.466  13.464  0.2553 -0.0858  0.3025
    1TCq1    C113813   0.479   0.446  13.591 -0.1945  0.0941  0.5782
    1TCq1    O213814   0.603   0.460  13.593  0.3291 -0.5729 -0.2990
    1TCq1    C213815   0.394   0.482  13.706 -0.2375 -0.1991  0.0349
    1TCq1    C313816   0.272   0.430  13.713 -0.2829 -0.3266  0.2520
    1TCq1    C413817   0.187   0.475  13.803 -0.4556 -0.2777 -0.4659
    1TCq1    C513818   0.235   0.572  13.895  0.0332  0.0540  0.7478
    1TCq1    C613819   0.362   0.613  13.894 -0.2980 -0.6920  0.1086
    1TCq1    C713820   0.451   0.571  13.795 -0.2259 -0.1156  0.2927
    1TCq1    C813821   0.417   0.663  14.013 -0.2045  0.3923  0.2591
    1TCq1    O413822   0.523   0.626  14.065 -0.3839 -0.0223  0.0346
    1TCq1    C913823   0.052   0.439  13.806  1.2900  0.3898  0.5970
    1TCq1    O513824   4.723   0.360  13.713  0.1489 -0.5518 -0.8849
    1TCq1    O613825   4.712   0.483  13.902 -0.3273  0.3293  0.5739
    1TCq1    H113826   0.316   0.472  13.479  0.2020  2.1342 -0.9408
    1TCq1    H213827   0.255   0.358  13.634  1.4025  1.5822 -1.8511
    1TCq1    H313828   0.174   0.605  13.978  1.3931 -1.4071  2.3185
    1TCq1    H413829   0.546   0.623  13.791 -1.2971  1.9441  1.1562
    2MPD2     C13830   0.357   1.032  14.379  0.2738 -0.0492  0.9590
    2MPD2    C113831   0.256   1.055  14.283 -0.9011 -0.4736  0.4196
    2MPD2    C213832   0.263   0.966  14.171  0.3737 -0.7665 -0.0683
    2MPD2    C313833   0.358   0.862  14.159  0.4852  0.2855  0.6456
    2MPD2    C413834   0.455   0.844  14.256  0.7657  0.2859 -0.5657
    2MPD2    C513835   0.449   0.934  14.361  0.6092 -0.4105  0.1817
    2MPD2     H13836   0.180   0.972  14.101 -0.1616  0.3852  0.6907
    2MPD2    H113837   0.533   0.769  14.251  0.0140 -0.4330 -1.6014
    2MPD2    H213838   0.359   1.082  14.475  1.6456 -0.8148  1.3272
    2MPD2    H313839   0.523   0.928  14.439  0.8958 -2.6123 -0.2735
    2MPD2     N13840   0.339   0.767  14.053 -0.1372  0.4423  0.0004
    2MPD2    H513841   0.273   0.802  13.985  1.2283 -0.7550 -1.9413
    2MPD2    N113842   0.161   1.156  14.290  0.3356  0.1132  0.1313
    2MPD2    H713843   0.173   1.214  14.373 -0.0609  0.4348 -0.0375
    3TMC2    C113844   4.709   1.300  14.236 -0.1347 -0.1430 -0.0349
    3TMC2    C213845   4.724   1.353  14.367 -0.4653 -0.0983 -0.1229
    3TMC2    C313846   4.626   1.446  14.398 -0.4447  0.6649  0.2945
    3TMC2    C413847   4.628   1.359  14.137  0.6401  0.1915  0.1657
    3TMC2    C513848   4.548   1.461  14.182  0.4867  0.2252  1.0355
    3TMC2    C613849   4.532   1.493  14.314  0.6814  0.1621  0.4960
    3TMC2     C13850   0.061   1.185  14.205 -0.2328 -0.1247  0.9014
    3TMC2     O13851   0.037   1.128  14.099 -0.3905 -0.6269 -0.1459
    3TMC2     H13852   0.057   1.312  14.449  0.1223 -2.1823 -1.6088
    3TMC2    H113853   4.629   1.317  14.038  0.1084 -1.7230  0.9808
    3TMC2    H213854   4.474   1.577  14.348  0.7690  1.1114 -1.7206
    3TMC2    C713855   4.474   1.542  14.082  0.2708 -0.1600 -0.4360
    3TMC2    C813856   4.593   1.442  14.529  0.3533  1.0854  0.4711
    3TMC2    O113857   4.392   1.627  14.125 -0.3852  0.7843 -0.3052
    3TMC2    O213858   4.473   1.440  14.562  0.1869 -0.6072 -0.4228
    3TMC2    O513859   4.707   1.452  14.604  0.0475  0.6427 -0.1519
    3TMC2    H513860   0.061   1.478  14.551  0.5516 -0.6545 -0.0198
    4MPD2     C13861   4.305   2.618  13.338 -0.0883  0.2223 -0.4947
    4MPD2    C113862   4.257   2.492  13.348 -0.7525  0.3660  0.3130
    4MPD2    C213863   4.345   2.390  13.372 -0.3245  0.1232 -0.8354
    4MPD2    C313864   4.481   2.408  13.393  0.2341  0.5864 -0.0095
    4MPD2    C413865   4.525   2.533  13.401 -0.1132  0.4650  0.8149
    4MPD2    C513866   4.441   2.632  13.364  0.3566  0.1459  0.3337
    4MPD2     H13867   4.307   2.288  13.374  0.8558 -0.3474 -2.5642
    4MPD2    H113868   4.615   2.575  13.446 -0.3092  0.4862  1.1836
    4MPD2    H213869   4.241   2.702  13.311  3.4054  2.8052 -0.6995
    4MPD2    H313870   4.476   2.734  13.379  1.9714 -0.3758  0.1905
    4MPD2     N13871   4.563   2.299  13.409  0.2122 -0.8622 -0.1403
    4MPD2    H513872   4.515   2.212  13.428  3.7372 -2.2223  2.4066
    4MPD2    N113873   4.120   2.480  13.320  0.0075  0.8895  0.0138
    4MPD2    H713874   4.067   2.563  13.294 -0.2653  0.7408  0.0932
    5TCq2    C113875   4.702   2.308  13.412  0.4525  0.2724  0.3289
    5TCq2    O213876   0.046   2.405  13.379 -0.1845 -0.1401  0.1046
    5TCq2    C213877   0.057   2.188  13.423  0.1127  0.3763  0.1268
    5TCq2    C313878   0.192   2.200  13.402  0.3951 -0.1434  0.5995
    5TCq2    C413879   0.270   2.091  13.427 -0.2475 -0.2422  0.4391
    5TCq2    C513880   0.218   1.974  13.477 -0.5257 -0.1828  0.6622
    5TCq2    C613881   0.082   1.965  13.489  0.5172 -0.4620 -0.1413
    5TCq2    C713882   4.722   2.075  13.479  0.0767 -0.2421  0.1245
    5TCq2    C813883   0.033   1.852  13.571  0.1505  0.0102  0.2328
    5TCq2    O413884   0.119   1.787  13.634  0.1822 -0.7559  1.3707
    5TCq2    C913885   0.413   2.102  13.394  0.1241  0.8772  0.6720
    5TCq2    O513886   0.480   2.000  13.414  0.3992 -0.3840  0.0518
    5TCq2    O613887   0.461   2.205  13.335 -0.7465  0.6654  0.4602
    5TCq2    H213888   0.238   2.290  13.364 -1.6382 -0.0579 -1.6787
    5TCq2    H313889   0.276   1.892  13.519  1.0599 -0.0106 -1.2131
    5TCq2    H413890   4.615   2.057  13.478  0.5830 -3.0386 -3.1877
    6MPD1     C13891   3.039   3.597  13.353  0.3671 -0.2366  0.1463
    6MPD1    C113892   2.928   3.510  13.325 -0.4211 -0.3813 -0.2466
    6MPD1    C213893   2.951   3.419  13.222 -0.0367  0.5724  0.4634
    6MPD1    C313894   3.079   3.395  13.168 -0.1907  0.3232 -0.3958
    6MPD1    C413895   3.192   3.464  13.212 -0.2321 -0.2140  0.3271
    6MPD1    C513896   3.168   3.567  13.305  0.0679  0.7912  0.2345
    6MPD1     H13897   2.867   3.360  13.188 -0.4164  0.8957  0.8396
    6MPD1    H113898   3.295   3.449  13.179 -0.8413  0.6914 -1.9908
    6MPD1    H213899   3.023   3.679  13.422 -1.7831  1.6626 -2.6068
    6MPD1    H313900   3.244   3.634  13.344  2.2677 -0.7279 -1.4879
    6MPD1     N13901   3.104   3.296  13.072  0.3836 -0.1776 -0.1064
    6MPD1    H513902   3.204   3.279  13.058  0.2363 -1.8657  0.8322
    6MPD1    N113903   2.793   3.541  13.363  0.4418  0.2895 -0.2439
    6MPD1    H613904   2.745   3.452  13.352 -1.0040  0.6530  3.0953
    6MPD1    H713905   2.788   3.580  13.457 -1.9518  0.4625 -0.4307
    7MPD2     C13906   3.136   2.497  13.206 -0.1110 -0.0068  0.1432
    7MPD2    C113907   3.227   2.557  13.125 -0.7613  0.3545  0.2969
    7MPD2    C213908   3.357   2.511  13.123  0.0227  0.4248 -0.4765
    7MPD2    C313909   3.392   2.405  13.198 -0.4397 -0.5200  0.7100
    7MPD2    C413910   3.299   2.338  13.277  0.3472  0.1428  0.1241
    7MPD2    C513911   3.172   2.385  13.278 -0.6229  0.6402 -0.3962
    7MPD2     H13912   3.434   2.565  13.070  0.6801 -1.7707 -1.7177
    7MPD2    H113913   3.313   2.253  13.343 -1.4323 -0.4073 -0.1885
    7MPD2    H213914   3.034   2.531  13.219 -0.9206 -1.9738 -1.0041
    7MPD2    H313915   3.096   2.341  13.341 -1.0367  2.1857  0.1857
    7MPD2     N13916   3.524   2.363  13.183 -0.1109  0.5410  0.5089
    7MPD2    H513917   3.576   2.402  13.105  0.8306  1.1860  1.4602
    7MPD2    N113918   3.202   2.670  13.043 -0.3316 -0.1066  0.0728
    7MPD2    H713919   3.291   2.695  12.999  0.2884  0.7902  1.8676
    8TMC3    C113920   3.725   2.258  13.198 -0.3904 -0.0611  0.8925
    8TMC3    C213921   3.821   2.277  13.291 -0.4824  0.1160  0.2837
    8TMC3    C313922   3.912   2.376  13.267 -0.1949 -0.4793 -0.4852
    8TMC3    C413923   3.725   2.319  13.083 -0.2938  0.2635 -0.3408
    8TMC3    C513924   3.817   2.415  13.052  0.6516  0.1113  0.1740
    8TMC3    C613925   3.909   2.452  13.149 -0.0274  0.1876 -0.1252
    8TMC3     C13926   3.589   2.259  13.245 -0.1115 -0.4368 -0.3888
    8TMC3     O13927   3.562   2.169  13.326  0.0901  0.9368 -0.2873
    8TMC3     H13928   3.810   2.231  13.389  0.0813  1.2411  0.8731
    8TMC3    H113929   3.665   2.278  13.003  0.6243 -0.3302 -0.7194
    8TMC3    H213930   3.976   2.537  13.137  1.3770 -1.2843 -2.6526
    8TMC3    C713931   3.759   2.517  12.975 -0.7672 -0.3911 -0.0877
    8TMC3    C813932   4.042   2.368  13.329  0.3484 -0.0164 -0.0578
    8TMC3    O113933   3.638   2.503  12.954 -0.2629 -0.2968 -0.1255
    8TMC3    O213934   4.074   2.264  13.377  0.3405  0.2632  0.2026
    9TMC3    C113935   3.095   3.090  12.979 -0.4923 -0.0874  0.2972
    9TMC3    C213936   3.203   3.118  12.902  0.0908  0.1883  0.0926
    9TMC3    C313937   3.269   3.008  12.852  0.8622 -0.1531 -0.0884
    9TMC3    C413938   3.031   2.963  12.992  0.7973 -1.6922  0.0026
    9TMC3    C513939   3.099   2.859  12.939  0.4749  1.0377  0.0064
    9TMC3    C613940   3.225   2.879  12.883 -0.0561  0.0622  0.3802
    9TMC3     C13941   3.018   3.195  13.032  0.0074  0.0418 -0.9206
    9TMC3     O13942   2.894   3.195  13.027 -0.5565 -0.1892 -0.3253
    9TMC3     H13943   3.217   3.221  12.875 -1.2418  0.2137 -0.5014
    9TMC3    H113944   2.933   2.953  13.037 -0.1211 -2.1451 -2.0830
    9TMC3    H213945   3.275   2.800  12.829  1.2194 -0.1782  1.8996
    9TMC3    C713946   3.081   2.734  13.007 -0.6065  0.0330 -0.0693
    9TMC3    C813947   3.405   3.027  12.804  0.1233  0.5451  0.0734
    9TMC3    O113948   2.973   2.712  13.055  0.4054  0.4411  0.7513
    9TMC3    O213949   3.431   3.143  12.773 -0.1555 -0.1075  0.7212
   10MPD2     C13950   3.895   2.826  12.846 -0.1824 -0.2134 -0.2202
   10MPD2    C113951   3.802   2.744  12.902  0.7038 -0.2816  0.5378
   10MPD2    C213952   3.669   2.778  12.910 -0.0606  0.0018 -0.6147
   10MPD2    C313953   3.617   2.893  12.849 -0.4154  0.1523 -0.4790
   10MPD2    C413954   3.716   2.977  12.790 -0.6531 -0.8069  0.0080
   10MPD2    C513955   3.855   2.946  12.783 -0.2517  0.3363 -0.0153
   10MPD2     H13956   3.597   2.713  12.959 -0.2809 -0.3307 -1.3611
   10MPD2    H113957   3.688   3.068  12.738 -0.6767 -0.2545  0.9868
   10MPD2    H213958   3.999   2.801  12.836  0.1589  0.4330  1.5863
   10MPD2    H313959   3.924   3.018  12.741  0.8835 -0.5571  0.3260
   10MPD2     N13960   3.473   2.919  12.857  0.5212 -0.0997  0.8147
   10MPD2    H513961   3.417   2.849  12.905 -0.2375  1.1184  1.7118
   10MPD2    N113962   3.845   2.620  12.950 -0.2040  0.5946  0.5495
   10MPD2    H713963   3.944   2.597  12.956 -0.3079  0.5057  1.8508
   11MPD2     C13964   4.359   1.672  13.851 -0.0011  0.1911 -0.3416
   11MPD2    C113965   4.493   1.630  13.859  0.5948 -0.8585  0.3901
   11MPD2    C213966   4.586   1.687  13.777 -0.5813 -0.5843  0.5165
   11MPD2    C313967   4.541   1.777  13.676  0.0938 -0.4284 -1.2801
   11MPD2    C413968   4.407   1.800  13.661  0.4932  0.1223 -0.0592
   11MPD2    C513969   4.316   1.757  13.756 -0.5995 -0.2761 -0.1433
   11MPD2     H13970   4.691   1.661  13.781 -0.2250  0.1143 -4.7702
   11MPD2    H113971   4.372   1.855  13.574  1.4230  1.1205  0.2012
   11MPD2    H213972   4.278   1.629  13.907 -2.9507  4.0559 -1.6572
   11MPD2    H313973   4.211   1.771  13.732 -0.4102  0.9873 -0.2306
   11MPD2     N13974   4.624   1.846  13.585  0.5048  0.3886  0.0437
   11MPD2    H513975   4.578   1.899  13.512  0.5130 -0.1990 -0.3909
   11MPD2    N113976   4.538   1.535  13.954  0.5903 -0.2819  0.1967
   11MPD2    H713977   4.634   1.501  13.951  0.2745 -1.0004 -1.4973
    1MPD1     C13978   2.666   4.459  16.434 -0.4664  0.5947  0.3403
    1MPD1    C113979   2.577   4.420  16.525  0.1239 -0.6919 -0.0142
    1MPD1    C213980   2.614   4.323  16.618 -0.8250  0.6873  0.0161
    1MPD1    C313981   2.739   4.265  16.617  0.3484 -0.3398  0.1117
    1MPD1    C413982   2.832   4.313  16.531 -0.0938 -0.4313  0.0315
    1MPD1    C513983   2.798   4.414  16.448 -0.1485 -0.4887 -0.2967
    1MPD1     H13984   2.535   4.289  16.684  0.2397 -0.1099  0.8808
    1MPD1    H113985   2.933   4.275  16.527 -0.0305 -0.1544 -0.9181
    1MPD1    H213986   2.645   4.534  16.358  0.5202  2.2428  1.7063
    1MPD1    H313987   2.875   4.446  16.379 -0.7382  0.8687 -0.3220
    1MPD1     N13988   2.776   4.160  16.695 -0.7277 -0.1463 -0.2306
    1MPD1    H513989   2.860   4.109  16.669 -0.1887  0.6662 -0.0956
    1MPD1    N113990   2.439   4.459  16.511 -0.3675 -0.0247 -0.0134
    1MPD1    H613991   2.385   4.462  16.597 -0.9545  1.4569 -0.4245
    1MPD1    H713992   2.433   4.548  16.462  1.1569 -0.1371 -0.3932
    2MPD1     C13993   2.228   3.382  17.057 -0.3503 -0.0043  0.3963
    2MPD1    C113994   2.199   3.513  17.035  0.3732 -0.4637  0.4093
    2MPD1    C213995   2.293   3.598  16.980 -0.3578 -0.4861 -0.4864
    2MPD1    C313996   2.423   3.560  16.972  0.3774 -0.2739  0.7631
    2MPD1    C413997   2.453   3.431  17.007  0.1318 -0.1384 -0.0503
    2MPD1    C513998   2.358   3.338  17.048  0.0920  0.6214  0.7608
    2MPD1     H13999   2.258   3.696  16.951  1.4068  1.0566  2.6470
    2MPD1    H114000   2.553   3.390  16.997 -0.6016 -1.7009 -0.9555
    2MPD1    H214001   2.153   3.311  17.089  0.6404 -0.8547  0.8407
    2MPD1    H314002   2.368   3.231  17.063  2.2348  0.9822  2.0576
    2MPD1     N14003   2.519   3.658  16.933 -0.3782 -0.8302  0.8573
    2MPD1    H514004   2.476   3.743  16.900 -1.3657 -1.6550 -0.0102
    2MPD1    N114005   2.068   3.554  17.037  0.5194 -0.2073  0.1656
    2MPD1    H614006   2.021   3.502  17.110 -1.5142 -1.5799 -2.1174
    2MPD1    H714007   2.055   3.655  17.048 -2.3789 -0.7478  1.5922
    3TMC3    C114008   2.737   3.766  16.947 -0.0574 -0.0112  0.7746
    3TMC3    C214009   2.869   3.751  16.953  0.6736 -0.4105  0.4029
    3TMC3    C314010   2.946   3.863  16.935 -1.2874  0.4199 -0.6280
    3TMC3    C414011   2.682   3.876  16.891  1.1136  0.2001  0.9470
    3TMC3    C514012   2.763   3.976  16.846  0.2174  0.2379  0.1150
    3TMC3    C614013   2.894   3.983  16.882 -0.3451  0.4485 -0.9195
    3TMC3     C14014   2.655   3.641  16.948 -0.5468 -0.6550 -0.0266
    3TMC3     O14015   2.713   3.537  16.955 -0.7716  0.0556  0.0114
    3TMC3     H14016   2.911   3.655  16.978  0.2355 -0.3274  1.4751
    3TMC3    H114017   2.578   3.889  16.866  1.1434 -0.2916  0.5881
    3TMC3    H214018   2.949   4.075  16.868  3.2385 -1.7512 -1.2718
    3TMC3    C714019   2.708   4.107  16.802 -0.1606  0.8830  0.3276
    3TMC3    C814020   3.085   3.854  16.913 -0.0834  0.2761 -0.5482
    3TMC3    O114021   2.605   4.148  16.852 -0.3262 -0.1546 -0.5421
    3TMC3    O214022   3.140   3.939  16.839 -0.3321 -0.0883 -1.0130
    4MPD1     C14023   3.520   3.575  16.906  0.4493 -0.5135 -0.2485
    4MPD1    C114024   3.419   3.506  16.976 -0.3656  0.1847 -0.3068
    4MPD1    C214025   3.301   3.574  16.996 -0.0317 -0.2814 -0.4222
    4MPD1    C314026   3.269   3.697  16.948 -0.9571  0.1808  0.5866
    4MPD1    C414027   3.369   3.769  16.889 -0.2869  0.5356  0.3093
    4MPD1    C514028   3.486   3.707  16.864 -0.1581  0.0106 -0.0060
    4MPD1     H14029   3.219   3.521  17.044  0.8345  0.0451  1.3687
    4MPD1    H114030   3.360   3.864  16.838 -0.7733  0.9837  1.2191
    4MPD1    H214031   3.612   3.522  16.883  1.9346  1.2143  1.7236
    4MPD1    H314032   3.559   3.747  16.794  0.2509 -2.1290 -0.8051
    4MPD1     N14033   3.138   3.746  16.969 -0.4252  0.2780  0.5041
    4MPD1    H514034   3.076   3.686  17.023 -0.0889 -0.8658 -0.3877
    4MPD1    N114035   3.441   3.377  17.027  0.1356  0.7985 -0.7660
    4MPD1    H614036   3.359   3.321  17.004  0.7982 -0.4920  0.0598
    4MPD1    H714037   3.514   3.335  16.970  1.1112 -0.0500  1.1462
    1TCq1    O114038   3.866   3.242  11.590 -0.1881  0.6363  0.2560
    1TCq1    C114039   3.759   3.306  11.649  0.2146  0.1071 -0.1897
    1TCq1    O214040   3.719   3.422  11.640 -0.4619  0.3110 -0.8251
    1TCq1    C214041   3.732   3.211  11.754  0.1239  0.0981  0.4273
    1TCq1    C314042   3.691   3.271  11.873 -0.0138  0.2198 -0.3760
    1TCq1    C414043   3.738   3.216  11.985  0.0515 -0.3392  0.5309
    1TCq1    C514044   3.772   3.083  11.982 -0.0970 -0.0210  0.2937
    1TCq1    C614045   3.787   3.015  11.861  0.3323 -0.5561  1.1769
    1TCq1    C714046   3.772   3.078  11.743  0.5958 -0.4752  0.5379
    1TCq1    C814047   3.812   2.868  11.846  0.5351  0.3305  0.4605
    1TCq1    O414048   3.782   2.810  11.739  0.5551  0.2316 -0.3309
    1TCq1    C914049   3.673   3.272  12.105 -0.1808 -0.4723  0.4581
    1TCq1    O514050   3.606   3.372  12.085  0.0101 -0.3441  0.3836
    1TCq1    O614051   3.664   3.197  12.205  0.0120  0.4599  0.1950
    1TCq1    H114052   3.900   3.174  11.652 -1.6593  1.6701  2.2087
    1TCq1    H214053   3.675   3.378  11.867  1.2981  0.5060  1.2139
    1TCq1    H314054   3.774   3.025  12.074  1.0307  0.8005  0.7805
    1TCq1    H414055   3.795   3.029  11.649  0.9253 -0.0661  0.4076
    2MPD1     C14056   3.951   2.408  12.022  0.3720  0.4858  0.0441
    2MPD1    C114057   3.957   2.495  12.129  0.2490 -0.3707 -0.0893
    2MPD1    C214058   3.939   2.633  12.107 -0.1913 -0.6648  0.0327
    2MPD1    C314059   3.886   2.679  11.980  0.1167  0.6770  0.7691
    2MPD1    C414060   3.875   2.582  11.882  0.4307 -0.6631 -0.9678
    2MPD1    C514061   3.924   2.452  11.895  1.3528  0.3047 -0.3037
    2MPD1     H14062   3.943   2.697  12.194 -0.9890 -1.8267  0.9261
    2MPD1    H114063   3.822   2.597  11.789  1.7844  2.4912 -1.2484
    2MPD1    H214064   3.984   2.305  12.025 -1.1557 -0.0046  0.3338
    2MPD1    H314065   3.935   2.385  11.811 -0.6550  0.3956 -0.6305
    2MPD1     N14066   3.851   2.813  11.965 -0.1452 -0.7135  1.2847
    2MPD1    H514067   3.868   2.872  12.046  1.6860  0.7835 -0.2095
    2MPD1    N114068   3.975   2.444  12.254  0.3259 -0.1800 -0.0327
    2MPD1    H614069   4.009   2.516  12.317  1.4264 -1.1554  0.4696
    2MPD1    H714070   4.038   2.364  12.252  0.5190 -0.0622  1.5926
    1TCq1    O114071   2.189   1.996   9.393 -0.3321 -0.1593 -0.0843
    1TCq1    C114072   2.061   2.013   9.421  0.0117 -0.5599 -0.6688
    1TCq1    O214073   1.997   2.111   9.455 -0.2846 -0.7783  0.6814
    1TCq1    C214074   2.014   1.870   9.435  0.1011 -0.6577 -0.7015
    1TCq1    C314075   1.878   1.860   9.446 -0.4446 -0.6814  0.1178
    1TCq1    C414076   1.821   1.748   9.504 -0.0457  0.6121  0.0958
    1TCq1    C514077   1.896   1.643   9.544  0.7688 -0.5363 -0.1137
    1TCq1    C614078   2.030   1.665   9.543  0.1712 -0.3610  0.1780
    1TCq1    C714079   2.094   1.763   9.468  0.6303 -0.2378  0.0506
    1TCq1    C814080   2.124   1.559   9.555  0.3014 -0.3924  0.0933
    1TCq1    O414081   2.241   1.582   9.524 -0.1528 -0.1607  0.1171
    1TCq1    C914082   1.680   1.725   9.482 -0.5198  0.5140 -0.1201
    1TCq1    O514083   1.641   1.605   9.490 -0.0954 -0.2377 -0.1335
    1TCq1    O614084   1.624   1.819   9.417  0.4262 -0.3111  0.3774
    1TCq1    H114085   2.208   1.904   9.363 -1.6402  0.3917 -2.5829
    1TCq1    H214086   1.814   1.946   9.425  0.6021  0.2012  0.5500
    1TCq1    H314087   1.849   1.557   9.589  0.6702 -1.3186 -1.6937
    1TCq1    H414088   2.201   1.777   9.468  0.6765 -0.6554 -0.9728
    2MPD1     C14089   2.236   1.072   9.687  0.4972  0.1317  0.2428
    2MPD1    C114090   2.096   1.083   9.682 -0.3264  0.8072 -0.3402
    2MPD1    C214091   2.049   1.211   9.655 -0.0213  0.4917 -0.4158
    2MPD1    C314092   2.134   1.309   9.607  0.9197  0.0439  0.0177
    2MPD1    C414093   2.266   1.289   9.604 -0.3474 -0.5041 -0.3457
    2MPD1    C514094   2.317   1.170   9.644  0.0716 -0.1105  0.3501
    2MPD1     H14095   1.943   1.237   9.654 -0.4300 -1.0703  1.6522
    2MPD1    H114096   2.336   1.363   9.566 -0.0694 -0.1487  0.8685
    2MPD1    H214097   2.280   0.977   9.715  0.7252  0.8498  2.2697
    2MPD1    H314098   2.424   1.158   9.642  0.0077 -0.5065 -0.6579
    2MPD1     N14099   2.068   1.435   9.587  0.3725  0.3710  0.1367
    2MPD1    H514100   1.967   1.430   9.586  0.4994 -2.0204  0.1949
    2MPD1    N114101   2.006   0.982   9.724  0.2632 -0.4389 -0.5244
    2MPD1    H614102   2.034   0.885   9.709  0.4416 -0.5828  0.7376
    2MPD1    H714103   1.916   1.002   9.682  0.5711  1.7784 -0.1538
    1MPD1     C14104   0.135   2.694  12.192 -0.3552 -0.3473  0.4992
    1MPD1    C114105   0.109   2.825  12.224 -0.1926 -0.5446 -0.3259
    1MPD1    C214106   0.200   2.917  12.175  0.4506  0.3727 -0.0044
    1MPD1    C314107   0.324   2.879  12.128 -0.4263 -0.7924 -0.6263
    1MPD1    C414108   0.350   2.744  12.105 -0.2844 -0.0092 -0.9213
    1MPD1    C514109   0.255   2.654  12.142 -1.2467  0.6606 -0.6512
    1MPD1     H14110   0.184   3.024  12.186 -0.6976  0.1479  0.5088
    1MPD1    H114111   0.448   2.703  12.088 -0.0793  0.1570 -0.1445
    1MPD1    H214112   0.064   2.616  12.218 -0.1168 -0.1086  1.8682
    1MPD1    H314113   0.277   2.549  12.126  3.2740  1.6292 -0.6851
    1MPD1     N14114   0.407   2.982  12.090 -0.3617  0.1072  0.0992
    1MPD1    H514115   0.365   3.073  12.104  0.4857  0.7199 -1.4184
    1MPD1    N114116   4.711   2.870  12.283  0.0967 -0.5048  0.1253
    1MPD1    H614117   4.666   2.816  12.356  1.8404 -2.5707 -0.3294
    1MPD1    H714118   4.709   2.965  12.320 -0.1288 -0.5895  0.3255
    2MPD1     C14119   4.467   3.814  11.470  0.3835  0.2984  0.2060
    2MPD1    C114120   4.551   3.902  11.412 -0.0344 -0.0474 -0.1028
    2MPD1    C214121   4.661   3.843  11.336  0.3721 -0.3343 -0.2462
    2MPD1    C314122   4.655   3.707  11.299 -0.5369  0.6879 -0.4963
    2MPD1    C414123   4.558   3.627  11.351  0.0158 -0.5970  0.2775
    2MPD1    C514124   4.469   3.683  11.438 -0.0966  0.0155 -0.1414
    2MPD1     H14125   0.017   3.907  11.305  1.3144 -0.6086  1.7035
    2MPD1    H114126   4.545   3.524  11.320 -2.7953  0.2169 -1.2334
    2MPD1    H214127   4.391   3.861  11.532 -1.0913 -0.5663 -0.9408
    2MPD1    H314128   4.393   3.619  11.480 -1.5315  0.8077 -1.5341
    2MPD1     N14129   0.025   3.645  11.210 -0.1754  0.0566  0.5657
    2MPD1    H514130   0.015   3.546  11.188 -5.1022  0.2659  1.9179
    2MPD1    N114131   4.557   4.039  11.452  0.3363 -0.2234  0.2109
    2MPD1    H614132   4.606   4.093  11.381  2.2514  0.3241  1.9542
    2MPD1    H714133   4.466   4.084  11.460  1.1255  1.8177 -2.0679
    3MPD1     C14134   4.649   2.868  10.984 -0.0365  0.7155  0.1264
    3MPD1    C114135   4.665   2.931  11.105 -0.5280 -0.6968 -0.1287
    3MPD1    C214136   4.709   3.064  11.106 -0.0795 -0.4285 -0.3328
    3MPD1    C314137   0.021   3.129  10.987  0.1756  0.2060 -0.0508
    3MPD1    C414138   0.003   3.057  10.866  0.1451  0.3310 -0.9925
    3MPD1    C514139   4.686   2.926  10.867  0.4681  0.1425  0.3916
    3MPD1     H14140   4.725   3.112  11.202  0.2156 -0.9841 -0.1023
    3MPD1    H114141   0.032   3.098  10.770 -0.9688  1.5372 -0.8171
    3MPD1    H214142   4.604   2.770  10.978  2.4938 -0.3953 -0.5941
    3MPD1    H314143   4.688   2.870  10.774 -0.5637 -2.8361  2.1436
    3MPD1     N14144   0.089   3.251  10.999  0.2605  0.3707  0.4782
    3MPD1    H514145   0.102   3.288  11.093 -0.5140  0.2551  0.6293
    3MPD1    N114146   4.612   2.884  11.226 -0.4486 -0.5234  0.2498
    3MPD1    H614147   4.628   2.784  11.221 -2.0509 -0.7878  0.3403
    3MPD1    H714148   4.667   2.918  11.304 -3.2344 -0.5361  2.2242
    4MPD2     C14149   0.594   3.683  11.850  0.4539  0.0965  0.3005
    4MPD2    C114150   0.695   3.594  11.868 -0.0788  0.1724  0.4929
    4MPD2    C214151   0.810   3.612  11.796  1.0275 -0.2827  0.3566
    4MPD2    C314152   0.820   3.712  11.695  0.8852 -0.0350  0.1605
    4MPD2    C414153   0.718   3.798  11.671 -0.2853  0.6547  0.6009
    4MPD2    C514154   0.607   3.784  11.753  0.4554  0.2167 -0.2321
    4MPD2     H14155   0.890   3.540  11.810  4.1304  3.0167 -0.2895
    4MPD2    H114156   0.711   3.879  11.599 -0.2044 -0.6215 -0.8306
    4MPD2    H214157   0.508   3.682  11.915 -0.5978  1.0417 -1.0910
    4MPD2    H314158   0.527   3.856  11.751 -0.2483 -0.5168  1.2366
    4MPD2     N14159   0.934   3.717  11.611  1.1783  0.3358 -0.3188
    4MPD2    H514160   0.926   3.789  11.540 -0.6778  0.3638 -0.0814
    4MPD2    N114161   0.688   3.491  11.958  0.0904  0.0904 -0.2767
    4MPD2    H714162   0.776   3.440  11.966  0.1765  0.1166 -1.0459
    5TMC3    C114163   0.624   3.320  12.083 -0.3812 -0.6612  0.3178
    5TMC3    C214164   0.546   3.212  12.054 -0.1935  0.2667 -0.5799
    5TMC3    C314165   0.617   3.092  12.054 -0.1310 -0.0303 -0.4732
    5TMC3    C414166   0.757   3.314  12.093  0.3253  0.6466  1.0509
    5TMC3    C514167   0.820   3.195  12.068 -0.8892 -0.1230 -0.0816
    5TMC3    C614168   0.751   3.080  12.049 -0.0276  0.3995  0.5044
    5TMC3     C14169   0.577   3.434  12.011  0.6844  0.1959  0.8761
    5TMC3     O14170   0.460   3.438  11.972  0.0763  0.0073  0.6330
    5TMC3     H14171   0.439   3.218  12.037 -0.2525 -0.2716 -0.3876
    5TMC3    H114172   0.822   3.394  12.124 -0.0307  1.3702 -0.0629
    5TMC3    H214173   0.804   2.986  12.039 -0.2706  0.2260  0.8759
    5TMC3    C714174   0.954   3.208  12.001 -0.2296 -0.7437 -0.0411
    5TMC3    C814175   0.540   2.965  12.063  0.2029  0.4946  0.3033
    5TMC3    O114176   0.976   3.323  11.972 -0.1183  0.6679 -0.7841
    5TMC3    O214177   0.605   2.862  12.052 -0.0851  0.1511 -0.0153
    6TMC3    C114178   0.198   3.623  11.069  0.1026 -1.1209 -0.5451
    6TMC3    C214179   0.125   3.518  11.012 -0.5690  0.0171 -0.4960
    6TMC3    C314180   0.205   3.439  10.933  0.5065  0.0783 -0.7544
    6TMC3    C414181   0.327   3.649  11.042  0.5558  0.1557  0.4934
    6TMC3    C514182   0.402   3.575  10.954 -0.3993  0.7147 -0.1973
    6TMC3    C614183   0.339   3.464  10.901  0.9691  0.4416  0.5518
    6TMC3     C14184   0.129   3.710  11.159  0.5081  0.6772 -0.5485
    6TMC3     O14185   0.167   3.825  11.157  0.3857  0.6826  0.2896
    6TMC3     H14186   0.017   3.503  11.018 -0.5185 -0.2893 -0.3258
    6TMC3    H114187   0.382   3.724  11.098 -2.4365  1.3480  1.8235
    6TMC3    H214188   0.393   3.393  10.840  2.1972  1.4768  0.4129
    6TMC3    C714189   0.546   3.609  10.952 -0.3040 -0.2472 -0.4571
    6TMC3    C814190   0.152   3.310  10.896  0.9958  0.3816 -1.0680
    6TMC3    O114191   0.587   3.664  11.050  0.1903  0.1923 -0.7311
    6TMC3    O214192   0.193   3.261  10.791  0.1414 -0.7252 -0.2868
    7MPD2     C14193   1.284   3.109  11.614 -0.6405 -0.4158  0.1210
    7MPD2    C114194   1.203   3.213  11.635 -0.3293 -0.7256  0.4197
    7MPD2    C214195   1.113   3.206  11.747 -0.0528  0.1056  0.2988
    7MPD2    C314196   1.106   3.096  11.835  0.2470  0.2084  0.3318
    7MPD2    C414197   1.181   2.987  11.799 -0.1280  0.6710  0.4573
    7MPD2    C514198   1.273   2.999  11.696  0.1090 -0.0629  0.3350
    7MPD2     H14199   1.054   3.296  11.762  0.7873  0.8429 -0.8518
    7MPD2    H114200   1.172   2.900  11.863  1.9175  2.6696  3.4683
    7MPD2    H214201   1.366   3.107  11.542  1.2557  0.8569  2.2441
    7MPD2    H314202   1.342   2.916  11.686 -1.6942 -1.6277  0.8841
    7MPD2     N14203   1.015   3.091  11.945  0.0461  0.0652 -0.7338
    7MPD2    H514204   0.971   3.003  11.967  0.5384 -0.3449 -1.4158
    7MPD2    N114205   1.201   3.330  11.554  0.4781 -0.9542  0.6109
    7MPD2    H714206   1.151   3.405  11.600 -0.5687 -1.2138 -0.0823
    8TMC3    C114207   1.267   3.491  11.411  0.7348 -0.8283 -0.4098
    8TMC3    C214208   1.199   3.509  11.300 -0.3229 -0.0955 -0.5162
    8TMC3    C314209   1.110   3.618  11.289  0.2713  0.7303  0.1789
    8TMC3    C414210   1.247   3.575  11.516 -1.3148 -0.1208  0.4379
    8TMC3    C514211   1.145   3.667  11.507 -0.0522 -0.3848  0.2500
    8TMC3    C614212   1.084   3.703  11.387  0.1518 -1.0189  0.2989
    8TMC3     C14213   1.275   3.354  11.443 -0.2777 -0.7127 -0.4655
    8TMC3     O14214   1.330   3.274  11.371  0.6281 -0.1451  0.6500
    8TMC3     H14215   1.204   3.426  11.231 -0.8541  0.4585 -1.2213
    8TMC3    H114216   1.291   3.561  11.614  1.9983  1.7717 -0.7711
    8TMC3    H214217   1.012   3.784  11.382  1.0112 -0.3058 -0.6256
    8TMC3    C714218   1.054   3.648  11.617  0.2890  0.6729  0.2455
    8TMC3    C814219   1.021   3.626  11.177 -0.3183  0.1474 -0.3658
    8TMC3    O114220   1.089   3.558  11.691 -0.3346  0.3302 -0.1880
    8TMC3    O214221   0.922   3.693  11.210 -0.3389  0.2263  0.7672
    9MPD2     C14222   1.045   3.510  10.826  0.2585  0.2276  0.6977
    9MPD2    C114223   0.985   3.551  10.944 -0.2358  0.3573 -0.7901
    9MPD2    C214224   0.847   3.565  10.956 -0.1601  0.3584  0.1174
    9MPD2    C314225   0.766   3.540  10.849  0.1650  0.9947  0.2573
    9MPD2    C414226   0.830   3.516  10.726  0.2280 -0.2821 -0.8352
    9MPD2    C514227   0.968   3.505  10.715 -0.4867 -0.1909  0.4741
    9MPD2     H14228   0.800   3.583  11.052 -0.3116 -0.0733  0.1247
    9MPD2    H114229   0.772   3.495  10.638 -1.0334 -0.9744  0.1716
    9MPD2    H214230   1.149   3.486  10.809 -0.2097  0.1208 -1.9991
    9MPD2    H314231   1.014   3.472  10.623 -0.2311 -1.5960  1.1086
    9MPD2     N14232   0.621   3.546  10.854 -0.2796 -0.1648  0.3914
    9MPD2    H514233   0.571   3.514  10.772  0.9511 -2.2423  0.4731
    9MPD2    N114234   1.068   3.559  11.064 -0.0075 -0.7331 -0.1410
    9MPD2    H714235   1.164   3.528  11.069  0.3791  0.8528  2.1106
    1MPD1     C14236   1.086   2.434  16.419  0.3966  0.3109 -0.1361
    1MPD1    C114237   0.990   2.340  16.386 -0.0690 -0.1829 -0.2598
    1MPD1    C214238   0.895   2.295  16.481  0.1969 -0.0711  0.1644
    1MPD1    C314239   0.901   2.360  16.602 -0.1919  0.6378 -0.3417
    1MPD1    C414240   0.992   2.461  16.637 -0.1740 -0.4593  0.1009
    1MPD1    C514241   1.084   2.498  16.540  0.3040  0.3314  0.0808
    1MPD1     H14242   0.818   2.224  16.453  0.0298  0.1828 -0.0203
    1MPD1    H114243   0.993   2.506  16.736 -0.1122  0.4016 -0.2884
    1MPD1    H214244   1.161   2.457  16.345 -0.9734 -2.4383 -2.4001
    1MPD1    H314245   1.148   2.582  16.559  1.2839 -0.1896 -0.9187
    1MPD1     N14246   0.814   2.326  16.700 -0.0544 -0.3445  0.2598
    1MPD1    H514247   0.838   2.345  16.797  0.1596  0.1419  0.1096
    1MPD1    N114248   1.000   2.276  16.262  0.0250  0.6780  0.0652
    1MPD1    H614249   0.911   2.234  16.236 -0.1146  1.0672 -0.0778
    1MPD1    H714250   1.026   2.339  16.187  1.0007 -0.9734 -0.9835
    2MPD1     C14251   4.558   2.003  16.958 -0.6690  0.3956 -0.1135
    2MPD1    C114252   4.644   1.929  16.885 -0.6409  0.1530 -0.0231
    2MPD1    C214253   0.042   1.987  16.851  0.4981  0.3671  0.1194
    2MPD1    C314254   0.091   2.100  16.919  0.4752 -0.7033 -0.1953
    2MPD1    C414255   0.003   2.164  17.002  0.5456  0.2909 -0.7836
    2MPD1    C514256   4.599   2.118  17.018  0.0362 -0.2190  0.3474
    2MPD1     H14257   0.112   1.938  16.784 -1.1762 -1.3958 -0.3338
    2MPD1    H114258   0.024   2.259  17.049 -2.4334  0.0710  0.9621
    2MPD1    H214259   4.452   1.980  16.968 -0.6971  1.2102  1.5325
    2MPD1    H314260   4.548   2.180  17.092  1.1494 -1.6732  2.3465
    2MPD1     N14261   0.222   2.145  16.900 -0.1050 -0.2547  0.2964
    2MPD1    H514262   0.275   2.102  16.826  2.8658  0.7054  1.8564
    2MPD1    N114263   4.600   1.819  16.810 -0.7962  0.3128 -0.5579
    2MPD1    H614264   4.686   1.764  16.805 -0.5457  0.6916 -0.5072
    2MPD1    H714265   4.537   1.767  16.870  0.9251 -0.2517  0.7825
    3TCq2    C114266   0.294   2.241  16.969 -0.5391 -0.1876  0.2086
    3TCq2    O214267   0.253   2.296  17.069  0.6573 -0.3531 -0.5040
    3TCq2    C214268   0.439   2.243  16.942  0.8805 -0.5549 -0.6438
    3TCq2    C314269   0.519   2.228  17.051  0.4664  0.1210 -0.3451
    3TCq2    C414270   0.653   2.226  17.039 -0.4230 -0.5398 -0.6707
    3TCq2    C514271   0.711   2.235  16.916 -0.2182 -0.4549 -0.2282
    3TCq2    C614272   0.625   2.244  16.809 -0.2597  0.0810  0.5907
    3TCq2    C714273   0.484   2.246  16.816 -0.5557 -0.1746  0.2437
    3TCq2    C814274   0.682   2.286  16.680 -0.4196 -0.7555 -0.3713
    3TCq2    O414275   0.617   2.267  16.577 -0.3637 -0.2211 -0.2569
    3TCq2    C914276   0.733   2.217  17.155 -0.1957 -0.4840 -0.0025
    3TCq2    O514277   0.843   2.282  17.158 -0.9809 -0.2997 -1.0813
    3TCq2    O614278   0.708   2.126  17.240  0.8419 -0.5052 -0.1578
    3TCq2    H214279   0.475   2.236  17.150 -4.0360 -0.7004 -2.3073
    3TCq2    H314280   0.817   2.210  16.911 -0.4068 -1.3695  0.3037
    3TCq2    H414281   0.427   2.264  16.725 -0.8066 -0.1916  0.3999
    1TCq1    O114282   3.102   1.539  13.387 -0.5591 -0.0731  0.4757
    1TCq1    C114283   3.170   1.423  13.373  0.4747 -0.6718 -0.0457
    1TCq1    O214284   3.113   1.314  13.385 -0.3064 -0.4462 -0.3628
    1TCq1    C214285   3.297   1.457  13.304 -0.4775 -0.2582  1.2541
    1TCq1    C314286   3.322   1.585  13.258  0.4755  0.2053 -0.1411
    1TCq1    C414287   3.426   1.602  13.172 -0.0706  0.1981 -0.1615
    1TCq1    C514288   3.508   1.496  13.141 -0.6326 -0.0834  0.5987
    1TCq1    C614289   3.482   1.375  13.186 -1.2362 -0.2861 -1.1229
    1TCq1    C714290   3.383   1.348  13.278  0.3420 -0.5286 -0.0569
    1TCq1    C814291   3.589   1.279  13.151  0.1060 -0.3827 -0.0769
    1TCq1    O414292   3.668   1.288  13.056 -0.7660  0.4051 -0.7939
    1TCq1    C914293   3.458   1.729  13.109 -0.0723  0.3503  0.5125
    1TCq1    O514294   3.558   1.725  13.035 -0.0851  0.1042  0.0866
    1TCq1    O614295   3.372   1.826  13.114  1.2438  0.4897 -0.0629
    1TCq1    H114296   3.160   1.617  13.403 -1.8275  1.1429 -0.8758
    1TCq1    H214297   3.264   1.671  13.288  3.1439  0.9849  2.7824
    1TCq1    H314298   3.596   1.505  13.078 -0.4093  1.7692  1.1660
    1TCq1    H414299   3.350   1.245  13.289 -3.9607  0.9536  0.9250
    2MPD2     C14300   3.761   1.023  13.164  0.0398 -0.4376  0.0087
    2MPD2    C114301   3.687   1.073  13.265 -0.7023  0.4666 -0.1709
    2MPD2    C214302   3.702   1.030  13.387  0.0257 -0.4990 -0.1125
    2MPD2    C314303   3.780   0.917  13.406 -0.1284  0.5078 -0.1630
    2MPD2    C414304   3.854   0.864  13.302  0.6903 -0.9058 -0.3342
    2MPD2    C514305   3.850   0.921  13.181 -0.4305 -0.2986 -0.0357
    2MPD2     H14306   3.645   1.078  13.466  0.2446 -2.3407  1.1753
    2MPD2    H114307   3.924   0.782  13.309  1.3004 -0.5035 -1.6616
    2MPD2    H214308   3.762   1.061  13.063  0.9087 -1.9697 -0.5574
    2MPD2    H314309   3.910   0.896  13.094 -0.5441  0.9380 -0.4766
    2MPD2     N14310   3.784   0.866  13.535 -0.2060  0.1374 -0.3423
    2MPD2    H514311   3.719   0.907  13.601  1.0678 -0.7554  1.4386
    2MPD2    N114312   3.602   1.189  13.256  0.5041  0.7157 -0.6178
    2MPD2    H714313   3.550   1.215  13.339  1.6546  0.6385  0.1296
    3TCq1    O114314   3.623   0.885  13.981 -0.1631 -0.5150  0.2597
    3TCq1    C114315   3.732   0.830  14.040 -0.0419 -0.1102 -0.0118
    3TCq1    O214316   3.737   0.801  14.159 -0.4960 -0.4199  0.2159
    3TCq1    C214317   3.779   0.740  13.934 -0.1772 -0.6374 -0.5646
    3TCq1    C314318   3.784   0.601  13.959  0.1591 -0.4925 -0.4615
    3TCq1    C414319   3.805   0.520  13.852  0.2088 -0.6171  0.1976
    3TCq1    C514320   3.822   0.572  13.732  0.4137  0.6500  0.7692
    3TCq1    C614321   3.807   0.708  13.711  0.2628 -0.2078 -0.5134
    3TCq1    C714322   3.785   0.792  13.812  0.2327  0.6104  0.0772
    3TCq1    C814323   3.847   0.754  13.579  0.4113 -0.5400  0.1251
    3TCq1    O414324   3.922   0.681  13.519 -0.0529  0.2532  0.5116
    3TCq1    C914325   3.814   0.378  13.862  0.3980  0.1980 -0.6196
    3TCq1    O514326   3.848   0.327  13.972  0.8240 -0.5419  0.5218
    3TCq1    O614327   3.821   0.317  13.755  0.2787  0.3588 -0.1157
    3TCq1    H114328   3.625   0.870  13.884  0.9463  0.7638  0.0894
    3TCq1    H214329   3.760   0.558  14.055  3.0510  0.1804  0.5361
    3TCq1    H314330   3.834   0.507  13.646 -1.7021 -0.8026  1.5778
    3TCq1    H414331   3.809   0.896  13.795 -0.0622  0.5956 -0.4480
    1MPD2     C14332   2.431   1.796  15.138  0.0281  1.0434 -0.0410
    1MPD2    C114333   2.446   1.680  15.078 -0.0594 -0.2087 -0.5177
    1MPD2    C214334   2.563   1.608  15.097  0.0365 -0.1686  0.2581
    1MPD2    C314335   2.657   1.656  15.186 -0.3243 -0.1170  0.0539
    1MPD2    C414336   2.643   1.779  15.248  0.5486  0.0660  0.3705
    1MPD2    C514337   2.530   1.852  15.221  1.0847  0.3346 -0.5931
    1MPD2     H14338   2.585   1.519  15.040 -0.8363  0.3984 -0.9618
    1MPD2    H114339   2.717   1.830  15.309  0.2200 -1.2083  1.8251
    1MPD2    H214340   2.342   1.858  15.129 -0.6312  0.3613  1.7967
    1MPD2    H314341   2.510   1.947  15.269 -0.5820 -1.3984  2.1325
    1MPD2     N14342   2.772   1.572  15.207  0.1681  0.4991  0.1694
    1MPD2    H514343   2.769   1.480  15.166 -0.0394  0.0575  1.1906
    1MPD2    N114344   2.335   1.649  14.989 -0.5733  0.6800 -0.5701
    1MPD2    H714345   2.262   1.717  14.971  0.5427  1.8290 -0.8273
    2TMC3    C114346   2.222   1.529  14.820 -0.1476 -0.2632  0.0510
    2TMC3    C214347   2.241   1.423  14.743  0.5962  0.1273 -0.2702
    2TMC3    C314348   2.280   1.447  14.617  1.5541 -1.5464 -0.8826
    2TMC3    C414349   2.231   1.660  14.771  0.6478  0.8570  0.0732
    2TMC3    C514350   2.254   1.678  14.639  0.2227 -0.5371  0.0048
    2TMC3    C614351   2.281   1.567  14.565  0.8032 -0.2181  0.1898
    2TMC3     C14352   2.308   1.522  14.935  0.2237  0.3632 -0.8747
    2TMC3     O14353   2.373   1.415  14.943 -0.2263 -0.6910  0.2785
    2TMC3     H14354   2.239   1.323  14.785 -0.2994 -0.0797 -0.8182
    2TMC3    H114355   2.188   1.743  14.826  1.1271 -0.4644  2.4174
    2TMC3    H214356   2.338   1.582  14.474  0.0763  1.1691 -0.0304
    2TMC3    C714357   2.326   1.795  14.600 -0.2652  0.8762 -0.2885
    2TMC3    C814358   2.398   1.374  14.571  0.1672 -0.1790 -0.4206
    2TMC3    O114359   2.397   1.789  14.503 -0.1529 -0.4240  0.8130
    2TMC3    O214360   2.427   1.365  14.455  0.2008  0.2378  0.3527
    3TCq1    O114361   3.023   2.582  14.249  0.0846  0.3017 -0.3222
    3TCq1    C114362   3.087   2.574  14.370  0.4959 -0.6490  0.0001
    3TCq1    O214363   3.186   2.639  14.409  0.3615 -1.2920 -0.1622
    3TCq1    C214364   3.036   2.455  14.439 -0.3319  0.8094 -0.3250
    3TCq1    C314365   3.130   2.399  14.527 -0.0245 -0.1557 -0.0115
    3TCq1    C414366   3.075   2.311  14.623  0.3070 -0.1510 -0.4070
    3TCq1    C514367   2.942   2.266  14.613 -0.4904 -0.1556  0.4036
    3TCq1    C614368   2.858   2.321  14.522  1.1300  0.5651 -0.0015
    3TCq1    C714369   2.904   2.412  14.429 -0.9529  0.1150 -0.4391
    3TCq1    C814370   2.715   2.319  14.555 -0.9326  0.5305  0.2128
    3TCq1    O414371   2.656   2.421  14.529  0.2509  0.1629  0.1908
    3TCq1    C914372   3.147   2.275  14.740 -0.4270 -0.4707 -0.6971
    3TCq1    O514373   3.120   2.161  14.784 -0.0458  0.0456 -0.4231
    3TCq1    O614374   3.250   2.340  14.767 -0.1380  0.1683  0.6615
    3TCq1    H114375   2.961   2.508  14.231  0.4148  0.2083 -1.0604
    3TCq1    H214376   3.229   2.442  14.539  0.8279 -2.0737 -0.1899
    3TCq1    H314377   2.896   2.215  14.697 -2.0288  0.8401  0.1738
    3TCq1    H414378   2.833   2.448  14.355 -0.3398  0.7953 -0.6902
    4MPD2     C14379   2.447   2.280  14.671  0.6569  0.4032 -0.2661
    4MPD2    C114380   2.533   2.176  14.649 -0.3235  0.1794 -0.2114
    4MPD2    C214381   2.480   2.046  14.647  0.4775 -0.2856  0.3656
    4MPD2    C314382   2.344   2.033  14.673 -0.7159  0.1052 -0.9320
    4MPD2    C414383   2.260   2.136  14.704 -0.0605 -0.8410 -0.8091
    4MPD2    C514384   2.308   2.265  14.701  0.0843  0.3650 -0.6008
    4MPD2     H14385   2.536   1.955  14.631  1.2305  0.3276 -0.5783
    4MPD2    H114386   2.157   2.123  14.736 -0.5144  0.5804 -1.6951
    4MPD2    H214387   2.473   2.385  14.657 -1.5648  0.8590 -1.0400
    4MPD2    H314388   2.243   2.351  14.707 -2.3184 -1.2773 -3.4227
    4MPD2     N14389   2.279   1.906  14.660  0.2526  0.5469  0.3220
    4MPD2    H514390   2.181   1.894  14.682  0.2238 -1.0245 -0.6948
    4MPD2    N114391   2.666   2.202  14.605 -0.0075  0.1981  0.5611
    4MPD2    H714392   2.723   2.118  14.596 -1.6989 -0.7779 -0.9993
    5TMC2    C114393   2.971   1.324  15.109 -0.2358 -0.3528 -0.5468
    5TMC2    C214394   3.081   1.378  15.045  0.4779 -0.1543 -1.2122
    5TMC2    C314395   3.150   1.482  15.103  0.5909  0.1384  0.4548
    5TMC2    C414396   2.928   1.379  15.223 -0.1960  0.6994  0.2222
    5TMC2    C514397   2.980   1.498  15.255  1.0811  0.4726 -0.4803
    5TMC2    C614398   3.101   1.540  15.215 -0.5877 -0.5891 -0.6138
    5TMC2     C14399   2.860   1.280  15.030 -0.7005 -1.0102 -0.2009
    5TMC2     O14400   2.748   1.298  15.075 -0.6058 -0.3917 -0.0283
    5TMC2     H14401   3.100   1.355  14.941  0.2095 -1.9542 -0.8736
    5TMC2    H114402   2.845   1.336  15.278 -0.2993  1.1044  0.3786
    5TMC2    H214403   3.149   1.627  15.259  0.7643 -1.8188  0.3389
    5TMC2    C714404   2.887   1.606  15.272  0.1709 -0.7326  0.3682
    5TMC2    C814405   3.203   1.577  15.005  0.8074 -0.1313 -0.7581
    5TMC2    O114406   2.930   1.720  15.279  0.1128 -0.1475 -0.0575
    5TMC2    O214407   3.150   1.593  14.896  0.5663  0.2446  0.2194
    5TMC2    O514408   3.280   1.662  15.070 -0.0662 -0.3161 -0.3036
    5TMC2    H514409   3.317   1.626  15.154  0.2423  0.4821 -0.0967
    6MPD2     C14410   2.638   1.190  14.578 -0.2294  0.5078  0.5443
    6MPD2    C114411   2.596   1.267  14.687 -0.0166 -0.0933  0.3299
    6MPD2    C214412   2.680   1.275  14.793 -0.1424  0.1185 -0.2824
    6MPD2    C314413   2.804   1.214  14.803 -0.4343 -0.1701  0.0544
    6MPD2    C414414   2.849   1.153  14.688 -0.1047 -0.0289 -0.4194
    6MPD2    C514415   2.762   1.134  14.579  0.2069 -0.4052 -0.1043
    6MPD2     H14416   2.645   1.339  14.873 -1.6062 -1.9853  0.7517
    6MPD2    H114417   2.946   1.103  14.690 -0.0275  0.1836  1.8049
    6MPD2    H214418   2.565   1.167  14.501  1.2657  0.3436 -0.8202
    6MPD2    H314419   2.795   1.062  14.505  0.1658 -2.2760  1.6892
    6MPD2     N14420   2.889   1.215  14.915  0.6696  0.2451 -0.2252
    6MPD2    H514421   2.984   1.181  14.902  1.5081  2.5157 -0.1337
    6MPD2    N114422   2.476   1.337  14.679  0.3966  0.1272  0.4346
    6MPD2    H714423   2.455   1.377  14.770 -1.2849 -0.4312  0.2944
  945NH4     N114424   3.334   3.536  15.946  0.2202 -0.6836 -0.3763
  945NH4     H214425   3.270   3.615  15.964  2.4675  1.1030 -0.2492
  945NH4     H314426   3.295   3.471  15.875 -0.9182 -0.2957 -0.1004
  945NH4     H414427   3.357   3.491  16.038 -0.9903  0.5158  0.5010
  945NH4     H514428   3.421   3.577  15.905  0.6601 -0.3962  0.8399
  946SOD     NA14429   1.811   0.635  12.689  0.1255 -0.0948  0.1250
  947SOD     NA14430   2.620   1.152  15.195  0.5526  0.4736 -0.8052
  948SOD     NA14431   3.713   1.820  11.081 -0.1639  0.0626 -0.1224
  949SOD     NA14432   3.137   1.873   1.498 -0.1827 -0.1515 -0.2043
  950SOD     NA14433   1.198   1.655  15.955 -0.3479 -0.4169  0.1859
  951SOD     NA14434   1.461   2.192  11.402  0.0039 -0.1857  0.0872
  952SOD     NA14435   0.014   0.201   1.448 -0.1474 -0.1412  0.2098
  953SOD     NA14436   3.408   3.197  10.326  0.2750  0.4718  0.3116
  954SOD     NA14437   2.569   4.329  10.868 -0.3750  0.0641 -0.1528
  955SOD     NA14438   3.214   3.927  13.549  0.1915 -0.2657  0.0021
  956SOD     NA14439   0.991   0.185  13.413  0.1311  0.0321 -0.0720
  957SOD     NA14440   2.245   0.524  11.401 -0.4549  0.0781  0.3274
  958SOD     NA14441   0.670   2.098  13.344 -0.4898 -0.1273 -0.2527
  959SOD     NA14442   1.636   1.349  14.018  0.6265 -0.4691  0.2740
  960SOD     NA14443   3.656   0.477  12.335  0.6635 -0.1242  0.1042
  961SOD     NA14444   0.963   0.575  16.682 -0.3588 -0.0235 -0.1014
  962SOD     NA14445   4.004   1.046  11.321  0.0894 -0.2651 -0.3970
  963SOD     NA14446   2.558   0.031  11.303  0.1947  0.1712 -0.0866
  964SOD     NA14447   3.251   1.859  11.489  0.4065  0.4910  0.0027
  965SOD     NA14448   0.208   3.953  11.710 -0.1621  0.5861 -0.8347
  966SOD     NA14449   2.507   3.078  10.223 -0.1061  0.2670  0.2104
  967SOD     NA14450   1.726   3.528   1.139  0.0182 -0.1962  0.4582
  968SOD     NA14451   3.711   0.938  10.881 -0.2362 -0.1062  0.0954
  969SOD     NA14452   0.232   4.188   1.482 -0.2154  0.2569  0.0952
  970SOD     NA14453   4.478   0.622   7.257  0.3311 -0.5744  0.0026
  971SOD     NA14454   2.653   4.472  11.162 -0.0258  0.2858 -0.2508
  972SOD     NA14455   4.434   0.878  14.495  0.3525  0.2571 -0.1298
  973SOD     NA14456   2.147   0.684  10.242 -0.1559  0.4454 -0.8231
  974SOD     NA14457   3.895   2.663   0.337 -0.1755 -0.6474 -0.2038
  975SOD     NA14458   0.859   0.257   4.311  0.1044 -0.6508 -0.0354
  976SOD     NA14459   2.276   0.465  13.038 -0.2128  0.4816  0.4233
  977SOD     NA14460   2.176   4.002   1.201  0.2603  0.1028  0.3113
  978SOD     NA14461   3.663   2.498   1.981 -0.6376  0.0865  0.2144
  979SOD     NA14462   0.809   4.103   0.340  0.5076 -0.0577  0.4261
  980SOD     NA14463   3.303   2.052  14.799  0.2899 -0.0216  0.0190
  981SOD     NA14464   2.255   4.206   9.283  0.7859 -0.2722  0.6008
  982SOD     NA14465   4.551   1.501  10.178  0.4700 -0.0368 -0.6455
  983SOD     NA14466   1.964   1.543   0.804  0.4855  0.3905 -0.5761
  984SOD     NA14467   3.086   0.806  11.212 -0.4203  0.2839  0.3194
  985SOD     NA14468   3.781   0.438   9.849  0.2253  0.4056 -0.1520
  986SOD     NA14469   1.101   0.994  13.796 -0.4583 -0.1968  0.1046
  987SOD     NA14470   4.499   1.966  16.663  0.3335 -0.0042 -0.1379
  988SOD     NA14471   4.529   0.830  14.208 -0.4797  0.3869 -0.1914
  989SOD     NA14472   4.181   2.848  16.788 -0.2230  0.0859  0.1390
  990SOD     NA14473   2.210   2.447  11.508  0.4907 -0.5649 -0.6533
  991SOD     NA14474   3.134   1.528   0.627  0.9182 -0.4513 -0.0097
  992SOD     NA14475   4.694   0.179  13.615  0.0796 -0.1326  0.3855
  993SOD     NA14476   4.503   0.403  13.879 -0.0428 -0.3240 -0.1395
  994SOD     NA14477   4.364   2.404  14.486 -0.1468  0.1566  0.0524
  995SOD     NA14478   0.376   4.713   8.334  0.1015  0.3816 -0.5179
  996SOD     NA14479   3.229   2.523  14.886  0.2831  0.0603  0.1770
  997SOD     NA14480   1.257   0.086  10.013 -0.1971 -0.1619  0.2272
  998SOD     NA14481   3.157   1.120   9.348  0.0317 -0.1022  0.2175
  999SOD     NA14482   2.884   0.827   2.136 -0.3720  0.3826 -0.0712
 1000SOD     NA14483   4.196   1.740   0.871  0.2105 -0.2342  0.4566
 1001SOD     NA14484   1.792   1.639  14.072  0.1498  0.9506 -0.1782
 1002SOD     NA14485   4.701   4.468   0.562 -0.2900 -0.2879  0.0691
 1003SOD     NA14486   0.590   2.126  17.426 -0.4503 -0.0582 -0.2876
 1004SOD     NA14487   0.022   0.869   0.372  0.0689 -0.1264 -0.0207
 1005SOD     NA14488   2.411   0.997   4.789  0.2384 -0.1444 -0.1177
 1006SOD     NA14489   3.472   1.704  12.824 -0.7766 -0.3023 -0.0952
 1007SOD     NA14490   3.091   2.163   3.807  0.0521 -0.4119 -0.4130
 1008SOD     NA14491   3.082   0.930   8.961  0.2487 -0.5193  0.2023
 1009SOD     NA14492   2.259   2.095  11.382  0.0605 -0.7280 -0.9453
 1010SOD     NA14493   0.905   2.157  17.344 -0.4036  0.1083  0.1829
 1011SOL     OW14494   0.587   3.596   2.476  0.3513 -0.1373  0.3703
 1011SOL    HW114495   0.677   3.617   2.501  0.4207  0.9347 -0.7697
 1011SOL    HW214496   0.599   3.610   2.382 -0.9019 -0.1220  0.2045
 1012SOL     OW14497   3.089   4.081   3.999  0.1566 -0.0420 -0.1154
 1012SOL    HW114498   3.073   4.137   3.923 -0.9929 -1.3239 -0.8196
 1012SOL    HW214499   3.091   4.139   4.075 -1.7661 -1.0525  0.7305
 1013SOL     OW14500   2.411   1.096   2.261  0.3984 -0.1328 -0.4476
 1013SOL    HW114501   2.352   1.168   2.284  1.0008  0.8878 -2.1323
 1013SOL    HW214502   2.478   1.100   2.330  0.4308 -0.1498 -0.4782
 1014SOL     OW14503   2.277   1.084  10.308 -0.2804 -0.6659 -0.0001
 1014SOL    HW114504   2.339   1.155  10.291  0.1022 -1.6363 -2.7129
 1014SOL    HW214505   2.208   1.125  10.360 -0.3172  0.3118 -0.8260
 1015SOL     OW14506   0.690   0.490   9.152 -0.4119 -0.1780 -0.2577
 1015SOL    HW114507   0.665   0.524   9.238  1.9597  0.2309  0.2865
 1015SOL    HW214508   0.676   0.571   9.102  0.8283 -0.1281 -0.5374
 1016SOL     OW14509   4.190   3.769  15.548  0.1178  0.4980 -0.3909
 1016SOL    HW114510   4.118   3.728  15.499 -1.0575 -0.9877  2.5603
 1016SOL    HW214511   4.260   3.715  15.510  0.6555  1.0258 -0.1554
 1017SOL     OW14512   0.312   4.460   9.784 -0.6970 -0.2549  0.8399
 1017SOL    HW114513   0.358   4.379   9.765 -2.0623 -1.0168  0.8645
 1017SOL    HW214514   0.272   4.487   9.702  3.0253 -0.0996 -0.9536
 1018SOL     OW14515   0.462   4.158   5.958 -0.1274  0.4782  0.0655
 1018SOL    HW114516   0.437   4.105   6.033  0.5081 -0.9120 -0.6996
 1018SOL    HW214517   0.379   4.205   5.947 -1.5736 -1.7923  1.1343
 1019SOL     OW14518   3.740   4.472   2.081  0.0363  0.1435  0.5513
 1019SOL    HW114519   3.810   4.533   2.059  0.4156 -1.2741 -2.0904
 1019SOL    HW214520   3.718   4.513   2.165  2.1217 -1.4763  1.9088
 1020SOL     OW14521   1.875   1.106   1.330  0.2171 -0.0038 -0.2760
 1020SOL    HW114522   1.790   1.119   1.373  0.8861  0.1532  1.0209
 1020SOL    HW214523   1.924   1.157   1.394 -2.0574 -0.7032  2.0412
 1021SOL     OW14524   0.814   2.429  17.543  0.0999  0.5690  0.3117
 1021SOL    HW114525   0.775   2.436  17.631 -0.1325 -0.5900  0.3133
 1021SOL    HW214526   0.807   2.334  17.533  0.1090  0.4362  1.4938
 1022SOL     OW14527   1.579   1.915   0.040  0.0536  0.2758  0.4133
 1022SOL    HW114528   1.634   1.941  17.667  2.0912  0.5542  2.0065
 1022SOL    HW214529   1.505   1.875  17.696  1.0594 -0.0252 -0.9479
 1023SOL     OW14530   3.768   2.681   7.202  0.0895 -0.2942  0.3105
 1023SOL    HW114531   3.840   2.686   7.264 -1.7006  2.2664  2.1456
 1023SOL    HW214532   3.703   2.633   7.253  0.2722 -1.3213 -0.4131
 1024SOL     OW14533   0.857   2.481   4.517 -0.2245 -0.5372  0.3158
 1024SOL    HW114534   0.915   2.444   4.449 -0.1819  0.3657 -0.1430
 1024SOL    HW214535   0.780   2.492   4.461 -0.6527  0.9828  1.2104
 1025SOL     OW14536   2.477   1.513   8.327 -0.2286 -0.0816 -0.5101
 1025SOL    HW114537   2.407   1.448   8.319 -0.0982 -0.2443 -0.3520
 1025SOL    HW214538   2.552   1.460   8.299  0.3213  1.4123 -1.8715
 1026SOL     OW14539   4.205   0.654   5.572 -0.0989  0.1929  0.0263
 1026SOL    HW114540   4.175   0.594   5.504 -3.1772  3.0355 -1.0904
 1026SOL    HW214541   4.216   0.584   5.637 -2.7570 -1.1305 -0.9575
 1027SOL     OW14542   1.252   0.490  12.107 -0.2255 -0.4103  0.1803
 1027SOL    HW114543   1.228   0.489  12.014 -2.1639 -2.8463  0.7030
 1027SOL    HW214544   1.336   0.530  12.086 -0.4328  0.4331  1.0046
 1028SOL     OW14545   2.855   3.180   4.036 -0.5968 -0.6597  0.0020
 1028SOL    HW114546   2.815   3.094   4.023 -1.5368 -0.1538 -0.4832
 1028SOL    HW214547   2.785   3.219   4.088 -1.3169 -0.4445 -1.1339
 1029SOL     OW14548   4.373   3.848   6.399  0.6689  0.3802  0.2053
 1029SOL    HW114549   4.284   3.830   6.371  0.1328  1.3729  1.2531
 1029SOL    HW214550   4.374   3.944   6.406  0.2164  0.2885  1.5756
 1030SOL     OW14551   0.039   2.478   4.170  0.3145 -0.3508  0.0911
 1030SOL    HW114552   4.685   2.429   4.190  0.1322  0.2380  0.8165
 1030SOL    HW214553   0.006   2.542   4.106  0.1086 -0.4755  0.0742
 1031SOL     OW14554   2.739   4.436   9.430 -0.1799  0.0945  0.2127
 1031SOL    HW114555   2.764   4.354   9.388 -1.4147 -0.8816  1.3646
 1031SOL    HW214556   2.759   4.412   9.521  0.8049  0.7385  0.1656
 1032SOL     OW14557   0.736   3.635   1.215  0.4123 -0.1871  0.5911
 1032SOL    HW114558   0.681   3.561   1.240 -0.4860 -0.0069 -0.8127
 1032SOL    HW214559   0.805   3.626   1.280 -0.1055  1.3488  1.3504
 1033SOL     OW14560   1.465   0.667   8.915  0.0496  0.4280  0.4154
 1033SOL    HW114561   1.551   0.645   8.877 -0.1520  2.5549 -1.3002
 1033SOL    HW214562   1.477   0.629   9.002 -1.2249 -0.1986  0.3205
 1034SOL     OW14563   2.836   0.248   9.964  0.6242 -0.0071  0.6449
 1034SOL    HW114564   2.871   0.235  10.052  3.8946 -0.3452 -0.6703
 1034SOL    HW214565   2.756   0.293   9.989  0.4141  0.2734 -0.5185
 1035SOL     OW14566   2.046   1.188  12.212 -0.0349 -0.1407  0.3691
 1035SOL    HW114567   1.989   1.245  12.264  2.8864  2.7543  0.3911
 1035SOL    HW214568   2.003   1.198  12.127  2.6162  2.3365 -0.6786
 1036SOL     OW14569   1.957   4.470   5.326  0.0518  0.2739 -0.0681
 1036SOL    HW114570   2.003   4.486   5.409 -2.0373 -4.3347  1.9701
 1036SOL    HW214571   2.025   4.431   5.272  1.3614 -0.6286  2.2294
 1037SOL     OW14572   1.835   0.223   0.629  0.1747 -0.1238  0.4985
 1037SOL    HW114573   1.809   0.315   0.628 -1.0164 -0.4537  0.9117
 1037SOL    HW214574   1.930   0.220   0.636  0.2941  0.5561 -0.7477
 1038SOL     OW14575   1.933   1.617   3.515  0.1180 -0.4205  0.1020
 1038SOL    HW114576   1.996   1.644   3.449  0.1392 -1.5293 -0.3308
 1038SOL    HW214577   1.872   1.559   3.469 -1.2421 -0.5220  2.0376
 1039SOL     OW14578   4.634   2.170   1.925 -0.5350 -0.2477  0.2695
 1039SOL    HW114579   4.685   2.094   1.897  1.5468  0.4322  2.2062
 1039SOL    HW214580   4.658   2.233   1.857 -1.1103  0.0374  0.3236
 1040SOL     OW14581   1.862   2.941   1.791 -0.4620  0.7821  0.5368
 1040SOL    HW114582   1.925   2.873   1.770 -1.0732  0.4784 -0.2896
 1040SOL    HW214583   1.913   3.003   1.844 -0.4636  2.1923 -1.1072
 1041SOL     OW14584   4.665   3.141   5.947  0.2214 -0.2461 -0.3689
 1041SOL    HW114585   4.613   3.189   6.011  0.9394  1.4513 -1.0525
 1041SOL    HW214586   0.026   3.169   5.978  0.5855 -2.0575  0.2493
 1042SOL     OW14587   4.232   2.526  14.323 -0.5932  0.5257 -0.3067
 1042SOL    HW114588   4.139   2.514  14.343 -0.2824 -1.6076 -0.1401
 1042SOL    HW214589   4.252   2.618  14.339  1.2049  0.1499 -0.3834
 1043SOL     OW14590   4.678   1.258  16.636 -0.8741 -0.2835  0.5272
 1043SOL    HW114591   0.025   1.268  16.575 -0.5662  3.0712  1.4330
 1043SOL    HW214592   4.719   1.229  16.717 -0.6994 -2.3542 -0.3045
 1044SOL     OW14593   2.513   3.071  12.702 -0.0116 -0.4117  0.8376
 1044SOL    HW114594   2.478   3.160  12.697 -1.1924 -0.8799  0.8024
 1044SOL    HW214595   2.475   3.034  12.623  1.3221  0.7800 -0.3674
 1045SOL     OW14596   3.404   1.939   2.378  0.3277  0.4895  0.2766
 1045SOL    HW114597   3.316   1.903   2.376  0.4527  0.2302 -0.3873
 1045SOL    HW214598   3.468   1.868   2.370 -0.0609  0.0446  1.1180
 1046SOL     OW14599   0.380   4.009  13.152  0.7108  0.1672 -0.7080
 1046SOL    HW114600   0.354   4.097  13.123 -2.4710 -0.3714  0.5509
 1046SOL    HW214601   0.404   4.020  13.244  0.6568 -1.2769 -0.5320
 1047SOL     OW14602   1.396   4.352  11.261  0.6578  0.4959  0.3002
 1047SOL    HW114603   1.460   4.288  11.293  0.2691  1.2096  2.4385
 1047SOL    HW214604   1.403   4.345  11.165  1.2102  0.6417  0.3257
 1048SOL     OW14605   4.540   3.024  13.162  0.3184  0.2829  0.0526
 1048SOL    HW114606   4.631   3.051  13.171  0.6936 -0.3590 -1.7773
 1048SOL    HW214607   4.503   3.038  13.249 -2.8866  1.8341 -1.5519
 1049SOL     OW14608   2.208   4.321   7.166  0.3558 -0.4367  0.3285
 1049SOL    HW114609   2.137   4.375   7.200  1.7018  0.4371  1.7170
 1049SOL    HW214610   2.292   4.349   7.202  0.7734  1.7892 -2.3509
 1050SOL     OW14611   2.425   4.320   5.835  0.1515 -0.5282 -0.4330
 1050SOL    HW114612   2.365   4.269   5.889 -1.6021  1.8398 -0.1381
 1050SOL    HW214613   2.468   4.378   5.897  2.0264 -0.5555 -1.7032
 1051SOL     OW14614   0.722   2.469  14.147  0.0725 -0.2070 -0.4775
 1051SOL    HW114615   0.749   2.387  14.188  0.6447  1.1818  1.8909
 1051SOL    HW214616   0.627   2.452  14.145  0.3350 -1.5259 -2.0244
 1052SOL     OW14617   3.077   3.904   5.567  0.0011  0.0589 -0.5928
 1052SOL    HW114618   3.055   3.932   5.656 -0.9071  1.0390 -1.1257
 1052SOL    HW214619   3.068   3.986   5.518 -1.3506 -0.5169 -1.2751
 1053SOL     OW14620   3.627   1.173   3.058  0.3555 -0.5268 -0.0764
 1053SOL    HW114621   3.680   1.167   2.978  2.0272  0.2684  0.9825
 1053SOL    HW214622   3.539   1.148   3.032  0.1905 -0.3331  0.3041
 1054SOL     OW14623   3.525   0.970  14.256  0.0572 -0.4432  0.1772
 1054SOL    HW114624   3.509   1.033  14.186  1.1501 -0.6965 -0.3022
 1054SOL    HW214625   3.573   0.904  14.206  0.0855 -0.2812 -0.0073
 1055SOL     OW14626   3.022   3.258   1.974 -0.4227 -0.1421 -0.1122
 1055SOL    HW114627   2.943   3.217   1.938 -0.8504  1.0425 -0.5410
 1055SOL    HW214628   3.036   3.329   1.910 -0.4872 -0.6037 -0.6378
 1056SOL     OW14629   1.163   2.932   3.220  0.2241 -0.4256  0.0117
 1056SOL    HW114630   1.194   2.845   3.246  0.0031 -0.7397 -0.7979
 1056SOL    HW214631   1.088   2.915   3.163 -0.1939 -3.7171  1.5573
 1057SOL     OW14632   1.370   0.195  15.316  0.0705 -0.3654 -0.4871
 1057SOL    HW114633   1.424   0.188  15.394  0.3853 -1.8813 -0.8453
 1057SOL    HW214634   1.288   0.162  15.353  1.0333  0.6843  2.6191
 1058SOL     OW14635   4.347   1.175   3.121  0.3833  0.1487 -0.2483
 1058SOL    HW114636   4.436   1.206   3.138  0.6643 -1.6260  1.5082
 1058SOL    HW214637   4.333   1.159   3.028 -0.0376  2.3608 -0.5772
 1059SOL     OW14638   1.414   1.550   9.073  0.0193  0.2514  0.2741
 1059SOL    HW114639   1.427   1.635   9.115  0.0326  0.5834 -0.3989
 1059SOL    HW214640   1.490   1.510   9.115  0.8675 -0.2752 -1.7382
 1060SOL     OW14641   2.526   3.959   5.134  0.3519 -0.3678  0.0353
 1060SOL    HW114642   2.569   4.042   5.150  3.0054 -1.7105 -0.2035
 1060SOL    HW214643   2.603   3.903   5.134  0.6750  0.0664  4.5061
 1061SOL     OW14644   1.268   0.322   9.066  0.6701 -0.1218  0.3736
 1061SOL    HW114645   1.177   0.297   9.049  0.7813 -0.7085  0.6286
 1061SOL    HW214646   1.266   0.408   9.108  1.4009 -0.3952  0.9705
 1062SOL     OW14647   4.411   0.727   6.794 -0.1075  0.0806 -0.1437
 1062SOL    HW114648   4.337   0.706   6.737  1.2369 -0.2619 -1.7433
 1062SOL    HW214649   4.486   0.693   6.746 -0.4780 -0.4922 -0.3250
 1063SOL     OW14650   4.628   1.221   0.497  0.7183  0.9504 -0.2435
 1063SOL    HW114651   4.701   1.162   0.477 -1.3097 -1.3331 -0.9649
 1063SOL    HW214652   4.571   1.179   0.432  1.6945 -2.3132  1.0085
 1064SOL     OW14653   4.246   0.635   3.280  0.7730  0.0370 -0.0868
 1064SOL    HW114654   4.249   0.568   3.348  1.2958  2.7986  2.6247
 1064SOL    HW214655   4.230   0.572   3.210 -0.1305  0.0604  0.0998
 1065SOL     OW14656   0.904   0.998   2.208 -0.5239  0.2235  0.1994
 1065SOL    HW114657   0.963   1.061   2.250 -0.4016  1.1452 -1.3607
 1065SOL    HW214658   0.816   1.034   2.203 -0.5116  0.4177  1.4245
 1066SOL     OW14659   3.554   1.085   7.047 -0.2513  0.7743 -0.1449
 1066SOL    HW114660   3.577   1.175   7.023 -1.5071  1.0203 -0.4456
 1066SOL    HW214661   3.458   1.086   7.039 -0.5075  2.2572  3.2506
 1067SOL     OW14662   2.875   4.570   7.117  0.0981 -0.0596  0.2280
 1067SOL    HW114663   2.858   4.496   7.059 -1.8083  1.9248 -1.7844
 1067SOL    HW214664   2.882   4.536   7.206 -0.8006 -4.1174 -1.2752
 1068SOL     OW14665   2.585   1.731  12.362  0.3209  0.4478  0.0595
 1068SOL    HW114666   2.529   1.726  12.285  2.2473 -3.4554 -1.0559
 1068SOL    HW214667   2.663   1.691  12.323 -0.1596 -0.0257 -0.4146
 1069SOL     OW14668   0.106   0.954   7.133  0.9515  0.6124 -1.1183
 1069SOL    HW114669   0.063   0.889   7.078  2.3329 -0.4896 -0.8826
 1069SOL    HW214670   0.168   0.975   7.063  0.8685  0.4417 -1.2421
 1070SOL     OW14671   0.196   2.309   5.288 -0.2922  0.3334 -0.1270
 1070SOL    HW114672   0.163   2.287   5.375 -0.3734 -1.9042 -0.7302
 1070SOL    HW214673   0.278   2.263   5.273 -0.4518  0.6066 -1.7775
 1071SOL     OW14674   0.704   4.444   1.818 -0.0132  0.1587  0.7941
 1071SOL    HW114675   0.764   4.379   1.854  0.8500 -0.2873 -1.4631
 1071SOL    HW214676   0.765   4.518   1.814  0.3454 -0.0402  2.3612
 1072SOL     OW14677   4.083   2.916   7.048  0.2245 -0.9110 -0.3418
 1072SOL    HW114678   4.142   2.886   7.117  0.1831 -0.7616 -0.2409
 1072SOL    HW214679   4.089   3.012   7.050 -2.5832 -0.7502 -0.2900
 1073SOL     OW14680   3.623   0.162   0.949 -0.4003  0.1290  0.9371
 1073SOL    HW114681   3.629   0.205   1.034  1.4553  1.1776  0.2621
 1073SOL    HW214682   3.711   0.129   0.930 -0.6865  0.5808 -1.1452
 1074SOL     OW14683   2.625   2.230   4.088 -0.3952  0.2483 -0.0599
 1074SOL    HW114684   2.617   2.259   3.997  1.3154 -0.6303 -0.4824
 1074SOL    HW214685   2.540   2.260   4.120 -0.0828  2.3468 -1.1555
 1075SOL     OW14686   2.523   1.509   7.195 -0.2603  0.0617  0.2810
 1075SOL    HW114687   2.570   1.592   7.202 -0.3795 -0.0411  2.4394
 1075SOL    HW214688   2.590   1.450   7.230  1.0851  0.1811 -2.1143
 1076SOL     OW14689   2.135   2.193   8.387  0.4821 -0.5541  1.0068
 1076SOL    HW114690   2.215   2.218   8.432 -0.0743  2.4003  0.3476
 1076SOL    HW214691   2.073   2.192   8.460 -0.2860  1.3747  0.3844
 1077SOL     OW14692   3.714   1.533   7.859 -0.3068 -0.5917  0.0794
 1077SOL    HW114693   3.716   1.551   7.765 -0.2794  0.4092  0.2763
 1077SOL    HW214694   3.622   1.555   7.872 -0.8232 -2.1279 -0.8843
 1078SOL     OW14695   4.098   2.579   7.042 -0.4864 -0.1029 -0.6218
 1078SOL    HW114696   4.171   2.564   6.982 -0.9338  1.2944 -1.5167
 1078SOL    HW214697   4.150   2.587   7.122 -1.3962  1.5856 -0.2082
 1079SOL     OW14698   0.562   4.303   5.171  0.0933 -0.0514  0.2827
 1079SOL    HW114699   0.593   4.303   5.080 -1.4020 -0.0128 -0.2275
 1079SOL    HW214700   0.516   4.220   5.172  1.0438 -0.5789  0.0352
 1080SOL     OW14701   0.365   0.337  13.123  0.0976 -0.0388 -0.2802
 1080SOL    HW114702   0.449   0.359  13.164 -0.6269 -0.1340  1.2661
 1080SOL    HW214703   0.390   0.250  13.091 -1.5784 -0.9327  0.8766
 1081SOL     OW14704   2.205   1.440  15.620 -0.1259  0.1752  0.1218
 1081SOL    HW114705   2.278   1.499  15.632  0.0553  0.1059 -0.6301
 1081SOL    HW214706   2.173   1.468  15.534  0.3898 -0.8731 -0.4154
 1082SOL     OW14707   0.981   3.342   1.961  0.3635  0.5903 -0.2504
 1082SOL    HW114708   1.034   3.327   1.883 -0.0177 -1.2810 -0.1581
 1082SOL    HW214709   1.014   3.427   1.988  2.6372 -0.6322  0.8454
 1083SOL     OW14710   2.697   4.413   6.601 -0.6885  0.4456  0.5442
 1083SOL    HW114711   2.670   4.473   6.532 -1.0079 -0.3848 -0.0512
 1083SOL    HW214712   2.733   4.473   6.666  1.6761  0.9371 -1.1974
 1084SOL     OW14713   2.973   2.626   0.721  0.0266 -0.6790  0.2461
 1084SOL    HW114714   3.005   2.715   0.704 -0.0647 -0.7026 -0.0392
 1084SOL    HW214715   3.051   2.589   0.763 -0.1486 -1.1560  0.1386
 1085SOL     OW14716   0.155   3.760   4.367  0.0053 -0.7065  0.5344
 1085SOL    HW114717   0.193   3.719   4.445 -0.3088 -3.3159 -0.6753
 1085SOL    HW214718   0.063   3.731   4.368 -0.5415  0.9994  0.7830
 1086SOL     OW14719   1.627   0.056   0.690  0.0115 -0.0184  0.2073
 1086SOL    HW114720   1.680   0.128   0.657  1.6980 -1.5411 -0.4033
 1086SOL    HW214721   1.542   0.056   0.646  1.2604  0.8087 -2.1704
 1087SOL     OW14722   3.885   1.231   7.884 -0.0474  0.4316  0.0463
 1087SOL    HW114723   3.979   1.213   7.879 -0.4923 -1.9821  0.5058
 1087SOL    HW214724   3.869   1.272   7.798 -2.0267  3.0250  1.6533
 1088SOL     OW14725   1.664   4.557   3.886 -0.1527  0.1440  0.6428
 1088SOL    HW114726   1.607   4.571   3.810 -0.0109 -0.1180  0.4881
 1088SOL    HW214727   1.715   4.637   3.883  1.3638 -0.9407 -1.7472
 1089SOL     OW14728   1.582   1.030   0.915 -0.6638  0.1887  0.5917
 1089SOL    HW114729   1.627   0.953   0.948 -1.4290 -0.4711  0.0687
 1089SOL    HW214730   1.632   1.104   0.949 -1.4664  0.0300  2.1059
 1090SOL     OW14731   3.817   3.401   6.158  0.0432  0.3280 -0.2552
 1090SOL    HW114732   3.872   3.331   6.193  0.9891  1.5778  0.7602
 1090SOL    HW214733   3.756   3.350   6.105  3.1189 -1.9721 -1.5461
 1091SOL     OW14734   0.620   0.804   8.669 -0.3939 -0.2969 -0.2306
 1091SOL    HW114735   0.634   0.887   8.714 -0.9414 -0.7292  0.7482
 1091SOL    HW214736   0.619   0.743   8.743  0.2761  0.1833  0.1763
 1092SOL     OW14737   2.369   2.849  14.398  0.0969 -0.6699  0.2539
 1092SOL    HW114738   2.342   2.833  14.308 -0.8432  0.3046  0.3650
 1092SOL    HW214739   2.425   2.771  14.406 -0.9437 -1.3817  0.4743
 1093SOL     OW14740   4.136   2.883   4.610  0.6822  0.5583 -0.0850
 1093SOL    HW114741   4.229   2.906   4.618  1.2997 -1.6636 -0.6431
 1093SOL    HW214742   4.099   2.914   4.692 -0.2897  0.8692 -0.6464
 1094SOL     OW14743   1.474   1.317   5.851 -0.3997 -0.5497  0.6482
 1094SOL    HW114744   1.538   1.365   5.798  0.6572 -2.2699  0.3608
 1094SOL    HW214745   1.470   1.242   5.792  2.1000  1.2960 -1.8405
 1095SOL     OW14746   4.228   0.300   3.792 -0.2146 -0.5640  0.2417
 1095SOL    HW114747   4.158   0.298   3.727  0.6161  0.4446 -0.6933
 1095SOL    HW214748   4.192   0.266   3.873  1.4449  2.1020  2.1145
 1096SOL     OW14749   0.465   2.896   5.971 -0.0390 -0.1099 -0.1396
 1096SOL    HW114750   0.515   2.932   5.898 -0.2755 -1.2132 -0.8445
 1096SOL    HW214751   0.527   2.899   6.044 -1.1095  0.5773  0.7364
 1097SOL     OW14752   4.536   4.437   8.747  0.2014 -0.0653 -0.6971
 1097SOL    HW114753   4.501   4.450   8.836  2.8046 -1.2477  0.4835
 1097SOL    HW214754   4.476   4.483   8.689 -0.2903  0.7782  0.4573
 1098SOL     OW14755   4.429   3.323   6.399 -0.0006 -0.0464 -0.4682
 1098SOL    HW114756   4.444   3.411   6.431 -0.6470 -0.5464  1.2375
 1098SOL    HW214757   4.385   3.290   6.478  0.3088  0.3033 -0.1500
 1099SOL     OW14758   4.332   3.272  13.315  0.5934 -0.1771 -0.2185
 1099SOL    HW114759   4.301   3.202  13.372  0.3318 -0.1084 -0.2792
 1099SOL    HW214760   4.247   3.316  13.306  0.3177 -0.3481  1.5164
 1100SOL     OW14761   4.048   3.484  10.057  0.2439  0.3043 -0.2897
 1100SOL    HW114762   3.995   3.537  10.117  0.6729  1.4654 -0.9413
 1100SOL    HW214763   3.994   3.489   9.978 -2.0412  1.7578  1.3463
 1101SOL     OW14764   1.032   0.276   8.907  0.5503 -0.2339  0.0661
 1101SOL    HW114765   0.954   0.255   8.857 -0.4834  2.2079  0.6188
 1101SOL    HW214766   1.002   0.350   8.961 -0.1606 -2.0644  2.2003
 1102SOL     OW14767   2.156   2.867   2.790 -0.2824  0.3742  0.1633
 1102SOL    HW114768   2.113   2.838   2.870  1.3122 -0.5140  0.6856
 1102SOL    HW214769   2.129   2.959   2.797 -3.8034 -0.7555  1.7404
 1103SOL     OW14770   3.799   3.562   7.715 -0.6501 -0.0724 -0.0456
 1103SOL    HW114771   3.873   3.615   7.742 -0.9614 -0.9422  2.4967
 1103SOL    HW214772   3.803   3.575   7.620  0.0883  1.6144  0.2231
 1104SOL     OW14773   0.795   0.682   8.345 -0.4073 -0.1527 -0.0906
 1104SOL    HW114774   0.882   0.707   8.313  0.7698 -1.5795  1.9797
 1104SOL    HW214775   0.759   0.762   8.383 -0.4507 -0.4170  0.4182
 1105SOL     OW14776   3.539   1.452   4.229 -0.0192 -0.2848 -0.5307
 1105SOL    HW114777   3.589   1.530   4.254 -1.6227  0.5169  0.1811
 1105SOL    HW214778   3.485   1.436   4.307  1.2849 -0.0643  0.4280
 1106SOL     OW14779   1.586   0.578  12.752 -0.2303  0.2376 -0.3129
 1106SOL    HW114780   1.530   0.651  12.779 -0.6255  0.3524 -1.4166
 1106SOL    HW214781   1.523   0.541  12.689  1.1249 -0.6739 -1.1257
 1107SOL     OW14782   2.184   0.920   2.248 -0.4322  0.0120 -0.5835
 1107SOL    HW114783   2.243   0.863   2.297 -2.6292 -1.2894  0.5551
 1107SOL    HW214784   2.238   0.994   2.219  0.9588 -0.2087  1.4548
 1108SOL     OW14785   3.347   0.758   2.385 -0.4285  0.2961  0.6649
 1108SOL    HW114786   3.356   0.693   2.455 -2.0511 -2.9527 -2.1132
 1108SOL    HW214787   3.412   0.822   2.411 -1.4448  0.8027  1.9484
 1109SOL     OW14788   1.532   1.013   7.752  0.1949 -0.2394  0.4981
 1109SOL    HW114789   1.508   0.970   7.670 -1.6521  2.0150 -0.1705
 1109SOL    HW214790   1.461   1.078   7.756  1.4879  1.2552 -0.9798
 1110SOL     OW14791   0.464   1.530  15.715 -0.2535  0.1982 -0.6584
 1110SOL    HW114792   0.433   1.480  15.639 -1.1969  0.7173 -0.6217
 1110SOL    HW214793   0.467   1.619  15.680  1.7692 -0.7959 -2.9451
 1111SOL     OW14794   1.498   0.720   6.382  0.1186 -0.5447 -0.0440
 1111SOL    HW114795   1.502   0.666   6.303 -0.3741  0.3836 -0.7023
 1111SOL    HW214796   1.480   0.643   6.435 -0.9807  0.1705  0.6171
 1112SOL     OW14797   1.758   1.373  10.944  0.9467 -0.0274 -0.2393
 1112SOL    HW114798   1.832   1.315  10.925  0.1163 -0.6903 -1.4682
 1112SOL    HW214799   1.775   1.456  10.900 -0.8433  0.1063 -0.6742
 1113SOL     OW14800   1.623   1.649   2.066  0.5574 -0.4705 -0.0586
 1113SOL    HW114801   1.597   1.680   1.979  0.6345  1.2117  0.5150
 1113SOL    HW214802   1.539   1.627   2.107  1.3222 -1.9716  0.6820
 1114SOL     OW14803   1.754   3.240   9.075 -0.8048 -0.4542 -0.6357
 1114SOL    HW114804   1.712   3.169   9.122  1.1404 -0.3589  1.2364
 1114SOL    HW214805   1.681   3.297   9.048  1.1431  2.0499 -0.6791
 1115SOL     OW14806   0.124   4.349   9.111  0.3074  0.3180  0.5143
 1115SOL    HW114807   0.127   4.425   9.169  1.2230  0.0053  0.8757
 1115SOL    HW214808   0.032   4.341   9.085  0.0394  1.8746  0.9989
 1116SOL     OW14809   1.350   1.138   7.376  0.2195 -0.3251  0.1078
 1116SOL    HW114810   1.421   1.199   7.354 -1.2888  1.2265 -0.4383
 1116SOL    HW214811   1.301   1.198   7.433 -2.2000 -0.6178 -1.7095
 1117SOL     OW14812   2.270   2.453   5.929  0.1902  0.1750 -0.4556
 1117SOL    HW114813   2.242   2.458   5.837  0.6845  0.0283 -0.6123
 1117SOL    HW214814   2.354   2.499   5.930 -0.8167  2.0447 -0.3727
 1118SOL     OW14815   3.008   3.701  13.958  0.2765  0.0088 -0.0257
 1118SOL    HW114816   3.092   3.744  13.975 -0.2578 -0.0360  2.6532
 1118SOL    HW214817   2.940   3.761  13.988  2.5691  1.9592  1.2890
 1119SOL     OW14818   2.791   4.365   6.242 -0.2346 -0.1753  0.4965
 1119SOL    HW114819   2.725   4.433   6.235  1.1862  1.0758 -0.8120
 1119SOL    HW214820   2.865   4.422   6.220  0.1665 -1.2621 -1.0214
 1120SOL     OW14821   3.150   1.051  11.901 -0.0675  0.2735 -0.0800
 1120SOL    HW114822   3.201   1.064  11.821 -0.8048  2.9153 -0.1200
 1120SOL    HW214823   3.212   1.032  11.971 -2.5220 -0.3839  1.9178
 1121SOL     OW14824   0.850   3.656   5.485 -0.2854  0.8845 -0.1697
 1121SOL    HW114825   0.927   3.691   5.440  0.6575  0.3606  1.0440
 1121SOL    HW214826   0.835   3.576   5.435 -2.1524  0.1540  1.5420
 1122SOL     OW14827   2.197   4.694   9.299  0.8451 -0.5620  0.0224
 1122SOL    HW114828   2.118   4.685   9.353 -0.3036  2.0275 -1.2310
 1122SOL    HW214829   2.268   4.690   9.363  0.7611 -2.0773  0.0234
 1123SOL     OW14830   4.514   3.971   7.085  0.0573  0.2708 -0.0703
 1123SOL    HW114831   4.606   3.995   7.076  0.4251 -1.2895 -0.5469
 1123SOL    HW214832   4.522   3.938   7.174  0.5240 -2.1799 -1.0126
 1124SOL     OW14833   4.376   2.156   7.706 -0.7622 -0.3602  0.3172
 1124SOL    HW114834   4.343   2.100   7.776  1.2426  0.7846  2.1617
 1124SOL    HW214835   4.323   2.234   7.721 -1.7032 -1.0500  0.5914
 1125SOL     OW14836   1.998   1.475   2.681 -0.0669  0.4341  0.5197
 1125SOL    HW114837   1.978   1.530   2.756  1.6201  0.7711  0.7160
 1125SOL    HW214838   2.091   1.456   2.689 -0.4866 -3.0446 -2.7537
 1126SOL     OW14839   2.497   0.268   9.050  0.1131 -0.0479  0.6067
 1126SOL    HW114840   2.510   0.233   8.962 -2.1393 -2.3435  1.1881
 1126SOL    HW214841   2.415   0.226   9.079  0.4723  0.9433  3.0720
 1127SOL     OW14842   4.688   1.308   0.872 -0.2771  1.0449  0.2297
 1127SOL    HW114843   0.010   1.309   0.955  0.0452 -0.1085  0.0576
 1127SOL    HW214844   0.028   1.354   0.819  1.0714  0.1625  1.1123
 1128SOL     OW14845   4.154   3.162   2.020  0.1671 -0.4089  0.3622
 1128SOL    HW114846   4.247   3.145   2.037  0.3348 -1.0810 -1.2123
 1128SOL    HW214847   4.165   3.240   1.965 -1.7402 -0.2814  0.1472
 1129SOL     OW14848   3.949   4.113   2.070 -0.0101 -0.4206  0.2976
 1129SOL    HW114849   4.006   4.189   2.081 -0.4837  0.0991 -0.7626
 1129SOL    HW214850   3.942   4.100   1.976 -0.3480 -1.2428  0.4350
 1130SOL     OW14851   3.001   0.674  15.829 -0.0624 -0.2744 -0.4729
 1130SOL    HW114852   3.037   0.637  15.749 -1.6238 -2.2353 -0.2979
 1130SOL    HW214853   3.045   0.623  15.897 -0.7730 -1.7525 -1.1192
 1131SOL     OW14854   0.264   1.836  10.103  0.0584  0.7867  0.6109
 1131SOL    HW114855   0.189   1.777  10.091  1.4105  0.0716 -4.0650
 1131SOL    HW214856   0.339   1.778  10.120  1.6265  2.4914 -0.4772
 1132SOL     OW14857   3.446   0.043   5.116  0.1586  0.2750  0.2872
 1132SOL    HW114858   3.532   0.072   5.144  1.9883 -0.6655 -4.3933
 1132SOL    HW214859   3.408   0.131   5.116  0.4971  0.4210  0.0257
 1133SOL     OW14860   1.647   2.822   0.898  0.6834  0.3347  0.7199
 1133SOL    HW114861   1.586   2.861   0.836  0.3098 -1.0362  0.2308
 1133SOL    HW214862   1.712   2.786   0.837 -1.0255 -1.2378 -0.1365
 1134SOL     OW14863   0.539   0.393   7.336 -0.6723  0.3395 -0.0245
 1134SOL    HW114864   0.561   0.456   7.267 -3.2722  0.2917 -0.8803
 1134SOL    HW214865   0.445   0.379   7.325 -1.1508  1.8324  2.1813
 1135SOL     OW14866   4.705   2.110  14.444  0.0262 -0.1551 -0.1422
 1135SOL    HW114867   4.680   2.176  14.509  0.3257 -0.7004  0.5265
 1135SOL    HW214868   4.671   2.036  14.494 -0.0866 -0.3665 -0.5295
 1136SOL     OW14869   0.373   3.594   6.483 -0.1406  0.1374 -0.4431
 1136SOL    HW114870   0.452   3.541   6.489 -0.3976 -0.1097  0.7964
 1136SOL    HW214871   0.326   3.555   6.557  0.2982 -1.1664 -0.8387
 1137SOL     OW14872   2.373   2.470  11.673 -0.4866  0.9120  0.2138
 1137SOL    HW114873   2.361   2.506  11.761 -0.4417  0.9876  0.1881
 1137SOL    HW214874   2.455   2.425  11.692 -1.0043  0.7947  2.2050
 1138SOL     OW14875   2.853   0.655   2.972  0.0501 -0.2992 -0.1967
 1138SOL    HW114876   2.802   0.575   2.982  1.0632 -1.0865 -1.3197
 1138SOL    HW214877   2.923   0.644   3.036  0.5537  1.3553 -0.4433
 1139SOL     OW14878   0.668   1.042   8.777 -0.0443  0.6767 -0.2747
 1139SOL    HW114879   0.640   1.082   8.859 -0.1399  1.2712 -0.5985
 1139SOL    HW214880   0.762   1.057   8.777  0.4327 -2.2825  1.4063
 1140SOL     OW14881   1.863   0.828   7.601  0.2908  0.1636  0.0005
 1140SOL    HW114882   1.949   0.788   7.609  0.5430  0.7730  0.3221
 1140SOL    HW214883   1.827   0.791   7.682 -0.9491  0.2663 -0.4907
 1141SOL     OW14884   4.683   0.270   5.572  0.0884 -0.5430  0.1694
 1141SOL    HW114885   0.049   0.238   5.578 -0.1800 -1.5528 -1.0630
 1141SOL    HW214886   4.673   0.300   5.662  3.1487  3.4435 -0.8063
 1142SOL     OW14887   3.143   0.428   4.566 -0.0764  0.4378  0.0924
 1142SOL    HW114888   3.213   0.406   4.504  1.5931  0.3187  2.0114
 1142SOL    HW214889   3.165   0.518   4.588 -2.1005  1.3109 -1.4422
 1143SOL     OW14890   4.580   2.803   1.821 -0.2322 -0.1732  0.6137
 1143SOL    HW114891   4.632   2.824   1.898 -1.5671 -1.3808  1.8518
 1143SOL    HW214892   4.571   2.881   1.766  2.0516 -0.2262  0.1560
 1144SOL     OW14893   1.127   1.371   5.758  0.0096 -0.0449 -0.2804
 1144SOL    HW114894   1.147   1.396   5.848  0.8654 -1.3862 -0.1031
 1144SOL    HW214895   1.177   1.290   5.756  0.2801  0.1512 -1.5453
 1145SOL     OW14896   0.059   0.170   2.246 -0.0363 -0.0590 -0.4010
 1145SOL    HW114897   4.693   0.140   2.246 -0.5193  1.4314  1.5144
 1145SOL    HW214898   0.075   0.200   2.156  0.1849 -0.9670 -0.6639
 1146SOL     OW14899   3.616   2.366   3.807  0.1028  0.0808  0.4347
 1146SOL    HW114900   3.663   2.430   3.861 -0.7378  0.2238  0.9868
 1146SOL    HW214901   3.680   2.297   3.824 -3.2229 -2.3526  3.0841
 1147SOL     OW14902   3.971   4.608   2.614  0.6328 -0.4439 -0.1536
 1147SOL    HW114903   3.941   4.592   2.524  0.0196 -1.7087  0.2715
 1147SOL    HW214904   4.065   4.620   2.600  0.0983  1.2056 -2.4005
 1148SOL     OW14905   1.485   0.044   8.593 -0.1702  0.8253  0.4714
 1148SOL    HW114906   1.481   0.109   8.663 -1.4430 -1.1162  2.1891
 1148SOL    HW214907   1.577   0.056   8.569 -0.0072  1.3451  1.3562
 1149SOL     OW14908   2.737   3.030  14.765 -0.4381 -0.2682  0.3467
 1149SOL    HW114909   2.657   2.981  14.748 -1.5609  1.6071  0.2461
 1149SOL    HW214910   2.756   3.027  14.859  0.9274  0.0747  0.0852
 1150SOL     OW14911   0.656   3.500   5.672  0.3190 -0.2410  0.2815
 1150SOL    HW114912   0.745   3.493   5.638  0.1041  1.2449 -0.5954
 1150SOL    HW214913   0.614   3.423   5.636  0.5680  0.7879 -2.1659
 1151SOL     OW14914   4.541   1.041  14.001 -0.1231  0.2689  0.6831
 1151SOL    HW114915   4.540   0.946  13.992  0.4538  0.2235  1.1826
 1151SOL    HW214916   4.629   1.056  14.035  0.3266  1.7661 -1.1290
 1152SOL     OW14917   3.279   0.035   8.152  0.1903  0.3330 -0.0238
 1152SOL    HW114918   3.349   0.003   8.095  0.3624  0.7090 -0.0244
 1152SOL    HW214919   3.251   4.680   8.197  1.6647 -0.6531 -0.8606
 1153SOL     OW14920   1.831   0.895   1.898  0.3347  0.5433  0.3193
 1153SOL    HW114921   1.795   0.878   1.985  1.6743  1.7912  1.1204
 1153SOL    HW214922   1.906   0.951   1.918  1.9692 -1.4123 -0.3291
 1154SOL     OW14923   2.994   4.321   8.663 -0.2925 -0.1011 -0.0489
 1154SOL    HW114924   3.028   4.378   8.594  2.8555  1.9547  3.2114
 1154SOL    HW214925   3.061   4.252   8.662 -1.0008 -0.7832 -0.1057
 1155SOL     OW14926   1.934   3.729   3.315  0.6763 -0.3643 -0.0269
 1155SOL    HW114927   1.965   3.706   3.402 -0.4851  1.4181  0.8667
 1155SOL    HW214928   1.954   3.822   3.303  0.8763 -0.1633  1.7911
 1156SOL     OW14929   3.082   1.909   6.732  0.4231  0.5852 -0.2318
 1156SOL    HW114930   3.082   1.819   6.698  0.1223  0.4769  0.0506
 1156SOL    HW214931   3.160   1.905   6.786  1.2682 -0.8138 -1.5605
 1157SOL     OW14932   0.986   1.816  12.740 -0.1222 -0.1691 -0.0859
 1157SOL    HW114933   0.895   1.788  12.754  0.0407  0.0900  1.4455
 1157SOL    HW214934   0.982   1.910  12.757 -1.3615  0.1968 -2.4108
 1158SOL     OW14935   0.115   2.281   5.621 -0.0256  0.1825 -0.0289
 1158SOL    HW114936   0.160   2.364   5.640  1.1810 -0.4855  0.0034
 1158SOL    HW214937   0.047   2.313   5.562 -1.0515 -3.3469 -0.7258
 1159SOL     OW14938   3.146   0.429   7.299  0.1762 -0.3265  0.1051
 1159SOL    HW114939   3.073   0.377   7.264  0.5783 -1.6854  1.3132
 1159SOL    HW214940   3.206   0.434   7.224 -1.8329  1.5879 -1.4140
 1160SOL     OW14941   3.354   2.974   5.825  0.7162  0.1309  0.2979
 1160SOL    HW114942   3.275   2.925   5.803  0.1507  2.5209 -2.9282
 1160SOL    HW214943   3.313   3.060   5.824  0.7051  0.1050 -0.8796
 1161SOL     OW14944   1.818   3.006  16.149  0.1874  0.0825  0.7423
 1161SOL    HW114945   1.836   3.019  16.242 -0.6820  2.4322  0.6036
 1161SOL    HW214946   1.740   2.951  16.154  0.7019 -0.9048 -2.4192
 1162SOL     OW14947   1.715   3.650   3.180 -0.0235  0.3638  0.1316
 1162SOL    HW114948   1.780   3.686   3.240 -0.6013  1.0837  0.3102
 1162SOL    HW214949   1.690   3.716   3.115  0.7196  1.8534  1.3687
 1163SOL     OW14950   0.877   2.264   6.322  0.1079 -0.0642 -0.6527
 1163SOL    HW114951   0.970   2.251   6.337  0.4232  0.1175 -2.4741
 1163SOL    HW214952   0.874   2.312   6.239 -1.5882 -0.2199 -0.6944
 1164SOL     OW14953   1.951   3.490   8.202 -0.0426  0.2619 -0.7200
 1164SOL    HW114954   1.860   3.512   8.225  0.8476  2.2705  0.8932
 1164SOL    HW214955   1.939   3.435   8.124 -0.9940 -0.4910 -0.0500
 1165SOL     OW14956   3.120   3.039   1.155  0.2504  0.3276  0.2879
 1165SOL    HW114957   3.144   2.960   1.106 -1.0138  0.6053 -0.7886
 1165SOL    HW214958   3.067   3.000   1.225  0.1846 -0.4608 -0.1914
 1166SOL     OW14959   2.012   3.504   7.097 -0.5233 -0.1084  0.3387
 1166SOL    HW114960   2.009   3.599   7.096  0.1954 -0.0942 -0.1192
 1166SOL    HW214961   2.098   3.482   7.133  1.3593  4.2382 -1.5391
 1167SOL     OW14962   4.202   0.282   4.767 -0.1159  0.1024  0.0753
 1167SOL    HW114963   4.187   0.372   4.796 -2.0564  0.2595 -1.4068
 1167SOL    HW214964   4.247   0.308   4.687 -2.2815  1.2433 -0.7448
 1168SOL     OW14965   1.696   2.540   8.291  0.1051 -0.3468  0.2550
 1168SOL    HW114966   1.647   2.457   8.284 -0.7684  0.0016  2.2986
 1168SOL    HW214967   1.741   2.526   8.374  0.7735 -2.0254 -0.3892
 1169SOL     OW14968   2.306   3.250   5.965  0.0959  0.4609  0.2666
 1169SOL    HW114969   2.383   3.305   5.953  1.3181 -1.2029  0.3543
 1169SOL    HW214970   2.274   3.283   6.048 -1.1875  3.0041 -1.2471
 1170SOL     OW14971   0.812   1.303   4.952 -0.0783 -0.7374  0.4548
 1170SOL    HW114972   0.773   1.385   4.984 -0.2628 -0.5105 -0.3451
 1170SOL    HW214973   0.899   1.336   4.929 -0.4454  0.3777  0.6208
 1171SOL     OW14974   2.914   4.577   2.249 -0.3404 -0.2509  0.1496
 1171SOL    HW114975   2.887   4.512   2.313  0.4765 -0.1823  0.5637
 1171SOL    HW214976   2.876   4.659   2.281  0.1915  0.3519 -0.7647
 1172SOL     OW14977   4.720   2.967   6.264  0.1293 -0.6368 -0.0821
 1172SOL    HW114978   4.643   2.947   6.212 -1.5622 -0.0089  2.1643
 1172SOL    HW214979   4.703   3.057   6.293  1.3474  0.0402 -1.4965
 1173SOL     OW14980   2.648   0.611   9.934 -0.0096 -0.1672  0.0348
 1173SOL    HW114981   2.596   0.632   9.856 -0.3496 -0.5780  0.1546
 1173SOL    HW214982   2.640   0.516   9.943 -2.2694  0.1716  1.5192
 1174SOL     OW14983   2.333   1.323   2.353 -0.3629  0.0436 -0.1498
 1174SOL    HW114984   2.393   1.388   2.315  1.0987 -1.2464 -0.0624
 1174SOL    HW214985   2.259   1.363   2.307 -0.0037 -1.2633 -1.8359
 1175SOL     OW14986   2.353   3.131   4.297  0.2244  0.4515 -0.3687
 1175SOL    HW114987   2.274   3.082   4.321  0.8530 -0.8313 -0.9419
 1175SOL    HW214988   2.389   3.147   4.384  1.9850  1.3584 -1.2713
 1176SOL     OW14989   3.990   2.961   4.247 -0.4222  0.9618  0.1543
 1176SOL    HW114990   3.982   3.048   4.207 -0.4966  0.4719 -0.9018
 1176SOL    HW214991   3.904   2.921   4.243 -0.6649  1.5953 -1.0910
 1177SOL     OW14992   1.861   0.804   5.011  0.3518  0.7056 -0.0470
 1177SOL    HW114993   1.907   0.875   4.965  0.8672 -0.5403 -1.4652
 1177SOL    HW214994   1.916   0.805   5.089 -0.2204 -1.4518  0.3691
 1178SOL     OW14995   1.185   3.983  10.115 -0.2234 -0.4917  0.4287
 1178SOL    HW114996   1.269   4.027  10.106 -0.7883  0.6938  1.0042
 1178SOL    HW214997   1.210   3.904  10.164 -1.6653 -0.1138  1.7724
 1179SOL     OW14998   1.938   0.124  13.474 -0.1316 -0.6670 -0.5354
 1179SOL    HW114999   1.905   0.099  13.560  0.3246 -0.4468 -0.2974
 1179SOL    HW215000   1.884   0.198  13.446  0.1414 -0.5677 -0.8014
 1180SOL     OW15001   2.076   0.095   0.904 -0.7301 -0.0831 -0.5235
 1180SOL    HW115002   2.149   0.129   0.853 -0.9011  1.6546  0.3732
 1180SOL    HW215003   2.063   0.013   0.857  1.4473 -0.6055 -0.2089
 1181SOL     OW15004   4.009   0.450  14.694  0.1812  0.2230 -0.1540
 1181SOL    HW115005   3.956   0.441  14.615 -2.5013  0.6215  1.5709
 1181SOL    HW215006   4.030   0.543  14.692 -1.8077  0.7026  0.6662
 1182SOL     OW15007   3.556   3.957   7.016  0.0366 -0.1910  0.5619
 1182SOL    HW115008   3.639   3.997   6.988  0.9093 -2.1285  0.3571
 1182SOL    HW215009   3.517   3.971   6.930 -0.0216  0.6374  0.7221
 1183SOL     OW15010   2.561   3.043   8.299  0.0215 -0.0424 -0.2676
 1183SOL    HW115011   2.624   3.010   8.363  1.5716  2.1061 -0.6891
 1183SOL    HW215012   2.551   2.961   8.250  1.6950  0.2293 -1.0556
 1184SOL     OW15013   1.343   2.261  13.481 -0.1989  0.2216 -0.6505
 1184SOL    HW115014   1.331   2.218  13.566  2.1575 -1.1904 -1.0277
 1184SOL    HW215015   1.419   2.309  13.512 -0.4597  0.0476  0.2920
 1185SOL     OW15016   0.032   1.437   1.525  0.2091 -0.0726  0.7805
 1185SOL    HW115017   4.673   1.396   1.507 -1.4614  1.6793  4.7069
 1185SOL    HW215018   0.084   1.390   1.460 -0.6784  2.6597 -1.9211
 1186SOL     OW15019   4.357   2.720   7.808 -0.3916 -0.6670  0.8377
 1186SOL    HW115020   4.419   2.678   7.748 -0.6795 -0.1174  0.1626
 1186SOL    HW215021   4.413   2.761   7.874  0.4940 -1.2334  0.4456
 1187SOL     OW15022   2.773   3.096   9.013 -0.3351  0.3420 -0.4521
 1187SOL    HW115023   2.710   3.099   8.941 -0.3915 -0.3205 -0.4328
 1187SOL    HW215024   2.741   3.177   9.052 -2.4215 -0.9785  0.5711
 1188SOL     OW15025   4.112   2.295  15.113 -0.5329  0.2976 -0.0898
 1188SOL    HW115026   4.113   2.390  15.106 -1.0634  0.4158  1.4892
 1188SOL    HW215027   4.087   2.266  15.025  1.4213  1.3309 -0.9938
 1189SOL     OW15028   4.533   2.087   8.238 -0.0698 -0.1104  0.4588
 1189SOL    HW115029   4.624   2.090   8.266 -0.3014  1.1423  1.0493
 1189SOL    HW215030   4.509   1.996   8.258  0.0482 -0.1564  0.3916
 1190SOL     OW15031   0.517   4.409   3.071  0.1785  0.3887 -0.4337
 1190SOL    HW115032   0.424   4.414   3.094  0.6847  0.3888  1.6365
 1190SOL    HW215033   0.547   4.489   3.115 -1.5997  1.8786 -1.9562
 1191SOL     OW15034   4.463   0.534   4.393  0.1167  0.2503  0.0592
 1191SOL    HW115035   4.402   0.575   4.454 -0.3822  2.6299 -2.0372
 1191SOL    HW215036   4.458   0.598   4.322 -0.5380 -2.2040 -2.1041
 1192SOL     OW15037   1.376   2.622   9.381 -0.2463  0.3650 -0.0759
 1192SOL    HW115038   1.388   2.698   9.438  2.9468 -0.6947  0.6740
 1192SOL    HW215039   1.359   2.557   9.450  0.6034  0.5671  0.3266
 1193SOL     OW15040   1.475   3.119  13.631 -0.1828  0.0098 -0.3550
 1193SOL    HW115041   1.456   3.178  13.703  1.1594  0.7255 -0.5788
 1193SOL    HW215042   1.390   3.074  13.627 -0.3924  0.6449 -3.2140
 1194SOL     OW15043   1.246   0.605   1.304  0.3747 -0.2085 -0.1985
 1194SOL    HW115044   1.174   0.666   1.284  0.9307  0.5017 -0.0422
 1194SOL    HW215045   1.249   0.546   1.229 -1.0855 -0.8819  0.2650
 1195SOL     OW15046   0.570   0.210   3.967  0.1330  0.1249  0.3301
 1195SOL    HW115047   0.514   0.288   3.964 -0.6755 -0.4918 -0.3872
 1195SOL    HW215048   0.518   0.159   3.905  1.2176  0.7780 -1.1046
 1196SOL     OW15049   0.015   0.661   2.214 -0.1486  0.2489  0.3208
 1196SOL    HW115050   0.077   0.727   2.184  0.1761 -1.3125 -2.4049
 1196SOL    HW215051   0.068   0.622   2.284  0.2429  1.5993  0.7800
 1197SOL     OW15052   0.856   0.826   3.429 -0.3125  0.0314 -0.3791
 1197SOL    HW115053   0.885   0.806   3.339  2.0251  1.1618  0.1143
 1197SOL    HW215054   0.811   0.746   3.455 -0.7707  0.3588 -0.1779
 1198SOL     OW15055   1.586   4.417   7.177 -0.1370  0.0114 -0.1839
 1198SOL    HW115056   1.648   4.386   7.243 -0.5505 -0.6864 -0.1282
 1198SOL    HW215057   1.636   4.378   7.106  0.2517 -2.7650  1.6106
 1199SOL     OW15058   3.606   2.030   8.894 -0.7773  0.2903 -0.1037
 1199SOL    HW115059   3.550   2.090   8.844  1.1316  1.3960 -0.9332
 1199SOL    HW215060   3.635   2.082   8.969 -1.9763  0.2374  0.3949
 1200SOL     OW15061   2.829   3.749   8.523  0.2064  0.1320 -0.4091
 1200SOL    HW115062   2.898   3.711   8.469  0.4285 -1.6082  1.0690
 1200SOL    HW215063   2.766   3.677   8.533  1.4604 -0.7857  0.8889
 1201SOL     OW15064   3.812   1.149   2.670 -0.3941 -0.5137 -0.2508
 1201SOL    HW115065   3.778   1.088   2.735  1.4332 -1.3090 -0.0195
 1201SOL    HW215066   3.889   1.096   2.646  1.7312  2.0207  0.9273
 1202SOL     OW15067   0.414   4.114  15.856  0.3489 -0.3328 -0.0169
 1202SOL    HW115068   0.429   4.076  15.769  0.1020 -2.5203  0.9031
 1202SOL    HW215069   0.320   4.130  15.845  0.1608 -0.4501  1.4070
 1203SOL     OW15070   1.988   2.799   6.766 -0.2925  0.5724 -0.6435
 1203SOL    HW115071   2.057   2.778   6.829 -1.0384 -0.6240 -0.2246
 1203SOL    HW215072   1.914   2.752   6.804 -0.9311  2.3281  0.2677
 1204SOL     OW15073   2.774   4.183  15.979 -0.6339  0.3102  0.0807
 1204SOL    HW115074   2.862   4.193  15.944 -0.7441 -1.3860 -0.6538
 1204SOL    HW215075   2.770   4.245  16.052  0.2177 -1.1859  1.3951
 1205SOL     OW15076   1.030   2.503  10.215  0.4582  0.2868  0.1383
 1205SOL    HW115077   0.978   2.455  10.151  1.1598 -2.3477  1.5413
 1205SOL    HW215078   1.086   2.437  10.256 -1.5615 -3.7568 -3.6918
 1206SOL     OW15079   2.656   0.745   8.415 -0.4054  0.0874 -0.0744
 1206SOL    HW115080   2.687   0.656   8.433 -0.2529  0.6699  2.5719
 1206SOL    HW215081   2.568   0.719   8.388 -0.7790  0.5089  0.7194
 1207SOL     OW15082   1.517   3.307   5.356  0.4837 -0.2550 -0.2077
 1207SOL    HW115083   1.486   3.275   5.441  2.6654 -1.4483  0.1359
 1207SOL    HW215084   1.591   3.360   5.386  0.6103 -0.4911 -0.1002
 1208SOL     OW15085   0.643   2.243   6.721  0.7260  0.1479 -0.3022
 1208SOL    HW115086   0.603   2.242   6.635 -1.4657 -1.6666  0.7261
 1208SOL    HW215087   0.724   2.293   6.712  1.0205 -0.7786 -2.6724
 1209SOL     OW15088   3.727   0.036   5.141  0.1394  0.1586  0.2187
 1209SOL    HW115089   3.806   0.047   5.192 -0.3676 -0.6222  1.1682
 1209SOL    HW215090   3.720   4.666   5.144 -0.2566  0.2843  2.7560
 1210SOL     OW15091   2.560   3.476   8.104 -0.1075 -0.2771  0.1304
 1210SOL    HW115092   2.544   3.416   8.177 -0.3401 -2.4051 -1.6754
 1210SOL    HW215093   2.557   3.560   8.150 -0.3111  0.2466 -0.8401
 1211SOL     OW15094   1.452   2.007   4.842  0.4268  0.4152  0.0536
 1211SOL    HW115095   1.528   2.045   4.884 -0.3235  0.4220  1.3932
 1211SOL    HW215096   1.388   2.047   4.900 -1.6059 -2.2992 -0.3043
 1212SOL     OW15097   4.412   1.405  10.768 -0.4806 -0.2592 -0.3517
 1212SOL    HW115098   4.357   1.477  10.738  2.2241  1.4293 -1.2994
 1212SOL    HW215099   4.420   1.437  10.858  0.2414 -0.4293 -0.3522
 1213SOL     OW15100   2.640   2.738  11.325  0.0591 -0.7461 -0.3349
 1213SOL    HW115101   2.670   2.824  11.353  0.2537  0.2551 -3.6232
 1213SOL    HW215102   2.721   2.688  11.320 -0.6303 -2.1072  2.7136
 1214SOL     OW15103   4.686   0.644   7.161  0.5286 -0.3560  0.3480
 1214SOL    HW115104   0.042   0.637   7.212  1.0448  0.3505 -0.3645
 1214SOL    HW215105   4.708   0.698   7.084  1.3696  0.3422  1.0732
 1215SOL     OW15106   3.418   0.755   3.010 -0.9528 -0.9561  0.2819
 1215SOL    HW115107   3.506   0.732   2.981  0.1092  3.2131  0.3278
 1215SOL    HW215108   3.439   0.835   3.056  1.7655 -0.1269 -2.3819
 1216SOL     OW15109   0.470   2.087   5.505 -0.1562 -0.4926 -0.3818
 1216SOL    HW115110   0.403   2.049   5.561 -1.1782  2.2992  0.3010
 1216SOL    HW215111   0.455   2.181   5.519  0.2289  0.1341 -4.1535
 1217SOL     OW15112   3.633   0.878   6.454 -0.1758 -0.8166 -0.2910
 1217SOL    HW115113   3.719   0.882   6.497  0.9188  0.7000 -2.6129
 1217SOL    HW215114   3.570   0.860   6.523  1.8882 -0.7419  1.6320
 1218SOL     OW15115   3.421   2.015   5.145  0.7008  0.0098  0.5318
 1218SOL    HW115116   3.493   2.052   5.094  0.6811 -1.1778 -0.3673
 1218SOL    HW215117   3.350   2.074   5.120 -1.0794 -1.6203  1.7099
 1219SOL     OW15118   0.695   4.349   8.230 -0.5741  0.8759  0.1623
 1219SOL    HW115119   0.624   4.382   8.285  0.3269 -1.7692  2.9200
 1219SOL    HW215120   0.777   4.378   8.271  0.7484 -0.4467 -1.5503
 1220SOL     OW15121   1.718   3.534  14.942  0.0350 -0.6645 -0.2711
 1220SOL    HW115122   1.633   3.498  14.919 -1.4271  1.2473  2.0794
 1220SOL    HW215123   1.692   3.592  15.013 -0.0754  1.9466 -2.4632
 1221SOL     OW15124   2.573   1.516   4.563 -0.1804 -0.0974  0.7553
 1221SOL    HW115125   2.505   1.584   4.566 -1.0172 -0.9969  2.5498
 1221SOL    HW215126   2.576   1.500   4.469 -0.7540  1.0502  0.5418
 1222SOL     OW15127   2.911   4.131  10.122  0.4325 -0.4409 -0.5333
 1222SOL    HW115128   2.842   4.119  10.187  1.8247 -1.9646  0.6550
 1222SOL    HW215129   2.972   4.201  10.146  0.6421 -1.4620  1.9753
 1223SOL     OW15130   4.044   3.268  13.086  0.3959 -0.0515 -0.5615
 1223SOL    HW115131   4.024   3.282  13.179  1.5885  3.1553 -0.8216
 1223SOL    HW215132   3.964   3.219  13.064  0.1218 -1.2348  3.0531
 1224SOL     OW15133   2.053   0.895   5.207  0.2911 -0.0412 -0.4377
 1224SOL    HW115134   2.121   0.962   5.197  0.4241 -0.3585 -1.6653
 1224SOL    HW215135   2.024   0.930   5.292 -1.9163 -0.6097 -0.9817
 1225SOL     OW15136   2.413   1.856   9.805 -0.3677 -0.7393 -0.3279
 1225SOL    HW115137   2.323   1.884   9.794 -0.3056 -0.7857 -0.9739
 1225SOL    HW215138   2.422   1.809   9.722  0.7232 -3.0669  1.0971
 1226SOL     OW15139   4.387   2.923   4.715 -0.2249  0.3133 -0.0986
 1226SOL    HW115140   4.377   2.856   4.783 -0.2192  0.6001  0.1894
 1226SOL    HW215141   4.439   2.994   4.753 -0.6196  1.2094 -1.2364
 1227SOL     OW15142   2.259   0.931   4.221  0.1113  0.1450 -0.3951
 1227SOL    HW115143   2.350   0.924   4.247  0.3282  1.2506 -0.8787
 1227SOL    HW215144   2.238   1.024   4.232  0.9997  0.3797 -0.6791
 1228SOL     OW15145   2.463   2.411  15.267  0.4995 -0.1648 -0.1466
 1228SOL    HW115146   2.426   2.375  15.187 -3.0920 -0.9388  1.8658
 1228SOL    HW215147   2.498   2.332  15.307  1.1141  0.2964  0.2341
 1229SOL     OW15148   2.906   2.671   5.721 -0.1295 -0.3389  0.0445
 1229SOL    HW115149   2.880   2.607   5.655 -1.9915  1.2973 -0.7961
 1229SOL    HW215150   2.948   2.615   5.787 -0.8353 -0.3206  0.5053
 1230SOL     OW15151   1.165   0.097   7.854  0.6161 -0.3016 -0.2148
 1230SOL    HW115152   1.256   0.118   7.874  0.2842  3.6272 -2.7277
 1230SOL    HW215153   1.178   0.067   7.764  0.8501 -1.4941  0.2169
 1231SOL     OW15154   3.717   1.993  14.863  0.3944 -0.5763 -0.0514
 1231SOL    HW115155   3.684   1.981  14.774  2.4589  0.8083 -0.9965
 1231SOL    HW215156   3.647   2.051  14.892  0.5844  0.0962 -0.9217
 1232SOL     OW15157   2.494   3.006   4.746 -0.2333 -0.1831 -0.1695
 1232SOL    HW115158   2.580   2.990   4.786 -0.3626 -0.0407  0.1626
 1232SOL    HW215159   2.436   2.948   4.794  1.2655  0.5438  2.5457
 1233SOL     OW15160   3.533   1.996   7.641 -0.2615  0.6874  0.1977
 1233SOL    HW115161   3.597   1.958   7.581 -0.3087 -2.0597  1.8547
 1233SOL    HW215162   3.483   2.053   7.584  1.4524  1.4623 -0.5195
 1234SOL     OW15163   4.460   3.989   7.951  0.8899  0.0610 -0.3584
 1234SOL    HW115164   4.511   3.967   7.873  2.6584 -1.1728  1.1300
 1234SOL    HW215165   4.525   4.025   8.012  2.1981  0.0584 -1.7478
 1235SOL     OW15166   3.114   3.515   5.250 -0.0767  0.0285  0.6118
 1235SOL    HW115167   3.139   3.590   5.195 -1.5586 -0.8163 -1.1790
 1235SOL    HW215168   3.025   3.541   5.272 -1.2236 -1.8535 -1.9357
 1236SOL     OW15169   4.126   0.917  16.544  0.0688 -0.3923 -0.0427
 1236SOL    HW115170   4.121   1.013  16.544 -1.9209 -0.4984 -1.0320
 1236SOL    HW215171   4.077   0.903  16.625  0.7693  0.1851  0.4748
 1237SOL     OW15172   1.489   1.310   2.665 -0.4291 -0.2757  0.7011
 1237SOL    HW115173   1.570   1.333   2.618 -1.3216 -0.1987 -0.7921
 1237SOL    HW215174   1.533   1.292   2.748 -0.6055  1.6531  1.2234
 1238SOL     OW15175   1.647   1.229  12.895 -0.3039  0.5425  0.2594
 1238SOL    HW115176   1.721   1.222  12.835  0.2549 -0.1585  1.0319
 1238SOL    HW215177   1.687   1.259  12.977 -0.6668  1.9922 -0.0881
 1239SOL     OW15178   1.475   2.199   5.980  0.4167 -0.0248 -0.2758
 1239SOL    HW115179   1.481   2.106   6.004 -1.3959  0.0953  0.6510
 1239SOL    HW215180   1.499   2.193   5.888  3.0228  1.2562  0.3281
 1240SOL     OW15181   0.898   4.648   2.398 -0.4212  0.7416 -0.0408
 1240SOL    HW115182   0.877   4.648   2.305  0.3580  1.9029 -0.2176
 1240SOL    HW215183   0.893   4.558   2.431 -0.4957  0.3478 -1.1227
 1241SOL     OW15184   1.505   0.485  14.339 -0.7267  0.2178  0.6151
 1241SOL    HW115185   1.552   0.567  14.349  0.2238 -0.4907  1.9822
 1241SOL    HW215186   1.419   0.512  14.305 -1.3611 -0.3429  1.7771
 1242SOL     OW15187   2.653   3.314   5.617  0.1487  0.0516 -0.3653
 1242SOL    HW115188   2.614   3.267   5.543 -0.6404 -0.8664  0.6260
 1242SOL    HW215189   2.685   3.242   5.673  1.6874 -0.2625 -1.6508
 1243SOL     OW15190   1.921   3.691  11.846  0.2133  0.5160  0.0976
 1243SOL    HW115191   1.840   3.671  11.893  0.5567  0.7320  0.7948
 1243SOL    HW215192   1.977   3.696  11.924  0.5950  0.1251 -0.1591
 1244SOL     OW15193   2.167   0.424   1.535 -0.4497 -0.4717 -0.2684
 1244SOL    HW115194   2.139   0.342   1.574 -1.0926 -0.6240 -1.0390
 1244SOL    HW215195   2.240   0.458   1.587  0.5567 -1.6047 -0.9297
 1245SOL     OW15196   2.051   0.026   2.455 -0.2799 -0.3300  0.1533
 1245SOL    HW115197   2.071   0.109   2.498  0.2186 -0.8602  0.9361
 1245SOL    HW215198   2.104   0.040   2.377  1.3101 -2.2851  0.9080
 1246SOL     OW15199   1.009   1.946   6.543 -0.5456  0.1889 -0.2878
 1246SOL    HW115200   1.051   2.026   6.510 -1.7342  0.3335 -1.4230
 1246SOL    HW215201   1.031   1.957   6.636  0.2003 -1.8044 -0.2262
 1247SOL     OW15202   2.075   2.457   9.734 -0.4617  0.2609 -0.2588
 1247SOL    HW115203   2.121   2.540   9.751  1.6161 -1.1111  0.8698
 1247SOL    HW215204   1.995   2.494   9.698 -1.0941 -0.7059  0.1619
 1248SOL     OW15205   4.695   1.866   9.916 -0.2778  0.1716  0.0460
 1248SOL    HW115206   0.016   1.824   9.989  0.3388  2.6148  1.0670
 1248SOL    HW215207   4.600   1.857   9.926 -0.0455 -1.0144  1.1406
 1249SOL     OW15208   3.252   2.527   8.660 -0.4545  0.1995  0.4452
 1249SOL    HW115209   3.205   2.472   8.598  1.5810  0.2453 -1.1287
 1249SOL    HW215210   3.301   2.460   8.708 -0.4401  0.1351  0.3401
 1250SOL     OW15211   3.419   4.697   7.349  0.7533 -0.3225  0.0590
 1250SOL    HW115212   3.445   4.627   7.409 -0.1244 -2.0107 -1.5325
 1250SOL    HW215213   3.487   4.699   7.282  0.8726 -0.3539  0.1770
 1251SOL     OW15214   2.422   4.484   8.764 -0.0235  0.2380 -0.0070
 1251SOL    HW115215   2.462   4.400   8.737  1.3599  0.3922  1.5645
 1251SOL    HW215216   2.450   4.541   8.692 -1.4950 -1.4386 -1.8933
 1252SOL     OW15217   3.024   4.340   0.127 -0.3224  0.1671  0.2533
 1252SOL    HW115218   2.989   4.386   0.204 -1.2080 -0.6804  0.3706
 1252SOL    HW215219   3.059   4.260   0.167  2.7556  1.4487  0.0866
 1253SOL     OW15220   4.655   0.849  14.409  0.3587 -0.5135  0.5265
 1253SOL    HW115221   0.001   0.791  14.435  1.8786  0.4059 -1.6136
 1253SOL    HW215222   4.688   0.933  14.441  0.5186 -0.7504  0.9850
 1254SOL     OW15223   4.583   1.815   2.842 -0.4495 -0.7029  0.6377
 1254SOL    HW115224   4.675   1.801   2.820 -0.0861  1.8593  0.4321
 1254SOL    HW215225   4.557   1.904   2.817  0.6865 -0.7271 -0.6274
 1255SOL     OW15226   0.474   3.276  13.814  0.0896 -0.5928  0.1100
 1255SOL    HW115227   0.381   3.292  13.834  0.0036  0.3675 -1.0065
 1255SOL    HW215228   0.496   3.229  13.894 -4.2444 -0.7608  1.2007
 1256SOL     OW15229   2.435   4.539   9.084 -0.1896 -0.6335  0.0802
 1256SOL    HW115230   2.479   4.611   9.038 -0.1481 -1.6844 -1.5081
 1256SOL    HW215231   2.344   4.561   9.065  0.4467  1.8811 -0.0254
 1257SOL     OW15232   1.094   1.494   4.653  0.2074 -0.3779  0.2264
 1257SOL    HW115233   1.017   1.535   4.613  0.4816 -0.3729 -0.3049
 1257SOL    HW215234   1.069   1.402   4.654  2.6307 -1.0475 -1.2425
 1258SOL     OW15235   3.071   3.050   8.507  0.1644  0.3467  0.1936
 1258SOL    HW115236   3.128   3.036   8.582  0.5313 -0.7725 -0.2911
 1258SOL    HW215237   3.117   2.989   8.449 -0.5750 -0.5462  0.5383
 1259SOL     OW15238   3.130   0.064   2.429  0.6199  0.1447 -0.3291
 1259SOL    HW115239   3.212   0.014   2.431  0.4739 -0.2187 -3.0062
 1259SOL    HW215240   3.095   0.033   2.512 -3.3141 -2.2692 -2.8897
 1260SOL     OW15241   1.391   1.647  15.817 -0.2530  0.1429  0.0663
 1260SOL    HW115242   1.482   1.675  15.810 -0.2555  0.2988  0.6152
 1260SOL    HW215243   1.379   1.603  15.733 -0.0863 -1.7128  1.0153
 1261SOL     OW15244   0.387   2.786   0.697  0.2975  0.1710 -0.2559
 1261SOL    HW115245   0.412   2.713   0.755  0.7444  0.3846 -0.1798
 1261SOL    HW215246   0.442   2.768   0.621 -1.2701  1.3819 -1.6687
 1262SOL     OW15247   1.385   1.561  12.992 -0.1409  0.7489  0.2675
 1262SOL    HW115248   1.372   1.512  12.911  1.4582 -0.1670  0.5599
 1262SOL    HW215249   1.297   1.590  13.016 -0.1005 -0.9061  2.3728
 1263SOL     OW15250   3.309   1.502   7.173  0.1468  0.4275  0.3761
 1263SOL    HW115251   3.230   1.454   7.199  0.4644 -0.6301 -0.5972
 1263SOL    HW215252   3.382   1.440   7.181  0.3464  0.6407  0.1972
 1264SOL     OW15253   3.374   1.624  15.322  0.4773  0.4936 -0.0952
 1264SOL    HW115254   3.436   1.581  15.381  0.1467  1.4215  0.9408
 1264SOL    HW215255   3.327   1.676  15.387  3.6539  2.8252  0.3398
 1265SOL     OW15256   3.174   4.549   7.075 -0.1522  0.0615 -0.1449
 1265SOL    HW115257   3.078   4.542   7.072 -0.1041  0.0862 -1.6269
 1265SOL    HW215258   3.170   4.586   7.163 -1.3738  1.8238 -0.9269
 1266SOL     OW15259   2.823   0.436   4.112 -0.6867 -0.4556 -0.4257
 1266SOL    HW115260   2.859   0.524   4.120  0.2842 -0.9522  0.7607
 1266SOL    HW215261   2.903   0.388   4.090  0.0317  0.2985  0.5379
 1267SOL     OW15262   1.132   0.211   1.296 -0.3023  0.0501  0.6267
 1267SOL    HW115263   1.225   0.233   1.296 -0.3425  0.2090  1.0564
 1267SOL    HW215264   1.089   0.296   1.285  0.0692  0.2207  0.5040
 1268SOL     OW15265   0.818   4.074   3.304  0.5862 -0.4828  0.2653
 1268SOL    HW115266   0.845   4.165   3.288  2.6629 -0.9604  1.0493
 1268SOL    HW215267   0.743   4.073   3.244  0.7135  2.1727  0.0587
 1269SOL     OW15268   0.727   2.979   2.604 -0.2179 -0.5979  0.4900
 1269SOL    HW115269   0.739   2.904   2.662  1.4184 -1.3004 -0.7664
 1269SOL    HW215270   0.694   2.930   2.529  0.5740 -1.0872  0.4579
 1270SOL     OW15271   3.710   2.233   7.750 -0.4140 -0.4306 -0.6490
 1270SOL    HW115272   3.789   2.239   7.696  0.5934 -0.2305  0.8353
 1270SOL    HW215273   3.665   2.163   7.702  1.0413 -0.9957 -1.1834
 1271SOL     OW15274   4.204   0.433   3.462 -0.0505  0.0933  0.4484
 1271SOL    HW115275   4.229   0.342   3.442 -0.6396 -0.5092  2.4093
 1271SOL    HW215276   4.113   0.436   3.432  0.5625 -1.4240 -1.5672
 1272SOL     OW15277   0.411   3.447   6.734  0.3112  0.4193 -0.3109
 1272SOL    HW115278   0.475   3.431   6.664 -1.6866  0.8810 -2.2577
 1272SOL    HW215279   0.408   3.362   6.778  0.7053 -0.4956 -2.0110
 1273SOL     OW15280   4.000   4.474   4.295 -0.4791 -0.2990  0.4506
 1273SOL    HW115281   4.004   4.516   4.209 -3.4522  0.6248  0.7695
 1273SOL    HW215282   4.081   4.505   4.335 -1.2737  0.5809  1.3770
 1274SOL     OW15283   1.100   4.536   9.660  0.2306  0.6225  1.0069
 1274SOL    HW115284   1.013   4.564   9.688  0.3946  3.4960 -1.4219
 1274SOL    HW215285   1.070   4.505   9.575 -0.4383  1.1689  1.0432
 1275SOL     OW15286   4.527   2.645   1.235 -0.1207 -0.0967  0.6336
 1275SOL    HW115287   4.488   2.643   1.322  0.0301  1.4453  0.7421
 1275SOL    HW215288   4.616   2.677   1.249  0.7702 -2.9081  1.3375
 1276SOL     OW15289   1.119   4.552   0.118  0.2174 -0.3151  0.3423
 1276SOL    HW115290   1.033   4.581   0.149  0.6598 -1.3741  2.5271
 1276SOL    HW215291   1.136   4.600   0.037 -2.7353  1.5455  0.8088
 1277SOL     OW15292   1.298   0.665   2.583  0.3089  0.0015 -0.0917
 1277SOL    HW115293   1.356   0.740   2.573  0.1476  0.2588  0.9040
 1277SOL    HW215294   1.245   0.703   2.654  0.0794 -1.3396  0.4707
 1278SOL     OW15295   3.904   2.433  15.805  0.6687 -0.5682  0.5157
 1278SOL    HW115296   3.916   2.465  15.894 -0.2039 -0.3861  0.5676
 1278SOL    HW215297   3.874   2.514  15.764  1.5978 -1.2426 -1.4807
 1279SOL     OW15298   2.459   0.084   1.544 -0.3892 -0.4027  0.0806
 1279SOL    HW115299   2.553   0.101   1.546 -0.6918  1.3704 -1.5879
 1279SOL    HW215300   2.460   4.714   1.534  3.3706 -0.3553  0.0695
 1280SOL     OW15301   1.883   0.308   2.376  0.4246  0.2852  0.4112
 1280SOL    HW115302   1.879   0.308   2.472 -1.0660 -0.4874  0.3628
 1280SOL    HW215303   1.798   0.267   2.359  1.0159 -0.8866  0.2752
 1281SOL     OW15304   4.560   1.289   5.377  0.2294 -0.0094 -0.0927
 1281SOL    HW115305   4.637   1.333   5.414  1.1340 -0.2104 -1.7461
 1281SOL    HW215306   4.569   1.307   5.283 -2.3454 -1.1155 -0.5550
 1282SOL     OW15307   3.882   4.695   4.475 -0.1511 -0.1331  0.0104
 1282SOL    HW115308   3.795   4.661   4.499  0.7710 -1.6249  1.2518
 1282SOL    HW215309   3.860   0.011   4.392  1.3435 -0.0578 -0.3416
 1283SOL     OW15310   2.833   2.502   5.060  0.3426 -0.2307 -0.1171
 1283SOL    HW115311   2.918   2.459   5.070  0.2370 -0.2579  0.6276
 1283SOL    HW215312   2.855   2.592   5.085 -2.4781  0.1843  0.8587
 1284SOL     OW15313   3.998   0.060  17.267 -0.1221 -0.0748 -0.4626
 1284SOL    HW115314   3.983   4.699  17.308 -1.9693  0.2557 -0.4672
 1284SOL    HW215315   3.929   0.116  17.301  0.0728  0.8001 -1.5230
 1285SOL     OW15316   4.538   0.496   3.767  0.0935 -0.8820  0.4796
 1285SOL    HW115317   4.477   0.546   3.712 -1.3343 -0.4517  2.4608
 1285SOL    HW215318   4.494   0.412   3.774 -1.1151 -0.4139 -1.4490
 1286SOL     OW15319   0.532   3.234   3.146 -0.5796 -0.1515 -0.0310
 1286SOL    HW115320   0.532   3.186   3.228  2.1474 -1.1277 -0.6328
 1286SOL    HW215321   0.439   3.237   3.122 -0.2456  1.6084 -1.1311
 1287SOL     OW15322   3.866   4.282   4.458  0.6561  0.2375 -0.2362
 1287SOL    HW115323   3.779   4.317   4.438  0.2883 -0.6750 -0.2373
 1287SOL    HW215324   3.918   4.339   4.401  2.9482 -0.4953  1.1236
 1288SOL     OW15325   4.131   0.390  15.322  0.0329  0.1069  0.1593
 1288SOL    HW115326   4.056   0.426  15.370  0.7332 -0.5769  1.7555
 1288SOL    HW215327   4.094   0.387  15.234  0.6547  0.5694 -0.1147
 1289SOL     OW15328   4.098   3.772   3.384 -0.1284 -0.3615  0.5371
 1289SOL    HW115329   4.100   3.679   3.404 -0.1556 -0.2937  0.8599
 1289SOL    HW215330   4.018   3.798   3.430  0.2975  0.9070  0.5637
 1290SOL     OW15331   0.610   1.574   2.459 -0.4201 -0.2736  0.4457
 1290SOL    HW115332   0.590   1.668   2.453 -0.4061 -0.3258 -0.4250
 1290SOL    HW215333   0.640   1.550   2.372 -0.1506  0.3775  0.3543
 1291SOL     OW15334   2.555   0.452  12.669 -0.0286 -0.0374 -0.5508
 1291SOL    HW115335   2.639   0.496  12.655  0.1375  0.0444  0.6976
 1291SOL    HW215336   2.502   0.531  12.669 -1.6425 -1.1314 -1.8925
 1292SOL     OW15337   3.691   1.330   8.051 -0.4068  0.6739  0.1538
 1292SOL    HW115338   3.773   1.307   8.006  0.4327  2.4460  0.7807
 1292SOL    HW215339   3.688   1.424   8.037 -0.7791  0.6509  0.0868
 1293SOL     OW15340   3.308   2.015  10.415  0.9798  0.3408  0.0891
 1293SOL    HW115341   3.226   2.047  10.452  1.1581  1.0108 -0.0854
 1293SOL    HW215342   3.280   2.003  10.324  0.6847  0.9203  0.1031
 1294SOL     OW15343   4.590   0.990  17.400  0.5411 -0.3879  0.1308
 1294SOL    HW115344   4.501   0.990  17.436  0.2366  2.9142 -0.5504
 1294SOL    HW215345   4.608   1.083  17.415  0.1453 -0.6380  2.0853
 1295SOL     OW15346   1.293   4.351  14.007 -0.3479  0.4598 -0.2800
 1295SOL    HW115347   1.327   4.433  14.042 -1.0467  0.5903  0.1100
 1295SOL    HW215348   1.204   4.354  14.043 -0.5529  0.3371 -0.7893
 1296SOL     OW15349   2.553   3.670   9.939  0.4630 -0.5349 -0.2066
 1296SOL    HW115350   2.647   3.667   9.922  0.5740  2.0616  0.0305
 1296SOL    HW215351   2.535   3.762   9.922  3.0637 -0.2288 -1.2994
 1297SOL     OW15352   3.714   1.063   8.970  0.5224  0.5425  0.6614
 1297SOL    HW115353   3.801   1.081   8.934  0.1333  1.0972  0.0092
 1297SOL    HW215354   3.662   1.138   8.943 -1.0413 -1.2380 -1.2941
 1298SOL     OW15355   3.888   3.116   8.429  0.2621  0.1154  0.0803
 1298SOL    HW115356   3.881   3.135   8.335  2.4762  0.8956  0.0599
 1298SOL    HW215357   3.874   3.022   8.421 -1.9821  0.5077 -0.6419
 1299SOL     OW15358   0.058   4.358   0.001  0.0160 -0.0863  0.1699
 1299SOL    HW115359   0.020   4.391  17.622 -1.4365  1.7889  1.6186
 1299SOL    HW215360   0.079   4.268  17.680 -0.3057  0.0487 -0.6206
 1300SOL     OW15361   2.775   4.696  15.944  0.4491  0.0791 -1.0165
 1300SOL    HW115362   2.683   4.697  15.915  0.0326  0.3714  0.3152
 1300SOL    HW215363   2.788   0.065  15.928  0.3830  0.3565  0.5371
 1301SOL     OW15364   3.517   4.011  12.405 -0.3078  0.7075  0.4713
 1301SOL    HW115365   3.592   3.955  12.424 -1.8236 -1.1882  0.9509
 1301SOL    HW215366   3.460   4.006  12.482 -0.5864  1.4491  0.3122
 1302SOL     OW15367   1.967   0.366  13.796 -0.2409  0.4392  0.0402
 1302SOL    HW115368   1.971   0.366  13.892  1.1496 -0.1101 -0.0175
 1302SOL    HW215369   1.942   0.455  13.769 -0.7021  0.2940 -0.0125
 1303SOL     OW15370   2.473   4.285   2.569  0.1150  0.3035  0.1930
 1303SOL    HW115371   2.488   4.320   2.656  0.9755 -0.5003  0.3688
 1303SOL    HW215372   2.395   4.230   2.577 -0.6817  1.3096 -0.6603
 1304SOL     OW15373   0.989   2.998   3.528  0.6146 -0.1677  0.1568
 1304SOL    HW115374   0.961   3.055   3.457  0.3296  2.1310  2.1121
 1304SOL    HW215375   1.047   3.060   3.572  0.1565  0.3682 -0.0087
 1305SOL     OW15376   1.132   2.143   7.517  1.1695 -0.3347 -0.1865
 1305SOL    HW115377   1.213   2.162   7.469  1.2217 -0.0907 -0.0038
 1305SOL    HW215378   1.089   2.142   7.431  0.0120  0.8510  0.3716
 1306SOL     OW15379   2.307   4.073   8.538 -0.0138 -0.6142 -0.3906
 1306SOL    HW115380   2.230   4.100   8.489 -0.7701 -1.0383  0.5695
 1306SOL    HW215381   2.265   4.061   8.623  2.4078 -1.2910  0.7194
 1307SOL     OW15382   1.445   1.472   8.800  0.2301  0.3863  1.1815
 1307SOL    HW115383   1.521   1.422   8.832 -0.5547 -0.8071  1.1902
 1307SOL    HW215384   1.399   1.500   8.879  0.3599 -2.6008  2.3338
 1308SOL     OW15385   4.442   1.342   7.999 -0.2680 -0.8218 -0.0852
 1308SOL    HW115386   4.472   1.371   7.913  0.4931 -0.8999  0.1519
 1308SOL    HW215387   4.494   1.399   8.055  1.8322 -1.5118 -1.2969
 1309SOL     OW15388   3.455   2.973  10.254  0.3362  0.1182 -0.2310
 1309SOL    HW115389   3.389   2.915  10.215 -1.4737  2.1572 -0.1775
 1309SOL    HW215390   3.531   2.921  10.226 -0.6680 -0.7105 -1.4242
 1310SOL     OW15391   1.268   2.676   7.344  0.2110 -0.1337  0.0974
 1310SOL    HW115392   1.298   2.597   7.299 -0.3843 -0.7805  0.8385
 1310SOL    HW215393   1.315   2.673   7.427  1.4392  1.3187 -0.5506
 1311SOL     OW15394   2.841   1.676   6.099  0.2904  0.4847  0.0551
 1311SOL    HW115395   2.801   1.737   6.036  0.5910 -0.1976 -0.8014
 1311SOL    HW215396   2.819   1.712   6.185  4.5214 -3.3158  2.7451
 1312SOL     OW15397   1.718   4.539   3.285 -0.1991 -0.2622 -0.2312
 1312SOL    HW115398   1.651   4.519   3.220  2.0028  1.8951 -3.1667
 1312SOL    HW215399   1.764   4.455   3.290  0.5609  0.2014  0.4489
 1313SOL     OW15400   3.410   3.263  13.053  0.0371 -0.0666  0.0929
 1313SOL    HW115401   3.463   3.327  13.006  2.8508  0.4476  3.9677
 1313SOL    HW215402   3.476   3.197  13.075  1.9849  1.5787 -0.8547
 1314SOL     OW15403   3.498   4.065   7.381 -0.4420  0.0876 -0.0381
 1314SOL    HW115404   3.422   4.105   7.423 -0.8155 -2.2148  1.4622
 1314SOL    HW215405   3.459   4.061   7.293  2.1376 -2.6042 -1.0595
 1315SOL     OW15406   1.478   2.425   7.811 -0.2773  0.3776  0.0351
 1315SOL    HW115407   1.438   2.437   7.898  0.8841  0.6829  0.5206
 1315SOL    HW215408   1.436   2.343   7.784  1.1151  0.0315 -1.0342
 1316SOL     OW15409   1.071   3.204  10.700 -0.0982 -0.0543  0.1716
 1316SOL    HW115410   0.985   3.186  10.662  0.6478 -0.3652 -1.3701
 1316SOL    HW215411   1.126   3.138  10.658 -0.0142 -0.5518  1.0680
 1317SOL     OW15412   4.679   2.874   5.880 -0.2628  0.0604 -0.2919
 1317SOL    HW115413   0.044   2.867   5.911 -0.0098  0.2986 -0.9850
 1317SOL    HW215414   4.666   2.968   5.898 -0.6939 -0.1326  0.4276
 1318SOL     OW15415   3.088   2.900   0.679  0.3715  0.0859  0.0074
 1318SOL    HW115416   3.166   2.908   0.733 -0.0258 -0.6021  0.6794
 1318SOL    HW215417   3.092   2.988   0.641 -0.8084 -1.1979 -3.1014
 1319SOL     OW15418   4.379   2.375   4.911 -0.7367  0.8490 -0.1567
 1319SOL    HW115419   4.325   2.414   4.979 -0.1229  0.1217  0.7554
 1319SOL    HW215420   4.330   2.406   4.835 -1.2572  0.4969  0.0333
 1320SOL     OW15421   1.148   3.966   2.389  0.0178  0.1487  0.0260
 1320SOL    HW115422   1.068   3.918   2.413  0.4318  0.6986  2.5394
 1320SOL    HW215423   1.174   3.927   2.305 -1.7403  1.0019 -0.9087
 1321SOL     OW15424   3.285   4.716   6.084  0.3450  0.3089  0.0324
 1321SOL    HW115425   3.197   0.020   6.061  0.9039  0.1598 -2.2091
 1321SOL    HW215426   3.320   0.070   6.127  0.9280  1.6626 -2.9807
 1322SOL     OW15427   2.610   0.618   5.513 -0.3518 -0.0906 -0.1986
 1322SOL    HW115428   2.612   0.688   5.580 -0.2628 -0.1805 -0.1074
 1322SOL    HW215429   2.530   0.638   5.465 -1.6167  0.9492  2.3292
 1323SOL     OW15430   4.538   4.546   1.727  0.2308 -0.1383  0.0472
 1323SOL    HW115431   4.584   4.462   1.730 -0.6713 -0.6383 -0.0863
 1323SOL    HW215432   4.453   4.530   1.766  1.2241 -2.3514  1.3144
 1324SOL     OW15433   3.370   1.605  11.255 -0.0350  0.4676 -0.1842
 1324SOL    HW115434   3.454   1.629  11.216 -0.0997 -0.5707 -0.9622
 1324SOL    HW215435   3.409   1.578  11.339 -0.3759  3.7921  1.0518
 1325SOL     OW15436   2.122   1.014   3.609 -0.6315  0.7216 -0.0923
 1325SOL    HW115437   2.176   1.092   3.597  2.2247 -1.1929  0.2148
 1325SOL    HW215438   2.191   0.962   3.651 -1.1321  0.1197 -0.0069
 1326SOL     OW15439   2.966   1.136   3.318  0.5408  0.1986 -0.1910
 1326SOL    HW115440   2.952   1.069   3.251  0.0792  1.2466 -1.1284
 1326SOL    HW215441   3.045   1.099   3.358 -0.2440 -1.6781 -0.3370
 1327SOL     OW15442   0.035   3.538   5.097 -0.7304 -0.3709  0.6251
 1327SOL    HW115443   0.116   3.489   5.083 -0.3306  0.8787 -1.4577
 1327SOL    HW215444   4.692   3.509   5.036  0.5784 -1.4198 -0.3461
 1328SOL     OW15445   1.173   1.564   3.736  0.3948  0.0090 -0.0572
 1328SOL    HW115446   1.180   1.491   3.673  1.7881  2.7136 -3.0314
 1328SOL    HW215447   1.180   1.642   3.682 -2.0850 -0.5481 -1.1963
 1329SOL     OW15448   1.853   0.810  12.835  0.3976 -0.1849  0.4871
 1329SOL    HW115449   1.902   0.796  12.916 -0.6784 -1.6163  0.8816
 1329SOL    HW215450   1.872   0.903  12.820 -2.6548  0.5091  1.0110
 1330SOL     OW15451   4.249   4.235   5.377 -0.4685  0.1898 -1.0620
 1330SOL    HW115452   4.227   4.281   5.458 -0.4329 -1.5569 -0.0540
 1330SOL    HW215453   4.329   4.282   5.352 -1.7253  2.2849 -1.0999
 1331SOL     OW15454   1.715   4.193   4.112 -0.4548  0.3937 -0.6600
 1331SOL    HW115455   1.659   4.116   4.115 -1.1150  0.9396  0.6550
 1331SOL    HW215456   1.744   4.195   4.203  4.5843  0.9418 -2.2552
 1332SOL     OW15457   0.752   1.100   2.469 -0.3038  0.5083  0.1640
 1332SOL    HW115458   0.782   1.026   2.522  1.1858  0.5645 -0.5839
 1332SOL    HW215459   0.728   1.046   2.394 -0.4889 -0.0411  0.6142
 1333SOL     OW15460   0.390   3.184  17.016  0.0655 -0.0852 -0.5666
 1333SOL    HW115461   0.427   3.161  17.101 -3.4530 -0.8239  0.7829
 1333SOL    HW215462   0.468   3.232  16.989  0.5147 -0.7218 -0.3858
 1334SOL     OW15463   1.975   1.763  11.951 -0.3462  0.5464 -0.2402
 1334SOL    HW115464   1.964   1.732  11.861 -0.0960  0.0503 -0.0936
 1334SOL    HW215465   1.887   1.801  11.958  0.3434  1.5923  2.4552
 1335SOL     OW15466   3.953   0.769   3.868 -0.2852 -0.2927  0.3391
 1335SOL    HW115467   4.029   0.716   3.893 -0.2873 -0.2820  0.3682
 1335SOL    HW215468   3.960   0.851   3.917  2.6944  0.9704 -2.2611
 1336SOL     OW15469   1.014   3.271  10.054  0.4006  0.2970 -0.1110
 1336SOL    HW115470   1.109   3.257  10.053  0.3773  0.1501 -0.4076
 1336SOL    HW215471   0.994   3.241  10.143 -0.8821  0.6440 -0.2818
 1337SOL     OW15472   3.671   4.680   5.650  0.2972 -0.2365 -0.1330
 1337SOL    HW115473   3.694   4.635   5.732 -1.8738  2.1488  1.8033
 1337SOL    HW215474   3.577   4.686   5.667  0.1563 -0.7022 -0.7842
 1338SOL     OW15475   3.978   3.197   6.160 -0.3135  0.0898  0.6590
 1338SOL    HW115476   4.051   3.245   6.121 -0.4038 -1.4066 -1.3634
 1338SOL    HW215477   3.956   3.137   6.089 -0.3310  0.7383  0.1165
 1339SOL     OW15478   0.974   3.673   7.367 -0.7038 -0.3161 -0.0055
 1339SOL    HW115479   1.059   3.665   7.324 -0.5342 -1.3813  0.5471
 1339SOL    HW215480   0.970   3.769   7.372 -1.1323 -0.3343 -0.0138
 1340SOL     OW15481   2.716   0.986   7.232  0.1284 -0.4635  0.3546
 1340SOL    HW115482   2.655   0.934   7.284  0.1679 -2.0541 -1.1576
 1340SOL    HW215483   2.799   0.959   7.270  1.0398  2.8872  0.7093
 1341SOL     OW15484   2.085   1.892   0.645  0.2423  0.1313 -0.5671
 1341SOL    HW115485   2.114   1.932   0.727  2.3318 -0.6810 -0.9149
 1341SOL    HW215486   2.133   1.944   0.581 -0.3647  1.9910  0.4606
 1342SOL     OW15487   3.852   1.692   6.794 -0.2276  0.4764  0.5388
 1342SOL    HW115488   3.876   1.742   6.871  0.0535 -0.3518  0.9878
 1342SOL    HW215489   3.870   1.602   6.820  3.3251  0.2155 -2.7801
 1343SOL     OW15490   3.261   3.486   7.757  0.3388 -0.6528  0.2483
 1343SOL    HW115491   3.242   3.416   7.695  1.9732 -1.4852  0.6759
 1343SOL    HW215492   3.238   3.441   7.839  1.1953 -0.5655  0.5456
 1344SOL     OW15493   2.441   3.575   8.650  0.1826  0.1369 -0.1026
 1344SOL    HW115494   2.469   3.583   8.741  0.2122 -1.5465  0.0222
 1344SOL    HW215495   2.351   3.600   8.671 -0.4432 -2.6629  0.5609
 1345SOL     OW15496   2.560   4.294   7.864  0.3168 -0.2512 -0.5040
 1345SOL    HW115497   2.484   4.304   7.922  1.8735 -0.5712  1.6091
 1345SOL    HW215498   2.531   4.323   7.778  0.0499  0.9475 -0.0110
 1346SOL     OW15499   2.160   4.127   2.032  0.3856  0.0091  0.2020
 1346SOL    HW115500   2.158   4.218   2.060  0.4097 -0.4415  1.6796
 1346SOL    HW215501   2.240   4.102   2.079  0.0340  0.0548  0.8220
 1347SOL     OW15502   1.002   3.341   3.097 -0.1710  0.4279 -0.3011
 1347SOL    HW115503   0.984   3.435   3.102 -2.5856 -0.0237 -0.4000
 1347SOL    HW215504   1.014   3.332   3.002 -0.2260 -1.7301 -0.0944
 1348SOL     OW15505   0.804   1.361  10.929 -0.2877  0.1696  0.0571
 1348SOL    HW115506   0.786   1.358  10.835  1.7607  2.1505 -0.3969
 1348SOL    HW215507   0.898   1.378  10.923 -0.6278  2.1064  0.2819
 1349SOL     OW15508   4.505   0.574   1.774 -0.3086  0.2259 -0.5773
 1349SOL    HW115509   4.540   0.533   1.853  3.4233  3.0742 -0.7423
 1349SOL    HW215510   4.589   0.598   1.735  0.8455 -0.6380  1.3629
 1350SOL     OW15511   1.043   2.595   8.466  0.2480  0.4730  0.7565
 1350SOL    HW115512   1.079   2.568   8.550  0.3904 -0.3590  0.4291
 1350SOL    HW215513   1.101   2.663   8.435 -1.6375  1.6456 -0.2250
 1351SOL     OW15514   0.879   2.329   2.279  0.1760  0.1017 -0.1257
 1351SOL    HW115515   0.787   2.341   2.256 -0.8809  0.1746  4.1551
 1351SOL    HW215516   0.917   2.411   2.247 -1.5381  0.5349 -1.0698
 1352SOL     OW15517   4.580   1.879   4.888  0.0867  0.4869  0.0249
 1352SOL    HW115518   4.507   1.921   4.844 -0.5001 -1.0609 -0.5030
 1352SOL    HW215519   4.649   1.904   4.828 -0.6978  0.2266 -0.9879
 1353SOL     OW15520   4.337   2.091   2.573 -0.5265  0.4674 -0.4726
 1353SOL    HW115521   4.255   2.129   2.604 -1.5823 -1.8728 -0.3720
 1353SOL    HW215522   4.306   2.041   2.497 -0.9464  0.6664 -0.4315
 1354SOL     OW15523   2.005   0.757   5.649  0.2539 -0.3891  0.2445
 1354SOL    HW115524   2.097   0.758   5.673  1.1859  2.0125 -3.4127
 1354SOL    HW215525   1.971   0.797   5.729  0.8786  2.3332 -0.8639
 1355SOL     OW15526   2.517   0.929  15.265 -0.4034 -0.1451 -0.0900
 1355SOL    HW115527   2.450   0.970  15.319  1.0489 -1.6836  2.8178
 1355SOL    HW215528   2.546   0.862  15.326  3.1955  1.2551 -0.3018
 1356SOL     OW15529   4.133   0.974  14.441 -0.7680 -0.0749 -0.1331
 1356SOL    HW115530   4.182   0.989  14.521  0.9900 -0.7741 -1.0660
 1356SOL    HW215531   4.182   0.895  14.419  1.2343  2.1125 -3.6432
 1357SOL     OW15532   1.526   2.545   2.801 -0.3567 -0.4113 -0.3605
 1357SOL    HW115533   1.444   2.581   2.769  0.8635  0.3014 -2.6719
 1357SOL    HW215534   1.518   2.457   2.763 -1.7357 -1.3465  2.1234
 1358SOL     OW15535   2.550   0.172   2.662 -0.1539 -0.2026  0.4388
 1358SOL    HW115536   2.570   0.203   2.750 -1.5099 -2.6392  1.6263
 1358SOL    HW215537   2.499   0.091   2.668  2.6448 -2.0291 -0.8292
 1359SOL     OW15538   2.725   4.494   3.742 -0.1982  0.4204 -1.0890
 1359SOL    HW115539   2.747   4.565   3.803 -2.7846  1.7158 -1.6711
 1359SOL    HW215540   2.687   4.547   3.672  0.1893  0.4936 -1.2441
 1360SOL     OW15541   1.456   1.644   6.716  0.1527  0.0253  0.3175
 1360SOL    HW115542   1.540   1.689   6.715  0.4661 -0.5801 -2.8239
 1360SOL    HW215543   1.399   1.714   6.750  0.8036  0.8497 -0.2939
 1361SOL     OW15544   3.829   2.773   5.588  0.1555 -1.0254 -0.5110
 1361SOL    HW115545   3.827   2.679   5.570  0.1487 -0.4669 -3.3892
 1361SOL    HW215546   3.921   2.795   5.573  0.1987 -1.6777 -1.2050
 1362SOL     OW15547   1.572   0.651   1.593 -0.6375 -0.3966  0.2719
 1362SOL    HW115548   1.637   0.721   1.597  0.2178 -1.1886  0.3214
 1362SOL    HW215549   1.610   0.574   1.635  2.0486  0.3272 -0.8066
 1363SOL     OW15550   1.492   0.329   0.919 -0.1937 -0.1827  0.3620
 1363SOL    HW115551   1.536   0.247   0.942  1.6818  0.7376  0.1018
 1363SOL    HW215552   1.529   0.387   0.985  2.5709 -2.3223  0.7103
 1364SOL     OW15553   4.068   3.416  10.828  0.6172  0.3182 -0.4646
 1364SOL    HW115554   3.973   3.422  10.837  0.5559  0.7408 -1.4585
 1364SOL    HW215555   4.082   3.334  10.876  1.2095 -1.1642 -3.1656
 1365SOL     OW15556   3.272   0.817   9.050 -0.6789 -0.0599  1.1550
 1365SOL    HW115557   3.254   0.725   9.030 -0.5927  0.8312 -3.0556
 1365SOL    HW215558   3.366   0.814   9.032 -0.4863 -1.3992  2.3122
 1366SOL     OW15559   1.719   4.441   5.843  0.0995 -0.2239  0.5111
 1366SOL    HW115560   1.649   4.433   5.907 -1.7576  1.5189 -1.3040
 1366SOL    HW215561   1.734   4.357   5.800 -2.5114 -0.9051  0.9219
 1367SOL     OW15562   2.684   3.051  17.067 -0.7732 -0.2303  0.6443
 1367SOL    HW115563   2.728   3.122  17.020 -1.7788  0.4013  0.6529
 1367SOL    HW215564   2.598   3.058  17.026 -1.1834  1.4343  1.7495
 1368SOL     OW15565   0.363   2.467  17.235 -0.1817  0.5360 -0.1444
 1368SOL    HW115566   0.340   2.400  17.170 -0.2645  1.4480 -1.0614
 1368SOL    HW215567   0.331   2.545  17.190  0.3062  0.9552  0.2404
 1369SOL     OW15568   2.501   4.240   8.674  0.8490  0.0802  0.1584
 1369SOL    HW115569   2.583   4.223   8.628  1.1375  1.8954  0.0170
 1369SOL    HW215570   2.444   4.176   8.632  2.8753 -1.4600 -0.2592
 1370SOL     OW15571   4.516   2.226   8.884  0.9664 -0.0945 -0.0003
 1370SOL    HW115572   4.498   2.209   8.976 -0.7336  0.0265 -0.3095
 1370SOL    HW215573   4.453   2.172   8.836 -1.1928 -0.1164  2.9132
 1371SOL     OW15574   0.277   3.287   9.453 -0.1361  0.0991 -0.0543
 1371SOL    HW115575   0.269   3.192   9.463 -0.4085  0.4206  2.7634
 1371SOL    HW215576   0.341   3.309   9.521  1.2330  0.3590 -1.4360
 1372SOL     OW15577   1.765   3.556  14.676 -0.5442 -0.1222  0.4827
 1372SOL    HW115578   1.790   3.465  14.662  1.5559  0.7219 -1.4448
 1372SOL    HW215579   1.742   3.553  14.768 -0.8684 -0.0186  0.4048
 1373SOL     OW15580   3.587   2.033   9.995  0.2182 -0.6831  0.0221
 1373SOL    HW115581   3.579   2.099   9.926 -0.5352  0.1435  0.8991
 1373SOL    HW215582   3.523   1.967   9.969  0.1667 -0.0510 -1.4475
 1374SOL     OW15583   2.301   3.846   9.979  0.0131 -0.1293 -0.1332
 1374SOL    HW115584   2.252   3.764   9.974  0.7694 -0.6907  1.4521
 1374SOL    HW215585   2.249   3.906   9.925  0.8267 -0.1595 -0.9455
 1375SOL     OW15586   2.120   0.539   6.178  0.6145 -0.0544  0.4577
 1375SOL    HW115587   2.046   0.527   6.237 -0.4920 -0.2536 -0.9726
 1375SOL    HW215588   2.113   0.632   6.158 -1.2446 -1.1904 -4.3867
 1376SOL     OW15589   2.941   4.414   5.587 -0.1429 -0.5148  0.1269
 1376SOL    HW115590   3.016   4.442   5.536  0.2864  0.1467  1.1226
 1376SOL    HW215591   2.874   4.403   5.519  0.4709  0.5573 -0.6400
 1377SOL     OW15592   0.773   4.205  10.062 -0.0126 -1.1136  0.1137
 1377SOL    HW115593   0.832   4.228   9.990 -0.0243 -1.2846  0.0502
 1377SOL    HW215594   0.817   4.227  10.144  0.9123 -0.2763 -0.6067
 1378SOL     OW15595   3.438   2.428  16.592  0.1354 -0.6361 -0.1020
 1378SOL    HW115596   3.500   2.387  16.531  2.6415  0.9788  1.3668
 1378SOL    HW215597   3.493   2.437  16.670  0.1741 -0.5677 -0.1375
 1379SOL     OW15598   3.878   2.511  14.677  0.3480 -0.1400  0.5024
 1379SOL    HW115599   3.804   2.563  14.645 -0.6210 -1.5271  0.4681
 1379SOL    HW215600   3.841   2.423  14.669  2.6715 -0.7916 -3.0957
 1380SOL     OW15601   3.753   3.674  10.755 -0.0816  0.2910 -0.4340
 1380SOL    HW115602   3.662   3.661  10.726 -0.6370  2.5859  0.2328
 1380SOL    HW215603   3.751   3.593  10.806  0.2229 -0.0370 -0.9538
 1381SOL     OW15604   4.363   4.183  16.390  0.1458  0.0219 -0.0621
 1381SOL    HW115605   4.334   4.094  16.369  0.2365 -0.3968  1.5817
 1381SOL    HW215606   4.281   4.231  16.379  0.0388  0.0275  0.7263
 1382SOL     OW15607   2.989   3.428  14.028  0.3676  0.1881 -0.7570
 1382SOL    HW115608   3.017   3.520  14.027 -1.0727  0.6299 -0.5139
 1382SOL    HW215609   2.895   3.443  14.038  0.6762  1.5151  0.1424
 1383SOL     OW15610   2.051   0.825   7.110 -0.4535 -0.1812  0.1512
 1383SOL    HW115611   2.048   0.730   7.123 -0.3432 -0.2939 -0.6071
 1383SOL    HW215612   2.138   0.845   7.143 -0.9444 -0.7005  1.7616
 1384SOL     OW15613   0.144   2.904  13.375 -0.0377  0.2827 -0.0204
 1384SOL    HW115614   0.078   2.870  13.435  0.7710  0.1078  0.7635
 1384SOL    HW215615   0.112   2.989  13.346 -0.5414 -0.0550 -0.4597
 1385SOL     OW15616   3.010   2.125   2.957 -0.0805 -0.2376  0.1036
 1385SOL    HW115617   3.073   2.081   3.015 -0.4854 -0.4910  0.3538
 1385SOL    HW215618   3.050   2.204   2.922  1.6222  0.0181  2.6132
 1386SOL     OW15619   0.606   2.164   9.806 -0.2519  0.4129 -0.5266
 1386SOL    HW115620   0.565   2.121   9.881  0.7862 -1.4092 -1.0059
 1386SOL    HW215621   0.612   2.095   9.740  1.7689  0.9917 -0.9323
 1387SOL     OW15622   4.373   3.988   9.066 -0.1158 -0.6361  0.0949
 1387SOL    HW115623   4.465   3.959   9.067  0.4206  1.0408  0.9870
 1387SOL    HW215624   4.333   3.901   9.069 -1.0970 -0.2131 -1.1773
 1388SOL     OW15625   2.238   1.703   9.989  0.1274  0.1225  0.2030
 1388SOL    HW115626   2.324   1.731   9.957  0.4423 -1.5717 -0.4237
 1388SOL    HW215627   2.254   1.683  10.081 -1.1639  0.3473  0.4782
 1389SOL     OW15628   4.325   0.759   8.831  0.1477 -0.0711 -0.1081
 1389SOL    HW115629   4.361   0.776   8.918  1.9528  1.0901 -1.0905
 1389SOL    HW215630   4.398   0.795   8.782 -1.5593  1.3749 -1.6189
 1390SOL     OW15631   4.202   2.517   6.719 -0.2224 -0.5647  0.4208
 1390SOL    HW115632   4.213   2.576   6.645  1.0739  1.5959  2.3340
 1390SOL    HW215633   4.114   2.534   6.753  0.1699  0.0768  1.1007
 1391SOL     OW15634   2.639   3.072  12.952  0.1438  0.9569 -0.2204
 1391SOL    HW115635   2.723   3.118  12.953  0.4840  0.3294 -0.0640
 1391SOL    HW215636   2.601   3.076  12.864 -0.1803  2.0184 -0.0257
 1392SOL     OW15637   1.334   3.603   5.817  0.6670 -0.4890  0.3234
 1392SOL    HW115638   1.307   3.667   5.751  0.8746 -0.4064  0.3208
 1392SOL    HW215639   1.394   3.649   5.876  1.3008 -0.5025 -0.3266
 1393SOL     OW15640   2.462   3.611   3.574  0.1521 -0.1619  0.1127
 1393SOL    HW115641   2.490   3.614   3.666  0.5731  1.0829 -0.0643
 1393SOL    HW215642   2.512   3.535   3.545  0.8019 -0.7633  2.7440
 1394SOL     OW15643   1.156   2.919  10.033  0.2295  0.2840 -0.3043
 1394SOL    HW115644   1.093   2.853  10.063 -0.3361  0.1352 -1.8068
 1394SOL    HW215645   1.229   2.912  10.094  0.8627  0.8524 -0.9980
 1395SOL     OW15646   2.991   4.006  16.598  0.5571  0.2222  0.1849
 1395SOL    HW115647   2.965   3.916  16.617  0.9535 -0.1876 -1.1772
 1395SOL    HW215648   3.073   4.010  16.647  0.6408  2.3630 -0.1389
 1396SOL     OW15649   3.689   2.797  13.239  0.3517  0.1816  0.0723
 1396SOL    HW115650   3.702   2.729  13.306 -1.3004  0.4815  0.6951
 1396SOL    HW215651   3.769   2.803  13.188  1.0811  0.3409  1.2309
 1397SOL     OW15652   4.477   1.163   1.845  0.0136 -0.8605 -0.4178
 1397SOL    HW115653   4.446   1.189   1.932 -0.7230  0.3794 -1.0533
 1397SOL    HW215654   4.482   1.069   1.860 -0.3177 -0.7961  0.1026
 1398SOL     OW15655   4.568   4.382   6.604 -0.4800 -0.2869 -0.3753
 1398SOL    HW115656   4.482   4.394   6.643 -1.2743  0.4980 -2.3805
 1398SOL    HW215657   4.593   4.300   6.648 -0.9570  0.1887  0.7900
 1399SOL     OW15658   1.023   3.972   9.584  0.1955 -0.3226  0.1165
 1399SOL    HW115659   1.003   3.936   9.671  0.6964 -2.3311 -0.5892
 1399SOL    HW215660   0.984   3.906   9.526 -0.3540  0.3886 -0.3174
 1400SOL     OW15661   3.944   2.089  16.549  0.0611  0.2078  0.1998
 1400SOL    HW115662   4.030   2.098  16.508 -0.0865  1.9738  0.2571
 1400SOL    HW215663   3.908   2.011  16.508  2.3035 -0.7382  0.0727
 1401SOL     OW15664   1.110   2.175  15.965 -0.7055 -0.3875  0.5587
 1401SOL    HW115665   1.096   2.152  16.057  0.4925 -3.1282  0.0457
 1401SOL    HW215666   1.028   2.150  15.924  0.7014 -0.2743 -2.3119
 1402SOL     OW15667   1.520   0.278   4.006  0.2248  0.2876 -0.2283
 1402SOL    HW115668   1.599   0.306   4.052 -1.8874  0.9981  2.9823
 1402SOL    HW215669   1.513   0.185   4.029  1.0288 -0.1779 -1.8598
 1403SOL     OW15670   1.970   0.800   1.492  0.1843  0.4819  0.1947
 1403SOL    HW115671   1.910   0.859   1.538 -2.0871  1.1930 -3.7110
 1403SOL    HW215672   2.048   0.810   1.546  0.4058 -0.1621 -0.0124
 1404SOL     OW15673   2.312   2.359  13.482 -0.1078 -0.1067  0.5973
 1404SOL    HW115674   2.402   2.374  13.454  0.0402 -2.3775 -0.1635
 1404SOL    HW215675   2.309   2.274  13.439  0.9137 -0.6759  1.6778
 1405SOL     OW15676   3.438   4.664  10.907  0.0972 -0.3237  0.2751
 1405SOL    HW115677   3.392   0.018  10.936  1.4481  0.2318  0.9055
 1405SOL    HW215678   3.524   4.690  10.938 -0.4461  0.5467  1.0659
 1406SOL     OW15679   3.998   4.704   8.229  0.0860 -0.0227  0.4556
 1406SOL    HW115680   3.944   4.632   8.261  0.7574 -0.4273  0.6744
 1406SOL    HW215681   4.039   4.664   8.152 -0.1582  0.3403  0.1448
 1407SOL     OW15682   2.088   3.232   8.859 -0.5765  0.4680 -0.2230
 1407SOL    HW115683   2.011   3.228   8.802 -0.4588  0.7896 -0.4024
 1407SOL    HW215684   2.073   3.312   8.909  0.7662  0.1427  0.7229
 1408SOL     OW15685   3.581   2.556   7.323 -0.4568  0.2915 -0.5069
 1408SOL    HW115686   3.495   2.527   7.293 -0.7243 -0.7766  1.2975
 1408SOL    HW215687   3.562   2.615   7.396 -0.5805 -1.1234  0.6051
 1409SOL     OW15688   2.272   0.271   7.987 -0.6405  0.5432 -0.4617
 1409SOL    HW115689   2.291   0.184   7.952  1.1535  0.3682  0.9645
 1409SOL    HW215690   2.223   0.310   7.915  1.3054 -2.4799 -3.4135
 1410SOL     OW15691   0.970   0.068   5.722 -0.1024  0.0185 -0.2143
 1410SOL    HW115692   0.963   4.716   5.666  1.1247 -0.4619  0.2744
 1410SOL    HW215693   1.034   0.117   5.669 -0.4513  1.9839  1.1734
 1411SOL     OW15694   2.694   1.534  12.208 -0.1328 -0.0037  0.1001
 1411SOL    HW115695   2.765   1.471  12.194 -1.5159 -1.5289 -0.0214
 1411SOL    HW215696   2.627   1.466  12.216  0.6469 -0.7526  0.2796
 1412SOL     OW15697   1.341   4.147   4.595  0.3410 -0.4709 -0.4809
 1412SOL    HW115698   1.435   4.132   4.595 -0.1036 -3.2349 -1.3897
 1412SOL    HW215699   1.305   4.067   4.556 -1.8623 -0.8685  2.3564
 1413SOL     OW15700   4.391   1.602  10.063 -0.1192 -0.2542  0.3394
 1413SOL    HW115701   4.443   1.630   9.988 -0.4633 -0.8741 -0.1319
 1413SOL    HW215702   4.299   1.616  10.038  0.8414  0.6782 -2.6793
 1414SOL     OW15703   2.790   2.557  13.432  0.2988 -0.3840  0.2420
 1414SOL    HW115704   2.795   2.474  13.385 -2.0843 -0.3511 -0.0510
 1414SOL    HW215705   2.701   2.591  13.426  0.2068 -0.3854  1.5482
 1415SOL     OW15706   0.434   1.241   6.306 -0.7942  0.1997 -0.0995
 1415SOL    HW115707   0.485   1.287   6.373 -1.9477  0.6332  0.4745
 1415SOL    HW215708   0.377   1.193   6.366 -0.9978 -1.2654 -1.4668
 1416SOL     OW15709   1.125   4.352   3.509 -0.0335 -0.1975 -0.6075
 1416SOL    HW115710   1.144   4.428   3.455  0.9625 -0.5567 -0.7584
 1416SOL    HW215711   1.158   4.377   3.595 -0.0403 -2.7131  0.1287
 1417SOL     OW15712   2.875   3.478   3.613 -0.1658  0.5787  0.4570
 1417SOL    HW115713   2.967   3.502   3.620 -0.2784  0.4786  2.2797
 1417SOL    HW215714   2.852   3.492   3.521  2.0325  1.1260 -0.0020
 1418SOL     OW15715   4.165   3.111  10.576 -0.1578 -0.4715  0.0759
 1418SOL    HW115716   4.110   3.180  10.613  0.0800 -0.8275  1.0908
 1418SOL    HW215717   4.103   3.063  10.520  0.8417 -1.5263 -0.1173
 1419SOL     OW15718   4.655   4.438  15.656 -0.0406  0.7532  0.4538
 1419SOL    HW115719   4.666   4.470  15.566 -0.8914 -0.4432 -0.0685
 1419SOL    HW215720   0.020   4.447  15.687 -1.0779  1.9320  3.1145
 1420SOL     OW15721   0.204   4.197   1.745 -0.1342  0.0644  0.1126
 1420SOL    HW115722   0.285   4.182   1.795 -0.6373 -2.6964  0.0757
 1420SOL    HW215723   0.169   4.276   1.786 -0.4257 -0.1228  0.2170
 1421SOL     OW15724   3.061   0.530  12.669 -0.1356 -0.3687  0.6492
 1421SOL    HW115725   3.126   0.491  12.610 -1.1629 -1.7941  0.4566
 1421SOL    HW215726   3.038   0.461  12.730  2.2596 -0.3767  1.5491
 1422SOL     OW15727   0.858   1.625   3.098 -0.2979  0.1940  0.3988
 1422SOL    HW115728   0.944   1.614   3.058 -0.0757 -2.6772  1.7071
 1422SOL    HW215729   0.822   1.544   3.061  1.3686 -0.6270  0.5927
 1423SOL     OW15730   2.917   2.458   4.010  0.2632 -0.2771 -0.4170
 1423SOL    HW115731   2.998   2.492   3.972  0.1536  0.8057  0.3525
 1423SOL    HW215732   2.869   2.539   4.018  0.2381 -0.2458 -0.8569
 1424SOL     OW15733   4.128   1.757   9.938  0.4712  0.2104 -0.1580
 1424SOL    HW115734   4.056   1.761  10.001 -0.9919 -2.0635 -1.6786
 1424SOL    HW215735   4.088   1.727   9.857  2.1238  0.1819 -0.9707
 1425SOL     OW15736   0.730   1.954   5.317 -0.2827  0.0432  1.0843
 1425SOL    HW115737   0.730   1.859   5.306  0.2496  0.2602 -0.6936
 1425SOL    HW215738   0.738   1.965   5.412 -0.9687  1.6314  0.9526
 1426SOL     OW15739   0.018   0.381   6.313  0.0368 -0.7657  0.3799
 1426SOL    HW115740   0.022   0.472   6.284  1.3954 -0.9830 -0.0886
 1426SOL    HW215741   0.006   0.405   6.405  1.4116  1.7601 -0.0827
 1427SOL     OW15742   3.221   2.984   1.739  0.1381  0.2171  0.6588
 1427SOL    HW115743   3.162   3.043   1.693 -0.2590 -0.9231 -0.2898
 1427SOL    HW215744   3.281   3.054   1.764  2.8268 -2.2377  1.0874
 1428SOL     OW15745   0.710   0.743   4.236 -0.5005  0.5621 -0.3493
 1428SOL    HW115746   0.715   0.833   4.203 -2.4503  0.0520 -2.0727
 1428SOL    HW215747   0.755   0.692   4.168  3.9180  2.0645  1.4647
 1429SOL     OW15748   3.236   0.782   6.380  0.0425 -0.1664 -0.3208
 1429SOL    HW115749   3.187   0.759   6.301 -0.0474 -1.3257  0.0717
 1429SOL    HW215750   3.278   0.863   6.351  0.0600 -0.9845 -2.5612
 1430SOL     OW15751   3.702   0.787  15.779 -0.0194  0.1270 -0.0461
 1430SOL    HW115752   3.730   0.701  15.748 -1.4811 -0.8352  1.2706
 1430SOL    HW215753   3.654   0.830  15.709 -0.4349  2.8802  1.9044
 1431SOL     OW15754   2.908   2.711   8.374 -0.1814 -0.2992 -0.0985
 1431SOL    HW115755   2.834   2.752   8.420 -0.1775  0.5665 -0.8638
 1431SOL    HW215756   2.950   2.664   8.446 -2.3939 -0.8266  0.8556
 1432SOL     OW15757   0.334   4.375  14.176 -0.3897 -0.2489  0.0368
 1432SOL    HW115758   0.275   4.378  14.252  0.1963 -0.4430  0.5038
 1432SOL    HW215759   0.305   4.449  14.124  2.0704 -0.0491 -1.0559
 1433SOL     OW15760   4.621   3.585   2.741 -0.6766  0.4152  0.6465
 1433SOL    HW115761   4.530   3.599   2.715 -0.1021  0.7253 -1.1951
 1433SOL    HW215762   4.662   3.560   2.658 -0.5754  1.4799  0.3770
 1434SOL     OW15763   3.871   0.033   0.932 -0.1881  0.5595 -0.0550
 1434SOL    HW115764   3.941   0.094   0.908  1.3198 -1.3190 -0.3925
 1434SOL    HW215765   3.926   4.683   0.953 -2.4299 -0.2897  2.8556
 1435SOL     OW15766   2.311   0.825   3.696 -0.2548 -0.4002  0.3012
 1435SOL    HW115767   2.367   0.876   3.754  0.8581 -1.3521  0.0836
 1435SOL    HW215768   2.377   0.761   3.667 -0.7782  1.1165 -4.3275
 1436SOL     OW15769   1.887   4.185   1.424 -0.5806 -0.1982 -0.3195
 1436SOL    HW115770   1.867   4.147   1.510  0.6633  0.1673  0.1427
 1436SOL    HW215771   1.871   4.110   1.367  0.6032 -0.6305 -0.0823
 1437SOL     OW15772   2.228   1.327   8.891 -0.0668  0.6725 -0.2281
 1437SOL    HW115773   2.320   1.326   8.918 -0.7619  0.6763  2.0807
 1437SOL    HW215774   2.238   1.344   8.797 -0.4923 -0.3999 -0.4633
 1438SOL     OW15775   1.975   1.823   7.876  0.0124 -0.0480  0.1399
 1438SOL    HW115776   1.922   1.810   7.954 -1.5118  0.4346 -0.8286
 1438SOL    HW215777   1.923   1.893   7.838  1.2663  1.2275  0.7900
 1439SOL     OW15778   3.815   1.296   4.651  0.0685 -0.4555  0.1328
 1439SOL    HW115779   3.779   1.238   4.583 -1.5045 -0.8028  1.2932
 1439SOL    HW215780   3.885   1.335   4.598 -1.0664  0.8537 -0.3925
 1440SOL     OW15781   0.398   1.265   4.519 -0.1060  0.4041  0.1319
 1440SOL    HW115782   0.455   1.283   4.444 -2.1068  2.4460 -0.9076
 1440SOL    HW215783   0.394   1.169   4.517  2.3321  0.3072 -0.3067
 1441SOL     OW15784   0.083   2.193  10.670 -0.0867  0.4602  0.6580
 1441SOL    HW115785   0.091   2.128  10.740 -1.1779  1.5812  1.8333
 1441SOL    HW215786   0.099   2.150  10.587 -0.4083 -0.2555  0.9669
 1442SOL     OW15787   3.345   2.891   6.434  0.2158 -0.4414  0.4719
 1442SOL    HW115788   3.429   2.899   6.478  0.3430 -1.4278  0.4217
 1442SOL    HW215789   3.316   2.811   6.478 -2.6172 -0.7233 -1.9241
 1443SOL     OW15790   3.521   3.759   7.534  0.1248  0.5602 -0.0745
 1443SOL    HW115791   3.479   3.700   7.472 -0.2783 -0.3124  1.0192
 1443SOL    HW215792   3.496   3.837   7.486  2.5948  0.4905 -1.4388
 1444SOL     OW15793   1.845   2.291  12.950 -0.4794  0.4245  0.5535
 1444SOL    HW115794   1.778   2.285  13.017  0.1844 -0.5831  1.1199
 1444SOL    HW215795   1.922   2.269  13.002 -0.1972  0.7765  0.2899
 1445SOL     OW15796   1.587   3.673  16.261 -0.1225  0.7977  0.4040
 1445SOL    HW115797   1.608   3.745  16.320 -0.4020 -1.9613  3.8341
 1445SOL    HW215798   1.667   3.651  16.214 -0.5818 -1.2813  0.5728
 1446SOL     OW15799   0.728   0.408   4.748  0.4602 -0.7887 -0.0767
 1446SOL    HW115800   0.764   0.494   4.772  2.6013 -1.8894  0.6655
 1446SOL    HW215801   0.644   0.442   4.718  0.4994 -0.7128 -0.1028
 1447SOL     OW15802   2.312   0.174   2.919 -0.2213 -0.0377 -0.1931
 1447SOL    HW115803   2.285   0.259   2.955 -0.2426 -0.4154  0.6728
 1447SOL    HW215804   2.380   0.151   2.981 -1.1528 -1.2892  0.3648
 1448SOL     OW15805   0.273   1.338   8.617 -0.5255 -0.6152 -0.4679
 1448SOL    HW115806   0.230   1.259   8.584 -0.9095 -1.2251  1.5036
 1448SOL    HW215807   0.364   1.309   8.620  0.6789  2.9065 -2.8686
 1449SOL     OW15808   2.519   1.198   4.354 -0.8444 -0.0624  0.5070
 1449SOL    HW115809   2.610   1.209   4.327 -1.0476 -0.6127 -0.3955
 1449SOL    HW215810   2.495   1.111   4.321  1.0249 -0.8540  1.2213
 1450SOL     OW15811   2.980   0.358   5.744 -0.2292  0.1997  0.3274
 1450SOL    HW115812   2.920   0.431   5.763  0.8943  1.0319  0.6552
 1450SOL    HW215813   2.928   0.278   5.739  0.0182  0.0732 -0.2677
 1451SOL     OW15814   2.547   3.552  10.736 -0.0898  0.4107 -0.3437
 1451SOL    HW115815   2.518   3.549  10.827 -0.8652  0.6560 -0.5776
 1451SOL    HW215816   2.599   3.632  10.733 -1.2527  1.2321  1.2205
 1452SOL     OW15817   3.343   2.015   0.816  0.5352 -1.0314  0.4746
 1452SOL    HW115818   3.360   2.007   0.722  0.7748  0.4193  0.3811
 1452SOL    HW215819   3.248   2.003   0.814  0.1844  1.7053  0.3383
 1453SOL     OW15820   0.920   3.653   8.284  0.0797  0.0964 -0.3755
 1453SOL    HW115821   0.932   3.736   8.330  3.2420 -0.6960  0.2348
 1453SOL    HW215822   0.902   3.692   8.198 -0.1054  0.1769 -0.3011
 1454SOL     OW15823   2.169   4.065  15.783  0.2350  0.0847 -0.1274
 1454SOL    HW115824   2.126   3.981  15.773  0.8435 -0.5080  2.1626
 1454SOL    HW215825   2.259   4.031  15.774  0.0096 -0.7762  0.9059
 1455SOL     OW15826   2.849   1.919  10.341 -0.3998 -0.2102 -0.1263
 1455SOL    HW115827   2.917   1.985  10.355 -0.4427 -0.1993  0.0298
 1455SOL    HW215828   2.894   1.846  10.298  1.1678  0.5066  0.2889
 1456SOL     OW15829   3.790   0.889  12.761 -0.1099  0.7405 -0.1085
 1456SOL    HW115830   3.883   0.868  12.769 -0.0133  1.3165  0.2452
 1456SOL    HW215831   3.793   0.937  12.678 -1.9744  1.0279  0.0070
 1457SOL     OW15832   1.333   0.536  17.191  0.9648  0.0589 -0.6294
 1457SOL    HW115833   1.323   0.627  17.221  1.2785  0.0922 -0.6237
 1457SOL    HW215834   1.253   0.500  17.229  1.7847  1.1977  2.1858
 1458SOL     OW15835   2.412   0.960   0.579 -0.2220  0.3322  0.0694
 1458SOL    HW115836   2.357   1.038   0.587  3.3782  2.8308  0.3104
 1458SOL    HW215837   2.457   0.971   0.663 -0.0915 -1.3498  0.2131
 1459SOL     OW15838   4.404   4.587   2.434  0.1397  0.5275  0.2287
 1459SOL    HW115839   4.477   4.589   2.495 -1.3854  0.5956  2.0293
 1459SOL    HW215840   4.417   4.502   2.390  3.0654  0.2481  1.6353
 1460SOL     OW15841   3.798   0.052  15.697 -0.3815 -0.1690 -0.2179
 1460SOL    HW115842   3.806   4.683  15.681 -3.4902 -0.6086  0.8558
 1460SOL    HW215843   3.768   0.048  15.788 -1.0172 -1.1808 -0.4742
 1461SOL     OW15844   4.576   4.562   7.178  0.3811 -0.0767 -0.4611
 1461SOL    HW115845   4.581   4.640   7.123 -2.8734  0.5457  0.1204
 1461SOL    HW215846   4.494   4.522   7.149 -0.5983 -0.2166  2.4920
 1462SOL     OW15847   3.212   1.517   5.462  0.7761 -0.3302 -0.2280
 1462SOL    HW115848   3.229   1.608   5.488 -2.5231  0.3359 -0.3988
 1462SOL    HW215849   3.264   1.515   5.383  1.3956  0.3065  0.1599
 1463SOL     OW15850   2.231   1.390   8.331 -0.7579 -0.0662  0.3909
 1463SOL    HW115851   2.227   1.328   8.258  2.1891  0.3584 -0.1441
 1463SOL    HW215852   2.136   1.394   8.344 -0.5218  0.4979  1.8763
 1464SOL     OW15853   1.572   0.838   5.076 -0.6351 -0.0393 -0.3379
 1464SOL    HW115854   1.570   0.784   5.155 -2.3903  0.6630  0.0894
 1464SOL    HW215855   1.664   0.829   5.052 -0.1835  3.0880  0.2467
 1465SOL     OW15856   0.934   1.541   8.628 -0.0772  0.4186 -0.3279
 1465SOL    HW115857   1.021   1.534   8.668  0.1064 -0.1375 -0.8150
 1465SOL    HW215858   0.947   1.596   8.551  0.2611  2.7847  1.4084
 1466SOL     OW15859   1.559   1.719   4.443 -0.4694  0.0596  0.0690
 1466SOL    HW115860   1.468   1.710   4.417 -0.6062 -2.4307  1.3292
 1466SOL    HW215861   1.563   1.636   4.492 -1.6078 -0.4396 -0.6912
 1467SOL     OW15862   1.495   0.202  12.562 -0.5981  0.4269 -0.8548
 1467SOL    HW115863   1.491   0.284  12.610  1.6834 -0.1320  0.2593
 1467SOL    HW215864   1.418   0.157  12.597  0.0369  1.6979  2.1613
 1468SOL     OW15865   0.202   2.453   4.925 -0.6819 -0.7366 -0.2599
 1468SOL    HW115866   0.120   2.407   4.906 -0.5501 -0.2438 -2.0291
 1468SOL    HW215867   0.207   2.495   4.840 -1.6391 -1.7834 -0.8403
 1469SOL     OW15868   0.320   1.908   2.550  0.5546 -0.4918  0.5142
 1469SOL    HW115869   0.274   1.987   2.576  0.3557  0.3411 -2.3601
 1469SOL    HW215870   0.294   1.865   2.631  1.7437 -2.6159 -0.2391
 1470SOL     OW15871   4.374   1.817   8.325  0.4336  0.0693 -0.1816
 1470SOL    HW115872   4.464   1.820   8.360  1.2120  1.0098 -2.2647
 1470SOL    HW215873   4.388   1.795   8.233  0.0003 -0.8287 -0.0359
 1471SOL     OW15874   3.630   4.108  14.430  0.0790 -0.8148 -0.0382
 1471SOL    HW115875   3.585   4.188  14.405 -0.2402 -0.6498  1.0911
 1471SOL    HW215876   3.596   4.101  14.519 -0.0355 -1.7199 -0.1548
 1472SOL     OW15877   1.291   2.372  15.999 -0.3076  0.2860  0.5305
 1472SOL    HW115878   1.229   2.441  16.023 -1.4994 -0.0978 -1.4600
 1472SOL    HW215879   1.230   2.300  15.985 -0.6922  0.3686  1.7282
 1473SOL     OW15880   1.758   1.444   8.741 -0.0798 -0.2057 -0.3283
 1473SOL    HW115881   1.781   1.498   8.817 -1.8129 -1.4135  1.0566
 1473SOL    HW215882   1.773   1.356   8.775 -0.2217 -0.0848  0.0484
 1474SOL     OW15883   2.751   4.237   8.044  0.9182  0.3540 -0.8927
 1474SOL    HW115884   2.830   4.255   7.993  2.1594 -3.6246 -0.3610
 1474SOL    HW215885   2.691   4.260   7.973 -1.8120 -1.4236  0.8406
 1475SOL     OW15886   3.355   1.647   1.743  0.3335  0.5349 -0.2763
 1475SOL    HW115887   3.445   1.618   1.731  0.5466  0.9134  0.3652
 1475SOL    HW215888   3.365   1.684   1.831  0.2517  0.6309 -0.3077
 1476SOL     OW15889   3.724   0.550  12.093  0.4600  0.2127 -0.1243
 1476SOL    HW115890   3.780   0.513  12.025  1.8893 -0.7180  1.5553
 1476SOL    HW215891   3.639   0.534  12.052  0.0950  0.0777  0.6874
 1477SOL     OW15892   4.466   2.525  15.163  0.3351  0.0996  0.1100
 1477SOL    HW115893   4.386   2.545  15.210  0.5048  1.7174 -0.2866
 1477SOL    HW215894   4.460   2.433  15.138  0.0383  0.0777  0.2729
 1478SOL     OW15895   3.166   2.464  17.583  0.2126  0.4798  0.7872
 1478SOL    HW115896   3.205   2.450  17.496 -3.3112 -2.3531 -0.3515
 1478SOL    HW215897   3.228   2.509  17.639 -0.1974  0.7462  1.0247
 1479SOL     OW15898   2.990   3.164   2.802 -0.1609 -0.0500  0.6434
 1479SOL    HW115899   3.001   3.249   2.844  0.1748 -0.3672  1.1981
 1479SOL    HW215900   3.010   3.186   2.711 -1.0134  1.3308  0.7855
 1480SOL     OW15901   3.235   0.356  14.686 -0.7344  0.5338 -0.2916
 1480SOL    HW115902   3.159   0.368  14.628 -0.2419  1.4986 -0.7498
 1480SOL    HW215903   3.255   0.446  14.714  1.2115  0.3134 -0.9759
 1481SOL     OW15904   3.294   2.698   3.649  0.5946  0.2471  0.2234
 1481SOL    HW115905   3.358   2.627   3.638  1.3271  1.0703 -0.8285
 1481SOL    HW215906   3.354   2.762   3.687  1.7192 -0.6292 -0.0912
 1482SOL     OW15907   2.364   2.542   4.728 -0.4891 -0.6902 -0.0521
 1482SOL    HW115908   2.422   2.586   4.789  0.7258 -1.4628 -0.6658
 1482SOL    HW215909   2.282   2.588   4.748  1.1856  1.7344  1.2760
 1483SOL     OW15910   0.205   3.664   5.566  0.1983 -0.6421  0.0625
 1483SOL    HW115911   0.276   3.647   5.627 -2.2954 -1.9141  2.6158
 1483SOL    HW215912   0.153   3.584   5.576 -0.6853  0.0121  0.7627
 1484SOL     OW15913   0.532   3.172  10.141 -0.1195  0.5020 -0.2577
 1484SOL    HW115914   0.551   3.166  10.047  0.7686 -2.3943  0.1231
 1484SOL    HW215915   0.462   3.238  10.141 -0.3335  0.2802 -1.2307
 1485SOL     OW15916   1.789   1.590   2.855  0.3526 -0.3584 -0.3429
 1485SOL    HW115917   1.787   1.680   2.887  2.0530  0.0810 -1.4625
 1485SOL    HW215918   1.694   1.576   2.851  0.3025  0.6770 -3.2075
 1486SOL     OW15919   2.471   3.514   4.604 -0.1958  0.0585  0.1560
 1486SOL    HW115920   2.493   3.568   4.681  0.0377 -0.2178  0.2838
 1486SOL    HW215921   2.378   3.533   4.598 -0.1033 -0.0355 -1.4070
 1487SOL     OW15922   4.198   3.144  17.427  0.3949  0.6274  0.7183
 1487SOL    HW115923   4.179   3.202  17.501  0.6775 -0.8043  1.9329
 1487SOL    HW215924   4.256   3.083  17.473  0.9317  0.6065  0.0011
 1488SOL     OW15925   1.018   3.117   2.612 -0.5119  0.0341  0.2588
 1488SOL    HW115926   1.031   3.034   2.567 -0.9828  0.6306 -0.9771
 1488SOL    HW215927   0.984   3.163   2.535 -1.6480  0.2103  0.8709
 1489SOL     OW15928   0.057   4.458   3.460 -0.6814  0.6447  0.5022
 1489SOL    HW115929   0.049   4.542   3.415  0.2235  2.2177  3.3188
 1489SOL    HW215930   0.032   4.399   3.388 -1.1158  0.7078  0.6033
 1490SOL     OW15931   0.392   1.692  14.126 -0.0373  0.6709 -0.1743
 1490SOL    HW115932   0.364   1.610  14.165 -1.0883  0.5507 -1.1861
 1490SOL    HW215933   0.318   1.745  14.155  0.3414  0.2537  1.5680
 1491SOL     OW15934   1.155   3.826   4.687 -0.0743 -0.0126  1.1353
 1491SOL    HW115935   1.174   3.905   4.738 -0.4356  1.3699 -0.8745
 1491SOL    HW215936   1.237   3.809   4.642  1.1428  1.6996  2.7164
 1492SOL     OW15937   3.662   0.593   6.643 -0.2877 -0.4333 -0.0750
 1492SOL    HW115938   3.711   0.591   6.561  0.8309  1.0836  0.5650
 1492SOL    HW215939   3.690   0.678   6.675  1.3560 -1.2921  0.7272
 1493SOL     OW15940   4.287   4.434   3.148 -0.1637 -0.3338 -0.1629
 1493SOL    HW115941   4.272   4.354   3.200 -0.0094 -1.9005 -2.5220
 1493SOL    HW215942   4.376   4.414   3.119  0.7869 -0.1663  2.6098
 1494SOL     OW15943   4.027   2.029   1.842  0.2744  0.4468 -0.5021
 1494SOL    HW115944   4.077   2.110   1.832 -3.3669  2.4340 -2.6377
 1494SOL    HW215945   3.940   2.066   1.861 -0.6017 -1.8829 -0.0314
 1495SOL     OW15946   2.554   3.593   8.412  0.9951 -0.9202  0.6506
 1495SOL    HW115947   2.535   3.592   8.506  0.1746 -2.5614  0.4594
 1495SOL    HW215948   2.535   3.503   8.384  1.1152 -1.1907  1.4493
 1496SOL     OW15949   0.916   3.365   4.777 -0.1728 -0.1926  0.5352
 1496SOL    HW115950   0.831   3.372   4.735  0.6230 -0.2331 -1.1008
 1496SOL    HW215951   0.933   3.459   4.790  0.9167 -0.1443 -1.2509
 1497SOL     OW15952   3.849   2.330   5.351  0.0287  0.0030  0.1692
 1497SOL    HW115953   3.794   2.373   5.286 -1.3085 -0.8904  0.7002
 1497SOL    HW215954   3.863   2.403   5.410 -0.2808  2.0641 -2.2950
 1498SOL     OW15955   1.517   2.903   4.655  0.4429 -0.7206 -0.3636
 1498SOL    HW115956   1.457   2.876   4.724 -1.8582  1.0557 -1.6786
 1498SOL    HW215957   1.459   2.902   4.578 -0.3220  0.2559  0.2048
 1499SOL     OW15958   1.109   3.241   7.814  0.0615 -0.0168  0.9162
 1499SOL    HW115959   1.170   3.270   7.746 -1.1229 -2.5178 -1.2037
 1499SOL    HW215960   1.070   3.163   7.776 -2.8686  2.1007 -0.3457
 1500SOL     OW15961   2.206   4.272   2.426  0.6773 -0.3959 -0.1858
 1500SOL    HW115962   2.177   4.357   2.459  0.5173 -0.5574  0.0958
 1500SOL    HW215963   2.195   4.282   2.332  2.6205  0.4641 -0.3138
 1501SOL     OW15964   0.568   3.853   8.819 -0.5629 -0.2325  0.2586
 1501SOL    HW115965   0.627   3.859   8.894  0.7761 -2.5668 -0.5965
 1501SOL    HW215966   0.608   3.919   8.763  3.2149 -0.9496  2.1131
 1502SOL     OW15967   3.552   2.595   6.772  0.3647 -0.1525  0.1220
 1502SOL    HW115968   3.592   2.592   6.685 -0.9568 -0.0569 -0.4850
 1502SOL    HW215969   3.587   2.519   6.819 -1.4286  0.4833  2.4869
 1503SOL     OW15970   4.136   4.530   3.879  0.1851 -0.5750 -0.0498
 1503SOL    HW115971   4.231   4.539   3.878  0.2109 -1.0802 -1.2241
 1503SOL    HW215972   4.125   4.446   3.923 -1.4807 -0.0653  0.5307
 1504SOL     OW15973   0.028   2.255  15.331 -0.1764  0.8143 -0.0870
 1504SOL    HW115974   4.662   2.230  15.349 -0.2679  2.3824  1.6039
 1504SOL    HW215975   0.077   2.253  15.413 -0.2820 -3.5154 -0.1036
 1505SOL     OW15976   0.741   1.407   7.944  0.4880  0.6327  0.0639
 1505SOL    HW115977   0.778   1.328   7.905 -1.1090  0.3512 -0.8911
 1505SOL    HW215978   0.744   1.455   7.861 -0.6910 -0.4194 -0.5881
 1506SOL     OW15979   1.732   2.574   3.769  0.0902 -0.0489  0.0713
 1506SOL    HW115980   1.716   2.480   3.772  1.7183 -0.3535 -0.8617
 1506SOL    HW215981   1.812   2.563   3.718 -0.3281 -0.2857 -0.5365
 1507SOL     OW15982   2.217   2.628  14.627  0.4825 -0.1792  0.4272
 1507SOL    HW115983   2.223   2.709  14.577  0.5955 -0.5642 -0.1790
 1507SOL    HW215984   2.196   2.565  14.559  1.4331 -0.3359  0.2908
 1508SOL     OW15985   1.972   0.782  17.582 -0.4620  0.0032  0.5421
 1508SOL    HW115986   1.878   0.799  17.581 -0.3498  0.6126  0.4902
 1508SOL    HW215987   1.990   0.717  17.513 -0.3214 -0.2982  0.8655
 1509SOL     OW15988   1.575   2.887   5.973  0.7112 -0.1618  0.3557
 1509SOL    HW115989   1.658   2.933   5.983  0.7564 -0.0258 -0.6015
 1509SOL    HW215990   1.507   2.953   5.983  0.2676 -0.6012  0.2792
 1510SOL     OW15991   2.723   3.046   1.986 -0.5519 -0.3067  0.0808
 1510SOL    HW115992   2.730   3.124   1.931  3.7399 -0.8949 -0.1730
 1510SOL    HW215993   2.649   3.066   2.043 -1.0963  1.5423 -1.2877
 1511SOL     OW15994   2.775   0.924   2.306  0.0474 -0.7099  0.0219
 1511SOL    HW115995   2.720   0.991   2.345 -1.0810 -1.6999  0.1332
 1511SOL    HW215996   2.837   0.925   2.378  1.2041  1.7436 -1.0075
 1512SOL     OW15997   2.496   1.043   5.407 -0.0720 -0.4684  0.5131
 1512SOL    HW115998   2.542   1.124   5.383 -0.5673 -0.1413  0.6750
 1512SOL    HW215999   2.553   1.025   5.482 -0.9808  1.4862  1.6593
 1513SOL     OW16000   3.851   0.687   8.121 -0.4733 -0.0038  0.0201
 1513SOL    HW116001   3.866   0.735   8.202  0.8931 -1.0374  0.3805
 1513SOL    HW216002   3.927   0.630   8.127  0.7893  1.7544  0.7924
 1514SOL     OW16003   2.805   4.483  15.218  0.7250  0.6253  0.1395
 1514SOL    HW116004   2.738   4.415  15.220  1.2320  0.1395  0.4975
 1514SOL    HW216005   2.755   4.557  15.254  1.2530  0.6369  0.8589
 1515SOL     OW16006   2.369   0.383  11.583  0.5657 -0.5138  0.2242
 1515SOL    HW116007   2.456   0.400  11.548  0.1349 -0.9078 -1.0459
 1515SOL    HW216008   2.395   0.304  11.629 -1.8539 -1.1974  0.4368
 1516SOL     OW16009   2.924   2.344   7.287 -0.3870 -0.2529 -0.3044
 1516SOL    HW116010   2.895   2.343   7.195  0.5747  2.0920 -0.6370
 1516SOL    HW216011   3.018   2.331   7.276  0.2139  2.1758  2.1380
 1517SOL     OW16012   3.999   0.923   2.935 -0.0501 -0.2774 -0.8144
 1517SOL    HW116013   4.036   0.946   3.021  0.3426  1.7430 -1.5246
 1517SOL    HW216014   4.009   0.829   2.925  0.0182 -0.4107  0.4339
 1518SOL     OW16015   4.531   2.260  14.609 -0.1069  0.4424  0.0987
 1518SOL    HW116016   4.467   2.201  14.650  0.7583 -0.4318  0.1885
 1518SOL    HW216017   4.591   2.284  14.679  0.3744  1.9323 -0.8352
 1519SOL     OW16018   1.538   1.604  14.857 -0.0934 -0.2382 -0.1949
 1519SOL    HW116019   1.519   1.527  14.804  1.2668 -1.0156  0.4487
 1519SOL    HW216020   1.531   1.565  14.945 -0.9425  0.3247 -0.0128
 1520SOL     OW16021   3.416   3.283  10.107  0.2548 -0.2612 -0.4464
 1520SOL    HW116022   3.447   3.204  10.061 -1.0760 -1.4186  0.6318
 1520SOL    HW216023   3.355   3.323  10.045 -0.5135  1.4548  1.4618
 1521SOL     OW16024   0.095   4.467   4.756  0.3835 -0.7768 -0.1181
 1521SOL    HW116025   0.187   4.485   4.738  0.5205 -0.6135  0.7048
 1521SOL    HW216026   0.072   4.389   4.706 -2.3042  0.7867 -1.3280
 1522SOL     OW16027   3.019   4.464   4.363  0.2066  0.1157  0.6229
 1522SOL    HW116028   3.020   4.545   4.312 -0.4557 -0.2364  0.0499
 1522SOL    HW216029   3.004   4.500   4.450  2.5654  1.2000  0.5955
 1523SOL     OW16030   0.343   0.724   9.045 -0.3979  0.4451 -0.2112
 1523SOL    HW116031   0.340   0.808   9.001  1.1910  0.5766 -0.0703
 1523SOL    HW216032   0.370   0.758   9.131 -1.2985 -0.9456  0.6309
 1524SOL     OW16033   2.897   2.502   6.590 -0.5989 -0.2325 -0.8832
 1524SOL    HW116034   2.817   2.470   6.548  0.4943 -3.8656 -0.2098
 1524SOL    HW216035   2.876   2.521   6.681  0.4674 -3.1548 -0.0236
 1525SOL     OW16036   0.982   1.553  16.199 -0.1998 -0.1773  0.3863
 1525SOL    HW116037   0.936   1.578  16.119  1.6734  1.2492 -0.2547
 1525SOL    HW216038   1.018   1.635  16.234 -0.5743  0.0736  0.1900
 1526SOL     OW16039   0.976   2.130   2.108  0.0612  0.0063  0.9905
 1526SOL    HW116040   0.933   2.204   2.151 -1.4085  0.0656 -0.6100
 1526SOL    HW216041   1.064   2.165   2.091  0.4041 -1.5836 -0.4637
 1527SOL     OW16042   3.902   4.033   5.612  0.3514 -0.2776 -0.0365
 1527SOL    HW116043   3.981   4.078   5.580  0.6068  1.1514  2.6172
 1527SOL    HW216044   3.873   4.101   5.673  1.5500 -0.8151  1.1234
 1528SOL     OW16045   4.608   4.093  16.454 -0.9419 -0.0088  0.4981
 1528SOL    HW116046   4.651   4.172  16.485  1.1240 -1.4554  1.3330
 1528SOL    HW216047   4.518   4.126  16.456 -0.8945  0.1106  0.6217
 1529SOL     OW16048   3.361   1.479   2.332  0.3672  0.1157 -0.0380
 1529SOL    HW116049   3.276   1.435   2.337  0.0213  0.9157  1.1474
 1529SOL    HW216050   3.353   1.538   2.257  1.2109 -0.4276 -0.5581
 1530SOL     OW16051   4.233   4.428   0.121 -0.1626 -0.0613  0.3471
 1530SOL    HW116052   4.286   4.414   0.042 -0.1818 -1.8173  0.6587
 1530SOL    HW216053   4.288   4.394   0.192  0.3596  0.2534  0.0972
 1531SOL     OW16054   1.003   0.427   4.357 -0.5970 -0.1097  0.1845
 1531SOL    HW116055   1.020   0.521   4.366 -0.5250 -0.3266  2.2339
 1531SOL    HW216056   1.058   0.394   4.427  0.4103 -0.8528 -0.9509
 1532SOL     OW16057   2.476   4.013  14.429  0.3804 -0.2892 -0.0499
 1532SOL    HW116058   2.537   4.058  14.487  0.8815 -3.9168  2.2524
 1532SOL    HW216059   2.390   4.013  14.472  0.8001 -0.1814  0.7778
 1533SOL     OW16060   4.629   1.526  17.485  0.4998  0.5038 -0.0167
 1533SOL    HW116061   4.606   1.601  17.431  1.6869 -0.0140 -1.2440
 1533SOL    HW216062   4.578   1.543  17.564  0.4443 -0.9820  0.2606
 1534SOL     OW16063   0.778   3.360   8.116  0.2410  0.0906 -0.4737
 1534SOL    HW116064   0.803   3.366   8.208  2.3095 -1.7913 -0.9070
 1534SOL    HW216065   0.852   3.406   8.076  0.9600 -0.1397  0.5859
 1535SOL     OW16066   3.595   2.621  17.663  0.7211 -0.3619  0.1590
 1535SOL    HW116067   3.571   2.708  17.630 -1.1540 -0.7376  0.5487
 1535SOL    HW216068   3.550   2.566  17.600  0.3394 -0.7070  0.7414
 1536SOL     OW16069   1.718   4.068  13.109  0.1094 -0.5613  0.5856
 1536SOL    HW116070   1.760   4.059  13.023  2.1819 -0.4681  1.5840
 1536SOL    HW216071   1.715   4.164  13.116 -0.3273 -0.9267  4.8611
 1537SOL     OW16072   1.372   1.202   8.083  0.1931 -0.0994 -0.5302
 1537SOL    HW116073   1.449   1.256   8.101  0.6394 -1.2645  1.0608
 1537SOL    HW216074   1.396   1.125   8.135  0.3953 -0.9391 -1.8742
 1538SOL     OW16075   0.854   0.972   4.764  0.2731 -0.1377  0.4695
 1538SOL    HW116076   0.781   1.032   4.779 -0.3564 -1.1205  1.3167
 1538SOL    HW216077   0.848   0.931   4.678 -0.2167 -0.0974  0.4848
 1539SOL     OW16078   2.861   4.062   4.917 -0.0997  0.3859  0.3137
 1539SOL    HW116079   2.935   4.116   4.890 -0.5364  1.9458  2.2331
 1539SOL    HW216080   2.790   4.126   4.928 -1.0335 -0.5460 -0.3600
 1540SOL     OW16081   3.577   0.334   7.852  0.2281  0.2447  0.7748
 1540SOL    HW116082   3.583   0.340   7.948 -1.5525  2.2240  0.7490
 1540SOL    HW216083   3.490   0.372   7.843  0.3351  0.9538  2.6825
 1541SOL     OW16084   4.159   2.456  14.651 -0.9546  0.1943 -0.3013
 1541SOL    HW116085   4.063   2.461  14.649 -0.9541 -0.2149 -1.4791
 1541SOL    HW216086   4.181   2.526  14.711  3.6551 -1.7201  0.2478
 1542SOL     OW16087   0.962   0.199   7.552 -0.6358 -0.5029 -0.8191
 1542SOL    HW116088   0.890   0.203   7.490  0.6030 -1.4738 -2.3255
 1542SOL    HW216089   0.977   0.287   7.586 -0.8383 -0.7902  0.0169
 1543SOL     OW16090   1.622   2.768   2.972 -0.2376 -0.1892 -0.0834
 1543SOL    HW116091   1.580   2.689   2.939 -0.6083 -1.5586  3.7616
 1543SOL    HW216092   1.615   2.761   3.067  1.9694  1.3777  0.2069
 1544SOL     OW16093   2.373   4.402  15.067 -0.2935 -0.1819  0.0795
 1544SOL    HW116094   2.312   4.346  15.020 -2.5526  1.4471  1.0767
 1544SOL    HW216095   2.451   4.410  15.012  0.3315 -0.4604  0.9355
 1545SOL     OW16096   1.975   0.356   3.502  0.3678 -0.2486  0.2316
 1545SOL    HW116097   1.946   0.445   3.481  2.4499  0.3714 -0.0344
 1545SOL    HW216098   1.956   0.310   3.420 -0.6434 -0.7929  0.7683
 1546SOL     OW16099   3.498   3.632  14.210  0.4377  0.7756  0.3654
 1546SOL    HW116100   3.444   3.699  14.168  0.5617  0.7523  0.1654
 1546SOL    HW216101   3.457   3.609  14.293 -0.3608 -1.8416 -0.7720
 1547SOL     OW16102   3.306   1.820  11.786  0.1777  0.3985 -0.3787
 1547SOL    HW116103   3.345   1.774  11.712 -1.4400 -0.6268 -0.5969
 1547SOL    HW216104   3.289   1.745  11.843 -0.7009  2.5868  2.2517
 1548SOL     OW16105   0.194   3.261   7.094 -0.0474  0.3933  0.5035
 1548SOL    HW116106   0.231   3.176   7.117 -1.6264 -0.6732 -0.9062
 1548SOL    HW216107   0.138   3.240   7.019  2.9207 -1.2235 -1.2363
 1549SOL     OW16108   2.412   3.820  13.383 -0.2449  0.3025  0.0026
 1549SOL    HW116109   2.428   3.764  13.459  0.1400  0.9947  0.4272
 1549SOL    HW216110   2.374   3.900  13.417  1.6210  0.5014  1.6341
 1550SOL     OW16111   4.210   1.988   0.802 -0.5153  0.2621  0.8813
 1550SOL    HW116112   4.202   2.061   0.740  0.0865  0.7075  1.3217
 1550SOL    HW216113   4.258   2.037   0.870  2.0692  0.0741 -0.7929
 1551SOL     OW16114   4.354   1.618   1.989 -0.4958  0.4377  0.3267
 1551SOL    HW116115   4.298   1.695   1.979  0.5092  1.0311 -0.7870
 1551SOL    HW216116   4.345   1.572   1.905 -2.9125 -0.8520  1.3290
 1552SOL     OW16117   2.990   2.948  17.117 -0.6348  0.0447  0.2933
 1552SOL    HW116118   2.928   2.906  17.177 -0.7973  1.7234  1.3083
 1552SOL    HW216119   2.935   2.932  17.041 -0.6996  0.6117  0.2176
 1553SOL     OW16120   4.041   1.410   5.460  0.5178  0.2974  0.0357
 1553SOL    HW116121   3.984   1.484   5.440  0.3756 -0.3271 -1.8809
 1553SOL    HW216122   4.088   1.394   5.378  2.3580  0.3980  1.0653
 1554SOL     OW16123   1.755   4.187   9.318 -0.6757 -0.0540 -1.0337
 1554SOL    HW116124   1.710   4.110   9.353 -0.7066 -0.5187 -2.0776
 1554SOL    HW216125   1.698   4.231   9.255 -0.1324  1.3079 -0.5668
 1555SOL     OW16126   1.064   2.100   3.988  0.1435  0.1730 -0.4376
 1555SOL    HW116127   1.048   2.062   3.902 -2.9746  1.7238 -0.5414
 1555SOL    HW216128   1.121   2.173   3.967  0.1019  0.0058 -1.1344
 1556SOL     OW16129   1.518   2.295   8.634  0.1245  0.3608 -0.1996
 1556SOL    HW116130   1.575   2.217   8.634 -0.2664  0.0613  3.1249
 1556SOL    HW216131   1.452   2.247   8.684  0.4176 -0.0660 -0.2114
 1557SOL     OW16132   3.558   2.382   6.479  0.0549 -0.1298 -0.4581
 1557SOL    HW116133   3.570   2.323   6.553 -0.9435 -2.1972 -1.9318
 1557SOL    HW216134   3.625   2.449   6.489 -0.5387  0.8703 -2.9888
 1558SOL     OW16135   2.577   3.112   6.106  0.7517 -0.4712 -0.1794
 1558SOL    HW116136   2.610   3.127   6.195  0.8392  2.1356 -0.6553
 1558SOL    HW216137   2.562   3.203   6.081  0.1846 -0.1470  1.3552
 1559SOL     OW16138   2.991   3.357   8.530 -0.2613  0.2971 -0.0041
 1559SOL    HW116139   2.975   3.362   8.624 -2.3768  0.4065 -0.3665
 1559SOL    HW216140   3.033   3.271   8.520 -3.1294 -0.8393 -2.0950
 1560SOL     OW16141   3.036   2.794   1.357 -0.3807 -0.1709 -0.2817
 1560SOL    HW116142   2.983   2.759   1.286  0.1306 -0.0274 -0.7355
 1560SOL    HW216143   2.986   2.782   1.438 -0.6258  1.7927 -0.1561
 1561SOL     OW16144   0.907   0.751   5.300 -0.2597  0.1349  0.2923
 1561SOL    HW116145   0.921   0.807   5.224 -2.1415  1.2931  0.8113
 1561SOL    HW216146   0.938   0.663   5.275  1.0236  0.8489 -0.6302
 1562SOL     OW16147   2.808   2.072  14.050  0.5317  0.1507  0.3262
 1562SOL    HW116148   2.750   2.136  14.092 -1.5874 -1.6558  0.1909
 1562SOL    HW216149   2.894   2.111  14.063 -0.6659  1.7699  3.4212
 1563SOL     OW16150   4.052   3.643   3.129  0.5166 -0.1188 -0.3457
 1563SOL    HW116151   3.964   3.682   3.124  0.3384 -0.2773  1.4945
 1563SOL    HW216152   4.071   3.665   3.220  1.6975  1.2587 -0.9323
 1564SOL     OW16153   0.886   0.214  13.200 -0.2277  0.2734  0.2666
 1564SOL    HW116154   0.953   0.225  13.134  0.6481  0.6138  1.2125
 1564SOL    HW216155   0.843   0.133  13.172  0.6647  0.6907 -2.3136
 1565SOL     OW16156   3.340   0.508   7.741 -0.5491  0.2195 -0.6152
 1565SOL    HW116157   3.296   0.449   7.679  1.9582 -2.5047  0.2142
 1565SOL    HW216158   3.272   0.575   7.750  0.0441  0.7694 -0.2345
 1566SOL     OW16159   2.549   3.121  10.444 -0.1965 -0.0802 -0.2157
 1566SOL    HW116160   2.632   3.083  10.472 -0.1531  2.2089  2.7324
 1566SOL    HW216161   2.552   3.186  10.515  1.0350 -0.7197  0.3193
 1567SOL     OW16162   4.268   4.417   7.974 -0.0693 -0.1173  0.2210
 1567SOL    HW116163   4.345   4.444   8.023  0.9871 -1.9424 -0.4489
 1567SOL    HW216164   4.248   4.333   8.015 -2.0685 -1.2076 -2.9621
 1568SOL     OW16165   2.912   0.315   6.511 -0.0847 -0.2304 -0.2134
 1568SOL    HW116166   2.981   0.249   6.508 -0.8086 -0.9866 -0.2596
 1568SOL    HW216167   2.841   0.268   6.468 -0.8914  2.2807 -1.6214
 1569SOL     OW16168   2.738   1.769  10.819 -0.0957 -0.4610  1.1849
 1569SOL    HW116169   2.663   1.735  10.770  1.4159  0.9363 -2.1011
 1569SOL    HW216170   2.693   1.809  10.893  0.4160  1.1422  0.6328
 1570SOL     OW16171   0.637   3.310  17.219  0.2746  0.4493 -0.6892
 1570SOL    HW116172   0.710   3.314  17.158  0.3634  0.0992 -0.6074
 1570SOL    HW216173   0.647   3.219  17.248 -0.1908  0.6186  0.0057
 1571SOL     OW16174   0.537   2.924   3.604 -0.6081 -0.6582 -0.1256
 1571SOL    HW116175   0.584   2.875   3.672  1.4071  1.5827  0.1290
 1571SOL    HW216176   0.461   2.867   3.596  0.5756 -2.4831  1.6036
 1572SOL     OW16177   3.256   1.356   3.016  0.2231 -0.0983  0.3669
 1572SOL    HW116178   3.233   1.309   2.937 -0.2812  0.7475  0.0040
 1572SOL    HW216179   3.302   1.290   3.067 -1.8342 -0.5279  1.6897
 1573SOL     OW16180   1.931   4.692  16.808  0.2759 -0.3040 -0.1123
 1573SOL    HW116181   1.883   4.697  16.725 -1.5588  2.0127  1.0871
 1573SOL    HW216182   1.861   4.703  16.872  1.4813 -1.5424  1.3839
 1574SOL     OW16183   0.564   3.433   1.577 -0.6918 -0.2263 -0.0293
 1574SOL    HW116184   0.578   3.374   1.651  0.9377 -0.0508 -0.1964
 1574SOL    HW216185   0.629   3.503   1.587  1.1397 -2.0167  0.7377
 1575SOL     OW16186   4.455   1.989   5.880 -0.5717 -0.2495 -0.0295
 1575SOL    HW116187   4.496   2.064   5.837  0.3184 -1.8451 -2.0154
 1575SOL    HW216188   4.457   2.011   5.973  2.2191 -1.3971  0.1918
 1576SOL     OW16189   0.562   0.823   5.341 -0.1463  0.0036 -0.2928
 1576SOL    HW116190   0.472   0.837   5.369 -0.7133 -0.8919 -1.6786
 1576SOL    HW216191   0.590   0.740   5.381  1.5745 -0.1845 -1.8556
 1577SOL     OW16192   0.512   3.496  15.729  0.3317  0.8224 -0.0529
 1577SOL    HW116193   0.579   3.562  15.747  0.4555  0.7216 -0.1499
 1577SOL    HW216194   0.471   3.547  15.659  2.1895  1.1755 -0.8622
 1578SOL     OW16195   3.408   0.272   6.697 -0.2172  0.4044 -0.4851
 1578SOL    HW116196   3.331   0.275   6.754 -0.1592  1.1312 -0.4464
 1578SOL    HW216197   3.397   0.358   6.658  1.2757  1.4443  1.4243
 1579SOL     OW16198   4.033   0.880  16.790  0.3462 -0.0482 -0.0902
 1579SOL    HW116199   4.070   0.795  16.816 -0.3220 -0.3346 -0.0969
 1579SOL    HW216200   3.947   0.874  16.832 -0.2632 -0.4761 -1.4165
 1580SOL     OW16201   1.606   3.710   0.588 -0.4782  0.5383  0.3250
 1580SOL    HW116202   1.511   3.719   0.592 -0.6801 -0.5524 -2.0397
 1580SOL    HW216203   1.630   3.643   0.652  0.9935  0.5486 -0.2184
 1581SOL     OW16204   2.932   2.105   5.342 -0.0864 -0.3411  0.2264
 1581SOL    HW116205   2.986   2.038   5.299  2.4138  2.7373 -1.4308
 1581SOL    HW216206   2.889   2.157   5.274 -0.8914  0.8527  1.6492
 1582SOL     OW16207   1.945   0.759   8.474  0.0852  0.2677 -0.1908
 1582SOL    HW116208   1.958   0.684   8.416 -0.2844  0.5874 -0.6868
 1582SOL    HW216209   2.016   0.817   8.446  0.5598  0.1590  0.7824
 1583SOL     OW16210   2.520   3.698   7.388  0.2562  0.1022 -0.0913
 1583SOL    HW116211   2.596   3.667   7.437 -0.9493 -0.4447  1.4319
 1583SOL    HW216212   2.453   3.694   7.456 -1.5368 -0.4856 -1.8773
 1584SOL     OW16213   3.910   0.882   5.606  0.2706  0.2363  0.2987
 1584SOL    HW116214   3.884   0.926   5.687  2.4345 -0.5630  1.4356
 1584SOL    HW216215   4.005   0.876   5.617  0.1444  0.7514  1.6145
 1585SOL     OW16216   2.426   2.462  10.373  0.1057  0.0424  0.5503
 1585SOL    HW116217   2.393   2.385  10.420  0.7582 -1.2359 -1.0897
 1585SOL    HW216218   2.477   2.506  10.440 -1.1327  2.6562 -0.2252
 1586SOL     OW16219   0.228   1.242   7.633 -0.2063 -0.1680 -0.1832
 1586SOL    HW116220   0.230   1.318   7.691  0.3123  0.5152 -1.0841
 1586SOL    HW216221   0.246   1.271   7.543  0.3107  0.9791  0.2898
 1587SOL     OW16222   4.033   0.373  11.711 -0.4389  0.0132  0.3131
 1587SOL    HW116223   4.035   0.453  11.658 -1.6803  1.5668  2.6364
 1587SOL    HW216224   3.968   0.389  11.779 -0.2005  2.1163  0.0424
 1588SOL     OW16225   2.247   0.393   3.056  0.6203  0.3667  0.4907
 1588SOL    HW116226   2.231   0.473   3.007  0.4035 -0.1487 -0.2824
 1588SOL    HW216227   2.153   0.377   3.067  0.5315  2.2352  2.3600
 1589SOL     OW16228   2.054   2.212  10.386 -0.3874 -0.0362 -0.3089
 1589SOL    HW116229   2.139   2.199  10.428 -0.8803  0.1378  0.7372
 1589SOL    HW216230   2.004   2.150  10.439  0.3348 -0.1622  0.2371
 1590SOL     OW16231   4.227   1.677   0.287 -0.1721 -0.1125 -0.1215
 1590SOL    HW116232   4.180   1.680   0.204  0.4027  0.3775 -0.4286
 1590SOL    HW216233   4.169   1.715   0.353 -0.2440 -0.9477  0.2926
 1591SOL     OW16234   4.078   3.350   0.280 -0.3049  0.0661  0.1910
 1591SOL    HW116235   4.012   3.336   0.347  2.0576 -0.6429  2.3684
 1591SOL    HW216236   4.155   3.303   0.313  0.4963  2.7567  2.0850
 1592SOL     OW16237   0.674   2.295  13.047  0.2204 -0.1895 -0.0514
 1592SOL    HW116238   0.668   2.390  13.057  1.6868 -0.1081  0.0948
 1592SOL    HW216239   0.592   2.266  13.086  0.7559 -3.0699 -1.1104
 1593SOL     OW16240   1.041   4.523   3.836  0.2534 -0.0430  0.3845
 1593SOL    HW116241   0.990   4.443   3.823  0.1868  0.2463 -1.1605
 1593SOL    HW216242   1.128   4.482   3.845 -0.0483 -0.6718  0.4496
 1594SOL     OW16243   1.286   2.632  12.745 -0.1528  0.0475 -0.2102
 1594SOL    HW116244   1.357   2.567  12.742  1.9039  2.3531 -1.4106
 1594SOL    HW216245   1.283   2.647  12.650  0.4191 -0.0518 -0.2483
 1595SOL     OW16246   4.470   4.210   9.369 -0.5054  0.4085  0.0293
 1595SOL    HW116247   4.426   4.125   9.373 -2.1579  1.1278 -2.4843
 1595SOL    HW216248   4.425   4.249   9.443 -0.4740 -1.8098  1.2292
 1596SOL     OW16249   0.613   0.665   2.494 -0.1710 -0.3377  0.1451
 1596SOL    HW116250   0.694   0.717   2.488  0.1274 -0.9878 -1.4316
 1596SOL    HW216251   0.617   0.611   2.416  3.9560 -0.0986  0.1641
 1597SOL     OW16252   3.664   3.040  14.758  0.4920  0.3005 -0.2636
 1597SOL    HW116253   3.576   3.013  14.786  0.4580  0.4850 -0.1902
 1597SOL    HW216254   3.713   2.958  14.757  0.6588  0.4133 -0.7583
 1598SOL     OW16255   1.231   1.170  12.370  0.6065  0.5470  0.6266
 1598SOL    HW116256   1.262   1.084  12.396  0.2853 -0.3182 -1.8008
 1598SOL    HW216257   1.157   1.154  12.312 -0.8541  0.2040  2.6284
 1599SOL     OW16258   4.281   1.967   2.334  0.1649  0.0208 -0.0525
 1599SOL    HW116259   4.344   1.920   2.280  2.0211  1.2626  1.0277
 1599SOL    HW216260   4.270   2.051   2.288 -1.0605  0.0696  0.3274
 1600SOL     OW16261   0.477   2.633   6.728  0.1691  0.2329  0.5376
 1600SOL    HW116262   0.499   2.617   6.820 -3.0087 -0.0598  1.2526
 1600SOL    HW216263   0.563   2.652   6.691 -0.0932  1.8508  0.7507
 1601SOL     OW16264   0.238   4.209   6.631  0.1966  0.3889  0.6676
 1601SOL    HW116265   0.326   4.246   6.630  0.1626  0.4613  0.4998
 1601SOL    HW216266   0.222   4.189   6.539 -2.1012 -3.1345  1.8424
 1602SOL     OW16267   0.520   4.364  11.054 -0.1875 -0.4133 -0.4283
 1602SOL    HW116268   0.563   4.442  11.018  2.2524 -1.7372 -0.4084
 1602SOL    HW216269   0.445   4.357  10.996  0.0043  0.0616 -0.7311
 1603SOL     OW16270   0.177   0.466   4.792 -0.1279  0.0815  0.1229
 1603SOL    HW116271   0.151   0.386   4.747 -4.2625  0.5570  1.6601
 1603SOL    HW216272   0.214   0.431   4.873 -0.0523  0.2624  0.1670
 1604SOL     OW16273   1.812   1.851   2.934 -0.5035 -0.4783  0.0281
 1604SOL    HW116274   1.833   1.868   3.026  0.6246 -1.2572 -0.0861
 1604SOL    HW216275   1.803   1.941   2.900 -0.6736  0.1179  1.6585
 1605SOL     OW16276   1.619   2.713  15.856  0.4513  0.4018  0.3908
 1605SOL    HW116277   1.616   2.686  15.765 -3.7655 -0.6957  0.8828
 1605SOL    HW216278   1.601   2.807  15.849  0.4082  0.4327  0.8675
 1606SOL     OW16279   3.812   2.205   1.638 -0.2714 -0.4884  0.0381
 1606SOL    HW116280   3.851   2.172   1.557 -0.4004  2.5300 -1.2668
 1606SOL    HW216281   3.799   2.296   1.612  0.6182 -0.3697  0.0142
 1607SOL     OW16282   2.729   3.652   6.846  0.0906  0.4347  0.1554
 1607SOL    HW116283   2.794   3.719   6.866  1.7364 -0.9650 -0.4758
 1607SOL    HW216284   2.650   3.702   6.823  0.4344  0.5935 -0.6615
 1608SOL     OW16285   4.040   3.059   0.562 -0.1142 -0.3310  0.7439
 1608SOL    HW116286   4.104   3.130   0.558 -2.3793  1.7164  0.1460
 1608SOL    HW216287   3.962   3.083   0.613 -0.3519 -2.0239  1.1835
 1609SOL     OW16288   3.790   0.371   8.399  0.1261  0.1769 -0.2743
 1609SOL    HW116289   3.802   0.318   8.478 -2.9981  2.3888  1.6902
 1609SOL    HW216290   3.710   0.418   8.420 -1.2307 -2.2073 -0.1614
 1610SOL     OW16291   3.135   1.917   2.091  0.2268  0.7138 -0.2308
 1610SOL    HW116292   3.047   1.919   2.055 -0.4337  1.3759  1.4175
 1610SOL    HW216293   3.147   2.009   2.117 -0.4683  0.4332  1.0787
 1611SOL     OW16294   1.232   0.016  10.819  0.3175 -0.2809 -0.0470
 1611SOL    HW116295   1.161   4.676  10.822 -0.9688  1.0966 -0.3309
 1611SOL    HW216296   1.299   4.698  10.872 -0.2784  0.3085  1.1920
 1612SOL     OW16297   1.369   4.463   5.607  0.3851  0.3118 -0.2044
 1612SOL    HW116298   1.351   4.393   5.670  2.1476 -0.5195 -0.6106
 1612SOL    HW216299   1.458   4.436   5.586  0.6681  1.9576 -1.1109
 1613SOL     OW16300   3.692   4.416   7.797 -0.3360  0.5785  0.6563
 1613SOL    HW116301   3.773   4.392   7.842 -0.3981  0.9211  0.9513
 1613SOL    HW216302   3.637   4.352   7.841 -0.5449  0.0141 -0.4293
 1614SOL     OW16303   2.179   3.668  13.809 -0.2761  0.3268 -0.4047
 1614SOL    HW116304   2.205   3.754  13.841  1.0773 -0.5389  0.8464
 1614SOL    HW216305   2.150   3.696  13.722  0.2122  1.7280 -0.1153
 1615SOL     OW16306   0.009   4.107   9.406 -0.0747  0.3466  0.4562
 1615SOL    HW116307   0.042   4.185   9.451 -2.2836  2.0527 -0.8450
 1615SOL    HW216308   4.645   4.133   9.384 -1.3155 -2.2283  2.4945
 1616SOL     OW16309   2.002   3.098   1.989 -0.3044 -0.3997 -0.2387
 1616SOL    HW116310   1.934   3.160   2.015  0.8540 -0.1895  2.2055
 1616SOL    HW216311   2.054   3.103   2.069 -0.8605  0.5981  0.0578
 1617SOL     OW16312   1.698   3.829   8.429  0.1362 -0.1074  0.1719
 1617SOL    HW116313   1.623   3.771   8.422  0.7512 -0.5503 -2.6046
 1617SOL    HW216314   1.735   3.814   8.342  1.5502  1.1103  0.5527
 1618SOL     OW16315   4.158   3.560  15.996 -0.7598  0.0678 -0.3810
 1618SOL    HW116316   4.150   3.640  15.944 -2.8431  0.0317 -0.1161
 1618SOL    HW216317   4.068   3.539  16.020 -0.9973  1.4121 -0.1408
 1619SOL     OW16318   3.612   2.694  16.686 -0.1607  0.0312  0.3571
 1619SOL    HW116319   3.638   2.611  16.725  2.2554  0.1095 -1.0946
 1619SOL    HW216320   3.538   2.671  16.629  0.0627 -1.7080  0.7835
 1620SOL     OW16321   4.532   1.224   6.671 -0.0721  0.6209 -0.4368
 1620SOL    HW116322   4.561   1.179   6.591 -0.8918  0.3434 -0.5771
 1620SOL    HW216323   4.538   1.152   6.734  0.6090  1.6387  0.6492
 1621SOL     OW16324   2.889   3.412   8.278 -0.5790  0.0286 -0.3804
 1621SOL    HW116325   2.878   3.323   8.245 -0.1712 -0.0955 -0.1810
 1621SOL    HW216326   2.908   3.402   8.371  0.7919  0.2531 -0.6302
 1622SOL     OW16327   4.470   0.485   6.480  0.1629  0.0789 -0.5039
 1622SOL    HW116328   4.500   0.531   6.402 -0.9270 -0.4884 -1.2609
 1622SOL    HW216329   4.507   0.535   6.553  0.5348 -1.5146  0.3879
 1623SOL     OW16330   3.633   0.168   0.033  0.0557 -0.1977  0.0648
 1623SOL    HW116331   3.620   0.188   0.126  0.8619  2.7653 -0.4612
 1623SOL    HW216332   3.596   0.080   0.024 -2.7490  1.1751 -1.8173
 1624SOL     OW16333   3.614   4.263  12.362 -0.1515  0.5800 -0.4648
 1624SOL    HW116334   3.668   4.263  12.284 -1.0090 -0.2834 -1.0633
 1624SOL    HW216335   3.578   4.174  12.372 -2.1898  1.2990 -1.3455
 1625SOL     OW16336   0.205   3.657  10.228  0.6101  0.3316 -0.0903
 1625SOL    HW116337   0.177   3.568  10.206  1.6658  0.0253 -0.1937
 1625SOL    HW216338   0.281   3.656  10.170 -0.2767  1.7518 -1.2586
 1626SOL     OW16339   1.477   4.028   2.250 -0.2671  0.1420  0.6594
 1626SOL    HW116340   1.435   4.114   2.246 -0.7435 -0.1061  0.3169
 1626SOL    HW216341   1.566   4.054   2.272 -0.0394  0.7627 -1.0013
 1627SOL     OW16342   2.277   3.911   5.572  0.0482  0.4458 -0.1767
 1627SOL    HW116343   2.284   3.950   5.659 -0.1277 -0.8512  0.4174
 1627SOL    HW216344   2.279   3.818   5.594 -0.1990  0.1860 -1.2662
 1628SOL     OW16345   0.571   3.951   4.298 -0.0720  0.3351 -0.1751
 1628SOL    HW116346   0.636   3.906   4.352  1.6418  1.8181 -0.9899
 1628SOL    HW216347   0.618   3.932   4.217  0.5826 -0.7478  0.4514
 1629SOL     OW16348   3.848   3.586  10.414 -0.2619  0.0707 -0.4646
 1629SOL    HW116349   3.909   3.521  10.450  0.2042 -0.1414 -1.6511
 1629SOL    HW216350   3.782   3.593  10.483 -0.8969 -0.9857 -0.9623
 1630SOL     OW16351   3.494   2.125   3.756 -0.3385 -0.0500  0.1652
 1630SOL    HW116352   3.540   2.204   3.785 -0.2174 -0.0571 -0.0037
 1630SOL    HW216353   3.491   2.066   3.831  1.6729 -3.1169 -2.1626
 1631SOL     OW16354   0.728   1.465   5.467 -0.7388  0.2154  0.0921
 1631SOL    HW116355   0.807   1.449   5.518  1.2003  0.1120 -3.0052
 1631SOL    HW216356   0.697   1.381   5.434  2.2320 -0.2289 -1.4825
 1632SOL     OW16357   0.327   0.265   6.696  0.3259  0.2801 -0.5632
 1632SOL    HW116358   0.421   0.253   6.699  0.4563  1.8884  1.9662
 1632SOL    HW216359   0.303   0.187   6.645 -0.4802 -1.3822  2.3328
 1633SOL     OW16360   3.064   1.986   0.768 -0.0310  0.3672 -0.0367
 1633SOL    HW116361   3.049   1.903   0.722  0.4652 -1.1141  2.4770
 1633SOL    HW216362   3.004   2.052   0.734 -0.5680  0.5629  1.2689
 1634SOL     OW16363   3.130   3.674   9.251  0.0234 -0.2064  0.3530
 1634SOL    HW116364   3.077   3.749   9.222 -1.3877 -1.1704  0.4632
 1634SOL    HW216365   3.148   3.698   9.342 -0.9454 -1.5439  0.8928
 1635SOL     OW16366   1.645   4.644   6.909 -0.0525 -0.2087  0.2176
 1635SOL    HW116367   1.726   4.689   6.934 -0.4706 -0.5405  2.1749
 1635SOL    HW216368   1.616   4.603   6.990  1.7749 -0.9359  0.4851
 1636SOL     OW16369   1.395   0.422   1.536 -0.2417 -0.1663 -0.6942
 1636SOL    HW116370   1.403   0.515   1.559  0.6337 -0.4038 -0.0407
 1636SOL    HW216371   1.353   0.381   1.612 -1.9856  0.7671 -1.1323
 1637SOL     OW16372   3.443   1.982   0.545 -0.0153  0.1362 -0.8443
 1637SOL    HW116373   3.483   1.913   0.492 -1.1566 -2.0977  1.1604
 1637SOL    HW216374   3.379   2.020   0.485 -2.3686 -2.2409  0.1445
 1638SOL     OW16375   4.471   0.215   3.729 -0.6198 -0.6841 -1.0938
 1638SOL    HW116376   4.379   0.241   3.718 -1.7551 -3.7653  1.0112
 1638SOL    HW216377   4.464   0.127   3.692 -1.4185 -1.9713  2.1269
 1639SOL     OW16378   0.121   1.810   2.778  0.9806  0.1204 -0.2760
 1639SOL    HW116379   0.130   1.851   2.864  1.7641  1.7037 -1.1187
 1639SOL    HW216380   0.199   1.756   2.789  2.4050  2.8816  2.9831
 1640SOL     OW16381   1.739   2.766   8.665 -0.1769  0.7363 -0.2250
 1640SOL    HW116382   1.816   2.713   8.643 -0.0774  0.7937 -0.0153
 1640SOL    HW216383   1.769   2.794   8.751 -1.5258  0.2251  0.4137
 1641SOL     OW16384   4.456   2.335  14.268  0.0478 -0.4216 -0.7182
 1641SOL    HW116385   4.509   2.317  14.190 -0.7592 -1.6049 -0.9796
 1641SOL    HW216386   4.366   2.320  14.239 -0.2508  2.4968 -1.3028
 1642SOL     OW16387   1.962   2.803   9.766  0.0419 -0.2886 -0.1904
 1642SOL    HW116388   1.939   2.761   9.849  0.0451 -0.2879 -0.1892
 1642SOL    HW216389   2.032   2.860   9.795 -0.3678 -0.2193  0.6503
 1643SOL     OW16390   4.400   0.707   7.067 -0.7325  0.3105 -0.1295
 1643SOL    HW116391   4.402   0.802   7.076 -0.4979  0.1063  1.8640
 1643SOL    HW216392   4.383   0.706   6.972  2.5937 -0.6615 -0.6976
 1644SOL     OW16393   1.231   2.407   8.681 -0.1106 -0.1167  0.0025
 1644SOL    HW116394   1.174   2.454   8.742  2.6119  0.4945  2.0545
 1644SOL    HW216395   1.251   2.329   8.732  0.3291  0.4044  0.6128
 1645SOL     OW16396   1.797   2.858  10.922 -0.6095  0.2967 -0.4455
 1645SOL    HW116397   1.708   2.824  10.920 -0.2467 -0.6723  0.6648
 1645SOL    HW216398   1.832   2.817  11.000  1.2625  0.6622 -1.0807
 1646SOL     OW16399   0.368   1.552   9.248 -0.1413 -0.1972  0.0780
 1646SOL    HW116400   0.433   1.612   9.210  0.1068 -0.3406  0.2765
 1646SOL    HW216401   0.285   1.601   9.245 -1.3502 -2.3712 -1.4533
 1647SOL     OW16402   3.413   0.881   7.646 -0.4955 -0.3407  0.3779
 1647SOL    HW116403   3.338   0.824   7.664 -0.8172  0.0979  0.4332
 1647SOL    HW216404   3.446   0.846   7.563  2.5605  1.1716  0.9808
 1648SOL     OW16405   0.381   1.291   2.392 -0.2237  0.3759  0.2708
 1648SOL    HW116406   0.422   1.295   2.479  1.4854 -2.4217 -0.3988
 1648SOL    HW216407   0.307   1.351   2.403 -0.1442  0.1583  1.8912
 1649SOL     OW16408   2.565   0.815  10.104  0.2040 -0.0658  0.4013
 1649SOL    HW116409   2.620   0.750  10.060 -1.1986 -1.4871  0.7531
 1649SOL    HW216410   2.621   0.861  10.167 -1.5461 -0.0778  1.9482
 1650SOL     OW16411   1.695   0.207   7.699 -0.4209 -0.1087 -0.0060
 1650SOL    HW116412   1.755   0.268   7.656  0.0786 -0.3271  0.3834
 1650SOL    HW216413   1.745   0.172   7.772 -1.6883 -0.9536  0.4555
 1651SOL     OW16414   4.222   3.922   2.516  0.1352  0.0483 -0.7993
 1651SOL    HW116415   4.184   3.882   2.438 -1.5908 -0.5645  0.3490
 1651SOL    HW216416   4.161   3.889   2.583  0.6706 -0.9802 -0.8119
 1652SOL     OW16417   2.936   1.527   8.443 -0.2593  0.5209 -0.0400
 1652SOL    HW116418   2.959   1.479   8.363 -1.5941  0.1531 -0.1975
 1652SOL    HW216419   2.991   1.482   8.507 -1.2900 -0.5137  0.0912
 1653SOL     OW16420   1.464   1.188  11.793  0.3569  0.2023  0.0104
 1653SOL    HW116421   1.478   1.250  11.864 -0.4737  0.3061  0.0840
 1653SOL    HW216422   1.474   1.246  11.717  0.4341  1.7900  1.2277
 1654SOL     OW16423   3.751   2.253  14.669  0.4182  0.4662  0.0967
 1654SOL    HW116424   3.661   2.276  14.649 -0.0894  1.6177  3.6569
 1654SOL    HW216425   3.748   2.160  14.646 -0.6365  0.2497  1.1078
 1655SOL     OW16426   1.935   3.817   1.528  0.1231 -0.1878  0.2874
 1655SOL    HW116427   1.973   3.756   1.592 -1.0561 -0.0201  1.1543
 1655SOL    HW216428   1.869   3.863   1.579  0.2605  0.8418 -0.4688
 1656SOL     OW16429   2.429   3.471  10.073 -0.0892  0.2114 -0.4849
 1656SOL    HW116430   2.437   3.558  10.035 -0.0231  0.3921 -0.0593
 1656SOL    HW216431   2.468   3.420  10.002 -0.4948  0.1456 -0.6595
 1657SOL     OW16432   0.339   2.625   2.535  0.0922  0.1169  0.8020
 1657SOL    HW116433   0.330   2.648   2.627 -0.7324 -0.9213  0.9873
 1657SOL    HW216434   0.301   2.539   2.521  1.1239 -0.2665  0.3448
 1658SOL     OW16435   4.165   1.430   7.163 -0.0622  0.1451  0.1778
 1658SOL    HW116436   4.171   1.517   7.202  2.0071  0.5422 -0.9813
 1658SOL    HW216437   4.118   1.390   7.235  0.3953  2.3135  1.6974
 1659SOL     OW16438   0.524   2.994   9.114 -0.4450  0.2927 -0.2704
 1659SOL    HW116439   0.517   3.077   9.161  1.0759  1.3298 -1.8732
 1659SOL    HW216440   0.433   2.976   9.093 -0.1292 -1.1079 -0.4432
 1660SOL     OW16441   1.712   3.806   7.617  0.5087  0.0502 -0.0593
 1660SOL    HW116442   1.741   3.824   7.706 -1.7231  0.5302  0.5788
 1660SOL    HW216443   1.729   3.711   7.618  0.4316  0.0345 -0.1613
 1661SOL     OW16444   3.385   2.116   7.455 -0.6910 -0.3080 -0.4731
 1661SOL    HW116445   3.360   2.204   7.425  1.3320  0.6488  0.5702
 1661SOL    HW216446   3.358   2.064   7.380 -1.2830 -0.5135 -0.1124
 1662SOL     OW16447   0.305   0.150   2.364  0.1770 -0.4944 -0.0735
 1662SOL    HW116448   0.215   0.153   2.332  0.4561  1.9796 -0.6843
 1662SOL    HW216449   0.353   0.177   2.286  0.9080 -1.4492  0.0540
 1663SOL     OW16450   3.989   1.288  10.699 -0.1983 -0.7233 -0.1988
 1663SOL    HW116451   3.946   1.353  10.644  2.0649  0.9608 -0.0011
 1663SOL    HW216452   4.081   1.294  10.673 -0.2562  2.2698  0.2986
 1664SOL     OW16453   2.109   0.241   0.622 -0.1039 -0.0350 -0.2343
 1664SOL    HW116454   2.181   0.201   0.671 -2.7335 -4.3569  0.1007
 1664SOL    HW216455   2.148   0.322   0.590  0.7529  0.7299  2.6712
 1665SOL     OW16456   4.441   1.051   5.244 -0.2968  0.2171 -0.7638
 1665SOL    HW116457   4.415   0.961   5.260  0.8375  0.0397  0.0445
 1665SOL    HW216458   4.503   1.032   5.174  0.7991 -1.0747  0.5792
 1666SOL     OW16459   3.573   2.658   2.462 -0.0295  0.2760  0.2632
 1666SOL    HW116460   3.569   2.753   2.460 -0.3108  0.2880  1.1480
 1666SOL    HW216461   3.535   2.648   2.550 -0.3283  0.4930  0.1587
 1667SOL     OW16462   0.933   0.946  12.007  0.3529 -0.1298  0.2482
 1667SOL    HW116463   0.988   0.868  12.009  1.6488  0.7837  0.3801
 1667SOL    HW216464   0.847   0.906  12.021  0.7420  0.0787  3.1758
 1668SOL     OW16465   4.067   2.127   4.041 -0.6828 -0.5995 -0.0084
 1668SOL    HW116466   4.025   2.045   4.017  1.0412 -1.3345 -0.4886
 1668SOL    HW216467   4.117   2.099   4.117 -0.7950 -0.5869  0.0706
 1669SOL     OW16468   2.528   1.981   5.491  0.4327  0.0129 -0.3095
 1669SOL    HW116469   2.623   1.982   5.502  0.2801 -1.4078  1.1002
 1669SOL    HW216470   2.526   2.057   5.432  2.1866 -0.0871 -0.4986
 1670SOL     OW16471   2.138   4.713  16.965 -0.9343  0.4554  0.2982
 1670SOL    HW116472   2.076   4.699  16.893 -1.9020  1.1333  0.9974
 1670SOL    HW216473   2.117   0.078  16.990 -0.9203  0.2438  1.0732
 1671SOL     OW16474   4.069   2.307   6.515  0.2616  0.1640  0.4694
 1671SOL    HW116475   4.112   2.222   6.526 -0.4609 -0.0503  1.7061
 1671SOL    HW216476   4.144   2.365   6.526 -1.9098  2.9989  0.1632
 1672SOL     OW16477   3.322   2.799   6.179 -0.3372 -0.4968  0.2524
 1672SOL    HW116478   3.337   2.857   6.254 -0.2278 -1.7436  1.2054
 1672SOL    HW216479   3.318   2.719   6.232  0.6830  1.0942  2.7230
 1673SOL     OW16480   0.322   1.414   5.743  0.3776  0.8464 -0.1028
 1673SOL    HW116481   0.413   1.443   5.732  1.0099 -0.8232  0.7534
 1673SOL    HW216482   0.301   1.383   5.654 -1.5630  0.5442  0.4641
 1674SOL     OW16483   4.350   3.012   1.347  0.5369  0.7215 -0.0859
 1674SOL    HW116484   4.261   3.040   1.368 -0.1442 -1.0336 -0.5857
 1674SOL    HW216485   4.339   2.940   1.285  0.9307  0.0438  0.6153
 1675SOL     OW16486   2.546   3.369   6.064  0.2697 -0.3397 -0.0380
 1675SOL    HW116487   2.554   3.434   6.134 -1.5777  1.2997 -1.3542
 1675SOL    HW216488   2.584   3.411   5.986 -0.8311  0.8029  0.0415
 1676SOL     OW16489   3.529   3.739   4.840  0.4227 -0.3437 -0.6162
 1676SOL    HW116490   3.450   3.707   4.797 -0.1814  0.6058 -0.1960
 1676SOL    HW216491   3.600   3.730   4.776  0.2239 -0.6214 -0.7993
 1677SOL     OW16492   3.810   0.163   7.831 -0.4197 -0.1060  0.3358
 1677SOL    HW116493   3.746   0.233   7.820 -0.3109  0.2924  2.2248
 1677SOL    HW216494   3.767   0.117   7.903 -0.7601  1.3815  1.0717
 1678SOL     OW16495   0.723   2.655   5.203 -1.0488  0.1109  0.3942
 1678SOL    HW116496   0.677   2.668   5.286 -2.5151  0.3986 -0.4838
 1678SOL    HW216497   0.691   2.567   5.185  0.2214 -0.6285  1.7189
 1679SOL     OW16498   1.541   3.221  14.445 -0.2169  1.0640 -0.1356
 1679SOL    HW116499   1.468   3.165  14.472  0.1797  0.1124 -1.0625
 1679SOL    HW216500   1.516   3.307  14.479  0.0299  0.6776  1.0255
 1680SOL     OW16501   2.302   3.424   5.273  0.1380  0.1472  0.0511
 1680SOL    HW116502   2.215   3.465   5.267  0.8669  1.8095  0.9926
 1680SOL    HW216503   2.302   3.412   5.367  0.6540  0.4486  0.0895
 1681SOL     OW16504   3.546   3.317  14.530 -0.0865  0.0857  0.3681
 1681SOL    HW116505   3.469   3.334  14.475 -1.8118 -1.4817  2.2976
 1681SOL    HW216506   3.527   3.374  14.605 -2.4254  2.7004 -2.2072
 1682SOL     OW16507   2.481   1.618   2.483  0.3249  0.2966  0.0568
 1682SOL    HW116508   2.523   1.700   2.510 -0.0506  1.4975 -3.0657
 1682SOL    HW216509   2.529   1.593   2.404 -1.3558 -0.6345 -0.6753
 1683SOL     OW16510   3.423   2.917   7.572  0.1661 -0.4552  0.4333
 1683SOL    HW116511   3.368   2.969   7.513  0.1379  0.2415  1.0813
 1683SOL    HW216512   3.401   2.830   7.538 -0.5945 -0.6678  1.5037
 1684SOL     OW16513   2.424   1.049   1.535  0.3995 -0.2311 -0.4725
 1684SOL    HW116514   2.419   0.954   1.534 -1.3170 -0.1626  1.6793
 1684SOL    HW216515   2.415   1.067   1.442 -2.1665 -0.1125 -0.1769
 1685SOL     OW16516   1.823   0.315  13.079  0.1055 -0.1270 -0.3021
 1685SOL    HW116517   1.830   0.309  13.175  1.0786 -0.1661 -0.3724
 1685SOL    HW216518   1.906   0.353  13.051  0.1174 -0.6005 -0.8937
 1686SOL     OW16519   1.125   2.041  16.353 -0.1080 -0.0337 -0.7220
 1686SOL    HW116520   1.104   2.025  16.445  1.0026 -0.4472 -0.5426
 1686SOL    HW216521   1.101   2.133  16.342 -1.7109 -0.1144  2.0774
 1687SOL     OW16522   3.340   2.351   3.441  0.0382 -0.4684 -0.4009
 1687SOL    HW116523   3.354   2.431   3.390  2.0646  0.3153  1.3636
 1687SOL    HW216524   3.379   2.385   3.522 -1.5977 -0.3531  0.3417
 1688SOL     OW16525   3.111   3.956   0.526 -0.0556  0.0640  0.0448
 1688SOL    HW116526   3.052   4.026   0.555  0.9797  1.3305 -0.9004
 1688SOL    HW216527   3.049   3.907   0.471 -0.2519  0.4330 -0.0628
 1689SOL     OW16528   1.593   2.685   3.449  0.4347  0.1777 -0.3965
 1689SOL    HW116529   1.573   2.711   3.539  1.6313 -2.6318  0.6846
 1689SOL    HW216530   1.643   2.605   3.468 -2.5845 -1.3162  1.2838
 1690SOL     OW16531   0.862   3.054   6.871 -0.1737  0.2503  0.3769
 1690SOL    HW116532   0.858   3.138   6.917 -0.3222 -0.8590  2.3873
 1690SOL    HW216533   0.902   2.998   6.937  0.3774 -0.0710 -0.2197
 1691SOL     OW16534   0.221   1.868  16.221  0.0302 -0.0636 -0.4202
 1691SOL    HW116535   0.126   1.872  16.208  0.2661  4.2175 -0.7444
 1691SOL    HW216536   0.232   1.897  16.311  0.0782  1.4974 -0.9333
 1692SOL     OW16537   0.181   1.789   3.809 -0.2854  0.4914 -0.1870
 1692SOL    HW116538   0.200   1.695   3.817 -0.9190  0.3450 -0.4448
 1692SOL    HW216539   0.204   1.823   3.895 -0.4696  0.2585 -0.0464
 1693SOL     OW16540   0.928   3.920   7.542  0.0396  0.9183  0.1846
 1693SOL    HW116541   0.891   4.007   7.558 -1.7746  0.4065 -1.2262
 1693SOL    HW216542   1.023   3.931   7.544  0.2548 -0.1831 -3.4276
 1694SOL     OW16543   1.421   4.526   4.867  0.5532 -0.1112 -0.0977
 1694SOL    HW116544   1.387   4.440   4.894 -3.5521  0.3080 -3.8364
 1694SOL    HW216545   1.491   4.523   4.931  0.7236  2.6474 -0.1482
 1695SOL     OW16546   1.499   3.927   5.001 -0.0110 -0.2128  0.3918
 1695SOL    HW116547   1.496   3.950   4.908 -1.3531  1.5826  0.8799
 1695SOL    HW216548   1.410   3.934   5.037 -0.5916  0.2349 -1.1243
 1696SOL     OW16549   1.842   4.103   9.863 -0.2723 -0.6713 -0.0594
 1696SOL    HW116550   1.800   4.085   9.947 -1.3150 -0.7229 -0.5973
 1696SOL    HW216551   1.768   4.128   9.807  0.5123  2.3692  0.2682
 1697SOL     OW16552   4.127   3.019  11.999  0.1773 -0.2001 -0.7543
 1697SOL    HW116553   4.107   3.073  11.923 -0.5256 -0.4159 -0.7223
 1697SOL    HW216554   4.168   3.090  12.049 -0.3112 -2.0664  2.3348
 1698SOL     OW16555   2.461   1.016   8.346  0.5703 -0.1447 -0.9441
 1698SOL    HW116556   2.399   0.994   8.416  0.6950 -1.6188 -1.2930
 1698SOL    HW216557   2.493   0.931   8.315  0.8441  0.2335 -1.6909
 1699SOL     OW16558   2.547   0.425   8.252 -0.1340  0.3359  0.2265
 1699SOL    HW116559   2.595   0.429   8.335  0.7708 -0.5842 -0.2504
 1699SOL    HW216560   2.590   0.494   8.201  0.2490 -1.3166 -1.7205
 1700SOL     OW16561   1.663   4.613   1.413 -0.0631 -0.2860 -0.3093
 1700SOL    HW116562   1.583   4.665   1.412  1.2699  1.7862  1.8193
 1700SOL    HW216563   1.634   4.527   1.443 -1.0122 -0.0687 -0.6200
 1701SOL     OW16564   4.052   1.354   6.192  0.2245  0.2859  0.5314
 1701SOL    HW116565   4.045   1.325   6.283  1.2632  1.8030  1.0959
 1701SOL    HW216566   4.144   1.333   6.175 -0.0799 -1.3204  0.9350
 1702SOL     OW16567   2.585   2.187   0.350 -0.2593 -0.0896 -0.3274
 1702SOL    HW116568   2.666   2.233   0.328  1.0652 -2.5478 -0.5725
 1702SOL    HW216569   2.527   2.206   0.277  0.3774 -1.9479 -1.3093
 1703SOL     OW16570   0.631   1.203   9.037  0.4571  0.1554  0.5078
 1703SOL    HW116571   0.593   1.264   8.975  1.4756  0.0190 -0.2478
 1703SOL    HW216572   0.628   1.258   9.115  0.8046  0.3673  0.3718
 1704SOL     OW16573   2.606   1.803   3.861 -0.3712  0.3910 -0.3896
 1704SOL    HW116574   2.558   1.882   3.838 -1.5948 -1.1335 -3.1199
 1704SOL    HW216575   2.656   1.799   3.779 -1.6977  0.0565 -1.1958
 1705SOL     OW16576   4.446   4.606   8.960 -0.0400 -0.2497  0.2639
 1705SOL    HW116577   4.392   4.665   8.907  0.5490 -0.9123 -1.0656
 1705SOL    HW216578   4.379   4.548   8.998  1.3005 -0.8935  1.6560
 1706SOL     OW16579   0.293   1.695   5.842 -0.1085  0.1311  0.3029
 1706SOL    HW116580   0.203   1.677   5.868 -0.8084 -0.4827 -2.5622
 1706SOL    HW216581   0.324   1.610   5.810  2.4389  0.0206  2.9952
 1707SOL     OW16582   3.488   2.017   6.089 -0.5749  0.0527  0.3561
 1707SOL    HW116583   3.463   2.083   6.153  0.3045 -0.9088  1.6774
 1707SOL    HW216584   3.533   1.954   6.145  0.8920 -0.0741 -0.9645
 1708SOL     OW16585   2.938   2.928   2.105 -0.1078 -0.3430 -0.1956
 1708SOL    HW116586   2.864   2.956   2.050 -0.1306 -0.2779 -0.1319
 1708SOL    HW216587   2.993   2.912   2.029 -0.5570  4.1520 -1.5015
 1709SOL     OW16588   0.958   3.266   7.503 -0.8699 -0.6139 -0.9533
 1709SOL    HW116589   0.896   3.193   7.510  0.6326 -1.8178 -0.0786
 1709SOL    HW216590   0.905   3.322   7.447 -2.3606  1.2320  2.3203
 1710SOL     OW16591   3.624   0.019  12.318  0.0391  0.4272 -0.1063
 1710SOL    HW116592   3.588   4.677  12.260 -0.2891  1.3527 -0.9742
 1710SOL    HW216593   3.713   4.711  12.315 -0.1836 -0.1286 -0.5276
 1711SOL     OW16594   3.393   1.134  13.508 -0.5350 -0.1323  0.2592
 1711SOL    HW116595   3.323   1.098  13.561  0.2976 -0.1970  1.3106
 1711SOL    HW216596   3.388   1.084  13.427  1.0011  1.7123 -0.9877
 1712SOL     OW16597   1.960   4.527   1.998  0.1072 -0.4356 -0.2662
 1712SOL    HW116598   1.945   4.557   1.909  0.3035 -1.8641 -0.7721
 1712SOL    HW216599   1.952   4.606   2.052 -1.9711 -0.9163  0.1183
 1713SOL     OW16600   2.276   2.357   3.034  0.0406  0.7678 -0.0208
 1713SOL    HW116601   2.268   2.426   2.967  1.7939  1.8397  0.8653
 1713SOL    HW216602   2.367   2.332   3.022  0.4578  0.3035  3.9686
 1714SOL     OW16603   4.304   0.945   7.562  0.3846  0.1005 -0.0341
 1714SOL    HW116604   4.294   0.862   7.607 -0.8583 -0.2226 -0.8838
 1714SOL    HW216605   4.227   0.947   7.504  0.3939 -1.0479 -0.0794
 1715SOL     OW16606   1.207   1.991   5.308 -0.5900  0.1279  0.7647
 1715SOL    HW116607   1.153   2.011   5.384 -1.8487 -0.0187 -0.0815
 1715SOL    HW216608   1.209   1.895   5.311  2.0603  0.1971  1.1142
 1716SOL     OW16609   1.278   3.917   7.640  0.0489  0.7042  0.1219
 1716SOL    HW116610   1.344   3.879   7.582  1.5170  2.5500  0.5929
 1716SOL    HW216611   1.233   3.845   7.684 -0.1083 -0.6639 -2.2576
 1717SOL     OW16612   3.128   0.535   8.110 -0.5654 -0.9020 -0.1574
 1717SOL    HW116613   3.088   0.461   8.064  1.3109 -2.6008  0.9257
 1717SOL    HW216614   3.201   0.494   8.157 -1.2182 -0.7162  1.0088
 1718SOL     OW16615   3.589   0.904   8.114 -0.0426 -0.5646  0.0233
 1718SOL    HW116616   3.598   0.837   8.046  0.9465  0.5575 -0.9370
 1718SOL    HW216617   3.673   0.950   8.112 -1.1423  1.4838  1.9482
 1719SOL     OW16618   2.269   4.447   6.355 -0.4905  0.2131 -0.0519
 1719SOL    HW116619   2.227   4.496   6.426 -0.5198  2.5292 -1.6979
 1719SOL    HW216620   2.211   4.371   6.344 -1.7023  0.9635  1.0995
 1720SOL     OW16621   0.434   2.792   1.814  0.1813 -0.3842  0.0890
 1720SOL    HW116622   0.426   2.757   1.903  2.7003  1.2089  0.9231
 1720SOL    HW216623   0.447   2.713   1.761 -2.2567  0.7107 -2.1394
 1721SOL     OW16624   3.770   1.651   4.289  0.7320  0.1674 -0.3591
 1721SOL    HW116625   3.810   1.698   4.215 -0.9565 -1.1867 -2.1348
 1721SOL    HW216626   3.825   1.682   4.361  0.1483 -2.1286  1.0716
 1722SOL     OW16627   4.256   4.271   3.727  0.4413  0.3228  0.3904
 1722SOL    HW116628   4.188   4.268   3.795  0.3548  1.4101  0.3481
 1722SOL    HW216629   4.305   4.350   3.748 -1.6438  1.8642 -0.5688
 1723SOL     OW16630   1.241   2.596  13.204  0.3477 -0.0412 -0.5443
 1723SOL    HW116631   1.189   2.636  13.274 -0.3636 -1.0257 -0.5070
 1723SOL    HW216632   1.198   2.635  13.128  0.8701  1.0074 -0.3082
 1724SOL     OW16633   3.345   3.115   6.093  0.4659 -0.3448 -0.2109
 1724SOL    HW116634   3.433   3.127   6.129 -0.5405  0.9160  1.8625
 1724SOL    HW216635   3.364   3.030   6.053  1.0785 -0.1435 -0.3585
 1725SOL     OW16636   0.611   4.430   8.986 -0.1415 -0.5471  0.5301
 1725SOL    HW116637   0.566   4.479   9.055 -0.0434 -0.8110  0.7815
 1725SOL    HW216638   0.703   4.453   8.995 -0.3758  0.2610  0.9102
 1726SOL     OW16639   2.770   1.130   4.318 -0.1331 -0.8699 -0.6227
 1726SOL    HW116640   2.758   1.054   4.261 -0.1207 -0.0785 -1.6985
 1726SOL    HW216641   2.808   1.086   4.393  1.3350  0.9646 -0.2979
 1727SOL     OW16642   1.138   1.880  15.869  0.1532 -0.1074  0.9529
 1727SOL    HW116643   1.070   1.840  15.814  2.3586  0.4047 -2.1586
 1727SOL    HW216644   1.098   1.960  15.902  0.4452  0.9916 -1.4123
 1728SOL     OW16645   1.712   4.417  11.331  0.2071 -0.0748  0.4762
 1728SOL    HW116646   1.751   4.332  11.311 -0.3560 -0.9762  3.2422
 1728SOL    HW216647   1.648   4.423  11.260  2.2416  0.2847 -1.3479
 1729SOL     OW16648   1.819   4.694   3.481  0.0527  0.5477  0.5170
 1729SOL    HW116649   1.766   4.653   3.550 -0.7294 -1.1377 -1.0836
 1729SOL    HW216650   1.776   4.650   3.407 -0.1670 -1.0713  1.6001
 1730SOL     OW16651   0.916   3.064   7.744 -0.0993 -0.2895 -0.4910
 1730SOL    HW116652   0.847   3.095   7.686 -1.0779 -0.2793  0.6724
 1730SOL    HW216653   0.867   3.010   7.806 -2.6134  1.0991 -1.3075
 1731SOL     OW16654   4.002   0.855   0.925 -0.3958  0.2274 -0.1895
 1731SOL    HW116655   3.938   0.783   0.926 -0.0825 -0.0334  1.4246
 1731SOL    HW216656   4.083   0.805   0.920 -1.1024 -1.1663  2.2433
 1732SOL     OW16657   3.393   3.885   3.563 -0.0730 -0.4984 -0.0988
 1732SOL    HW116658   3.425   3.944   3.632 -1.3725  0.8235 -0.6377
 1732SOL    HW216659   3.457   3.815   3.576  0.9496 -0.0048 -2.4851
 1733SOL     OW16660   4.724   1.240   5.869 -0.1600  0.6644 -0.5064
 1733SOL    HW116661   4.685   1.169   5.817  0.3115  0.2939 -0.3497
 1733SOL    HW216662   4.710   1.315   5.810 -1.4149 -0.6794 -1.9382
 1734SOL     OW16663   1.627   2.677   7.117 -0.1611  0.3243 -0.0676
 1734SOL    HW116664   1.562   2.653   7.050 -1.0593  0.9980  0.5611
 1734SOL    HW216665   1.688   2.727   7.063  0.1648  0.3162  0.2921
 1735SOL     OW16666   1.362   2.755   7.924 -0.1295  0.5299 -0.1569
 1735SOL    HW116667   1.354   2.836   7.875  2.1422 -0.0920 -1.5523
 1735SOL    HW216668   1.279   2.712   7.903 -0.4619  0.9991  0.2127
 1736SOL     OW16669   2.997   1.571   8.818  0.1360 -0.0976  0.2475
 1736SOL    HW116670   3.074   1.627   8.830  1.1228 -1.8443  2.0666
 1736SOL    HW216671   2.936   1.640   8.790 -1.4816 -0.0169  4.0661
 1737SOL     OW16672   2.201   0.435   7.465  0.3876 -0.2321  0.0064
 1737SOL    HW116673   2.260   0.483   7.524  0.0900  2.5361 -1.9663
 1737SOL    HW216674   2.228   0.348   7.493  0.9902  0.6622  2.2706
 1738SOL     OW16675   0.312   1.751   4.699 -0.2550 -0.4827  0.0903
 1738SOL    HW116676   0.348   1.758   4.610 -1.3476 -0.8801 -0.3972
 1738SOL    HW216677   0.339   1.662   4.723  3.2407  0.7004  0.4930
 1739SOL     OW16678   0.470   2.629   4.865  0.3111 -0.0863 -0.0155
 1739SOL    HW116679   0.502   2.710   4.825 -0.6723  0.6294  0.6545
 1739SOL    HW216680   0.378   2.631   4.840  0.4162 -1.6348 -0.4859
 1740SOL     OW16681   0.666   0.796   0.533  0.2945  0.1029  0.0297
 1740SOL    HW116682   0.635   0.876   0.574 -0.1731  0.1919 -0.5045
 1740SOL    HW216683   0.593   0.776   0.475 -0.9485  3.2624  0.5294
 1741SOL     OW16684   2.468   2.113   5.245  0.0528 -0.3572 -0.0123
 1741SOL    HW116685   2.533   2.057   5.204 -1.5927 -1.5064 -1.0394
 1741SOL    HW216686   2.398   2.095   5.181 -0.3346 -0.5877  0.4752
 1742SOL     OW16687   3.466   4.466  12.461 -0.1019 -0.0316 -0.0286
 1742SOL    HW116688   3.445   4.402  12.529  1.8216 -0.3951  0.2391
 1742SOL    HW216689   3.507   4.404  12.401 -0.6183 -0.8120  0.4274
 1743SOL     OW16690   3.452   3.848  16.142  0.0931  0.1024  0.2835
 1743SOL    HW116691   3.450   3.810  16.230 -1.3186 -1.7388 -0.5405
 1743SOL    HW216692   3.466   3.941  16.161 -0.6032  0.3007 -0.1810
 1744SOL     OW16693   3.290   1.765   5.504  0.1314  0.0582 -0.0125
 1744SOL    HW116694   3.262   1.801   5.588 -1.8218 -1.5316  0.0093
 1744SOL    HW216695   3.340   1.840   5.471 -1.0693  0.9241  0.1350
 1745SOL     OW16696   3.219   4.261   5.970 -0.2955  0.3519 -0.0401
 1745SOL    HW116697   3.264   4.322   5.911  0.6656  1.8398  2.2534
 1745SOL    HW216698   3.216   4.317   6.047  1.4112 -0.3065  0.4978
 1746SOL     OW16699   3.276   0.910  14.373  0.5762  0.3507 -0.0136
 1746SOL    HW116700   3.357   0.959  14.356  0.3794  1.0063  0.9320
 1746SOL    HW216701   3.314   0.832  14.413  1.2482 -0.1421 -1.6060
 1747SOL     OW16702   0.351   1.592   8.872  1.1683  0.0143 -0.1609
 1747SOL    HW116703   0.410   1.642   8.816  1.6511  1.3003  1.4967
 1747SOL    HW216704   0.313   1.659   8.929  1.7229 -2.6771  3.3956
 1748SOL     OW16705   1.359   0.166   5.780 -0.0789  0.1523 -0.1401
 1748SOL    HW116706   1.326   0.176   5.870 -0.2746  1.1526 -0.3213
 1748SOL    HW216707   1.397   0.252   5.765  1.3932  0.1488  3.6239
 1749SOL     OW16708   4.547   0.895   8.489 -0.2522  0.0806 -0.2992
 1749SOL    HW116709   4.625   0.859   8.447  0.3141  0.7316  0.1895
 1749SOL    HW216710   4.543   0.986   8.459 -0.3756 -0.4273 -1.8445
 1750SOL     OW16711   2.722   3.359   9.103 -0.5478  0.3169  0.4487
 1750SOL    HW116712   2.786   3.407   9.156 -1.8667  0.3314  2.0524
 1750SOL    HW216713   2.709   3.432   9.043  1.4473  0.9072  0.7410
 1751SOL     OW16714   2.747   3.655   7.598 -0.1391  0.6345 -0.0985
 1751SOL    HW116715   2.837   3.666   7.627 -0.0539  2.9851 -1.2328
 1751SOL    HW216716   2.721   3.582   7.654  1.1299 -1.2398 -1.9917
 1752SOL     OW16717   3.342   1.933   8.300  0.0874  0.1186 -0.2301
 1752SOL    HW116718   3.409   1.881   8.255 -0.5919  1.2692 -2.5626
 1752SOL    HW216719   3.356   1.895   8.387 -1.3327  1.3652  0.5382
 1753SOL     OW16720   1.805   1.603  11.181  0.0308 -0.5647  0.1189
 1753SOL    HW116721   1.804   1.549  11.260 -1.6839  0.4229  0.7577
 1753SOL    HW216722   1.752   1.543  11.128  1.2181 -0.7147 -0.8974
 1754SOL     OW16723   2.902   3.063   5.657 -0.6478  0.3383  0.0294
 1754SOL    HW116724   2.926   3.156   5.652  2.2449 -0.3932  0.5526
 1754SOL    HW216725   2.918   3.055   5.751 -1.9076  0.9144  0.2957
 1755SOL     OW16726   2.193   2.133  10.632  0.2317 -0.1275  0.0890
 1755SOL    HW116727   2.106   2.120  10.670  0.4668  2.2888  1.4414
 1755SOL    HW216728   2.242   2.067  10.681 -1.6612 -0.6208  1.3517
 1756SOL     OW16729   3.872   2.958   4.530 -0.4030 -0.0482 -0.2821
 1756SOL    HW116730   3.946   2.923   4.580 -0.1329 -0.7601 -1.1813
 1756SOL    HW216731   3.893   2.931   4.440  0.4424 -0.3096 -0.0038
 1757SOL     OW16732   1.351   2.004  13.617 -0.3052  0.1828 -0.2472
 1757SOL    HW116733   1.312   1.930  13.570  0.8649 -0.0053 -0.9372
 1757SOL    HW216734   1.431   1.996  13.564  0.1059 -1.3900  0.5949
 1758SOL     OW16735   2.219   4.529   7.804 -0.0752  0.0041  0.0043
 1758SOL    HW116736   2.282   4.462   7.829 -0.0648 -0.1278 -0.3741
 1758SOL    HW216737   2.207   4.577   7.887 -2.3129 -0.4327 -0.0813
 1759SOL     OW16738   2.491   0.421   6.738 -0.0664  0.5559 -0.0466
 1759SOL    HW116739   2.535   0.505   6.729 -0.0038  0.6920  1.5942
 1759SOL    HW216740   2.551   0.376   6.797 -2.2330 -0.4765  1.3808
 1760SOL     OW16741   0.077   2.701   2.060  0.2263 -0.0636  1.2891
 1760SOL    HW116742   0.013   2.763   2.096  0.3470  0.9277 -0.1929
 1760SOL    HW216743   0.137   2.696   2.134  3.1108  2.6539 -0.8623
 1761SOL     OW16744   4.059   1.062   1.993 -0.1109 -0.1103  0.1077
 1761SOL    HW116745   4.065   1.157   1.986  2.2007 -0.4057 -1.7152
 1761SOL    HW216746   4.036   1.031   1.905  0.9939 -0.8272  0.0804
 1762SOL     OW16747   3.407   0.992   9.877 -0.0905  0.0696  0.4438
 1762SOL    HW116748   3.369   0.927   9.819 -2.6077  0.1605  1.9808
 1762SOL    HW216749   3.323   1.033   9.898 -0.8305 -1.5926  0.6887
 1763SOL     OW16750   1.956   2.540   8.744  0.3887  0.1236 -0.5185
 1763SOL    HW116751   1.960   2.497   8.829 -0.3910  1.7572  0.3415
 1763SOL    HW216752   1.985   2.629   8.764  2.3692 -0.9534  1.3476
 1764SOL     OW16753   3.046   3.905   7.879 -0.1142  0.0569 -0.2561
 1764SOL    HW116754   3.125   3.852   7.888  0.4119  1.1109  1.2357
 1764SOL    HW216755   3.065   3.938   7.791 -1.1025  0.4560 -0.3175
 1765SOL     OW16756   0.026   2.192   5.110  0.6051  0.0213  0.4535
 1765SOL    HW116757   0.092   2.192   5.179 -0.5706  2.0903  1.5753
 1765SOL    HW216758   4.675   2.167   5.163  0.2127  3.0055  1.2854
 1766SOL     OW16759   0.230   2.559   0.573 -0.3168 -0.4524 -0.2846
 1766SOL    HW116760   0.222   2.555   0.668 -3.8872 -1.9304 -0.6476
 1766SOL    HW216761   0.213   2.465   0.564 -0.6198 -0.6463  2.3514
 1767SOL     OW16762   4.430   0.036  15.480 -0.4429 -0.1282 -0.1032
 1767SOL    HW116763   4.445   4.708  15.402 -2.3351 -0.1805 -0.4195
 1767SOL    HW216764   4.352   0.088  15.460 -1.0575 -0.1783  2.2388
 1768SOL     OW16765   1.069   3.528   7.082 -0.6557 -0.5319 -0.0756
 1768SOL    HW116766   1.105   3.558   7.166  0.0051  0.9327 -0.8839
 1768SOL    HW216767   1.138   3.464   7.066 -0.7062 -0.4404 -0.6497
 1769SOL     OW16768   0.426   0.833   3.707 -0.5212 -0.2147 -0.4055
 1769SOL    HW116769   0.345   0.863   3.748 -0.9236 -2.7101  0.6112
 1769SOL    HW216770   0.490   0.854   3.775  0.6965 -0.3608 -1.5064
 1770SOL     OW16771   3.190   1.024   5.673 -0.1108  0.4246 -0.1795
 1770SOL    HW116772   3.205   1.025   5.767 -2.4506  1.0160  0.1778
 1770SOL    HW216773   3.113   1.080   5.660 -0.9855  0.1374  3.9339
 1771SOL     OW16774   1.929   0.504  12.863 -0.0596  0.1807  0.2755
 1771SOL    HW116775   1.943   0.581  12.917 -4.0593  0.0411  1.5557
 1771SOL    HW216776   2.009   0.454  12.874 -0.0076  0.8272  2.7256
 1772SOL     OW16777   0.040   3.487   5.702 -0.2314 -0.0929  0.3112
 1772SOL    HW116778   4.717   3.548   5.757  1.4146  0.7455  0.8067
 1772SOL    HW216779   4.686   3.441   5.673 -2.8358  3.7537  1.3790
 1773SOL     OW16780   2.144   4.320   0.912 -0.0518  0.0952  0.5478
 1773SOL    HW116781   2.136   4.385   0.842  1.9808  1.4815  1.6293
 1773SOL    HW216782   2.052   4.301   0.930 -0.2232  0.3776 -0.0263
 1774SOL     OW16783   1.521   3.133   1.146  0.1264  0.5105  0.2271
 1774SOL    HW116784   1.442   3.110   1.195 -0.1255  0.0093 -0.4073
 1774SOL    HW216785   1.574   3.066   1.190  2.1687  2.4215  0.6474
 1775SOL     OW16786   4.372   2.184   0.150 -0.2349  0.4449 -0.0083
 1775SOL    HW116787   4.350   2.096   0.182  1.5458  1.0249  2.7743
 1775SOL    HW216788   4.298   2.242   0.171 -0.5015 -0.6075  1.9664
 1776SOL     OW16789   4.566   3.570   2.354  0.0586 -0.1169 -0.3685
 1776SOL    HW116790   4.554   3.527   2.269 -0.9462 -0.6505  0.0386
 1776SOL    HW216791   4.476   3.585   2.385  0.5242  1.3662  0.2499
 1777SOL     OW16792   0.342   0.633   7.005 -0.6041 -0.6638 -0.3566
 1777SOL    HW116793   0.324   0.541   7.024 -0.8441 -0.4063  0.6642
 1777SOL    HW216794   0.391   0.625   6.923 -2.9628  1.0275 -1.9224
 1778SOL     OW16795   2.590   0.642   8.084  0.2875  0.0462  0.7568
 1778SOL    HW116796   2.666   0.635   8.026 -0.0081  1.6538  0.1773
 1778SOL    HW216797   2.616   0.732   8.102 -3.8528  1.0220  1.8608
 1779SOL     OW16798   2.365   0.835   7.053  0.0635  0.1656  0.1184
 1779SOL    HW116799   2.356   0.802   6.964  1.3108  0.1889 -0.0246
 1779SOL    HW216800   2.386   0.927   7.040 -0.9618  0.6052  1.5187
 1780SOL     OW16801   1.122   2.059   9.506  0.1647 -0.0145 -0.3314
 1780SOL    HW116802   1.077   2.143   9.498 -0.8612 -0.6623 -1.4038
 1780SOL    HW216803   1.166   2.071   9.590 -1.3228 -2.8441  0.8614
 1781SOL     OW16804   0.127   0.349   5.130 -0.2010  0.7708 -0.4461
 1781SOL    HW116805   0.069   0.281   5.095  2.3146 -2.0997  0.9415
 1781SOL    HW216806   0.203   0.342   5.072 -0.5473 -0.6219 -0.7444
 1782SOL     OW16807   2.410   0.156   0.961 -0.1119  0.1096 -0.2705
 1782SOL    HW116808   2.404   0.066   0.992  0.7604  0.1549  0.0149
 1782SOL    HW216809   2.365   0.205   1.030  2.2756  0.6457  0.9086
 1783SOL     OW16810   4.162   3.621   8.718 -0.4169 -0.5679 -0.3480
 1783SOL    HW116811   4.226   3.584   8.779  0.9435  2.2246 -0.1027
 1783SOL    HW216812   4.130   3.697   8.766  0.5706 -0.4819  0.1759
 1784SOL     OW16813   0.069   2.901   8.039 -0.1386 -0.2802 -0.6048
 1784SOL    HW116814   0.135   2.881   8.106  0.0888  1.7372 -0.2164
 1784SOL    HW216815   0.010   2.826   8.051  1.1335 -1.2958 -0.6579
 1785SOL     OW16816   0.181   0.491   7.450  0.3367 -0.3523  0.2502
 1785SOL    HW116817   0.131   0.435   7.391  1.9552  0.4422 -1.9033
 1785SOL    HW216818   0.215   0.553   7.386  0.7441 -0.3789  0.4349
 1786SOL     OW16819   0.913   4.698   1.906  0.2617 -0.6178 -0.6536
 1786SOL    HW116820   0.998   0.001   1.938  0.4275 -0.9000 -0.8470
 1786SOL    HW216821   0.910   0.007   1.817  1.4230 -0.9510 -0.8174
 1787SOL     OW16822   3.865   4.491   5.935 -0.0974 -0.7447 -0.7383
 1787SOL    HW116823   3.803   4.513   6.004 -1.0934  0.2721 -1.9538
 1787SOL    HW216824   3.809   4.419   5.905 -4.0379  0.4499  3.8247
 1788SOL     OW16825   4.609   2.543   2.515 -0.6766  0.5216  0.3339
 1788SOL    HW116826   4.700   2.532   2.487 -1.0698  0.7215 -1.0207
 1788SOL    HW216827   4.569   2.464   2.477 -1.2204  1.3218 -0.7718
 1789SOL     OW16828   2.531   1.729   8.457 -0.1491 -0.3946 -0.0346
 1789SOL    HW116829   2.527   1.656   8.396  0.2574 -1.0359  0.7245
 1789SOL    HW216830   2.438   1.729   8.482 -0.2456  0.8348 -0.3593
 1790SOL     OW16831   4.166   1.761  17.387  0.7790  0.1805 -0.1182
 1790SOL    HW116832   4.155   1.666  17.399 -2.0284  0.8784  2.7801
 1790SOL    HW216833   4.079   1.788  17.418  0.0347 -2.2000 -0.0757
 1791SOL     OW16834   3.856   2.770   6.945 -0.2430  0.5963 -0.3021
 1791SOL    HW116835   3.913   2.821   7.003 -0.1254  0.7738 -0.5757
 1791SOL    HW216836   3.815   2.723   7.018  1.0340  0.7683  0.5228
 1792SOL     OW16837   4.440   2.223   9.182 -0.2910 -0.2089 -0.5826
 1792SOL    HW116838   4.529   2.236   9.215 -0.0230  0.4000 -1.5228
 1792SOL    HW216839   4.400   2.179   9.257  1.8235  1.2030  1.3675
 1793SOL     OW16840   3.567   4.024   8.364 -0.1560  0.0252  0.2906
 1793SOL    HW116841   3.526   3.986   8.442 -0.0987 -0.0874  0.2664
 1793SOL    HW216842   3.554   4.117   8.377 -1.3917 -0.2503  0.9746
 1794SOL     OW16843   3.268   4.663  12.903  0.3274 -0.1331 -0.3694
 1794SOL    HW116844   3.273   4.597  12.834 -1.1017 -1.0901  0.4220
 1794SOL    HW216845   3.299   0.017  12.860  3.5876  0.4071  2.9550
 1795SOL     OW16846   1.581   0.424  14.884  0.2532  0.2573 -0.6631
 1795SOL    HW116847   1.522   0.348  14.893  1.3754 -0.1422  3.1796
 1795SOL    HW216848   1.600   0.418  14.790  2.5915  1.1182 -0.2380
 1796SOL     OW16849   0.998   1.354   3.936 -0.1348  0.6198 -0.2721
 1796SOL    HW116850   1.042   1.361   4.021  0.6618 -1.6245 -0.4833
 1796SOL    HW216851   1.040   1.275   3.901 -0.5283  0.5658 -0.6271
 1797SOL     OW16852   2.089   3.056   7.200  0.1074 -0.0443 -0.2459
 1797SOL    HW116853   2.164   3.040   7.258  0.2415  0.7838 -0.1836
 1797SOL    HW216854   2.029   3.102   7.259 -0.8453  1.5674 -2.4294
 1798SOL     OW16855   2.205   0.133  14.045  0.0068 -0.0938 -0.1971
 1798SOL    HW116856   2.247   0.140  13.959 -1.5462  0.4136 -0.9172
 1798SOL    HW216857   2.125   0.084  14.028  0.8888 -0.5099 -3.1178
 1799SOL     OW16858   2.595   3.922   5.736 -0.7264  0.2120  0.0815
 1799SOL    HW116859   2.599   3.922   5.640 -0.9417  1.0281  0.0693
 1799SOL    HW216860   2.591   3.829   5.757 -1.5532 -0.0577 -1.2566
 1800SOL     OW16861   3.670   2.653  14.590 -0.3332  0.0297 -0.3925
 1800SOL    HW116862   3.602   2.625  14.528 -0.0985 -1.3976 -0.0040
 1800SOL    HW216863   3.701   2.728  14.539 -2.9759  0.5809 -1.1976
 1801SOL     OW16864   0.577   3.531   8.772 -0.5609  0.5545  0.2312
 1801SOL    HW116865   0.579   3.624   8.751  0.6433  0.5008  0.1398
 1801SOL    HW216866   0.652   3.494   8.725 -0.0270 -0.6454  1.9974
 1802SOL     OW16867   4.597   2.426   2.813  0.9371 -0.0550 -0.0442
 1802SOL    HW116868   4.623   2.470   2.732 -1.5137  0.9485 -0.2899
 1802SOL    HW216869   4.507   2.456   2.829  0.3252 -1.6201 -0.6104
 1803SOL     OW16870   2.713   0.475   8.456 -1.0864  0.1678  0.0979
 1803SOL    HW116871   2.763   0.398   8.430 -1.4132 -0.2280  0.6368
 1803SOL    HW216872   2.757   0.499   8.538  0.8150  1.6090 -1.3313
 1804SOL     OW16873   2.630   2.285  12.003 -0.1908  0.2710 -0.5784
 1804SOL    HW116874   2.650   2.259  11.913  0.7821 -1.9956  0.2952
 1804SOL    HW216875   2.689   2.226  12.050 -0.0481  0.4113 -0.5816
 1805SOL     OW16876   0.023   2.212   4.378 -1.3119  0.8626  0.2991
 1805SOL    HW116877   0.109   2.219   4.336 -0.9382 -0.0502  0.9034
 1805SOL    HW216878   0.051   2.175   4.462  0.7694  0.3170 -0.6388
 1806SOL     OW16879   0.485   1.482   7.482 -0.4596 -0.3252 -0.3856
 1806SOL    HW116880   0.463   1.565   7.440  1.2308  0.0596 -0.4978
 1806SOL    HW216881   0.469   1.494   7.575  0.3877 -1.2427 -0.1194
 1807SOL     OW16882   3.018   2.511   1.612  0.0393  0.1108 -0.2262
 1807SOL    HW116883   3.107   2.537   1.588 -1.0490  2.2230 -1.9503
 1807SOL    HW216884   2.992   2.477   1.527 -0.9251 -0.5504  0.3317
 1808SOL     OW16885   0.136   2.448   3.848 -0.1519 -0.0492  0.3932
 1808SOL    HW116886   0.189   2.525   3.828 -3.3728  2.1814  0.5139
 1808SOL    HW216887   0.117   2.416   3.760  0.0134  1.9643 -0.3793
 1809SOL     OW16888   0.738   2.215   3.248  0.0954  0.1339 -0.5906
 1809SOL    HW116889   0.769   2.305   3.263  3.0870 -0.7930 -1.1962
 1809SOL    HW216890   0.815   2.173   3.209 -0.0008 -1.0731  0.5444
 1810SOL     OW16891   4.187   0.126  15.373  0.3324  0.5063  0.3031
 1810SOL    HW116892   4.142   0.098  15.293 -1.4769  1.4042  0.9911
 1810SOL    HW216893   4.167   0.219  15.371  1.4870  0.7633  0.9338
 1811SOL     OW16894   0.974   0.848   0.858  0.4488 -0.2766 -0.0935
 1811SOL    HW116895   1.043   0.887   0.913  2.1054 -1.7700 -1.1217
 1811SOL    HW216896   0.990   0.889   0.773 -1.2339  1.6506  0.5246
 1812SOL     OW16897   3.345   2.603   4.079  1.0190 -0.1116  0.0204
 1812SOL    HW116898   3.294   2.684   4.075  1.2354  0.0127 -0.2538
 1812SOL    HW216899   3.435   2.635   4.071  0.8339  0.2562 -0.5684
 1813SOL     OW16900   0.582   1.160   2.698 -0.5960  0.2172 -0.9829
 1813SOL    HW116901   0.544   1.210   2.770  2.5657 -0.2905  1.0521
 1813SOL    HW216902   0.639   1.231   2.667  1.3887 -0.1484  1.8374
 1814SOL     OW16903   1.854   3.464   7.398  0.1877 -0.2774 -0.0934
 1814SOL    HW116904   1.811   3.477   7.482 -0.3060 -1.1786 -0.2116
 1814SOL    HW216905   1.903   3.546   7.392 -0.1411 -0.1879 -1.7889
 1815SOL     OW16906   4.219   1.324   4.703 -0.3393  0.1283 -0.1407
 1815SOL    HW116907   4.274   1.400   4.721  3.5576 -2.9822  1.1919
 1815SOL    HW216908   4.172   1.311   4.786  0.6701  3.4855  0.9346
 1816SOL     OW16909   4.703   3.947  11.680  0.0023 -0.2668  0.8211
 1816SOL    HW116910   4.641   3.962  11.608  1.9947  2.0700 -0.4280
 1816SOL    HW216911   4.648   3.908  11.748 -0.3478 -0.7060  0.2914
 1817SOL     OW16912   4.475   3.642   8.817  0.1819  0.3994  0.1092
 1817SOL    HW116913   4.570   3.635   8.803 -0.2372  0.6236 -2.9125
 1817SOL    HW216914   4.483   3.691   8.899  1.4219  1.1729 -0.4653
 1818SOL     OW16915   1.680   1.107   4.955 -0.0709 -0.3030 -0.2428
 1818SOL    HW116916   1.623   1.126   5.029 -1.2201 -1.7612 -0.7618
 1818SOL    HW216917   1.766   1.123   4.995  0.6163 -0.3809 -1.6893
 1819SOL     OW16918   2.534   4.313  11.526 -0.1164  0.1007  0.6789
 1819SOL    HW116919   2.555   4.298  11.618  1.6033 -0.7987  0.1190
 1819SOL    HW216920   2.475   4.389  11.528 -1.9007 -1.2856  0.5394
 1820SOL     OW16921   0.985   1.379   8.924  0.4592  0.1278 -0.1242
 1820SOL    HW116922   1.048   1.445   8.896  0.3271  1.1128  1.8530
 1820SOL    HW216923   0.913   1.422   8.971  1.2527 -0.3878  1.5454
 1821SOL     OW16924   3.659   3.830   6.708 -0.1665  0.4057 -0.1671
 1821SOL    HW116925   3.579   3.824   6.656  1.4378 -0.0260 -2.5886
 1821SOL    HW216926   3.695   3.915   6.683 -0.0073  0.7852  1.4017
 1822SOL     OW16927   3.251   1.755   7.111 -0.6238 -0.5245  0.4103
 1822SOL    HW116928   3.289   1.669   7.130 -1.6526 -1.2554 -0.7857
 1822SOL    HW216929   3.161   1.721   7.114 -1.2625  1.2099  0.6728
 1823SOL     OW16930   4.331   3.698   3.014 -0.2929  0.5111 -0.2398
 1823SOL    HW116931   4.403   3.750   2.978 -0.5524  1.8989  1.2237
 1823SOL    HW216932   4.294   3.657   2.936  0.6472  0.7307 -0.8030
 1824SOL     OW16933   3.145   4.240   0.768 -0.3823  0.1536  0.0195
 1824SOL    HW116934   3.093   4.255   0.689 -0.4538  2.3426  0.4960
 1824SOL    HW216935   3.233   4.266   0.742 -0.2901  0.8701  1.0714
 1825SOL     OW16936   2.995   1.943   4.301 -0.3159 -0.1344 -0.2061
 1825SOL    HW116937   3.014   1.999   4.226  4.3121 -1.5291 -0.1317
 1825SOL    HW216938   3.017   1.858   4.262 -2.2643 -0.8394  0.2489
 1826SOL     OW16939   4.271   0.663  14.664  0.3337  0.3070 -0.5650
 1826SOL    HW116940   4.185   0.697  14.689 -1.0686 -3.9503  0.3455
 1826SOL    HW216941   4.259   0.684  14.571 -0.4049  0.8144 -0.3552
 1827SOL     OW16942   3.237   0.968  11.129  0.3374 -0.2129  0.3068
 1827SOL    HW116943   3.241   0.961  11.034  1.0632  0.4174  0.2931
 1827SOL    HW216944   3.207   1.056  11.153  1.1198  0.7191 -2.1097
 1828SOL     OW16945   0.839   3.207  16.711  0.1501 -0.6991 -0.6955
 1828SOL    HW116946   0.774   3.220  16.642  2.1379 -0.5094 -2.5220
 1828SOL    HW216947   0.774   3.186  16.777  1.4124 -1.3089  0.3495
 1829SOL     OW16948   1.899   2.477   5.449 -0.4552  0.4999 -0.0957
 1829SOL    HW116949   1.985   2.464   5.409 -1.0844  0.9361 -1.6027
 1829SOL    HW216950   1.849   2.500   5.371 -0.9978  0.4843  0.2511
 1830SOL     OW16951   3.669   1.713   7.063 -0.3412 -0.4565 -0.3449
 1830SOL    HW116952   3.651   1.797   7.105  1.4335  0.8422 -2.2132
 1830SOL    HW216953   3.623   1.728   6.980  1.6439  0.3885 -1.2771
 1831SOL     OW16954   0.843   3.571  17.265 -0.1459  0.2699  0.5857
 1831SOL    HW116955   0.890   3.535  17.339 -0.3064  2.4166  1.7148
 1831SOL    HW216956   0.836   3.489  17.216  0.6927 -0.4872  1.7500
 1832SOL     OW16957   4.633   0.676   3.433 -0.7180 -0.2690 -0.1040
 1832SOL    HW116958   4.596   0.676   3.521  0.8258 -1.1402  0.5640
 1832SOL    HW216959   4.613   0.760   3.394 -1.2694 -0.4516 -0.2174
 1833SOL     OW16960   0.808   3.936  12.925 -0.0640 -0.2854  0.0828
 1833SOL    HW116961   0.743   3.889  12.872 -1.5015  0.4916  1.1579
 1833SOL    HW216962   0.776   3.926  13.015 -1.4949  1.8756 -0.2058
 1834SOL     OW16963   3.559   3.030  13.140  0.1570 -0.4772 -0.1157
 1834SOL    HW116964   3.564   2.946  13.187 -1.5932 -0.3370  0.3553
 1834SOL    HW216965   3.650   3.032  13.111  0.3218  1.6139  0.5521
 1835SOL     OW16966   4.433   2.477   1.027  0.0864  0.3662  0.2386
 1835SOL    HW116967   4.463   2.556   1.070  2.4931 -0.9391  0.9353
 1835SOL    HW216968   4.489   2.419   1.079  0.0161  1.9621  2.0915
 1836SOL     OW16969   3.169   1.803  13.442  0.3769 -0.5752  0.0940
 1836SOL    HW116970   3.238   1.864  13.419 -0.1187  0.4442  1.2696
 1836SOL    HW216971   3.161   1.829  13.534 -2.2689 -0.4887 -0.1684
 1837SOL     OW16972   1.482   0.073   9.294 -0.1974 -0.1039 -0.3406
 1837SOL    HW116973   1.479   0.027   9.378 -2.4240  0.0363 -0.3418
 1837SOL    HW216974   1.558   0.127   9.311 -0.2614  0.1140 -0.7602
 1838SOL     OW16975   3.556   3.623   8.966  0.1611  1.1647  0.0690
 1838SOL    HW116976   3.546   3.606   8.872 -0.2192  0.7596  0.1855
 1838SOL    HW216977   3.464   3.622   8.991  0.7418 -2.9407  2.0101
 1839SOL     OW16978   4.086   4.287   8.184 -0.1407 -0.0158  0.0513
 1839SOL    HW116979   4.154   4.230   8.150 -0.1488  2.1994 -3.6788
 1839SOL    HW216980   4.035   4.231   8.243  2.7298 -0.2777  2.2864
 1840SOL     OW16981   1.563   0.409  15.918 -0.3362 -0.3299  0.0413
 1840SOL    HW116982   1.615   0.377  15.845  2.4636  1.0741  1.4248
 1840SOL    HW216983   1.579   0.332  15.973 -1.2608 -1.5382 -1.3894
 1841SOL     OW16984   2.747   1.317   9.645 -0.4795 -0.3223  0.2818
 1841SOL    HW116985   2.671   1.358   9.603 -1.0476 -0.1805  1.4623
 1841SOL    HW216986   2.746   1.239   9.589  1.2746  0.7208 -1.2132
 1842SOL     OW16987   0.299   3.657   9.204 -0.3758 -0.2407 -0.6900
 1842SOL    HW116988   0.263   3.663   9.293  0.7016  0.3698 -0.3045
 1842SOL    HW216989   0.307   3.563   9.187 -1.5401 -0.1722 -1.5885
 1843SOL     OW16990   4.564   0.116  13.453 -0.2217  0.5743 -0.1047
 1843SOL    HW116991   4.508   0.171  13.398 -1.7044 -1.3782 -0.5707
 1843SOL    HW216992   4.561   0.032  13.406  1.0769  1.4141 -1.7026
 1844SOL     OW16993   0.733   1.140  13.225 -0.2104  0.9511 -0.0054
 1844SOL    HW116994   0.670   1.129  13.154 -1.3165 -0.9897  1.3155
 1844SOL    HW216995   0.763   1.226  13.193 -1.2176  1.2172 -0.2207
 1845SOL     OW16996   4.183   2.708   7.577  0.2028  0.4659 -0.1976
 1845SOL    HW116997   4.216   2.797   7.588 -0.1879  0.4690  0.9420
 1845SOL    HW216998   4.209   2.676   7.663 -3.7277 -0.5235  0.6542
 1846SOL     OW16999   1.978   1.788   9.121 -0.1892  0.4928  0.5046
 1846SOL    HW117000   1.965   1.694   9.138 -3.2332  0.9413  0.6628
 1846SOL    HW217001   1.892   1.828   9.131 -0.3392  0.3252 -0.1197
 1847SOL     OW17002   1.378   0.715  12.864  0.2152 -0.0627  0.0434
 1847SOL    HW117003   1.336   0.799  12.845 -0.9589 -0.6979 -0.2297
 1847SOL    HW217004   1.368   0.711  12.959 -0.3796  0.1893 -0.0058
 1848SOL     OW17005   2.293   1.701   3.682 -0.2901  0.2735  0.3519
 1848SOL    HW117006   2.242   1.648   3.742 -0.8993  0.3481 -0.1001
 1848SOL    HW217007   2.302   1.783   3.731  0.4083 -0.2980  1.1914
 1849SOL     OW17008   0.453   2.704  14.102 -0.6486  0.1714 -0.3248
 1849SOL    HW117009   0.467   2.680  14.011 -0.3305 -1.3372  0.1117
 1849SOL    HW217010   0.457   2.622  14.151  0.9759 -0.1284 -0.9575
 1850SOL     OW17011   1.892   4.446   5.018  0.6811  0.0426  0.5144
 1850SOL    HW117012   1.870   4.363   5.060  0.4522  0.6886  1.6495
 1850SOL    HW217013   1.985   4.428   5.001  0.2606 -0.2853 -1.5322
 1851SOL     OW17014   2.375   2.241   8.467  0.2160  0.6370 -0.1224
 1851SOL    HW117015   2.449   2.279   8.419 -1.1202  2.0663 -1.0408
 1851SOL    HW217016   2.422   2.213   8.545 -1.8369 -1.6093  0.3137
 1852SOL     OW17017   4.507   2.279   4.519  0.1723 -0.2654 -0.1068
 1852SOL    HW117018   4.494   2.213   4.587  0.3387 -1.0072 -0.7899
 1852SOL    HW217019   4.593   2.247   4.492 -0.2553 -1.1257 -0.4360
 1853SOL     OW17020   1.656   2.124   4.950 -0.0931  0.0499  0.2867
 1853SOL    HW117021   1.639   2.174   5.030  0.0608 -0.4010  0.5998
 1853SOL    HW217022   1.745   2.092   4.967  0.3832  0.2473 -1.8748
 1854SOL     OW17023   0.756   4.583   4.091 -0.1624  0.0666  0.2068
 1854SOL    HW117024   0.823   4.515   4.088  0.7403  1.0458 -2.2904
 1854SOL    HW217025   0.781   4.641   4.018  0.9862  2.1313  2.2587
 1855SOL     OW17026   0.275   2.767   2.294 -0.6137  0.2075 -0.1679
 1855SOL    HW117027   0.296   2.717   2.373  1.3867  3.1184  1.1453
 1855SOL    HW217028   0.253   2.845   2.345 -2.5326  1.1344 -2.4245
 1856SOL     OW17029   0.675   4.084   6.257  0.1066  0.2601  0.3247
 1856SOL    HW117030   0.769   4.089   6.244  0.4646 -0.3447  2.6141
 1856SOL    HW217031   0.653   3.992   6.246  3.1565 -0.4792  0.4284
 1857SOL     OW17032   1.627   1.857   1.184  0.3065  0.2687 -0.0799
 1857SOL    HW117033   1.640   1.937   1.134  2.0148  0.1567  0.1658
 1857SOL    HW217034   1.695   1.870   1.251  0.2436  0.0726  0.0214
 1858SOL     OW17035   3.103   1.934   6.023  0.2404 -0.3583 -0.2837
 1858SOL    HW117036   3.184   1.982   6.038 -0.1974 -0.0248  1.0564
 1858SOL    HW217037   3.086   1.901   6.111  1.1248  1.4228  0.5434
 1859SOL     OW17038   1.309   4.501   6.021 -0.2728 -0.0567 -0.1986
 1859SOL    HW117039   1.265   4.461   5.947 -1.3581  4.5397 -2.0186
 1859SOL    HW217040   1.250   4.576   6.031  1.1627  0.8615  1.4118
 1860SOL     OW17041   4.305   4.224   3.356 -0.5164 -0.0304 -0.3364
 1860SOL    HW117042   4.266   4.142   3.326 -1.1890 -1.1930  3.7461
 1860SOL    HW217043   4.350   4.195   3.435  0.6701  0.7814 -0.7097
 1861SOL     OW17044   4.210   2.559   0.778  0.5964  0.6718 -0.0334
 1861SOL    HW117045   4.128   2.528   0.816  0.4828  0.3948 -0.5073
 1861SOL    HW217046   4.192   2.653   0.775  2.5488  1.0009 -1.0825
 1862SOL     OW17047   2.302   4.129   1.038  0.3939  0.6432  0.0086
 1862SOL    HW117048   2.377   4.176   1.075  1.9027 -1.9247  0.2286
 1862SOL    HW217049   2.246   4.204   1.016 -0.2583 -0.0830 -0.8377
 1863SOL     OW17050   0.662   2.724   3.416  0.2600 -0.9079  0.3848
 1863SOL    HW117051   0.586   2.671   3.390  0.7195 -0.7822 -1.2070
 1863SOL    HW217052   0.662   2.710   3.511  2.3058 -2.3493  0.1659
 1864SOL     OW17053   4.002   4.514   4.800  0.0255  0.2401 -0.3089
 1864SOL    HW117054   3.948   4.435   4.794  0.7819 -0.2196 -1.1127
 1864SOL    HW217055   4.088   4.486   4.832 -0.0892 -0.0861 -0.2936
 1865SOL     OW17056   2.154   1.164   4.445 -0.9479  0.2270  0.3743
 1865SOL    HW117057   2.186   1.192   4.359 -0.3987 -0.9270  0.1980
 1865SOL    HW217058   2.060   1.152   4.430 -0.9960  0.3503  0.5833
 1866SOL     OW17059   3.464   1.971   5.430  0.5501  0.0417 -0.3778
 1866SOL    HW117060   3.478   2.003   5.341 -2.6721  1.6896 -0.3004
 1866SOL    HW217061   3.447   2.052   5.477  1.0454  0.1267 -0.3472
 1867SOL     OW17062   2.155   3.639  16.735 -0.2153  0.9048  0.3319
 1867SOL    HW117063   2.211   3.571  16.698 -0.2381  1.7244 -1.2457
 1867SOL    HW217064   2.111   3.589  16.803 -0.4774 -1.2822 -1.4318
 1868SOL     OW17065   0.251   4.581   9.552 -0.5293 -0.0049  0.4888
 1868SOL    HW117066   0.257   4.560   9.459 -2.3154 -2.3866  0.9167
 1868SOL    HW217067   0.339   4.603   9.583 -0.1490  0.3504 -0.8621
 1869SOL     OW17068   0.542   4.094   0.405  0.2885  0.0689 -0.5888
 1869SOL    HW117069   0.449   4.077   0.392  0.3620 -1.4122  0.9057
 1869SOL    HW217070   0.570   4.030   0.471 -1.7586  1.4141  1.5928
 1870SOL     OW17071   1.573   3.621   7.088 -0.3801 -0.2349  0.1480
 1870SOL    HW117072   1.593   3.712   7.110 -1.9858  0.0361  0.4928
 1870SOL    HW217073   1.658   3.579   7.101 -0.2609 -0.6315 -1.9922
 1871SOL     OW17074   3.289   1.464   3.391 -0.1504  0.6269  0.1153
 1871SOL    HW117075   3.205   1.509   3.388 -0.7238 -0.3121  2.4206
 1871SOL    HW217076   3.251   1.377   3.383  0.4603  0.4573 -0.9943
 1872SOL     OW17077   4.495   2.025   0.527  0.0750 -0.6438 -0.1906
 1872SOL    HW117078   4.447   2.050   0.448  0.9861  0.6047 -0.3521
 1872SOL    HW217079   4.473   1.934   0.545  0.2273 -0.5780  0.3059
 1873SOL     OW17080   0.005   2.549  13.145 -0.4642 -0.2114  0.6182
 1873SOL    HW117081   4.688   2.631  13.119  0.2000 -0.4595 -1.2548
 1873SOL    HW217082   4.674   2.528  13.220 -1.4699  0.0574 -0.0657
 1874SOL     OW17083   2.043   2.241  14.990 -0.0375  0.2209  0.3548
 1874SOL    HW117084   2.009   2.273  14.906 -0.6529 -0.4547  0.3490
 1874SOL    HW217085   2.002   2.155  14.982 -0.8704  0.8044 -1.5865
 1875SOL     OW17086   1.349   2.126   4.595  0.1836 -0.3200  0.0712
 1875SOL    HW117087   1.319   2.053   4.541 -0.6472 -1.9146  2.6298
 1875SOL    HW217088   1.383   2.070   4.665 -0.1323  0.5547  0.9344
 1876SOL     OW17089   3.064   0.621  14.967  0.3662  0.9830  0.4644
 1876SOL    HW117090   3.114   0.622  14.885 -0.3428  2.9089  0.0790
 1876SOL    HW217091   3.069   0.528  14.992 -0.4615  0.9779  0.5946
 1877SOL     OW17092   0.691   4.496  16.831 -0.1228 -0.2668  0.4296
 1877SOL    HW117093   0.710   4.585  16.861 -1.1545  1.3810 -3.7555
 1877SOL    HW217094   0.780   4.476  16.802 -0.4802  0.2182 -1.0226
 1878SOL     OW17095   2.995   4.195   3.242 -0.1288 -0.1307  0.4331
 1878SOL    HW117096   3.066   4.137   3.270  0.2047 -0.2222 -0.6017
 1878SOL    HW217097   2.976   4.156   3.157 -0.3237  0.8618  0.0203
 1879SOL     OW17098   0.836   3.647   6.992 -0.0288 -0.0685 -0.1215
 1879SOL    HW117099   0.916   3.617   7.035  0.1459 -0.2169 -0.5600
 1879SOL    HW217100   0.763   3.646   7.055  0.1995 -1.0222  0.1270
 1880SOL     OW17101   2.353   4.003  10.582  0.2009 -0.2066 -0.0110
 1880SOL    HW117102   2.378   4.086  10.541 -2.6427  0.4228 -0.4149
 1880SOL    HW217103   2.282   3.964  10.530 -0.7156 -1.2577  2.0384
 1881SOL     OW17104   3.658   1.762   3.078  0.0011  0.4369  0.3930
 1881SOL    HW117105   3.729   1.698   3.071 -1.5583 -1.2114 -0.3292
 1881SOL    HW217106   3.586   1.701   3.094 -0.5893  0.4991 -2.0762
 1882SOL     OW17107   1.477   1.318  16.661 -0.2458  0.4423 -0.6910
 1882SOL    HW117108   1.430   1.245  16.701 -0.8845  1.4742  0.4495
 1882SOL    HW217109   1.409   1.385  16.646 -2.4232 -0.9687  2.9312
 1883SOL     OW17110   4.545   0.244   8.713 -0.0194 -0.0624  0.7516
 1883SOL    HW117111   4.455   0.261   8.683  0.3422 -2.5346 -1.7079
 1883SOL    HW217112   4.548   0.292   8.796  2.6223 -2.2070  1.9016
 1884SOL     OW17113   0.929   0.970   4.211 -0.7150 -0.0359 -0.4397
 1884SOL    HW117114   0.986   0.949   4.284 -0.2701 -2.9046 -1.5801
 1884SOL    HW217115   0.980   0.924   4.144 -0.9258  1.1442 -1.4080
 1885SOL     OW17116   1.287   2.418   8.071  0.0094  0.0975 -0.0839
 1885SOL    HW117117   1.193   2.435   8.068 -0.0274 -0.1599 -0.3391
 1885SOL    HW217118   1.330   2.477   8.133  0.5938 -0.0503 -0.3464
 1886SOL     OW17119   0.480   1.082   7.544 -0.1480 -0.5796 -0.1097
 1886SOL    HW117120   0.463   1.156   7.486 -0.8911 -1.0781 -0.5386
 1886SOL    HW217121   0.443   1.115   7.625 -0.5787 -2.2770  0.3973
 1887SOL     OW17122   2.303   0.587  12.849  0.1466 -0.2289  0.1993
 1887SOL    HW117123   2.370   0.602  12.782  0.0805  5.2345  1.3197
 1887SOL    HW217124   2.257   0.671  12.843  1.2538  0.3820  0.2025
 1888SOL     OW17125   1.429   4.486   4.347 -0.1561 -0.0123  0.2642
 1888SOL    HW117126   1.508   4.505   4.296 -0.6248  0.7767 -0.1695
 1888SOL    HW217127   1.458   4.479   4.438  1.6079 -2.9477 -0.5518
 1889SOL     OW17128   3.858   0.829   4.641 -0.7016  0.0480 -0.7071
 1889SOL    HW117129   3.802   0.802   4.714 -1.2272  0.9185 -0.7954
 1889SOL    HW217130   3.829   0.920   4.636  0.3211  0.4179 -0.0058
 1890SOL     OW17131   0.524   1.706  12.095  0.2433  0.3468 -0.9599
 1890SOL    HW117132   0.486   1.791  12.118  0.2955 -0.3533  1.6924
 1890SOL    HW217133   0.477   1.647  12.154 -0.2509  1.3384 -0.3671
 1891SOL     OW17134   0.623   2.491   8.204 -0.1290  0.6985 -0.1782
 1891SOL    HW117135   0.666   2.517   8.286  0.5639  0.9124 -0.6073
 1891SOL    HW217136   0.549   2.552   8.215 -0.1579  0.6023  0.1815
 1892SOL     OW17137   2.612   1.496   0.602 -0.0825 -0.5952  0.1728
 1892SOL    HW117138   2.602   1.405   0.629 -0.0183 -0.4837  0.5754
 1892SOL    HW217139   2.682   1.519   0.663 -1.7883  1.0448  1.5556
 1893SOL     OW17140   0.968   4.441   1.674  0.2363  0.2249  0.1504
 1893SOL    HW117141   1.026   4.469   1.603  0.8996  0.3708  0.7482
 1893SOL    HW217142   0.883   4.460   1.636 -0.6056 -1.7244  1.0655
 1894SOL     OW17143   3.612   0.495   0.151  0.2748 -0.0977 -0.2188
 1894SOL    HW117144   3.594   0.404   0.176 -3.0990  0.5574 -0.2100
 1894SOL    HW217145   3.686   0.481   0.091 -0.0549 -2.4132 -0.0623
 1895SOL     OW17146   2.005   1.981   3.858  0.2941  0.4879  0.1098
 1895SOL    HW117147   2.093   1.985   3.897 -0.2800 -0.3005  1.4557
 1895SOL    HW217148   2.041   1.958   3.772 -0.2645  2.5132 -0.6580
 1896SOL     OW17149   2.757   3.364   7.943  0.2384 -0.2699  0.9031
 1896SOL    HW117150   2.722   3.391   7.859  1.2322 -0.9477  0.2719
 1896SOL    HW217151   2.692   3.414   7.992  0.4652  1.7668 -0.9073
 1897SOL     OW17152   0.572   1.092  13.007  0.2289  0.0693  0.0614
 1897SOL    HW117153   0.590   1.010  12.961 -2.4538 -1.4076  1.6311
 1897SOL    HW217154   0.482   1.078  13.035  0.1377  2.2674  0.8359
 1898SOL     OW17155   1.917   3.107   5.575 -0.1869  0.2345  0.0649
 1898SOL    HW117156   1.946   3.198   5.582  0.2276  0.0167  1.0720
 1898SOL    HW217157   1.822   3.108   5.588  0.0517 -2.3251  1.8723
 1899SOL     OW17158   3.572   4.104   1.896  0.0951 -0.0910  0.0733
 1899SOL    HW117159   3.652   4.088   1.845  1.0972  1.0652  1.2980
 1899SOL    HW217160   3.582   4.198   1.909 -3.3893  0.0397  1.7005
 1900SOL     OW17161   2.814   2.366  13.248 -0.0934  0.2210 -0.0472
 1900SOL    HW117162   2.815   2.272  13.262 -1.1710  0.2526  0.3030
 1900SOL    HW217163   2.839   2.364  13.155  0.1264  1.8177 -0.0304
 1901SOL     OW17164   3.093   2.011   4.773 -0.1669  0.2927 -0.0911
 1901SOL    HW117165   3.072   1.934   4.827 -0.7472  0.6050  0.1328
 1901SOL    HW217166   3.049   1.979   4.694  0.9574 -2.2156  0.3013
 1902SOL     OW17167   3.180   2.619   9.152  0.1824 -0.6479  0.1420
 1902SOL    HW117168   3.253   2.568   9.117 -0.3810 -0.8129 -0.7792
 1902SOL    HW217169   3.104   2.575   9.113 -0.4339  1.7778 -1.3586
 1903SOL     OW17170   3.077   0.218  11.068 -0.0617  0.0695 -0.1355
 1903SOL    HW117171   3.032   0.136  11.090 -0.8394  1.2055  2.4893
 1903SOL    HW217172   3.045   0.282  11.132  0.8329  0.0256  0.3591
 1904SOL     OW17173   4.400   1.922  17.372 -0.0434 -0.2086 -0.3502
 1904SOL    HW117174   4.334   1.864  17.409 -0.9934  0.0318 -1.6885
 1904SOL    HW217175   4.445   1.851  17.326 -1.4739 -1.6497  0.4811
 1905SOL     OW17176   1.194   4.574   4.461  0.0002  0.4190  0.5083
 1905SOL    HW117177   1.270   4.528   4.425 -0.1679 -1.5814  2.7527
 1905SOL    HW217178   1.200   4.540   4.550  1.9131 -1.4704 -0.3280
 1906SOL     OW17179   0.712   0.579   3.479 -0.0358  0.2285 -0.5049
 1906SOL    HW117180   0.681   0.502   3.526 -0.6693  0.4329 -0.5889
 1906SOL    HW217181   0.733   0.543   3.393  0.7629 -0.7875  0.1118
 1907SOL     OW17182   4.176   1.160   8.541  0.4039 -0.3292 -0.4646
 1907SOL    HW117183   4.133   1.241   8.570  1.9433 -0.1038  1.1565
 1907SOL    HW217184   4.227   1.141   8.619  0.4180  3.6142  0.4726
 1908SOL     OW17185   1.869   1.234   7.243  1.0666 -0.0592  0.7363
 1908SOL    HW117186   1.845   1.303   7.180 -2.1481 -3.2202 -1.4700
 1908SOL    HW217187   1.848   1.155   7.195 -2.0918  0.6704  0.8910
 1909SOL     OW17188   2.427   0.462   7.172 -0.4492 -0.5993  0.3077
 1909SOL    HW117189   2.412   0.369   7.154  0.1060 -0.6744  0.2460
 1909SOL    HW217190   2.350   0.491   7.222 -2.4296 -3.2168 -1.2330
 1910SOL     OW17191   0.176   0.778   1.833  0.7794  0.1416  0.5375
 1910SOL    HW117192   0.123   0.715   1.783 -0.0872  2.0910 -0.9646
 1910SOL    HW217193   0.244   0.802   1.770  1.4374  0.6866  1.4638
 1911SOL     OW17194   3.813   3.618   5.342 -0.1695 -0.2134 -0.3313
 1911SOL    HW117195   3.735   3.673   5.332 -0.1485 -0.1757 -0.2889
 1911SOL    HW217196   3.798   3.586   5.430  0.1540  1.4941  0.3524
 1912SOL     OW17197   3.920   2.975   8.029 -0.2100 -0.1002 -0.8855
 1912SOL    HW117198   3.922   2.896   8.083  1.2355 -0.5891 -1.6676
 1912SOL    HW217199   4.010   2.967   7.997  0.2893 -0.3809  0.5934
 1913SOL     OW17200   4.242   0.417   6.310  0.3906 -0.0185 -0.2670
 1913SOL    HW117201   4.199   0.502   6.318  0.2557 -0.2459  1.3547
 1913SOL    HW217202   4.290   0.419   6.392 -0.6568  0.6586  0.3348
 1914SOL     OW17203   0.721   3.975   5.388 -0.2777 -0.0818 -0.2547
 1914SOL    HW117204   0.781   3.932   5.327  0.1563 -0.1308  0.2072
 1914SOL    HW217205   0.683   3.896   5.425  1.7867 -2.2768 -2.8210
 1915SOL     OW17206   3.184   2.772  17.108 -0.3011 -0.0206 -0.2349
 1915SOL    HW117207   3.104   2.825  17.106 -0.5410 -0.3563  0.5178
 1915SOL    HW217208   3.144   2.697  17.063 -0.1803 -0.9318  1.1466
 1916SOL     OW17209   0.601   1.170   6.062  0.3920 -0.0832  0.5554
 1916SOL    HW117210   0.553   1.118   5.998  0.7076  0.5344 -0.1814
 1916SOL    HW217211   0.533   1.205   6.120  0.4882  1.5728 -0.3286
 1917SOL     OW17212   0.929   3.286   3.828 -0.0677  0.3329  0.4613
 1917SOL    HW117213   0.871   3.362   3.827 -0.5842 -0.0595  0.2269
 1917SOL    HW217214   1.016   3.324   3.830 -0.2568  0.7768  0.2286
 1918SOL     OW17215   1.885   1.715   6.668  0.0511  0.0083  0.3006
 1918SOL    HW117216   1.923   1.786   6.617  0.6071  1.5258  2.8374
 1918SOL    HW217217   1.966   1.665   6.682 -0.0788 -0.9159 -2.2252
 1919SOL     OW17218   1.274   1.394   6.012  0.0120 -0.0716  0.1580
 1919SOL    HW117219   1.292   1.485   6.034  1.5432  0.1096 -1.8872
 1919SOL    HW217220   1.346   1.375   5.952 -0.7423  0.2179 -0.8569
 1920SOL     OW17221   2.217   0.661   4.512  0.2185 -0.0346  0.5354
 1920SOL    HW117222   2.287   0.646   4.449 -0.2047  0.7917 -0.1316
 1920SOL    HW217223   2.150   0.713   4.468  1.1743  1.7656  1.1743
 1921SOL     OW17224   3.019   1.017   5.073  0.0236  0.6341  0.3071
 1921SOL    HW117225   3.113   1.004   5.081 -0.0306  0.3035  0.4138
 1921SOL    HW217226   3.015   1.059   4.987 -0.7626  0.9898  0.5186
 1922SOL     OW17227   1.751   1.544   8.993  0.5894 -0.5030 -0.0557
 1922SOL    HW117228   1.828   1.560   9.048  1.7421  0.5633 -1.9891
 1922SOL    HW217229   1.678   1.562   9.052 -0.1513 -1.0083 -0.8172
 1923SOL     OW17230   2.642   2.980   7.857 -0.2403 -0.2495 -0.6525
 1923SOL    HW117231   2.604   3.041   7.921  3.1528  1.4475 -0.2716
 1923SOL    HW217232   2.648   3.030   7.776 -1.8126  0.3103 -0.4189
 1924SOL     OW17233   3.271   0.278  14.963 -0.2804  0.1991 -0.0580
 1924SOL    HW117234   3.327   0.200  14.958  0.0457  0.3407  1.3893
 1924SOL    HW217235   3.249   0.281  14.870  1.5409  2.8409 -0.4023
 1925SOL     OW17236   3.181   1.567   2.133  0.4422 -0.1177 -0.1697
 1925SOL    HW117237   3.236   1.538   2.061  1.0904 -0.4611  0.4607
 1925SOL    HW217238   3.096   1.532   2.105 -0.6167 -0.4774  3.4047
 1926SOL     OW17239   3.488   1.967   1.765  0.5989  0.0584  0.4594
 1926SOL    HW117240   3.446   1.917   1.835 -0.4195  1.7687  1.0734
 1926SOL    HW217241   3.580   1.968   1.793  0.6053  1.0406  0.3996
 1927SOL     OW17242   1.777   0.862   0.994  0.4489  0.2038  0.3966
 1927SOL    HW117243   1.796   0.836   1.084  1.3674 -1.1348 -0.1807
 1927SOL    HW217244   1.829   0.798   0.947 -1.4833 -0.8629 -0.2909
 1928SOL     OW17245   3.879   2.724   3.405  0.2350  0.6158 -0.3292
 1928SOL    HW117246   3.846   2.670   3.333 -2.4086  0.1155  1.2428
 1928SOL    HW217247   3.836   2.684   3.480  1.8653 -2.7578 -1.2249
 1929SOL     OW17248   1.654   1.849   3.195  0.5262  0.7073 -0.2399
 1929SOL    HW117249   1.655   1.754   3.189 -0.3922  0.5461  2.2793
 1929SOL    HW217250   1.583   1.871   3.134 -0.2564 -0.4063  0.2794
 1930SOL     OW17251   3.261   2.358   7.666  0.1463  0.2828 -0.0203
 1930SOL    HW117252   3.203   2.433   7.681  1.9303  1.6181  0.2676
 1930SOL    HW217253   3.341   2.396   7.630  0.1329 -0.1639 -0.5228
 1931SOL     OW17254   3.314   2.342   7.293 -0.4834 -0.4030  0.0123
 1931SOL    HW117255   3.273   2.424   7.265  1.3468  0.1701 -0.9809
 1931SOL    HW217256   3.333   2.314   7.203  2.1626  2.7276 -0.3932
 1932SOL     OW17257   0.060   2.449   4.572  0.2397  0.4300 -0.0914
 1932SOL    HW117258   0.034   2.384   4.507 -0.3847 -0.6046  1.1899
 1932SOL    HW217259   4.699   2.480   4.601  0.5003 -0.8194  1.9959
 1933SOL     OW17260   3.244   2.117   4.464  0.8012  0.1754 -0.7740
 1933SOL    HW117261   3.183   2.087   4.397 -0.0081 -3.8760  1.8040
 1933SOL    HW217262   3.187   2.141   4.537  1.1762  1.0991 -0.7763
 1934SOL     OW17263   4.300   2.459   9.106  0.1691 -0.1130  0.1421
 1934SOL    HW117264   4.354   2.390   9.145  0.1770 -1.0002 -1.4230
 1934SOL    HW217265   4.359   2.534   9.099  0.2166 -0.2497 -1.0220
 1935SOL     OW17266   0.636   2.061   2.331 -0.5340 -0.3160  0.3183
 1935SOL    HW117267   0.627   1.990   2.396  1.1911  0.5032  1.4290
 1935SOL    HW217268   0.691   2.019   2.265  1.6033 -0.4897  2.2279
 1936SOL     OW17269   2.248   3.248  16.764 -0.2284 -0.1216 -0.0555
 1936SOL    HW117270   2.221   3.320  16.821 -1.6666 -0.8700  0.2066
 1936SOL    HW217271   2.287   3.299  16.693 -1.1265  0.1988 -0.3180
 1937SOL     OW17272   0.331   4.482   5.128 -0.1392 -0.1923 -0.1634
 1937SOL    HW117273   0.426   4.467   5.138  0.0138  1.5867  1.0787
 1937SOL    HW217274   0.297   4.392   5.125  0.6365 -0.5868  2.7764
 1938SOL     OW17275   3.217   4.023   8.343  0.1858  0.6527 -0.1499
 1938SOL    HW117276   3.266   3.947   8.312 -0.0604  0.5918 -0.3818
 1938SOL    HW217277   3.148   4.024   8.277 -0.2581  2.3621  0.3243
 1939SOL     OW17278   4.186   4.561   2.239 -0.2589 -0.0493 -0.4415
 1939SOL    HW117279   4.251   4.526   2.300  1.2016  1.1676 -1.3134
 1939SOL    HW217280   4.211   4.653   2.239 -0.0044 -0.1148 -0.0484
 1940SOL     OW17281   3.546   1.156   7.853  0.7614 -0.0699  0.0596
 1940SOL    HW117282   3.588   1.219   7.912  0.8437 -0.5797  0.5396
 1940SOL    HW217283   3.622   1.101   7.838  0.7821 -0.0187 -0.0241
 1941SOL     OW17284   3.110   1.598   6.023  0.1566 -0.2040 -0.0091
 1941SOL    HW117285   3.016   1.613   6.038  0.3520  0.7565  0.2637
 1941SOL    HW217286   3.134   1.575   6.113 -0.2799 -1.1236 -0.1319
 1942SOL     OW17287   1.057   3.002   8.826 -0.0358 -0.2772  0.8555
 1942SOL    HW117288   1.117   3.075   8.842 -1.3920  1.0402 -0.0248
 1942SOL    HW217289   1.057   3.005   8.730  0.9095  0.9014  0.9032
 1943SOL     OW17290   3.450   4.472   6.425 -0.2279 -0.3157  0.3794
 1943SOL    HW117291   3.401   4.392   6.406 -1.8907  0.6479  0.6441
 1943SOL    HW217292   3.521   4.442   6.483  1.4593  0.4976 -1.2510
 1944SOL     OW17293   0.575   3.621   9.920 -0.1338 -0.3232 -0.4250
 1944SOL    HW117294   0.599   3.529   9.909 -0.5831 -0.2385 -2.1040
 1944SOL    HW217295   0.634   3.666   9.860  0.1008 -0.1520 -0.0681
 1945SOL     OW17296   0.461   0.712  14.604  0.8367 -0.1853 -0.4096
 1945SOL    HW117297   0.526   0.781  14.618  2.1346 -0.9935 -2.3194
 1945SOL    HW217298   0.511   0.630  14.606  0.2385 -0.5142  0.7452
 1946SOL     OW17299   3.338   3.301   6.929 -0.1824 -0.0124 -0.1869
 1946SOL    HW117300   3.387   3.263   7.002 -1.0704  2.1641  1.5390
 1946SOL    HW217301   3.247   3.278   6.947 -0.0585 -0.3024  0.0704
 1947SOL     OW17302   1.315   2.750  17.314 -0.6080  0.3622 -0.6188
 1947SOL    HW117303   1.325   2.828  17.368 -0.6285  0.0925 -0.2216
 1947SOL    HW217304   1.408   2.740  17.296 -0.4340  0.7694  0.0808
 1948SOL     OW17305   0.223   1.435   7.860 -0.3138 -0.0735 -0.0762
 1948SOL    HW117306   0.194   1.494   7.929 -0.1311  0.4367 -0.4349
 1948SOL    HW217307   0.302   1.398   7.899 -0.0048 -0.0865 -0.7187
 1949SOL     OW17308   1.889   1.670  15.576 -0.1981  0.0489  0.1567
 1949SOL    HW117309   1.955   1.602  15.562  0.1781 -0.0868  2.6870
 1949SOL    HW217310   1.938   1.750  15.595 -1.2925  1.4427 -2.7465
 1950SOL     OW17311   1.880   1.853  11.234  0.2985  0.5076  0.1584
 1950SOL    HW117312   1.858   1.766  11.201 -0.4797  0.2489  1.3328
 1950SOL    HW217313   1.802   1.857  11.289  0.9165 -1.4292  1.1937
 1951SOL     OW17314   2.760   4.479   7.704 -0.4123 -0.5946 -0.5892
 1951SOL    HW117315   2.707   4.485   7.624  1.0233  1.4801 -1.3886
 1951SOL    HW217316   2.699   4.445   7.769 -0.2763  0.1187 -0.0843
 1952SOL     OW17317   4.015   3.278  16.893  0.0858 -0.2173  1.2473
 1952SOL    HW117318   4.110   3.273  16.900 -0.1480 -1.6438  3.2856
 1952SOL    HW217319   4.007   3.364  16.852 -1.7482 -1.4113 -0.8985
 1953SOL     OW17320   3.850   0.205  15.965 -0.5115 -0.5162  0.2837
 1953SOL    HW117321   3.841   0.192  16.060 -0.2435  0.9254  0.4954
 1953SOL    HW217322   3.940   0.179  15.945 -0.3429  1.4470 -1.4741
 1954SOL     OW17323   0.434   0.342   3.392 -0.0628  0.1214 -0.0155
 1954SOL    HW117324   0.381   0.371   3.318 -1.2101  0.8038  1.0844
 1954SOL    HW217325   0.480   0.275   3.341 -0.8202 -0.1804 -0.3022
 1955SOL     OW17326   1.549   3.470   6.819 -0.1709 -0.1009  0.0250
 1955SOL    HW117327   1.559   3.456   6.913 -1.2059  1.4770  0.3634
 1955SOL    HW217328   1.460   3.506   6.817 -0.8419 -1.8266 -0.8887
 1956SOL     OW17329   4.107   1.387   2.755 -0.4340 -0.2046  0.3085
 1956SOL    HW117330   4.178   1.441   2.789 -0.0472 -1.6717  1.8438
 1956SOL    HW217331   4.139   1.366   2.668 -1.4664  0.7627 -0.3130
 1957SOL     OW17332   2.893   2.247   3.878  0.7410 -0.4110 -0.2563
 1957SOL    HW117333   2.811   2.272   3.837  0.9996  0.4903 -0.2229
 1957SOL    HW217334   2.909   2.313   3.946 -0.7902  1.8507 -2.1046
 1958SOL     OW17335   2.938   4.669   1.899  0.8496  0.2480 -0.1915
 1958SOL    HW117336   3.028   4.684   1.927  0.6397  0.9349  0.1054
 1958SOL    HW217337   2.943   4.696   1.808  0.8797  0.8306 -0.0126
 1959SOL     OW17338   0.018   2.330   1.691 -0.3698 -0.3319  0.0874
 1959SOL    HW117339   0.093   2.345   1.633 -0.5079 -2.2274 -0.6026
 1959SOL    HW217340   0.017   2.416   1.732 -1.0502 -0.7375  0.9271
 1960SOL     OW17341   1.280   4.207   7.482 -0.3047  0.2743  0.2457
 1960SOL    HW117342   1.347   4.150   7.444 -0.3401 -0.5929  1.4902
 1960SOL    HW217343   1.269   4.176   7.572  0.8681  0.4569  0.4498
 1961SOL     OW17344   4.571   2.524   8.338  0.2946  0.3029  0.1117
 1961SOL    HW117345   4.574   2.454   8.404 -1.9367  0.8783  0.8355
 1961SOL    HW217346   4.505   2.483   8.283  1.7211 -0.9630 -0.6761
 1962SOL     OW17347   3.409   2.344   5.849 -0.1988  0.0892 -0.7438
 1962SOL    HW117348   3.470   2.302   5.911  1.8845  2.9598 -0.8633
 1962SOL    HW217349   3.467   2.413   5.819  0.3513 -0.9657 -2.0803
 1963SOL     OW17350   0.518   3.080   7.787 -0.0689  0.2759  0.3058
 1963SOL    HW117351   0.584   3.139   7.823 -0.5719  2.2117 -1.9244
 1963SOL    HW217352   0.455   3.144   7.754  0.8700  0.6659 -0.7119
 1964SOL     OW17353   0.048   1.953   5.698  0.4319 -0.2430  0.1192
 1964SOL    HW117354   4.720   2.031   5.686  3.3459  1.7173 -0.1072
 1964SOL    HW217355   0.033   1.922   5.787  2.0262  0.1697  0.5433
 1965SOL     OW17356   0.554   4.196  11.261 -0.3027  0.2372 -0.2277
 1965SOL    HW117357   0.599   4.134  11.205  0.0834 -0.4882  0.8839
 1965SOL    HW217358   0.520   4.258  11.196 -1.8681  0.3099  0.6462
 1966SOL     OW17359   3.998   4.227   8.916  0.1848 -0.0175 -0.1241
 1966SOL    HW117360   4.004   4.191   8.827  3.7853 -2.2532  1.0375
 1966SOL    HW217361   3.986   4.321   8.899  2.1467  0.0078 -1.3548
 1967SOL     OW17362   0.138   0.557  14.305 -0.0994 -0.2032 -0.7174
 1967SOL    HW117363   0.058   0.516  14.339 -0.9249  1.8273 -0.1944
 1967SOL    HW217364   0.099   0.598  14.228  0.5211  1.5402 -0.1158
 1968SOL     OW17365   0.245   0.831  13.291 -0.0385  0.2973  0.5197
 1968SOL    HW117366   0.291   0.893  13.234 -2.8375  1.4889 -0.4932
 1968SOL    HW217367   0.241   0.757  13.231 -1.7895 -0.7844  1.9676
 1969SOL     OW17368   1.063   1.498   5.299  0.1856 -0.1581 -0.7184
 1969SOL    HW117369   1.033   1.575   5.251 -1.4586  0.7501  1.7624
 1969SOL    HW217370   1.009   1.510   5.377  0.4709  2.5385 -0.9381
 1970SOL     OW17371   3.123   0.145   7.738 -0.8460  0.3296 -0.8270
 1970SOL    HW117372   3.121   0.219   7.677  1.5844  0.7346 -0.4221
 1970SOL    HW217373   3.217   0.125   7.745 -0.7595  0.6623 -1.0190
 1971SOL     OW17374   1.634   0.494   6.519  0.6388  0.0753  0.3972
 1971SOL    HW117375   1.598   0.533   6.598  1.2032  3.5068 -1.0075
 1971SOL    HW217376   1.729   0.505   6.531  0.7136 -0.3418  0.1741
 1972SOL     OW17377   3.253   3.186   6.434 -0.2201  0.0269 -0.3071
 1972SOL    HW117378   3.256   3.098   6.396 -0.5963 -0.2759  0.3518
 1972SOL    HW217379   3.328   3.186   6.494  1.0580  0.6867 -1.9287
 1973SOL     OW17380   2.799   3.451   5.886 -0.1888 -1.0949 -0.0159
 1973SOL    HW117381   2.806   3.405   5.970  0.9639 -1.6904 -0.4415
 1973SOL    HW217382   2.868   3.403   5.840  1.3625 -1.5767  2.7863
 1974SOL     OW17383   1.099   1.221   3.368 -0.5425 -0.5479  0.1029
 1974SOL    HW117384   1.087   1.297   3.425 -0.0103 -2.7808  3.2737
 1974SOL    HW217385   1.066   1.143   3.414  1.2194 -1.7637 -0.6464
 1975SOL     OW17386   1.713   3.074   4.012  0.3112 -0.0323  0.1999
 1975SOL    HW117387   1.688   3.163   3.988  0.9018 -0.1335 -0.7916
 1975SOL    HW217388   1.738   3.042   3.925  1.6950  0.1331  0.5291
 1976SOL     OW17389   0.580   3.766   9.350  0.0690  0.6510  0.0305
 1976SOL    HW117390   0.612   3.855   9.332  0.7817  0.0989 -1.4620
 1976SOL    HW217391   0.492   3.761   9.311  0.9050  0.7503 -1.8926
 1977SOL     OW17392   0.556   3.688   5.277 -0.2644 -0.3941  0.3948
 1977SOL    HW117393   0.464   3.712   5.288 -0.5431 -1.1433 -0.2971
 1977SOL    HW217394   0.577   3.707   5.368  1.9643  2.0597 -0.6395
 1978SOL     OW17395   4.604   2.367   0.447 -0.1066 -0.6299  0.1821
 1978SOL    HW117396   4.589   2.418   0.527  1.4274 -1.7104  1.1491
 1978SOL    HW217397   4.671   2.309   0.481  0.3332 -1.5763 -2.2858
 1979SOL     OW17398   2.677   3.361   3.787 -0.3117 -0.0422  0.5849
 1979SOL    HW117399   2.610   3.427   3.806 -0.5801 -0.0135 -0.4637
 1979SOL    HW217400   2.741   3.429   3.763 -0.5141  0.0351  0.2593
 1980SOL     OW17401   3.298   1.403   4.771 -0.5306 -1.4525 -0.4808
 1980SOL    HW117402   3.391   1.410   4.790 -0.5074  1.0255 -1.4185
 1980SOL    HW217403   3.290   1.347   4.694  1.8368 -1.9987 -0.3342
 1981SOL     OW17404   1.259   3.555   6.770 -0.2314  0.2407  0.2671
 1981SOL    HW117405   1.257   3.472   6.723  2.1477 -0.9635  2.3101
 1981SOL    HW217406   1.239   3.618   6.700 -0.0426  0.3875  0.3451
 1982SOL     OW17407   0.195   0.904   2.768 -0.2926  0.3680  0.6539
 1982SOL    HW117408   0.141   0.874   2.842  1.7212 -0.9220  1.5931
 1982SOL    HW217409   0.254   0.831   2.754 -2.9496 -1.7766  0.5903
 1983SOL     OW17410   3.677   2.878   3.168  0.2824 -0.0624  0.0408
 1983SOL    HW117411   3.749   2.932   3.201  0.0229  0.4489 -0.2193
 1983SOL    HW217412   3.599   2.928   3.194 -1.0121 -2.2327  0.2862
 1984SOL     OW17413   0.363   1.083  10.424  0.4400 -0.0426 -0.1056
 1984SOL    HW117414   0.338   1.137  10.349 -1.7468  1.3704  1.6593
 1984SOL    HW217415   0.279   1.042  10.443 -0.2001  1.7795  0.9404
 1985SOL     OW17416   3.880   2.896  10.154  0.3179 -0.1650  0.4794
 1985SOL    HW117417   3.893   2.980  10.109  1.5976 -1.5495 -1.7084
 1985SOL    HW217418   3.787   2.878  10.159  0.7141 -2.3342  0.1262
 1986SOL     OW17419   0.261   4.179   3.563  0.4555  0.1336  0.2696
 1986SOL    HW117420   0.314   4.113   3.608  0.9279  0.8808  0.7901
 1986SOL    HW217421   0.177   4.137   3.543  1.4851 -0.2794 -3.2532
 1987SOL     OW17422   2.249   3.489   7.234  0.5048 -0.3394 -0.3368
 1987SOL    HW117423   2.303   3.414   7.258 -0.6580 -1.0918 -0.0976
 1987SOL    HW217424   2.252   3.529   7.320 -2.0650 -0.0884 -0.3607
 1988SOL     OW17425   1.510   0.306   8.767  0.1154  0.4146  0.3541
 1988SOL    HW117426   1.603   0.326   8.772 -0.0853  1.3790  0.2668
 1988SOL    HW217427   1.485   0.357   8.690  2.4499 -0.1092 -0.7466
 1989SOL     OW17428   2.875   3.177  11.106 -0.3251 -0.0837  0.0511
 1989SOL    HW117429   2.804   3.158  11.169  0.0115 -1.3848  0.0423
 1989SOL    HW217430   2.946   3.135  11.155  0.0063  0.1703 -0.2194
 1990SOL     OW17431   4.040   3.952   3.861 -0.1546 -0.0756  0.1619
 1990SOL    HW117432   3.973   3.885   3.848 -0.9985  0.9880 -1.0873
 1990SOL    HW217433   4.107   3.920   3.801 -1.5228 -0.6040 -1.0892
 1991SOL     OW17434   3.825   4.489   8.338 -0.3704  0.1329 -0.0488
 1991SOL    HW117435   3.749   4.475   8.282  1.0867  0.7695 -2.1963
 1991SOL    HW217436   3.860   4.400   8.344  1.3429  0.6642 -2.3476
 1992SOL     OW17437   1.124   3.694   1.572 -0.2454  0.1417 -0.1685
 1992SOL    HW117438   1.088   3.732   1.492 -0.2185 -0.0475 -0.2697
 1992SOL    HW217439   1.078   3.611   1.576  0.1375 -0.1598 -2.1982
 1993SOL     OW17440   2.816   2.200  16.696 -0.6597 -0.1467 -0.5736
 1993SOL    HW117441   2.792   2.122  16.745 -1.1856  0.2048 -0.2672
 1993SOL    HW217442   2.891   2.160  16.653  1.0974  3.1792 -0.5907
 1994SOL     OW17443   0.679   3.999  13.406  0.2065  0.2090 -0.3693
 1994SOL    HW117444   0.729   3.980  13.486 -0.5779 -0.9422 -0.1610
 1994SOL    HW217445   0.714   4.086  13.387  0.6576  0.2176  0.4794
 1995SOL     OW17446   1.039   3.820   1.829  0.0934  0.3820  0.2675
 1995SOL    HW117447   0.989   3.757   1.881  1.0296 -0.2539  0.3859
 1995SOL    HW217448   1.010   3.786   1.745  0.7056 -2.0805  1.0622
 1996SOL     OW17449   1.169   3.632   4.044 -0.1313  0.3761 -0.2628
 1996SOL    HW117450   1.180   3.669   4.131  0.0477 -1.1934  0.3849
 1996SOL    HW217451   1.250   3.584   4.028 -0.2183  0.3180 -0.5294
 1997SOL     OW17452   2.469   1.986   6.407  0.2589  0.1688 -0.2162
 1997SOL    HW117453   2.554   1.957   6.375 -0.8715 -3.0413 -0.2519
 1997SOL    HW217454   2.460   1.925   6.480  0.7959 -1.5929 -1.6199
 1998SOL     OW17455   3.488   0.243   1.997  0.3922  0.5633 -0.5203
 1998SOL    HW117456   3.533   0.159   1.991 -0.6120 -0.0179  0.2223
 1998SOL    HW217457   3.416   0.220   2.055  2.2002 -1.9728  0.6825
 1999SOL     OW17458   3.347   4.491  16.172  0.3635 -0.8040  0.1236
 1999SOL    HW117459   3.419   4.529  16.122 -0.6012 -0.6915 -1.2070
 1999SOL    HW217460   3.273   4.530  16.126  0.7621  0.5316  0.6322
 2000SOL     OW17461   2.501   2.113   0.591 -0.2100 -0.3114 -0.6127
 2000SOL    HW117462   2.552   2.114   0.510 -0.2009  0.2007 -0.5964
 2000SOL    HW217463   2.415   2.082   0.562  0.1991 -1.4583 -0.5989
 2001SOL     OW17464   4.264   2.271  10.097  0.4322  0.2939  0.0379
 2001SOL    HW117465   4.236   2.318  10.018  1.1515 -1.2037 -1.1040
 2001SOL    HW217466   4.186   2.228  10.132 -0.2614  0.3404 -1.4615
 2002SOL     OW17467   2.226   1.909   8.515  0.9635  0.0573  0.1906
 2002SOL    HW117468   2.276   1.918   8.596  0.1432 -0.4688  0.7496
 2002SOL    HW217469   2.210   2.002   8.496 -1.5408 -1.0029 -3.0529
 2003SOL     OW17470   3.760   2.026  13.716 -0.4875  0.3583 -0.3626
 2003SOL    HW117471   3.818   2.001  13.644  2.1553  1.4915  1.3450
 2003SOL    HW217472   3.795   2.112  13.740  0.1911 -0.8138  2.8545
 2004SOL     OW17473   2.657   1.461   3.696 -0.2288  0.5913  0.2049
 2004SOL    HW117474   2.742   1.506   3.697 -0.2147  0.6143 -2.0246
 2004SOL    HW217475   2.612   1.513   3.630 -1.4861  1.2127  1.5403
 2005SOL     OW17476   1.223   3.297   7.557 -0.2305  0.4507  0.3466
 2005SOL    HW117477   1.269   3.263   7.480  0.3442 -0.7171  1.1922
 2005SOL    HW217478   1.133   3.271   7.540 -0.0353  0.2332 -0.3528
 2006SOL     OW17479   1.722   0.895   1.631  0.6357  0.2770 -0.4436
 2006SOL    HW117480   1.719   0.968   1.569  0.0990  0.5261 -0.1289
 2006SOL    HW217481   1.764   0.935   1.707 -1.4398  1.5149  0.0575
 2007SOL     OW17482   1.173   2.509   3.463 -0.1565  0.5193  0.0565
 2007SOL    HW117483   1.197   2.548   3.547  0.6019  0.3728 -0.0889
 2007SOL    HW217484   1.124   2.583   3.429 -0.0997  0.3736 -0.3413
 2008SOL     OW17485   2.121   3.755   7.152  0.8311 -0.2624  0.1415
 2008SOL    HW117486   2.155   3.833   7.196  0.1445  0.2157 -0.1829
 2008SOL    HW217487   2.199   3.704   7.173  0.5811 -1.0784 -0.9404
 2009SOL     OW17488   2.382   3.493   1.127 -0.3907  0.7006  0.2279
 2009SOL    HW117489   2.328   3.414   1.119  1.1610 -0.4450  1.0315
 2009SOL    HW217490   2.404   3.507   1.036  2.1486  0.9923  0.8921
 2010SOL     OW17491   3.469   3.587  11.490 -0.0063  0.1119  0.4820
 2010SOL    HW117492   3.437   3.584  11.400 -1.4123 -2.8428  1.0506
 2010SOL    HW217493   3.558   3.558  11.470 -0.6433 -1.8825  0.4523
 2011SOL     OW17494   1.978   1.117   9.965 -0.0304  0.6864 -0.1180
 2011SOL    HW117495   1.982   1.096   9.872  1.7085  1.5375 -0.2244
 2011SOL    HW217496   2.056   1.171   9.977 -1.4213  2.1690  2.1793
 2012SOL     OW17497   3.773   1.076   4.427 -0.2367 -0.5805  0.3780
 2012SOL    HW117498   3.858   1.071   4.384  0.4565 -0.9405  1.7700
 2012SOL    HW217499   3.716   1.087   4.351  1.1920  0.8080 -0.4929
 2013SOL     OW17500   4.363   3.663   3.914  0.5743 -0.0991  0.3910
 2013SOL    HW117501   4.279   3.666   3.869 -0.2408 -0.7029  1.8735
 2013SOL    HW217502   4.420   3.712   3.854  1.6222 -0.7304  0.8765
 2014SOL     OW17503   3.218   0.090   4.292  0.0068  0.4836 -0.4164
 2014SOL    HW117504   3.158   0.065   4.222 -0.1135 -1.9569  0.5572
 2014SOL    HW217505   3.186   0.044   4.370  0.1584  0.9021 -0.1081
 2015SOL     OW17506   3.864   2.178   0.319  0.7453 -0.2499 -0.4724
 2015SOL    HW117507   3.865   2.114   0.390 -0.1587 -1.0714 -1.2052
 2015SOL    HW217508   3.843   2.117   0.248 -3.2606  0.5722  0.0084
 2016SOL     OW17509   2.127   0.045   4.574  0.0573 -0.3854  0.4026
 2016SOL    HW117510   2.186   0.120   4.570 -1.1740  0.5170 -0.8904
 2016SOL    HW217511   2.048   0.090   4.605 -0.3946  0.6697 -2.2617
 2017SOL     OW17512   1.557   2.122   8.198  0.4212 -0.1145  0.2839
 2017SOL    HW117513   1.601   2.181   8.260 -1.0837  0.2981  0.9800
 2017SOL    HW217514   1.488   2.181   8.167  2.3330  1.7091 -0.4739
 2018SOL     OW17515   1.125   1.829   5.649 -0.0457 -0.3332  0.0167
 2018SOL    HW117516   1.147   1.921   5.635 -1.0004 -0.5547 -2.9094
 2018SOL    HW217517   1.076   1.834   5.731 -1.1162  0.3837 -0.6649
 2019SOL     OW17518   0.135   1.104   7.375 -0.1566  0.0016 -0.3300
 2019SOL    HW117519   0.112   1.067   7.289  0.2159  1.0216 -0.8617
 2019SOL    HW217520   0.217   1.149   7.359  0.7994 -0.8434  2.1804
 2020SOL     OW17521   2.094   2.826  11.893  0.1034 -0.1093  0.0676
 2020SOL    HW117522   2.061   2.772  11.821 -1.1184  0.3295  0.2820
 2020SOL    HW217523   2.015   2.837  11.947 -1.0064 -0.8251 -1.3902
 2021SOL     OW17524   4.705   4.511  15.373  0.0974 -0.8578  0.2213
 2021SOL    HW117525   0.035   4.480  15.301  0.1557  2.6785 -1.2810
 2021SOL    HW217526   4.620   4.521  15.329 -0.1199  3.7648  1.7448
 2022SOL     OW17527   3.112   0.901   8.731  0.1234  0.0069 -0.0538
 2022SOL    HW117528   3.041   0.881   8.669 -0.6723 -0.3175  0.9510
 2022SOL    HW217529   3.182   0.929   8.672 -0.2708 -0.9901 -1.0002
 2023SOL     OW17530   0.609   1.242   5.399 -0.0917 -0.0080  0.0349
 2023SOL    HW117531   0.592   1.196   5.316  1.2796 -0.4132 -0.0193
 2023SOL    HW217532   0.525   1.283   5.419 -1.2015 -0.7040 -3.0983
 2024SOL     OW17533   3.564   4.614   1.634 -0.6238 -0.0192 -0.7166
 2024SOL    HW117534   3.592   4.523   1.632 -1.3448 -0.2763  0.6907
 2024SOL    HW217535   3.633   4.661   1.681 -1.7038  0.7123  0.1501
 2025SOL     OW17536   3.548   2.419  11.062  0.1826  0.0779  0.2937
 2025SOL    HW117537   3.491   2.493  11.041  2.3518  1.7546  0.3235
 2025SOL    HW217538   3.505   2.394  11.143  1.8980  0.3050  1.2724
 2026SOL     OW17539   0.162   4.373   8.825 -0.5149 -0.6105 -0.1023
 2026SOL    HW117540   0.185   4.291   8.868 -0.9342 -0.8121 -0.2627
 2026SOL    HW217541   0.184   4.431   8.898  1.6082 -2.4490  0.7090
 2027SOL     OW17542   1.537   0.998   3.128  0.6290  0.6272  0.5494
 2027SOL    HW117543   1.610   0.946   3.094  0.0183  0.8226 -1.0622
 2027SOL    HW217544   1.491   1.008   3.044 -0.7474  0.2330  1.2488
 2028SOL     OW17545   2.100   3.005   9.029  0.0538  0.3710 -0.3777
 2028SOL    HW117546   2.101   3.083   8.973  0.9372  0.0788 -0.7769
 2028SOL    HW217547   2.066   3.041   9.111 -1.5963  1.1722 -1.4329
 2029SOL     OW17548   4.446   1.372  16.522 -0.4391 -0.1187  0.5103
 2029SOL    HW117549   4.524   1.351  16.573 -0.3583  1.9536  1.2183
 2029SOL    HW217550   4.466   1.433  16.451 -2.4385  0.4768  0.4452
 2030SOL     OW17551   4.289   3.654  10.384  0.1547  0.5391  0.5325
 2030SOL    HW117552   4.228   3.727  10.370 -0.6770 -0.7058 -2.3658
 2030SOL    HW217553   4.255   3.617  10.465  2.3592 -0.1881  1.1015
 2031SOL     OW17554   1.804   3.938   1.311 -0.1858  0.4959  0.5585
 2031SOL    HW117555   1.756   3.880   1.253  1.2689  0.3928 -0.5567
 2031SOL    HW217556   1.852   3.870   1.359  0.0945  1.0452  1.0516
 2032SOL     OW17557   0.325   0.177   7.722  0.2973  0.6106 -0.0759
 2032SOL    HW117558   0.244   0.226   7.704  0.0044  0.7985  1.7674
 2032SOL    HW217559   0.390   0.245   7.705  1.0102 -0.4645 -1.6410
 2033SOL     OW17560   2.319   1.364   0.654  0.2408  0.0006  0.0729
 2033SOL    HW117561   2.414   1.365   0.659  0.1304 -1.2163  2.8441
 2033SOL    HW217562   2.305   1.434   0.591 -0.5947  0.7633  1.0949
 2034SOL     OW17563   2.223   3.493   1.450  0.1881 -0.4355  0.2749
 2034SOL    HW117564   2.300   3.449   1.415  0.1654  0.1515 -0.4928
 2034SOL    HW217565   2.160   3.509   1.380  0.3003  2.0340  0.7592
 2035SOL     OW17566   3.426   3.364   4.816  0.6786 -1.1320  0.2864
 2035SOL    HW117567   3.492   3.386   4.750  0.3510  0.7149  0.5652
 2035SOL    HW217568   3.380   3.448   4.809  0.0806 -1.6228 -1.7536
 2036SOL     OW17569   3.171   0.087   4.881 -0.3295 -0.2747 -0.6843
 2036SOL    HW117570   3.103   0.129   4.933 -1.4749 -2.2157 -0.6165
 2036SOL    HW217571   3.202   0.024   4.947  1.4619  0.3970 -0.8833
 2037SOL     OW17572   4.364   3.605   2.110 -0.0773  0.1618  0.3261
 2037SOL    HW117573   4.300   3.599   2.039  0.0425  1.0388  0.1505
 2037SOL    HW217574   4.376   3.514   2.138 -0.5651 -1.0584 -3.5142
 2038SOL     OW17575   2.200   0.013   6.172 -0.0128 -0.8716  0.1156
 2038SOL    HW117576   2.206   0.079   6.103  1.9966 -0.6226  0.5371
 2038SOL    HW217577   2.142   0.051   6.238 -0.9769  1.2797 -1.9649
 2039SOL     OW17578   1.127   2.666  12.980 -0.0705 -0.7236 -0.4589
 2039SOL    HW117579   1.126   2.760  12.965 -0.4234 -0.5431  0.6952
 2039SOL    HW217580   1.176   2.637  12.903  3.0938  0.9795  0.9041
 2040SOL     OW17581   1.211   3.712   0.618 -0.0582  0.1478  0.4162
 2040SOL    HW117582   1.132   3.747   0.659 -0.4344 -1.2044  0.8125
 2040SOL    HW217583   1.266   3.721   0.696 -3.7977  1.5383  2.8782
 2041SOL     OW17584   1.638   4.694   5.615 -0.1036 -0.4389 -0.0449
 2041SOL    HW117585   1.642   4.611   5.569 -0.5476 -0.8551  0.6621
 2041SOL    HW217586   1.631   0.031   5.543  4.3656  1.0335  0.7770
 2042SOL     OW17587   0.554   3.140   3.419 -0.8170 -0.4399  0.2834
 2042SOL    HW117588   0.630   3.186   3.455 -1.3216  1.8788 -1.5703
 2042SOL    HW217589   0.532   3.072   3.482  2.5693 -0.8837  1.0055
 2043SOL     OW17590   3.025   3.653   8.313 -0.3554 -0.2396  0.4448
 2043SOL    HW117591   2.978   3.712   8.255  0.4653  0.4428  0.4681
 2043SOL    HW217592   2.977   3.571   8.301 -0.3905 -0.1254 -0.1753
 2044SOL     OW17593   3.043   3.325   7.886 -0.6105  0.0884  0.4941
 2044SOL    HW117594   2.947   3.323   7.894 -0.6100 -1.4315  0.1869
 2044SOL    HW217595   3.056   3.230   7.877  0.1320  0.0628  1.8539
 2045SOL     OW17596   1.516   0.848   9.196 -0.3861 -0.1959  0.0705
 2045SOL    HW117597   1.425   0.849   9.227 -1.1899 -3.2909 -2.1110
 2045SOL    HW217598   1.533   0.755   9.180  0.8953 -0.4375  2.9805
 2046SOL     OW17599   1.556   3.606   8.791 -0.1758 -0.1584 -0.0657
 2046SOL    HW117600   1.468   3.643   8.784  0.7622  1.7518 -1.6364
 2046SOL    HW217601   1.532   3.517   8.816 -0.5498 -0.3803 -1.2047
 2047SOL     OW17602   1.807   0.964   4.035 -0.2606 -0.0929  0.0445
 2047SOL    HW117603   1.863   0.893   4.065  1.1825  1.3240  0.6714
 2047SOL    HW217604   1.728   0.927   4.075 -0.2290  0.2758  0.4423
 2048SOL     OW17605   2.472   1.355  16.844 -0.0107 -0.3003 -0.0277
 2048SOL    HW117606   2.447   1.270  16.808 -0.1659 -0.4504  0.4298
 2048SOL    HW217607   2.452   1.342  16.937 -1.1747  1.9872  0.0408
 2049SOL     OW17608   3.413   2.764   8.652  0.0902  0.0850  0.8011
 2049SOL    HW117609   3.486   2.706   8.629  1.7699  2.3923  0.3390
 2049SOL    HW217610   3.348   2.700   8.681  0.4123 -0.5900  0.0286
 2050SOL     OW17611   0.194   1.046   2.357  0.2043  0.7551 -0.3116
 2050SOL    HW117612   0.203   1.139   2.337  0.8712  0.5979 -0.7478
 2050SOL    HW217613   0.271   1.028   2.412  1.2107  3.1262 -0.9536
 2051SOL     OW17614   0.161   0.348   2.846 -0.0714 -0.0916 -0.1712
 2051SOL    HW117615   0.126   0.294   2.917 -1.9001 -0.6926 -1.5468
 2051SOL    HW217616   0.093   0.414   2.829  1.8533  1.9371 -0.0775
 2052SOL     OW17617   4.005   0.601   5.038 -0.2481 -0.4794  0.3487
 2052SOL    HW117618   4.093   0.580   5.068  0.4106 -0.6187 -1.6796
 2052SOL    HW217619   3.951   0.619   5.115 -0.7190  1.2535 -0.3682
 2053SOL     OW17620   4.104   2.623   6.488 -0.0322 -0.0818 -0.0149
 2053SOL    HW117621   4.055   2.632   6.407  1.1546 -0.5260 -0.7934
 2053SOL    HW217622   4.045   2.656   6.555 -0.4705 -0.5888 -0.1493
 2054SOL     OW17623   0.909   4.254   8.952 -0.0918 -0.6638 -0.0388
 2054SOL    HW117624   0.935   4.339   8.988  0.4878 -0.8664  0.0358
 2054SOL    HW217625   0.924   4.199   9.028  1.8238 -0.1227 -0.0005
 2055SOL     OW17626   1.727   4.035   2.473 -0.2113 -0.9060 -0.6147
 2055SOL    HW117627   1.790   4.086   2.525  0.4968 -1.4719 -0.9221
 2055SOL    HW217628   1.653   4.096   2.468 -1.1727 -1.9809  0.6707
 2056SOL     OW17629   2.741   2.868  11.016 -0.1678 -0.3718 -0.2242
 2056SOL    HW117630   2.647   2.863  11.033  0.2582 -1.5927  1.7205
 2056SOL    HW217631   2.771   2.788  11.058  0.8976 -0.2313 -0.7166
 2057SOL     OW17632   0.074   1.835   7.708 -0.5794 -0.7460  0.0397
 2057SOL    HW117633   0.118   1.859   7.789 -0.7176  1.2212 -0.4701
 2057SOL    HW217634   0.129   1.772   7.661 -0.3066 -1.1829  0.9592
 2058SOL     OW17635   1.254   2.109   5.018  0.3014  0.5710  0.5147
 2058SOL    HW117636   1.193   2.098   5.091  0.3701 -1.8102  0.2165
 2058SOL    HW217637   1.202   2.161   4.956  0.4626 -0.2462 -0.2993
 2059SOL     OW17638   3.095   2.372   8.499 -0.0476  0.3547  0.0033
 2059SOL    HW117639   3.061   2.407   8.417 -0.1250  2.1160  0.7865
 2059SOL    HW217640   3.035   2.301   8.523 -0.2579  0.0845 -1.3515
 2060SOL     OW17641   0.836   3.558   6.245 -0.0603  0.2672 -0.3552
 2060SOL    HW117642   0.869   3.636   6.289  1.2251  0.5600 -1.8356
 2060SOL    HW217643   0.746   3.551   6.277 -0.4473  2.3117 -0.9927
 2061SOL     OW17644   1.731   0.489   7.544  0.2973 -0.1514  0.1799
 2061SOL    HW117645   1.757   0.499   7.636 -1.3445  1.1966  0.4984
 2061SOL    HW217646   1.803   0.535   7.501 -1.1822  1.3218 -0.7145
 2062SOL     OW17647   1.950   1.870   8.647 -0.1675  0.3196  0.3268
 2062SOL    HW117648   1.865   1.841   8.681 -1.7180  0.7305 -3.2082
 2062SOL    HW217649   1.998   1.790   8.628 -0.1745  1.3458 -3.9891
 2063SOL     OW17650   1.787   0.321   8.833  0.1276  0.0737 -0.0042
 2063SOL    HW117651   1.789   0.241   8.886  0.4973 -0.3424 -0.6421
 2063SOL    HW217652   1.864   0.310   8.777 -0.1635  0.4473 -0.4786
 2064SOL     OW17653   4.220   1.979   7.256 -0.4288 -0.2764 -0.5159
 2064SOL    HW117654   4.271   2.012   7.182  1.4519  0.3752  1.0500
 2064SOL    HW217655   4.286   1.996   7.323 -3.4725  2.7959  1.7186
 2065SOL     OW17656   1.896   3.339   7.999  0.3036 -0.0876  0.1425
 2065SOL    HW117657   1.926   3.248   7.999 -1.8909 -0.8059 -1.0337
 2065SOL    HW217658   1.854   3.343   7.914 -1.8707 -0.2906  1.2084
 2066SOL     OW17659   0.095   4.448   7.029  0.1607  0.0436 -0.3609
 2066SOL    HW117660   0.082   4.396   6.950  3.7321 -0.0543 -0.8607
 2066SOL    HW217661   0.004   4.465   7.055  0.1067 -1.6000  0.5251
 2067SOL     OW17662   2.867   2.414  14.082  0.0274 -0.2030  0.1780
 2067SOL    HW117663   2.798   2.479  14.098  2.0672  2.2243 -0.8560
 2067SOL    HW217664   2.808   2.346  14.050 -0.1194  0.0271 -0.0431
 2068SOL     OW17665   3.628   1.393  11.008  0.4826  0.5499 -0.2689
 2068SOL    HW117666   3.713   1.390  10.966 -0.1518  0.5919 -1.5471
 2068SOL    HW217667   3.639   1.403  11.103 -2.1218  0.6237  0.0446
 2069SOL     OW17668   1.898   4.529   4.010  0.0972  0.5241 -0.0655
 2069SOL    HW117669   1.820   4.475   3.997 -0.8859  2.0540 -0.6121
 2069SOL    HW217670   1.855   4.614   4.003  1.8375  1.4216  0.1619
 2070SOL     OW17671   3.521   2.312   3.060  0.0539 -0.8646 -0.0161
 2070SOL    HW117672   3.511   2.401   3.093  2.3305 -0.7928  0.4915
 2070SOL    HW217673   3.600   2.290   3.109 -3.0385 -2.1959  4.3728
 2071SOL     OW17674   4.659   2.335   7.118 -0.3402 -0.0335  0.1732
 2071SOL    HW117675   4.568   2.310   7.103 -0.7912  0.3778  2.3646
 2071SOL    HW217676   4.650   2.421   7.158  0.7153 -0.5089  1.4557
 2072SOL     OW17677   2.933   0.440   9.049 -0.2914 -0.4365  0.7800
 2072SOL    HW117678   2.985   0.377   8.998  0.1070  0.1125  0.5163
 2072SOL    HW217679   2.986   0.458   9.126 -0.2483 -1.2403  0.9413
 2073SOL     OW17680   3.671   2.460   5.081 -0.3728 -0.2955 -0.3943
 2073SOL    HW117681   3.588   2.493   5.116  0.4208  0.5555  0.6998
 2073SOL    HW217682   3.679   2.518   5.005  0.3763 -0.5378 -0.4974
 2074SOL     OW17683   3.378   3.515  15.350 -0.3973  0.4851 -0.5396
 2074SOL    HW117684   3.331   3.488  15.429 -1.1472  3.3766  0.0055
 2074SOL    HW217685   3.325   3.571  15.294 -1.0506  0.3277 -0.0833
 2075SOL     OW17686   0.203   0.989   4.464 -0.4938 -0.4395  0.6398
 2075SOL    HW117687   0.211   0.999   4.369 -1.5394  1.5257  0.7707
 2075SOL    HW217688   0.294   0.972   4.488 -0.7155 -2.0710  0.3425
 2076SOL     OW17689   1.593   3.212   0.854  0.3393  0.2957 -0.3607
 2076SOL    HW117690   1.579   3.148   0.784 -0.3110 -1.2034  1.1335
 2076SOL    HW217691   1.572   3.156   0.929 -1.0619 -0.2762 -1.1831
 2077SOL     OW17692   0.881   0.255  10.088  0.6742 -0.2364  0.0269
 2077SOL    HW117693   0.855   0.269  10.179 -1.3598 -1.3670 -0.3812
 2077SOL    HW217694   0.829   0.184  10.050  1.3013 -0.2705 -0.7578
 2078SOL     OW17695   3.437   0.811   1.587 -0.6107  0.2058  0.6212
 2078SOL    HW117696   3.519   0.763   1.601  0.0068  0.3010 -2.5961
 2078SOL    HW217697   3.390   0.781   1.665 -1.9705  0.8869  0.0519
 2079SOL     OW17698   2.604   4.521   1.259  0.6001  0.1857 -0.5886
 2079SOL    HW117699   2.695   4.539   1.282  0.2966  0.1995  0.5698
 2079SOL    HW217700   2.565   4.539   1.344  0.3813  0.8479 -0.8326
 2080SOL     OW17701   3.632   3.330   3.297  0.5314 -0.3044 -0.0238
 2080SOL    HW117702   3.599   3.241   3.282 -0.4447 -0.0512  0.5882
 2080SOL    HW217703   3.667   3.343   3.209 -1.3001  0.0752 -0.7067
 2081SOL     OW17704   4.371   0.977  16.790  0.3967  0.7175  0.6578
 2081SOL    HW117705   4.445   0.966  16.730  0.8716 -0.2890  1.4379
 2081SOL    HW217706   4.304   0.915  16.759  0.4448  0.7690  0.4464
 2082SOL     OW17707   3.609   3.584   5.069 -0.2570 -0.0589  0.5753
 2082SOL    HW117708   3.565   3.612   4.990 -1.2217 -1.1017  0.7437
 2082SOL    HW217709   3.643   3.498   5.043  0.6750  0.0108  1.5427
 2083SOL     OW17710   1.185   1.549   8.714 -0.0891 -0.1133 -0.1264
 2083SOL    HW117711   1.276   1.520   8.712 -0.2527 -0.6516  0.2616
 2083SOL    HW217712   1.188   1.627   8.658  1.2725 -1.1419 -1.4713
 2084SOL     OW17713   0.228   1.798   6.179 -0.1916 -0.4216  0.4487
 2084SOL    HW117714   0.165   1.822   6.111 -1.9491 -1.7954  1.6067
 2084SOL    HW217715   0.199   1.847   6.256  1.2423 -1.1088  1.4162
 2085SOL     OW17716   0.944   3.886  10.744 -0.4679  0.1318 -0.2053
 2085SOL    HW117717   0.983   3.806  10.779  0.8966  0.5717 -0.7375
 2085SOL    HW217718   0.921   3.870  10.653 -2.2958 -1.1670  0.4670
 2086SOL     OW17719   2.151   1.618   0.492 -0.1381  0.3114  0.5502
 2086SOL    HW117720   2.169   1.700   0.539 -0.0068  1.0837 -0.8313
 2086SOL    HW217721   2.058   1.627   0.469  0.0695 -0.7112 -0.6879
 2087SOL     OW17722   1.530   2.856   7.309  0.7117 -0.3727 -0.1520
 2087SOL    HW117723   1.611   2.904   7.297 -0.2186  0.8756 -1.3543
 2087SOL    HW217724   1.558   2.771   7.274  0.8599 -1.5536  2.7670
 2088SOL     OW17725   0.658   3.391   4.374 -0.5225  0.2734  0.2965
 2088SOL    HW117726   0.633   3.302   4.399  3.4659 -0.6766  0.8933
 2088SOL    HW217727   0.671   3.390   4.279 -1.5141  1.3847  0.1527
 2089SOL     OW17728   0.651   3.147   6.412  0.0569 -0.6075 -0.3784
 2089SOL    HW117729   0.737   3.155   6.453 -0.3350  1.5773  0.0141
 2089SOL    HW217730   0.667   3.098   6.331 -1.7337  1.0109 -1.7245
 2090SOL     OW17731   2.319   1.510   1.604  0.4717  0.1028  0.2600
 2090SOL    HW117732   2.349   1.560   1.680 -0.1612  0.4635  0.2707
 2090SOL    HW217733   2.337   1.422   1.635  0.2288 -0.0995 -0.1668
 2091SOL     OW17734   4.186   2.988   7.973 -0.5310  0.6859 -0.0550
 2091SOL    HW117735   4.173   3.059   8.036 -0.3439 -0.8341  1.7009
 2091SOL    HW217736   4.276   2.960   7.985 -1.5979 -3.3438 -1.3554
 2092SOL     OW17737   3.281   1.694   4.438 -0.5197  0.1092  0.1517
 2092SOL    HW117738   3.236   1.711   4.521 -0.9456  1.0047 -0.2575
 2092SOL    HW217739   3.284   1.599   4.429 -0.6834  0.0115  1.1133
 2093SOL     OW17740   1.650   1.082  16.772  0.0924  0.2332 -0.1951
 2093SOL    HW117741   1.619   1.026  16.700 -0.5573  1.3370 -0.7677
 2093SOL    HW217742   1.737   1.110  16.745  0.2669  1.1376  1.3192
 2094SOL     OW17743   0.906   2.074  15.817  0.1623  0.6887  0.1436
 2094SOL    HW117744   0.909   1.982  15.792  1.5709  0.8018 -0.1273
 2094SOL    HW217745   0.851   2.098  15.743  1.5714 -0.8264 -1.3903
 2095SOL     OW17746   2.644   0.160  14.708  0.2362  0.7471 -0.3935
 2095SOL    HW117747   2.587   0.237  14.710  0.1143  0.6562 -0.4078
 2095SOL    HW217748   2.722   0.215  14.708 -1.9505  3.8525 -0.3308
 2096SOL     OW17749   2.913   4.238   5.799 -0.0276  0.5161 -0.6603
 2096SOL    HW117750   2.835   4.293   5.789  1.3089  2.4417 -0.5140
 2096SOL    HW217751   2.959   4.270   5.721  0.4274  0.6190 -0.3509
 2097SOL     OW17752   0.207   2.522  12.792  0.7565 -0.5924 -0.2356
 2097SOL    HW117753   0.133   2.492  12.739 -1.4487  1.5893  1.5613
 2097SOL    HW217754   0.166   2.598  12.834 -0.1139 -2.5543  2.4730
 2098SOL     OW17755   0.038   2.190   2.856  0.2515 -0.3215 -0.7031
 2098SOL    HW117756   4.701   2.118   2.865  1.2754 -1.1844 -0.6603
 2098SOL    HW217757   4.699   2.260   2.838 -2.7221 -2.3884  1.9115
 2099SOL     OW17758   0.374   4.561   8.128 -0.7731 -0.5316 -0.3913
 2099SOL    HW117759   0.449   4.586   8.074 -0.1272  1.3346  1.3489
 2099SOL    HW217760   0.309   4.534   8.063 -0.4128 -1.7439 -0.2353
 2100SOL     OW17761   0.913   0.105  16.636 -0.2610 -0.0957 -0.0383
 2100SOL    HW117762   0.887   0.075  16.723  2.3281 -1.0780  0.3782
 2100SOL    HW217763   0.866   0.044  16.578 -0.7145  0.0923  0.1333
 2101SOL     OW17764   1.539   4.563   7.656 -0.0868 -0.3379 -0.1876
 2101SOL    HW117765   1.558   4.623   7.584  1.0209  0.8361  1.0885
 2101SOL    HW217766   1.461   4.524   7.617  1.3706 -0.8636 -2.6018
 2102SOL     OW17767   3.225   3.821   6.649  0.0130 -0.5000 -0.0995
 2102SOL    HW117768   3.268   3.820   6.564  0.0812 -0.4874 -0.0647
 2102SOL    HW217769   3.139   3.858   6.629 -0.2101 -2.5318 -2.9577
 2103SOL     OW17770   0.618   1.969   9.624  0.6175 -0.1937 -0.7586
 2103SOL    HW117771   0.563   1.903   9.581 -0.3480  0.1548 -0.0741
 2103SOL    HW217772   0.692   1.910   9.630  0.0636 -0.6814  1.3522
 2104SOL     OW17773   0.124   0.335  17.327  0.4152 -0.1455  0.4785
 2104SOL    HW117774   0.171   0.258  17.356 -1.1170 -0.8674  1.0649
 2104SOL    HW217775   0.035   0.300  17.333  0.4380 -0.4965 -1.0708
 2105SOL     OW17776   4.671   3.638  16.787  0.1270 -0.3645 -0.4068
 2105SOL    HW117777   4.672   3.555  16.739 -0.3178 -3.1805  4.4746
 2105SOL    HW217778   0.010   3.634  16.858 -3.3235 -1.4839  2.5804
 2106SOL     OW17779   2.211   0.114  13.462 -0.3899 -0.1693 -0.2296
 2106SOL    HW117780   2.117   0.109  13.446  0.1324  0.1516 -3.4031
 2106SOL    HW217781   2.214   0.186  13.525 -0.2068  0.7405 -1.2945
 2107SOL     OW17782   3.382   0.975   2.745  0.4495  1.1286  0.0770
 2107SOL    HW117783   3.447   0.905   2.744  0.3103  1.0182 -1.1719
 2107SOL    HW217784   3.428   1.043   2.696 -1.3995  0.0655 -3.1050
 2108SOL     OW17785   1.258   2.966   9.749  0.6632  0.1513  0.1868
 2108SOL    HW117786   1.310   3.046   9.756  1.0401 -0.0325 -0.4599
 2108SOL    HW217787   1.231   2.947   9.839 -0.3876 -0.0055 -0.1623
 2109SOL     OW17788   4.089   2.683  17.587 -0.3291 -0.1052  0.1143
 2109SOL    HW117789   4.093   2.697  17.682 -0.0907  2.2149 -0.2466
 2109SOL    HW217790   4.123   2.594  17.579  0.6700  0.3704 -0.9865
 2110SOL     OW17791   4.254   0.201   7.978 -0.3632  0.3665  0.4183
 2110SOL    HW117792   4.159   0.198   7.984 -0.2566 -2.9506  0.4166
 2110SOL    HW217793   4.277   0.268   8.043 -0.1478  0.9797 -0.2974
 2111SOL     OW17794   3.564   3.955   5.807 -0.3290 -0.1322 -0.4563
 2111SOL    HW117795   3.485   3.905   5.789 -0.2902 -0.7247  1.0207
 2111SOL    HW217796   3.561   4.022   5.739  1.8189  0.5600  0.1149
 2112SOL     OW17797   3.301   3.839  11.363 -0.0437 -0.1870 -0.2101
 2112SOL    HW117798   3.302   3.775  11.292 -2.5515  2.1723 -2.3383
 2112SOL    HW217799   3.265   3.782  11.431  1.2968  2.0817  2.3998
 2113SOL     OW17800   4.216   2.120   6.856 -0.0239 -0.0589 -0.1322
 2113SOL    HW117801   4.163   2.199   6.849  2.0954  1.5225  1.7217
 2113SOL    HW217802   4.300   2.160   6.835  1.8299 -3.3675  1.0927
 2114SOL     OW17803   1.941   4.336   3.287 -0.8469  0.4279 -0.1049
 2114SOL    HW117804   2.006   4.300   3.347 -1.2178  1.2558  0.7812
 2114SOL    HW217805   1.873   4.268   3.289  0.0922 -0.4210  3.4096
 2115SOL     OW17806   3.718   3.325  12.431 -0.0956  0.1028 -0.2703
 2115SOL    HW117807   3.694   3.287  12.346 -0.8934 -1.7032  0.7706
 2115SOL    HW217808   3.795   3.378  12.410  0.7472 -0.9336  0.2514
 2116SOL     OW17809   3.731   1.225   8.495 -0.2994 -0.5067  0.6903
 2116SOL    HW117810   3.731   1.319   8.514  3.1039 -0.2174 -0.5854
 2116SOL    HW217811   3.684   1.227   8.412  1.0285  0.1738 -0.0429
 2117SOL     OW17812   0.095   3.316  11.269  0.5467 -0.1262 -0.4427
 2117SOL    HW117813   0.139   3.239  11.306  0.4522 -0.3302 -0.7507
 2117SOL    HW217814   0.095   3.371  11.347  1.6222  1.4312 -1.5426
 2118SOL     OW17815   1.370   1.822   3.345 -0.0646 -0.0852 -0.0215
 2118SOL    HW117816   1.332   1.835   3.258  0.6333 -0.5189 -0.3907
 2118SOL    HW217817   1.418   1.741   3.328 -1.3385 -1.0479  0.9383
 2119SOL     OW17818   1.852   1.967   1.996 -0.0554  0.2323  0.0223
 2119SOL    HW117819   1.796   2.023   2.049  0.1545 -2.0272  2.6295
 2119SOL    HW217820   1.832   1.881   2.034  0.4825 -0.7868 -1.9783
 2120SOL     OW17821   1.930   2.093   3.081  0.0280 -0.1566 -0.3888
 2120SOL    HW117822   1.982   2.157   3.131 -1.0672 -0.2914  0.9356
 2120SOL    HW217823   1.997   2.055   3.025  0.8179  1.1603 -0.3516
 2121SOL     OW17824   2.133   3.807  13.576  0.0125 -0.6545  0.0382
 2121SOL    HW117825   2.182   3.883  13.543  1.8493 -1.8913 -0.0667
 2121SOL    HW217826   2.100   3.777  13.491  1.8365  0.5619 -1.1044
 2122SOL     OW17827   1.060   4.684  10.021 -0.7288 -0.5833 -0.1027
 2122SOL    HW117828   0.987   4.630  10.050 -0.5697  0.0681  1.5224
 2122SOL    HW217829   1.017   4.702   9.937 -0.8399 -5.3128 -1.0818
 2123SOL     OW17830   2.609   0.907   3.872  0.0407 -0.2463 -0.0450
 2123SOL    HW117831   2.561   0.989   3.859  0.2045 -0.3816 -1.5597
 2123SOL    HW217832   2.698   0.932   3.849 -0.2540 -3.0310 -4.2297
 2124SOL     OW17833   1.592   0.860   6.848 -0.3464  0.4833 -0.0639
 2124SOL    HW117834   1.556   0.884   6.933  1.0838  1.2124  0.3421
 2124SOL    HW217835   1.578   0.941   6.797 -0.3337  0.6503  0.2003
 2125SOL     OW17836   0.229   3.170   3.838 -0.0027 -0.8121 -0.4702
 2125SOL    HW117837   0.281   3.235   3.791 -0.7768  1.6279  2.1170
 2125SOL    HW217838   0.294   3.137   3.900 -0.9195 -1.9387 -0.0936
 2126SOL     OW17839   0.790   4.342   7.026 -0.1555 -0.1500  0.1072
 2126SOL    HW117840   0.730   4.391   6.970  0.9929 -1.0146 -1.9039
 2126SOL    HW217841   0.770   4.386   7.109 -0.1979  1.2278 -0.6398
 2127SOL     OW17842   0.612   2.741   8.022  0.1838  0.7841  0.2582
 2127SOL    HW117843   0.519   2.721   8.032  0.6755 -2.2935 -1.1633
 2127SOL    HW217844   0.648   2.680   7.958  2.7660  2.5035  0.0605
 2128SOL     OW17845   2.849   4.170   4.546  0.1608  0.2511  0.1885
 2128SOL    HW117846   2.850   4.243   4.608 -1.3365  0.1372  0.3400
 2128SOL    HW217847   2.936   4.135   4.561  0.3513  0.0726 -1.2643
 2129SOL     OW17848   4.257   0.483  17.213  0.6995  0.3270 -0.0417
 2129SOL    HW117849   4.308   0.500  17.134 -2.0382  0.9968 -1.6620
 2129SOL    HW217850   4.183   0.433  17.179  0.5819 -0.5879  1.5846
 2130SOL     OW17851   4.683   3.899  14.755  0.0134  0.1846 -0.4095
 2130SOL    HW117852   4.609   3.950  14.723 -0.1580  1.5207  2.0833
 2130SOL    HW217853   0.014   3.900  14.677  0.1580  1.4037 -0.2977
 2131SOL     OW17854   2.293   3.704   8.159 -0.4309  0.1618  0.9207
 2131SOL    HW117855   2.386   3.705   8.184 -0.6029 -1.2472  1.6060
 2131SOL    HW217856   2.268   3.623   8.203 -3.0230  0.9352  0.8796
 2132SOL     OW17857   1.297   2.911   2.564  0.3798 -0.5439  0.0648
 2132SOL    HW117858   1.224   2.865   2.605 -0.8423  0.5860 -0.8534
 2132SOL    HW217859   1.372   2.866   2.602  0.5283 -1.7061 -1.5895
 2133SOL     OW17860   2.705   2.926   6.948  0.7072  0.4956 -0.2847
 2133SOL    HW117861   2.752   2.959   6.871  1.8428  0.6446  0.4747
 2133SOL    HW217862   2.772   2.949   7.012 -0.1670  0.5758  0.6105
 2134SOL     OW17863   2.259   0.599   3.956 -0.7461  0.7653 -0.0739
 2134SOL    HW117864   2.213   0.674   3.918 -1.0854  0.5031 -0.1881
 2134SOL    HW217865   2.191   0.570   4.017  0.0796  0.6264  0.7808
 2135SOL     OW17866   1.778   0.443  11.554  0.4085 -0.2765  0.2089
 2135SOL    HW117867   1.723   0.432  11.477  2.0702 -0.7649 -0.9023
 2135SOL    HW217868   1.725   0.513  11.593 -0.1174  1.0880 -2.9724
 2136SOL     OW17869   1.249   3.098   4.071  0.1652  0.3713 -0.1585
 2136SOL    HW117870   1.331   3.069   4.033  0.1523  0.0745  0.0438
 2136SOL    HW217871   1.271   3.158   4.142 -2.1495  1.2395 -0.1549
 2137SOL     OW17872   0.126   4.092   9.002  0.4267 -0.0641  0.3533
 2137SOL    HW117873   0.038   4.103   8.967  0.2774  1.1209  1.0989
 2137SOL    HW217874   0.148   4.167   9.058  0.3787 -0.8075  1.3679
 2138SOL     OW17875   1.030   0.640   4.711  0.7768 -0.2322 -0.2948
 2138SOL    HW117876   1.092   0.672   4.776  1.7962  0.3347 -1.5428
 2138SOL    HW217877   0.950   0.662   4.759  1.1811  0.7429 -0.0786
 2139SOL     OW17878   3.349   0.964   7.985 -0.9734 -0.4273 -0.1408
 2139SOL    HW117879   3.416   1.023   7.951 -1.1104  0.2673  0.8143
 2139SOL    HW217880   3.394   0.952   8.069 -0.8754  2.2256  0.1606
 2140SOL     OW17881   1.212   2.995   5.363  0.4013  0.1777 -0.0969
 2140SOL    HW117882   1.263   3.047   5.302  0.6570  0.0835  0.0363
 2140SOL    HW217883   1.202   3.053   5.438 -3.4249 -1.1962  0.4790
 2141SOL     OW17884   2.151   2.460   6.204  0.3280 -0.3886 -0.8801
 2141SOL    HW117885   2.226   2.474   6.263 -0.1971  0.5421 -0.4298
 2141SOL    HW217886   2.193   2.435   6.122  0.9990  0.1082 -0.6915
 2142SOL     OW17887   1.688   4.162   5.711 -0.1327 -0.5999 -0.0389
 2142SOL    HW117888   1.643   4.078   5.701 -0.2126 -0.3354 -1.7882
 2142SOL    HW217889   1.727   4.178   5.625 -1.1170 -0.5121 -0.4576
 2143SOL     OW17890   3.754   4.375  12.584  0.1357  0.7710 -0.1107
 2143SOL    HW117891   3.717   4.301  12.631  0.4858  0.3854 -0.4522
 2143SOL    HW217892   3.698   4.367  12.507  1.2094 -0.9858 -0.6983
 2144SOL     OW17893   0.753   2.659   5.684  0.2583  0.2721 -0.6957
 2144SOL    HW117894   0.765   2.642   5.777 -0.3689 -1.1020 -0.8525
 2144SOL    HW217895   0.668   2.619   5.665  1.0792 -2.6238  1.7339
 2145SOL     OW17896   2.155   1.741   3.412 -0.1482  0.0706  0.3044
 2145SOL    HW117897   2.223   1.677   3.431 -0.4161 -0.9783 -2.3026
 2145SOL    HW217898   2.104   1.745   3.493 -0.1886  0.9630  0.2418
 2146SOL     OW17899   3.056   4.356   6.774  0.3883 -0.2328 -0.5736
 2146SOL    HW117900   3.138   4.328   6.735  0.8377 -1.4013  1.1993
 2146SOL    HW217901   3.040   4.421   6.705 -0.1565  0.6698  0.4048
 2147SOL     OW17902   0.407   2.304   2.133 -0.2994 -0.0302  0.2493
 2147SOL    HW117903   0.408   2.250   2.212 -1.5103 -0.0297  0.2586
 2147SOL    HW217904   0.313   2.317   2.120 -0.2300  0.3100  0.0743
 2148SOL     OW17905   0.741   3.274   9.345  0.3015  0.0845  0.1387
 2148SOL    HW117906   0.758   3.358   9.302  2.9922 -1.7093 -2.2808
 2148SOL    HW217907   0.658   3.243   9.309  0.3980  1.5258 -1.3432
 2149SOL     OW17908   3.296   3.881  16.506  0.3099  0.3725  0.2143
 2149SOL    HW117909   3.345   3.801  16.488 -0.9476 -0.3636  0.0397
 2149SOL    HW217910   3.268   3.853  16.593 -0.5071  2.4195  0.6150
 2150SOL     OW17911   1.215   3.236  17.428  0.1615  0.1424 -0.0656
 2150SOL    HW117912   1.303   3.222  17.392  0.3619  0.8660  0.1494
 2150SOL    HW217913   1.192   3.143  17.434 -0.1960  0.1534 -1.2573
 2151SOL     OW17914   0.717   3.932   7.103  0.3222  0.3688 -0.0028
 2151SOL    HW117915   0.703   3.838   7.115  0.1043  0.4988  0.7586
 2151SOL    HW217916   0.786   3.950   7.168 -0.7666  0.9670  0.9865
 2152SOL     OW17917   2.260   0.600   0.054 -0.5726 -0.3057 -0.4377
 2152SOL    HW117918   2.337   0.651   0.029 -1.2768 -0.0689 -2.1426
 2152SOL    HW217919   2.295   0.562   0.135 -1.0383  1.0527  0.3882
 2153SOL     OW17920   2.591   1.300   4.934  0.0473  0.0593  0.1191
 2153SOL    HW117921   2.653   1.290   5.006  1.7304 -0.0113 -1.3286
 2153SOL    HW217922   2.514   1.266   4.978  0.4472  0.6795  1.2733
 2154SOL     OW17923   3.301   4.143   1.827  0.0735  0.1633  0.2493
 2154SOL    HW117924   3.317   4.216   1.768  1.2829 -0.3448 -0.0476
 2154SOL    HW217925   3.386   4.117   1.863  0.1716  0.3752  0.1706
 2155SOL     OW17926   1.474   3.268   4.355 -0.1230 -0.1432 -0.3556
 2155SOL    HW117927   1.544   3.220   4.310  1.8932  0.7039  1.8582
 2155SOL    HW217928   1.400   3.210   4.337  0.4795  0.0131 -3.2266
 2156SOL     OW17929   3.635   4.481  15.804 -0.1726 -0.1562  0.2930
 2156SOL    HW117930   3.584   4.466  15.724  2.5200 -1.1292 -1.2694
 2156SOL    HW217931   3.714   4.503  15.754 -1.5306 -1.4613 -2.4838
 2157SOL     OW17932   0.674   3.371   9.923  0.2340  0.3686 -0.2382
 2157SOL    HW117933   0.694   3.315   9.998 -2.4887 -3.0779 -2.0488
 2157SOL    HW217934   0.668   3.314   9.846  0.1829  1.4206 -1.0132
 2158SOL     OW17935   2.702   3.009   3.314  0.3330 -0.0902  0.4828
 2158SOL    HW117936   2.774   3.001   3.377 -0.7468 -0.6960  1.6537
 2158SOL    HW217937   2.736   2.962   3.238  1.0974  1.1368  0.0696
 2159SOL     OW17938   4.042   2.408   1.199 -0.0757  0.3629  0.2274
 2159SOL    HW117939   4.069   2.431   1.288  0.5128 -1.5782  0.5560
 2159SOL    HW217940   4.109   2.439   1.138 -2.0955  1.0777 -1.6107
 2160SOL     OW17941   1.660   1.652  15.711  0.0241  0.1083 -0.8587
 2160SOL    HW117942   1.703   1.654  15.796  3.7636  0.3325 -2.7761
 2160SOL    HW217943   1.727   1.664  15.643 -0.0266 -0.9318 -1.0979
 2161SOL     OW17944   2.394   1.578   8.010  0.3299  0.0327 -0.2440
 2161SOL    HW117945   2.479   1.550   7.977 -0.4956 -0.4176 -2.0090
 2161SOL    HW217946   2.361   1.632   7.938  0.0321 -0.1144 -0.2196
 2162SOL     OW17947   0.323   4.287   0.686 -0.3369 -0.1786 -0.2880
 2162SOL    HW117948   0.277   4.239   0.755  2.2143 -0.3020  1.3073
 2162SOL    HW217949   0.357   4.358   0.741  0.0217 -0.7287  0.2049
 2163SOL     OW17950   0.416   4.318   3.394 -0.0886 -0.1263  0.2142
 2163SOL    HW117951   0.352   4.274   3.449  1.6899  0.7269  2.9488
 2163SOL    HW217952   0.485   4.305   3.459 -0.9347 -1.4441  0.8534
 2164SOL     OW17953   3.798   4.423   3.056  0.3871 -0.5877  0.3116
 2164SOL    HW117954   3.864   4.358   3.077  0.2655 -1.5891 -2.4213
 2164SOL    HW217955   3.836   4.448   2.971 -0.9474  0.8410  0.1176
 2165SOL     OW17956   1.659   2.410   4.075 -0.0993  0.5081  0.6264
 2165SOL    HW117957   1.655   2.360   3.994 -2.5938  1.3129  0.2306
 2165SOL    HW217958   1.607   2.361   4.140  1.7489 -2.0707  0.1269
 2166SOL     OW17959   2.071   3.420  10.858  0.5494  0.2118  0.0144
 2166SOL    HW117960   2.041   3.508  10.838 -1.8091 -0.5422  0.2277
 2166SOL    HW217961   1.991   3.371  10.880  1.3184 -0.1267  2.0662
 2167SOL     OW17962   1.186   2.853  13.870 -0.1060  0.0518 -0.2346
 2167SOL    HW117963   1.092   2.862  13.886 -0.4211 -1.4398 -1.3034
 2167SOL    HW217964   1.195   2.858  13.775  1.5445  2.7058  0.0513
 2168SOL     OW17965   0.734   3.464   2.819  0.0370  0.7880  0.3518
 2168SOL    HW117966   0.819   3.421   2.807 -1.3678 -1.1473 -2.6813
 2168SOL    HW217967   0.667   3.404   2.786  0.1231  1.1092 -0.4117
 2169SOL     OW17968   2.537   3.906   6.993  0.1183 -1.0269  0.0083
 2169SOL    HW117969   2.630   3.914   7.016 -0.1396  1.5928  0.0665
 2169SOL    HW217970   2.525   3.814   7.020 -0.0979 -0.7561  0.8490
 2170SOL     OW17971   4.167   3.985   6.016  0.1539  0.1569  0.0462
 2170SOL    HW117972   4.168   4.031   5.932  2.6775 -0.7434 -0.4148
 2170SOL    HW217973   4.091   4.023   6.061  0.9144  0.6070  0.9396
 2171SOL     OW17974   4.701   0.586   8.137  0.1297  0.5824  0.0504
 2171SOL    HW117975   4.658   0.644   8.199 -1.9007 -0.4563 -0.3890
 2171SOL    HW217976   4.672   0.613   8.050 -2.5907  0.9359  1.0861
 2172SOL     OW17977   3.044   3.688   3.003  0.1520  0.2394  0.4182
 2172SOL    HW117978   3.105   3.761   2.986  0.5295 -0.4206 -1.0805
 2172SOL    HW217979   2.997   3.705   3.084  0.0444  1.8372  0.0274
 2173SOL     OW17980   3.451   0.381  10.912  0.3103 -0.4617 -0.0255
 2173SOL    HW117981   3.412   0.306  10.957  0.8415  0.6607  2.3189
 2173SOL    HW217982   3.523   0.343  10.862 -2.4805 -2.8971 -2.1727
 2174SOL     OW17983   3.670   3.423  16.190  0.4738 -0.5929 -0.1870
 2174SOL    HW117984   3.599   3.475  16.226 -0.2247 -1.6730 -0.0082
 2174SOL    HW217985   3.738   3.462  16.246 -0.3033 -2.3574  1.9800
 2175SOL     OW17986   3.496   1.557   8.752 -0.4558 -0.2016 -0.3942
 2175SOL    HW117987   3.568   1.569   8.814 -1.8221 -0.1121  1.1791
 2175SOL    HW217988   3.546   1.533   8.674 -1.3811 -1.4598 -0.5976
 2176SOL     OW17989   1.266   2.577   2.438 -0.0673  0.5710 -0.2325
 2176SOL    HW117990   1.209   2.551   2.366 -0.3230  2.2803 -0.6511
 2176SOL    HW217991   1.340   2.625   2.399  1.5020 -1.7124 -0.0947
 2177SOL     OW17992   1.492   2.667   2.295  0.2678  0.0833  0.3099
 2177SOL    HW117993   1.483   2.578   2.260 -0.2515 -0.6034  2.1506
 2177SOL    HW217994   1.581   2.692   2.270  0.0473  2.3654  1.8289
 2178SOL     OW17995   1.538   1.017   8.747  1.0271  0.2644  0.7294
 2178SOL    HW117996   1.598   0.953   8.786  1.2423  0.1842  0.2613
 2178SOL    HW217997   1.599   1.025   8.674  2.2916 -2.8746  1.4167
 2179SOL     OW17998   0.597   0.200   3.262  0.7078 -0.3019 -0.6390
 2179SOL    HW117999   0.561   0.176   3.176 -1.1751  1.4072 -0.3385
 2179SOL    HW218000   0.548   0.132   3.307 -1.6403  1.3133 -0.7425
 2180SOL     OW18001   1.834   1.211   3.270 -0.0009 -0.1131 -0.0492
 2180SOL    HW118002   1.823   1.116   3.269 -1.9667  0.0833  1.5083
 2180SOL    HW218003   1.922   1.210   3.233  0.7258  1.7922  1.6286
 2181SOL     OW18004   0.588   4.552   7.018 -0.2852  0.4104  0.4732
 2181SOL    HW118005   0.626   4.601   7.091  2.5699 -1.2116  0.0809
 2181SOL    HW218006   0.511   4.515   7.061 -0.6215 -0.5798 -0.9599
 2182SOL     OW18007   4.306   0.796   1.723 -0.0780  0.1607  0.0092
 2182SOL    HW118008   4.388   0.750   1.703  0.5087  1.0455  0.3312
 2182SOL    HW218009   4.335   0.850   1.797  0.9222  0.5053 -0.6289
 2183SOL     OW18010   4.377   1.226   2.105  0.2721 -0.2821  0.0626
 2183SOL    HW118011   4.387   1.170   2.182  0.8076 -0.2990 -0.0231
 2183SOL    HW218012   4.436   1.299   2.124 -0.1198  0.2825 -0.8687
 2184SOL     OW18013   4.572   1.728   7.642 -0.3774  0.0837 -0.6611
 2184SOL    HW118014   4.565   1.748   7.549 -0.6579  0.9497 -0.4506
 2184SOL    HW218015   4.648   1.780   7.666 -1.4725  1.3046  0.1481
 2185SOL     OW18016   3.397   4.138   3.835  0.1414 -0.2551 -0.2317
 2185SOL    HW118017   3.421   4.162   3.924 -0.2650 -1.8501  0.2897
 2185SOL    HW218018   3.443   4.203   3.781  1.6295 -0.2856  0.9999
 2186SOL     OW18019   3.624   0.473   1.337 -0.4783  0.1252 -0.4584
 2186SOL    HW118020   3.610   0.414   1.263  0.9060  2.0948 -2.2872
 2186SOL    HW218021   3.534   0.492   1.366 -0.7394 -2.1406  0.2522
 2187SOL     OW18022   0.766   1.020   7.335 -0.2019  0.3283 -0.2274
 2187SOL    HW118023   0.857   1.004   7.308  0.0193  0.7876  0.2275
 2187SOL    HW218024   0.728   0.938   7.367  1.9836 -0.6931 -0.1912
 2188SOL     OW18025   0.376   1.464  11.013  0.3133 -0.3564  0.0488
 2188SOL    HW118026   0.413   1.419  10.937 -0.5673 -1.4749  0.2779
 2188SOL    HW218027   0.402   1.407  11.087 -0.4598 -2.6027 -1.4033
 2189SOL     OW18028   0.914   3.848   4.216  0.1900 -0.1990  0.0015
 2189SOL    HW118029   0.837   3.850   4.160 -0.7708 -0.9293  1.2755
 2189SOL    HW218030   0.897   3.764   4.259  0.9335 -0.2065  0.2786
 2190SOL     OW18031   1.911   3.583   9.884  0.3265  0.2083 -0.1811
 2190SOL    HW118032   1.860   3.502   9.893  0.0795  0.1483 -2.1016
 2190SOL    HW218033   1.861   3.625   9.814 -0.0534 -0.4343 -0.3007
 2191SOL     OW18034   2.727   2.945  11.488  0.4397 -0.1325  0.9099
 2191SOL    HW118035   2.801   2.937  11.548  0.7885  0.3685  0.5447
 2191SOL    HW218036   2.654   2.951  11.549  1.5264  0.3400  2.1599
 2192SOL     OW18037   4.040   4.511   6.910 -0.0455  0.2569 -0.3956
 2192SOL    HW118038   3.954   4.488   6.945  0.8543 -3.0956 -0.4392
 2192SOL    HW218039   4.016   4.530   6.820  0.0145 -3.5866 -1.1795
 2193SOL     OW18040   1.438   1.756   9.237 -0.0304  0.8767  0.0114
 2193SOL    HW118041   1.382   1.832   9.256 -0.8062 -0.2020  2.0782
 2193SOL    HW218042   1.509   1.764   9.301  0.4770 -1.0421 -0.3169
 2194SOL     OW18043   2.292   0.631   9.662  0.1500  0.6282 -0.2792
 2194SOL    HW118044   2.309   0.663   9.751 -0.3192  0.5899 -0.1746
 2194SOL    HW218045   2.331   0.702   9.612  1.2945 -1.2228 -2.0571
 2195SOL     OW18046   4.315   3.763  16.561 -0.6025  0.3158  0.2366
 2195SOL    HW118047   4.328   3.839  16.618 -1.2368  0.2034  0.5356
 2195SOL    HW218048   4.319   3.811  16.478 -0.6897  0.8853  0.5574
 2196SOL     OW18049   4.165   2.108   6.247  0.2144  0.2503  0.1699
 2196SOL    HW118050   4.243   2.126   6.300  2.1165  0.8567 -2.8694
 2196SOL    HW218051   4.201   2.104   6.158  1.8092 -3.6241  0.9867
 2197SOL     OW18052   1.834   4.289   2.922 -0.0968  0.3477  0.1839
 2197SOL    HW118053   1.847   4.211   2.868  1.5121  0.1620  0.8576
 2197SOL    HW218054   1.739   4.282   2.931  0.2811 -1.2845  2.9401
 2198SOL     OW18055   3.828   2.102   8.206  0.2519 -0.1445  0.5252
 2198SOL    HW118056   3.764   2.170   8.223  0.5608  0.3248 -0.2095
 2198SOL    HW218057   3.903   2.135   8.255 -0.5898 -1.7103  2.8720
 2199SOL     OW18058   3.771   0.380  17.682 -0.2567 -0.4083  0.3349
 2199SOL    HW118059   3.723   0.415  17.606 -1.6258 -3.9645 -0.4633
 2199SOL    HW218060   3.726   0.296  17.687 -0.0286 -0.4985  0.8072
 2200SOL     OW18061   0.012   1.962  10.289  0.3950  0.3950  0.0702
 2200SOL    HW118062   0.008   2.027  10.219  3.7088 -0.0117 -0.4676
 2200SOL    HW218063   0.097   1.985  10.324  0.3160 -2.8065  2.3967
 2201SOL     OW18064   2.768   1.587  11.943  0.2255  0.1193  0.5640
 2201SOL    HW118065   2.750   1.494  11.957 -1.9453  0.3159 -0.8695
 2201SOL    HW218066   2.774   1.614  12.034 -2.6072  2.0179  0.1989
 2202SOL     OW18067   3.171   1.613   9.632 -0.3606 -0.2270 -0.8257
 2202SOL    HW118068   3.084   1.600   9.669 -0.0060  1.0453  0.4680
 2202SOL    HW218069   3.234   1.599   9.703  0.6246  3.1795 -1.0232
 2203SOL     OW18070   3.279   2.179  17.462 -0.2751  0.0550  0.1178
 2203SOL    HW118071   3.234   2.263  17.458 -0.9848 -0.4194 -1.7600
 2203SOL    HW218072   3.370   2.202  17.444 -0.6590  0.9818 -0.6139
 2204SOL     OW18073   3.533   2.229  17.408  0.5732 -0.1803  0.6844
 2204SOL    HW118074   3.629   2.236  17.410  0.5879 -0.4683  0.9943
 2204SOL    HW218075   3.519   2.234  17.314 -0.9740 -3.4270  0.7350
 2205SOL     OW18076   1.772   4.599   0.279 -0.4842 -1.0062  0.4264
 2205SOL    HW118077   1.844   4.634   0.225 -0.1006 -0.4456  1.3035
 2205SOL    HW218078   1.786   4.505   0.285  0.4518 -1.0369 -1.7870
 2206SOL     OW18079   1.894   0.587  15.142 -0.0257 -0.1852  0.0301
 2206SOL    HW118080   1.985   0.604  15.120 -0.9874  3.6178 -0.9154
 2206SOL    HW218081   1.908   0.550  15.229  1.9226 -1.6917 -0.9165
 2207SOL     OW18082   3.325   3.299   4.167  0.0638 -0.0349  0.0882
 2207SOL    HW118083   3.287   3.247   4.237  1.2307 -2.1896 -0.9039
 2207SOL    HW218084   3.245   3.335   4.130  0.3486 -1.0342 -1.4965
 2208SOL     OW18085   3.498   0.648   8.233  0.1339 -0.0103  0.4939
 2208SOL    HW118086   3.488   0.709   8.307  0.0388 -0.2577  0.6866
 2208SOL    HW218087   3.549   0.708   8.179 -0.7572  1.3324  1.1554
 2209SOL     OW18088   1.899   1.673   2.128 -0.0254 -0.6219  0.0526
 2209SOL    HW118089   1.938   1.586   2.130 -0.5658 -0.8529  0.4284
 2209SOL    HW218090   1.806   1.654   2.114  0.0201 -0.1829 -0.8741
 2210SOL     OW18091   1.299   0.451   3.778  0.4146  0.3136 -0.5138
 2210SOL    HW118092   1.267   0.488   3.695  0.8928 -0.6382 -1.1242
 2210SOL    HW218093   1.369   0.393   3.748  2.6012  2.5269  0.3786
 2211SOL     OW18094   4.243   3.068   5.353 -0.1993 -0.2732 -0.1902
 2211SOL    HW118095   4.232   3.003   5.284  0.2375 -0.7834  0.2111
 2211SOL    HW218096   4.330   3.043   5.386  0.0181  2.8243  1.6492
 2212SOL     OW18097   2.374   2.314   5.400 -0.2779 -0.4594  0.2927
 2212SOL    HW118098   2.460   2.353   5.417 -0.5010  0.6925 -1.2497
 2212SOL    HW218099   2.408   2.244   5.344  1.9259  2.1437 -1.6184
 2213SOL     OW18100   1.460   0.231   7.814 -0.2486  0.5859  0.0506
 2213SOL    HW118101   1.384   0.236   7.756  2.6755  1.9539 -3.7011
 2213SOL    HW218102   1.535   0.232   7.754 -0.4115  2.3287 -0.1159
 2214SOL     OW18103   0.943   0.078  12.884  0.4491  0.4838  0.1967
 2214SOL    HW118104   1.032   0.071  12.919  0.1480 -0.3664  0.7966
 2214SOL    HW218105   0.958   0.095  12.791  3.2928 -0.7216  0.4322
 2215SOL     OW18106   3.694   4.203  15.141  0.2412 -0.0181  0.0281
 2215SOL    HW118107   3.643   4.157  15.075  0.7874 -0.0933 -0.3336
 2215SOL    HW218108   3.628   4.227  15.207  1.3307  0.5050  0.9330
 2216SOL     OW18109   4.413   2.467   7.012 -0.3649 -0.2318  0.3266
 2216SOL    HW118110   4.401   2.423   6.927 -1.8969 -0.2376  0.5554
 2216SOL    HW218111   4.500   2.506   7.019 -0.5027 -0.2542  1.9572
 2217SOL     OW18112   2.532   1.330   0.968 -0.0353  0.1866 -0.0682
 2217SOL    HW118113   2.459   1.318   1.028 -1.4221 -3.9063 -2.5579
 2217SOL    HW218114   2.599   1.298   1.030 -0.2986  0.1125  0.1774
 2218SOL     OW18115   3.235   0.448   5.321  0.0696 -0.0148 -0.1451
 2218SOL    HW118116   3.187   0.530   5.307  0.1549  0.3341  1.5791
 2218SOL    HW218117   3.297   0.487   5.383 -1.8529 -0.3990  2.0352
 2219SOL     OW18118   3.074   0.775   6.590  0.2016 -0.1519  0.6551
 2219SOL    HW118119   3.115   0.788   6.504  1.5664 -1.1668  1.1520
 2219SOL    HW218120   3.000   0.717   6.577  0.3885  0.4043 -2.9409
 2220SOL     OW18121   1.080   3.453   5.882 -0.3479 -0.7411  0.3045
 2220SOL    HW118122   1.168   3.490   5.877  0.6038 -2.7103  2.5883
 2220SOL    HW218123   1.071   3.407   5.798 -0.3108  1.5905 -0.9686
 2221SOL     OW18124   3.451   2.483   1.856  0.3745 -0.6937 -0.1937
 2221SOL    HW118125   3.416   2.432   1.782  0.4174 -2.8528  1.2753
 2221SOL    HW218126   3.369   2.523   1.883  1.4828  0.8669  0.9082
 2222SOL     OW18127   0.428   1.002   8.332  0.1578  0.3088 -0.0233
 2222SOL    HW118128   0.392   0.935   8.274 -1.5333 -1.1721  2.7234
 2222SOL    HW218129   0.520   0.978   8.332  0.2855  0.8084  0.2928
 2223SOL     OW18130   1.913   2.752   5.768 -0.6474 -0.3893 -0.0287
 2223SOL    HW118131   1.891   2.660   5.759 -0.5094 -0.5916  1.6269
 2223SOL    HW218132   1.862   2.783   5.694 -0.3296 -0.4957 -0.2936
 2224SOL     OW18133   3.898   2.524   3.191  0.1009 -0.0834  0.0996
 2224SOL    HW118134   3.818   2.508   3.142  1.2092 -0.2014 -1.6844
 2224SOL    HW218135   3.874   2.485   3.274 -3.5952  0.2026 -0.8281
 2225SOL     OW18136   4.533   2.781  12.494  0.5626 -0.6398  0.5703
 2225SOL    HW118137   4.539   2.713  12.562  0.0681 -0.5619  0.6937
 2225SOL    HW218138   4.513   2.857  12.549 -5.5546 -1.0769 -1.0505
 2226SOL     OW18139   4.150   1.058   5.485  0.0753  0.0461  0.0321
 2226SOL    HW118140   4.100   1.029   5.409  0.1239  1.2984 -0.4893
 2226SOL    HW218141   4.198   1.134   5.450 -0.9881  1.7681  2.2810
 2227SOL     OW18142   2.123   3.431  10.117 -0.1934  0.3272 -0.5163
 2227SOL    HW118143   2.048   3.466  10.165  0.6199  1.7897 -0.3304
 2227SOL    HW218144   2.144   3.347  10.159 -2.2692 -1.0997 -2.2793
 2228SOL     OW18145   2.137   1.768   5.560  0.2757 -0.5012 -0.8466
 2228SOL    HW118146   2.096   1.683   5.546  1.4434 -0.7863 -2.5707
 2228SOL    HW218147   2.121   1.773   5.654 -0.2853 -0.8333 -0.9259
 2229SOL     OW18148   1.028   0.490   7.843  0.2516 -0.3361 -0.5672
 2229SOL    HW118149   1.030   0.403   7.883 -0.8034 -1.2680 -2.5493
 2229SOL    HW218150   0.937   0.507   7.866  1.4765  2.2306  2.3461
 2230SOL     OW18151   2.546   3.188  12.150 -0.5360  0.3657 -0.3282
 2230SOL    HW118152   2.505   3.215  12.232  1.7472 -1.1299  1.2871
 2230SOL    HW218153   2.528   3.094  12.150  0.4785  0.1778 -0.5607
 2231SOL     OW18154   0.958   1.829   4.904 -0.0166  0.4124  0.5235
 2231SOL    HW118155   1.051   1.812   4.922  0.3375  0.6801 -1.0571
 2231SOL    HW218156   0.939   1.904   4.961  0.4628  2.7898 -2.4929
 2232SOL     OW18157   1.115   0.363  13.334  0.5254  0.2895  0.1078
 2232SOL    HW118158   1.202   0.367  13.294  0.5532  1.2031  0.2672
 2232SOL    HW218159   1.140   0.372  13.426  2.3675 -1.0850 -0.2665
 2233SOL     OW18160   4.650   0.480   1.975 -0.2735  0.4186 -0.7171
 2233SOL    HW118161   4.674   0.397   2.015  1.0540 -0.7011 -3.8622
 2233SOL    HW218162   0.008   0.527   1.976 -0.7952  1.3633 -1.8712
 2234SOL     OW18163   4.435   2.926   3.254  0.0361 -0.4101 -0.2504
 2234SOL    HW118164   4.496   2.855   3.272 -0.4015 -0.4061  1.2553
 2234SOL    HW218165   4.443   2.923   3.159  0.1927  4.7457 -0.4523
 2235SOL     OW18166   2.192   0.909  13.330 -0.2258  0.6042 -0.1524
 2235SOL    HW118167   2.249   0.835  13.312 -0.1085  1.4205 -3.1438
 2235SOL    HW218168   2.235   0.967  13.392  0.8367 -2.1181  1.6540
 2236SOL     OW18169   0.236   2.402  10.712  0.0259  0.3675 -0.0700
 2236SOL    HW118170   0.168   2.334  10.715 -0.4240  0.8862  1.6637
 2236SOL    HW218171   0.323   2.365  10.698 -1.5291 -3.0038 -0.9447
 2237SOL     OW18172   3.031   1.264   9.718 -0.6729  0.0015  0.1686
 2237SOL    HW118173   2.981   1.343   9.739 -1.0366 -0.2036  0.0678
 2237SOL    HW218174   3.113   1.301   9.684 -1.0871  0.1546 -0.6688
 2238SOL     OW18175   2.065   3.015  11.025 -0.3244 -0.1041 -0.0000
 2238SOL    HW118176   1.988   3.072  11.033  1.3991  2.2074  0.3859
 2238SOL    HW218177   2.118   3.056  10.956 -0.1480 -1.2779 -0.5611
 2239SOL     OW18178   3.022   4.036   8.145  0.1390  0.3152 -0.1306
 2239SOL    HW118179   2.961   3.964   8.164  1.1908 -0.3527  0.7918
 2239SOL    HW218180   3.034   4.023   8.051  0.3443 -1.5975  0.1435
 2240SOL     OW18181   1.979   2.456   9.346 -0.4449  0.5105  0.0169
 2240SOL    HW118182   2.032   2.509   9.405 -0.9476  1.6913 -0.5993
 2240SOL    HW218183   1.892   2.496   9.345 -1.2984 -1.3189  0.9344
 2241SOL     OW18184   1.324   4.648   2.411 -0.4850  0.0290 -0.0079
 2241SOL    HW118185   1.384   4.723   2.416 -2.2159  1.3244  1.0426
 2241SOL    HW218186   1.256   4.678   2.350 -0.3932 -0.4413 -0.3497
 2242SOL     OW18187   3.996   0.138   1.899  0.3843 -0.3338  0.0006
 2242SOL    HW118188   4.045   0.148   1.817  0.8038 -1.3141  0.1388
 2242SOL    HW218189   4.013   0.219   1.947  3.3382 -0.6935 -0.4160
 2243SOL     OW18190   0.059   4.712  12.577  0.0283 -0.6127  0.3148
 2243SOL    HW118191   0.138   0.035  12.554 -1.3804  0.9843 -1.1373
 2243SOL    HW218192   0.064   0.001  12.672 -0.2175 -1.3813  0.4423
 2244SOL     OW18193   0.484   2.397   3.969 -0.1253  0.1891  0.5214
 2244SOL    HW118194   0.470   2.409   3.875 -0.0716 -2.2834  0.1839
 2244SOL    HW218195   0.419   2.455   4.007 -1.3959 -1.3327  0.6647
 2245SOL     OW18196   0.590   2.935  16.434  0.5395  0.4323 -0.4199
 2245SOL    HW118197   0.523   2.922  16.368 -0.3600 -2.2991  1.0478
 2245SOL    HW218198   0.632   3.014  16.400 -0.5664  0.6350 -1.2762
 2246SOL     OW18199   3.929   4.359   7.928  0.2154  0.5380  0.4212
 2246SOL    HW118200   3.896   4.316   8.006 -1.3475 -0.9242 -1.0387
 2246SOL    HW218201   3.986   4.427   7.965 -0.1982 -0.3407  2.6611
 2247SOL     OW18202   3.332   3.099   4.822 -0.3941 -0.1703  0.2928
 2247SOL    HW118203   3.348   3.193   4.817  0.7019 -0.4560 -1.6448
 2247SOL    HW218204   3.252   3.096   4.874  0.2536 -1.2043  1.2332
 2248SOL     OW18205   1.311   0.605  14.152  0.6274  0.3302  0.6602
 2248SOL    HW118206   1.367   0.672  14.113  3.2104 -0.6630  2.6568
 2248SOL    HW218207   1.221   0.632  14.137  1.1882  0.7447 -2.0902
 2249SOL     OW18208   4.657   1.936   7.187  0.4085  0.4116  0.2078
 2249SOL    HW118209   0.013   1.963   7.146  1.1354  0.4546  1.6682
 2249SOL    HW218210   4.648   1.987   7.268  0.9543 -0.1335  0.6114
 2250SOL     OW18211   1.455   3.531   7.469  0.0872 -0.4430  0.1707
 2250SOL    HW118212   1.535   3.479   7.471  0.5566  0.3171  1.1580
 2250SOL    HW218213   1.429   3.517   7.560 -1.1545  2.6351  0.2820
 2251SOL     OW18214   2.758   4.523  15.590 -0.3552 -0.0699 -0.6794
 2251SOL    HW118215   2.684   4.571  15.629  0.2759  1.8749 -1.8823
 2251SOL    HW218216   2.794   4.583  15.525 -0.5832  2.3031  1.3499
 2252SOL     OW18217   3.876   4.488   3.446 -0.4046 -0.2640 -0.2693
 2252SOL    HW118218   3.920   4.486   3.531  1.4223  0.1244 -1.1997
 2252SOL    HW218219   3.934   4.544   3.395 -0.7868 -1.4944 -2.0404
 2253SOL     OW18220   1.905   1.328   8.395 -0.0826 -0.0907 -0.6276
 2253SOL    HW118221   1.810   1.335   8.393 -0.2298 -2.2573 -0.4815
 2253SOL    HW218222   1.926   1.400   8.336 -0.1172 -0.6828 -1.3618
 2254SOL     OW18223   3.326   2.756   1.250 -0.0491 -0.4007  0.5675
 2254SOL    HW118224   3.241   2.799   1.253  1.3420  2.3714  0.2244
 2254SOL    HW218225   3.297   2.694   1.317  3.8045 -1.6042  1.0904
 2255SOL     OW18226   3.961   3.332   2.939 -0.3287  0.3655 -0.1989
 2255SOL    HW118227   4.034   3.308   2.996 -1.0524 -1.5514 -0.1085
 2255SOL    HW218228   4.000   3.310   2.855  0.7881  3.4843 -0.5202
 2256SOL     OW18229   1.129   2.616   4.999  0.1660 -0.3450  0.2493
 2256SOL    HW118230   1.040   2.643   4.979 -0.6477 -0.6185  3.4140
 2256SOL    HW218231   1.160   2.694   5.046  0.1910 -0.9688  1.2800
 2257SOL     OW18232   4.304   2.551   3.378 -0.0097 -0.6307 -0.7629
 2257SOL    HW118233   4.250   2.622   3.413  0.7721 -0.4349  0.0710
 2257SOL    HW218234   4.387   2.571   3.422 -0.3217 -1.0132 -0.0033
 2258SOL     OW18235   0.911   3.184  10.321  0.0589  0.6756 -0.0564
 2258SOL    HW118236   0.859   3.104  10.321 -0.2558  0.8803 -0.2881
 2258SOL    HW218237   0.853   3.244  10.369 -0.2488 -2.4222  3.4523
 2259SOL     OW18238   1.329   4.305  16.868 -0.1790 -0.4224 -0.2249
 2259SOL    HW118239   1.244   4.265  16.886 -0.0269 -0.8424 -0.4493
 2259SOL    HW218240   1.332   4.379  16.929  0.8490  0.7027 -1.6267
 2260SOL     OW18241   4.444   3.313   1.613 -0.0943 -0.5343  0.0922
 2260SOL    HW118242   4.427   3.395   1.659 -0.4251 -0.9518  0.7088
 2260SOL    HW218243   4.421   3.341   1.524 -2.1096 -1.3841  0.3442
 2261SOL     OW18244   4.212   0.503  16.677 -0.1035  0.5752 -0.2405
 2261SOL    HW118245   4.202   0.524  16.585 -0.6578  0.2882 -0.2519
 2261SOL    HW218246   4.273   0.429  16.668 -1.0375 -0.0376 -1.5609
 2262SOL     OW18247   0.371   0.208   3.098 -0.1036 -0.5155  0.0144
 2262SOL    HW118248   0.369   0.198   3.003 -0.1606 -0.4571  0.0097
 2262SOL    HW218249   0.343   0.122   3.131  0.5761 -0.9876 -0.6157
 2263SOL     OW18250   2.207   0.141   1.405 -0.7005 -0.0940  0.2824
 2263SOL    HW118251   2.293   0.155   1.445 -0.3244  0.4390 -0.7228
 2263SOL    HW218252   2.194   0.046   1.405  0.2653 -0.2266 -1.1407
 2264SOL     OW18253   2.772   1.707   8.995 -0.2765 -0.2618 -0.0937
 2264SOL    HW118254   2.836   1.777   9.010 -0.2476 -0.6342  1.5563
 2264SOL    HW218255   2.751   1.688   9.087 -0.3805 -1.0127 -0.2771
 2265SOL     OW18256   3.763   2.565   1.266 -0.1778 -0.9044 -0.2318
 2265SOL    HW118257   3.726   2.597   1.184 -0.7551  0.6452  0.6313
 2265SOL    HW218258   3.842   2.523   1.232  0.4314 -0.6600  0.8852
 2266SOL     OW18259   0.114   3.462  11.516  0.3062  0.3226  0.2158
 2266SOL    HW118260   0.043   3.494  11.572 -0.6938  0.1824 -0.9744
 2266SOL    HW218261   0.190   3.456  11.574  0.3929 -2.9006 -0.2327
 2267SOL     OW18262   1.366   4.323   6.677  0.0205 -0.8857  0.3381
 2267SOL    HW118263   1.461   4.309   6.669  0.7015  3.4278  0.3740
 2267SOL    HW218264   1.364   4.407   6.631 -2.1020 -1.0117  0.1968
 2268SOL     OW18265   1.403   1.287  12.109  0.0239 -0.3390 -0.3691
 2268SOL    HW118266   1.348   1.322  12.180  0.2793 -0.3138 -0.1847
 2268SOL    HW218267   1.333   1.255  12.051 -0.0112 -2.1739  0.7035
 2269SOL     OW18268   4.554   0.984   7.172 -0.1929 -0.0044  0.2844
 2269SOL    HW118269   4.529   1.064   7.218 -0.1645  1.0737 -1.6075
 2269SOL    HW218270   4.616   0.944   7.234 -1.0056 -2.2846 -0.3509
 2270SOL     OW18271   4.229   0.639   1.342  0.1917 -0.2442 -0.7382
 2270SOL    HW118272   4.281   0.703   1.293 -0.4195 -0.8117 -2.1525
 2270SOL    HW218273   4.252   0.558   1.296  1.4181 -0.8667  0.9590
 2271SOL     OW18274   2.861   3.885   2.828 -0.0814 -0.2927  0.0714
 2271SOL    HW118275   2.954   3.908   2.831 -0.2881  0.5993 -0.3123
 2271SOL    HW218276   2.834   3.878   2.920 -2.8734  0.8181 -0.6735
 2272SOL     OW18277   2.259   3.819   1.574 -0.2124 -0.0698 -0.2017
 2272SOL    HW118278   2.340   3.769   1.583  0.6465  1.4294  0.3898
 2272SOL    HW218279   2.253   3.827   1.479 -0.2579 -3.5581 -0.5028
 2273SOL     OW18280   3.964   2.222   7.140 -0.1778 -0.4112  0.1213
 2273SOL    HW118281   4.031   2.209   7.072  0.9436  1.1982  0.9206
 2273SOL    HW218282   3.915   2.299   7.112  0.8508  1.1942  2.6964
 2274SOL     OW18283   3.109   4.512  16.017 -0.1496  0.0553  0.2488
 2274SOL    HW118284   3.068   4.461  16.087  2.0146 -2.1626 -0.0888
 2274SOL    HW218285   3.077   4.468  15.938  0.7966  0.2399 -0.2363
 2275SOL     OW18286   4.649   2.298   3.356  0.1896  0.2139  0.0755
 2275SOL    HW118287   4.723   2.320   3.300  1.0782  0.2725  1.2812
 2275SOL    HW218288   4.573   2.318   3.301 -1.9333 -0.3196  2.7834
 2276SOL     OW18289   3.540   4.144  14.700  0.0432  0.2534  0.0737
 2276SOL    HW118290   3.492   4.218  14.736  0.9018  1.1275 -0.5720
 2276SOL    HW218291   3.576   4.112  14.783 -0.8269  0.5940  0.5822
 2277SOL     OW18292   2.462   1.479   5.570  0.1102  0.3363 -0.3074
 2277SOL    HW118293   2.446   1.479   5.664 -0.4665  2.1791 -0.4011
 2277SOL    HW218294   2.443   1.568   5.540 -2.6996  0.2441  1.2127
 2278SOL     OW18295   0.383   3.007   5.007  0.5963 -0.1466 -0.5434
 2278SOL    HW118296   0.325   2.935   4.981 -0.6635  0.6818 -0.0702
 2278SOL    HW218297   0.408   3.048   4.925  3.1484 -1.1131 -0.2271
 2279SOL     OW18298   1.405   3.759  16.597 -0.4583  0.0441 -0.4417
 2279SOL    HW118299   1.388   3.774  16.504 -0.4016  1.2846 -0.2503
 2279SOL    HW218300   1.494   3.786  16.621 -1.0113  1.6030 -0.1474
 2280SOL     OW18301   0.239   1.925  16.483  0.8505  0.5297 -0.0343
 2280SOL    HW118302   0.209   2.009  16.449 -0.2707 -0.3026 -1.1178
 2280SOL    HW218303   0.275   1.960  16.564 -0.1569  1.7190 -0.1027
 2281SOL     OW18304   4.563   3.404  13.198  0.1920  0.5604  0.0838
 2281SOL    HW118305   4.480   3.358  13.215  0.6881 -0.3185  0.1286
 2281SOL    HW218306   4.595   3.406  13.287 -0.2812 -0.0356  0.2702
 2282SOL     OW18307   3.093   0.386   2.862 -0.1985  0.1370  0.6174
 2282SOL    HW118308   3.095   0.434   2.945 -1.5368 -0.6231  1.0890
 2282SOL    HW218309   3.114   0.460   2.805 -0.9245 -1.1024 -1.2398
 2283SOL     OW18310   0.145   3.816   7.770 -0.2707 -0.3655 -0.5443
 2283SOL    HW118311   0.064   3.780   7.733 -0.6423  0.2284 -0.2912
 2283SOL    HW218312   0.200   3.738   7.764  1.9659  1.0791  1.2053
 2284SOL     OW18313   3.325   3.608   2.940  0.2458 -0.2824 -0.2629
 2284SOL    HW118314   3.315   3.692   2.985 -1.5709 -0.6395 -0.0240
 2284SOL    HW218315   3.257   3.621   2.874  2.4207  1.3887 -2.1740
 2285SOL     OW18316   0.895   3.184   3.315 -0.5397  0.5014  0.4102
 2285SOL    HW118317   0.978   3.208   3.356  0.2805  0.0083 -0.9498
 2285SOL    HW218318   0.906   3.219   3.227 -2.7374  0.1077 -0.0337
 2286SOL     OW18319   4.007   0.679   2.652  0.0296 -0.0142 -0.2955
 2286SOL    HW118320   4.006   0.664   2.746  2.3063 -0.4083 -0.3353
 2286SOL    HW218321   3.941   0.745   2.631 -0.4688 -1.1472 -2.2974
 2287SOL     OW18322   3.133   3.263   3.719  0.2997 -0.5769 -0.5244
 2287SOL    HW118323   3.172   3.205   3.653 -0.5606  0.8346 -2.2655
 2287SOL    HW218324   3.116   3.337   3.660  0.4101 -1.0267 -1.1203
 2288SOL     OW18325   2.755   1.607   0.848 -0.1239 -0.3783  0.0782
 2288SOL    HW118326   2.672   1.600   0.895 -0.7482 -1.1353 -1.1414
 2288SOL    HW218327   2.754   1.702   0.839 -1.6483 -0.4550 -0.5013
 2289SOL     OW18328   2.983   2.857  15.111  0.1019  0.1328 -0.5294
 2289SOL    HW118329   2.963   2.797  15.183  0.8473 -0.3141 -0.6904
 2289SOL    HW218330   2.903   2.909  15.106  0.0268  0.2615  1.9421
 2290SOL     OW18331   2.183   1.579  13.818  0.1607  0.2086  0.0836
 2290SOL    HW118332   2.092   1.566  13.842  0.1470  0.0583 -0.0516
 2290SOL    HW218333   2.201   1.656  13.872 -0.5492 -0.2556  0.9800
 2291SOL     OW18334   0.702   0.163   9.529 -0.0202  1.0086  0.1148
 2291SOL    HW118335   0.778   0.203   9.486 -0.8504  0.5462 -1.8019
 2291SOL    HW218336   0.720   0.167   9.623  3.2417  0.6922 -0.5037
 2292SOL     OW18337   3.690   3.782  16.479  0.3789  0.0118  0.2626
 2292SOL    HW118338   3.743   3.764  16.556  2.8581 -0.7868 -1.6473
 2292SOL    HW218339   3.697   3.878  16.474 -1.4014  0.2707  2.4219
 2293SOL     OW18340   0.629   4.255   3.552 -0.1157 -0.1458  0.0492
 2293SOL    HW118341   0.583   4.277   3.633  1.4656  0.4579  0.7730
 2293SOL    HW218342   0.691   4.328   3.548 -0.3787  0.0544 -0.3771
 2294SOL     OW18343   2.119   1.087   8.968 -0.2616 -0.6523  0.4983
 2294SOL    HW118344   2.169   1.166   8.947 -1.6831  0.1442  0.1519
 2294SOL    HW218345   2.047   1.093   8.905 -1.2971  0.4996  1.8064
 2295SOL     OW18346   1.751   4.624   1.123  0.5269  0.3171  0.0588
 2295SOL    HW118347   1.694   4.570   1.069 -1.5298  1.2184  1.2881
 2295SOL    HW218348   1.725   4.599   1.212  1.0310  1.0687  0.4155
 2296SOL     OW18349   3.547   4.353   7.013  0.5773  0.0504 -0.2557
 2296SOL    HW118350   3.464   4.364   7.059 -0.8793 -0.7705 -2.6614
 2296SOL    HW218351   3.507   4.383   6.931 -1.0260  1.1090  0.9466
 2297SOL     OW18352   3.578   4.453   8.184  0.0131 -0.9112 -0.2763
 2297SOL    HW118353   3.562   4.532   8.132 -1.2871 -2.1294 -1.7300
 2297SOL    HW218354   3.493   4.433   8.223 -1.8646  0.1147 -3.8920
 2298SOL     OW18355   4.315   0.348  16.128  0.0978  0.1560  0.1804
 2298SOL    HW118356   4.290   0.392  16.047 -0.5748  1.6959  1.2305
 2298SOL    HW218357   4.356   0.421  16.173 -2.3479 -0.6338  3.7644
 2299SOL     OW18358   3.019   3.741   2.134 -0.1737  0.1909  0.0556
 2299SOL    HW118359   2.955   3.692   2.186  0.4525  0.7857  1.3823
 2299SOL    HW218360   3.096   3.684   2.130  0.5672  1.3168 -1.8131
 2300SOL     OW18361   2.492   3.721   1.297 -0.4972 -0.0667 -0.0603
 2300SOL    HW118362   2.445   3.642   1.271 -0.3004  0.2150 -1.2988
 2300SOL    HW218363   2.569   3.718   1.240 -0.6421 -0.1216 -0.2563
 2301SOL     OW18364   3.921   1.847  11.175 -0.4134  0.4006 -0.3474
 2301SOL    HW118365   3.967   1.763  11.165  2.5251  1.9535  0.1399
 2301SOL    HW218366   3.929   1.865  11.269 -0.7599  1.2638 -0.4919
 2302SOL     OW18367   3.747   4.139   7.467  0.0416 -0.1617 -0.0274
 2302SOL    HW118368   3.652   4.131   7.453  0.3806 -2.2718 -0.9747
 2302SOL    HW218369   3.782   4.134   7.378 -3.6044  1.5523 -1.5797
 2303SOL     OW18370   1.365   0.389   6.611  0.0786 -0.2062  0.0796
 2303SOL    HW118371   1.381   0.483   6.625  0.4827 -0.4193  1.0506
 2303SOL    HW218372   1.448   0.370   6.566 -0.5373 -0.4012 -0.9609
 2304SOL     OW18373   2.915   3.150   6.419 -0.5068 -1.0321  0.1662
 2304SOL    HW118374   2.954   3.073   6.378  0.8329 -1.0623  1.4626
 2304SOL    HW218375   2.937   3.127   6.509  0.4140 -0.2744  0.1397
 2305SOL     OW18376   1.316   4.263   5.784  0.6487 -0.2710  0.3991
 2305SOL    HW118377   1.257   4.328   5.822 -1.8189 -2.6774  0.6397
 2305SOL    HW218378   1.316   4.200   5.856 -1.4495  0.2251  0.8222
 2306SOL     OW18379   4.529   0.842   4.847 -0.1997 -0.6358  0.2579
 2306SOL    HW118380   4.548   0.867   4.937  0.3358 -2.5333  0.6692
 2306SOL    HW218381   4.610   0.792   4.837  0.9216  0.6921  2.9072
 2307SOL     OW18382   1.164   0.771   7.504  0.0582 -0.4473  0.1619
 2307SOL    HW118383   1.165   0.806   7.415 -0.4625  2.0945  1.1461
 2307SOL    HW218384   1.242   0.810   7.543 -0.2883 -1.6340  2.0624
 2308SOL     OW18385   0.551   1.190   8.560 -0.2540 -0.1411 -0.1341
 2308SOL    HW118386   0.611   1.258   8.591  1.2301 -1.3408 -0.3830
 2308SOL    HW218387   0.581   1.121   8.620 -2.2110  1.5921  2.8871
 2309SOL     OW18388   4.631   3.991   8.179  0.3143 -0.4472  0.3954
 2309SOL    HW118389   4.700   3.933   8.145  1.4742  2.0935 -1.6434
 2309SOL    HW218390   4.668   3.988   8.267 -0.7840 -1.3905  0.8191
 2310SOL     OW18391   3.596   2.432   6.122  0.5808  0.2693  0.2083
 2310SOL    HW118392   3.616   2.372   6.051  0.8043 -0.4762  0.8951
 2310SOL    HW218393   3.634   2.389   6.199  1.0754 -1.1393 -0.8329
 2311SOL     OW18394   0.579   2.597   8.657 -0.2138  0.3677  0.2233
 2311SOL    HW118395   0.609   2.681   8.691 -0.4676  0.6744 -0.3040
 2311SOL    HW218396   0.562   2.557   8.742 -0.4768 -0.2972 -0.1431
 2312SOL     OW18397   2.535   0.483  13.996  0.0473  0.6330  0.1003
 2312SOL    HW118398   2.524   0.578  13.986 -0.9065  0.5429  0.2334
 2312SOL    HW218399   2.459   0.457  14.049  0.4574  0.0476  0.3995
 2313SOL     OW18400   1.174   0.218   6.502  0.4276  0.5007 -0.2724
 2313SOL    HW118401   1.242   0.277   6.535  1.6283 -1.3906  0.6624
 2313SOL    HW218402   1.235   0.144   6.494 -1.3888 -0.6721 -3.5028
 2314SOL     OW18403   0.831   2.458   2.721  0.3755  0.4097  0.0546
 2314SOL    HW118404   0.854   2.410   2.641  0.8618  0.0755  0.3933
 2314SOL    HW218405   0.825   2.389   2.787 -1.6147  2.8855  2.4596
 2315SOL     OW18406   3.796   2.326  11.064  0.3772 -0.3196 -0.4156
 2315SOL    HW118407   3.719   2.376  11.089 -0.2668 -0.4988 -2.0395
 2315SOL    HW218408   3.861   2.394  11.081 -0.4842  0.5549 -0.6885
 2316SOL     OW18409   2.772   3.606   5.634  0.2115 -0.4321 -0.0015
 2316SOL    HW118410   2.764   3.621   5.728 -1.2117 -1.4597  0.0497
 2316SOL    HW218411   2.724   3.524   5.623  2.6263 -1.9672  0.8242
 2317SOL     OW18412   0.639   4.549  12.356  0.4443 -0.2919  0.0963
 2317SOL    HW118413   0.648   4.642  12.334  2.1377 -0.7513 -1.1400
 2317SOL    HW218414   0.703   4.546  12.426  0.6519  2.7471  0.0675
 2318SOL     OW18415   3.757   3.315   2.397  0.2629 -0.8131  0.0656
 2318SOL    HW118416   3.836   3.314   2.450 -0.1787  0.5207  0.7571
 2318SOL    HW218417   3.795   3.287   2.314 -1.5524 -0.9263 -0.7367
 2319SOL     OW18418   4.312   0.711   0.183 -0.9658  0.0749 -0.8895
 2319SOL    HW118419   4.322   0.617   0.165  0.1211  0.0161 -0.0366
 2319SOL    HW218420   4.275   0.714   0.271 -0.1176  0.0773 -0.5261
 2320SOL     OW18421   1.410   4.184   8.220 -0.3906 -0.0314  0.9238
 2320SOL    HW118422   1.346   4.228   8.164  1.9190 -0.4227 -1.9743
 2320SOL    HW218423   1.494   4.206   8.181  0.5920 -1.1853  2.3709
 2321SOL     OW18424   1.128   1.153  14.484  0.0251 -0.1050 -0.4004
 2321SOL    HW118425   1.100   1.073  14.529 -0.1800 -0.6686 -1.5352
 2321SOL    HW218426   1.186   1.179  14.556  1.0999 -1.2212 -0.8567
 2322SOL     OW18427   0.739   0.057   8.055  0.0110  0.1705  0.4497
 2322SOL    HW118428   0.672   0.118   8.085 -0.1352  0.6898 -0.9653
 2322SOL    HW218429   0.801   0.071   8.128  1.1228  2.1387 -0.8610
 2323SOL     OW18430   2.000   2.590  11.755 -0.0351 -0.1618  0.2093
 2323SOL    HW118431   2.008   2.518  11.692  0.6581 -0.2808  0.4234
 2323SOL    HW218432   1.914   2.568  11.790  1.3537 -1.7674  2.6266
 2324SOL     OW18433   1.102   4.488   1.284 -0.7349  0.1445  0.1628
 2324SOL    HW118434   1.084   4.576   1.317  1.0253  1.4789 -2.4439
 2324SOL    HW218435   1.183   4.470   1.333 -1.6758  1.0206  2.0629
 2325SOL     OW18436   2.115   3.941   2.754  0.3531  0.3269  0.1759
 2325SOL    HW118437   2.200   3.986   2.751 -1.4009  3.4766 -1.6620
 2325SOL    HW218438   2.095   3.937   2.661  0.4466  0.4360  0.1509
 2326SOL     OW18439   4.161   2.950   3.267  0.1135  0.5027  0.2964
 2326SOL    HW118440   4.132   2.943   3.176 -0.2548  0.1493  0.4458
 2326SOL    HW218441   4.255   2.946   3.246  0.1868 -2.5218  1.2322
 2327SOL     OW18442   1.047   0.763   1.212  0.5921  0.7754 -0.5556
 2327SOL    HW118443   1.071   0.843   1.166 -0.7212  0.7990 -1.1958
 2327SOL    HW218444   0.951   0.767   1.214  0.6270  0.2470  2.3291
 2328SOL     OW18445   3.648   2.178   3.522 -0.1642 -0.0081  0.0045
 2328SOL    HW118446   3.592   2.117   3.474 -0.0801 -0.9592  1.1073
 2328SOL    HW218447   3.586   2.184   3.594  0.3927  0.4868  0.4398
 2329SOL     OW18448   3.861   3.143  10.084 -0.4580 -0.1547 -0.4199
 2329SOL    HW118449   3.927   3.183  10.028 -2.0514  1.1875 -1.3126
 2329SOL    HW218450   3.860   3.198  10.163 -0.6337 -0.9097  0.1096
 2330SOL     OW18451   2.303   1.932  11.521 -0.1426 -0.7391 -0.3505
 2330SOL    HW118452   2.336   1.849  11.557  1.3672 -0.3590 -0.8259
 2330SOL    HW218453   2.360   1.995  11.566 -0.3710  1.7815 -3.6002
 2331SOL     OW18454   1.500   1.213  13.879 -0.0262 -0.0037 -0.5972
 2331SOL    HW118455   1.406   1.197  13.874 -0.2700  0.9003  0.9188
 2331SOL    HW218456   1.536   1.164  13.805  0.8971 -0.2318 -0.0074
 2332SOL     OW18457   3.341   0.311   8.416 -0.1290 -0.4548  0.2495
 2332SOL    HW118458   3.393   0.352   8.485 -0.6782 -1.7273  1.4261
 2332SOL    HW218459   3.410   0.288   8.354 -0.0010  0.4039  0.0801
 2333SOL     OW18460   3.015   4.025   5.159 -0.5383 -0.8128  0.3753
 2333SOL    HW118461   2.942   4.038   5.099  0.4315 -0.0338 -0.6357
 2333SOL    HW218462   3.088   4.048   5.102 -0.8454 -0.3950  0.1494
 2334SOL     OW18463   0.631   1.622   3.771  0.0004 -0.5531 -0.5680
 2334SOL    HW118464   0.696   1.551   3.769 -0.4409 -1.0735  2.8510
 2334SOL    HW218465   0.669   1.680   3.706 -1.4652  2.0818  0.9458
 2335SOL     OW18466   2.785   0.567   5.749 -0.0023  0.6614 -0.1674
 2335SOL    HW118467   2.774   0.662   5.740 -2.3201  0.4154  0.0085
 2335SOL    HW218468   2.717   0.541   5.687 -0.1428  1.3864 -0.3201
 2336SOL     OW18469   2.117   2.584   7.947  0.1051  0.6769 -0.0016
 2336SOL    HW118470   2.107   2.494   7.976 -0.8424 -0.5326 -4.1877
 2336SOL    HW218471   2.103   2.634   8.028 -2.9384  0.9966 -0.7419
 2337SOL     OW18472   4.109   1.105  17.316 -0.3035  0.7232  0.1353
 2337SOL    HW118473   4.139   1.165  17.248  0.2750 -0.8665 -1.0050
 2337SOL    HW218474   4.193   1.074  17.349 -0.3560  1.9351  1.4269
 2338SOL     OW18475   0.101   4.062   6.156  0.4597  0.1522 -0.5220
 2338SOL    HW118476   0.026   4.018   6.116 -1.0188  0.3162  2.0765
 2338SOL    HW218477   0.152   3.984   6.179  2.2966  1.6464  0.4638
 2339SOL     OW18478   2.990   3.902  13.551  0.4913  0.4296  0.6298
 2339SOL    HW118479   2.921   3.917  13.615  2.3201  3.2226  1.9576
 2339SOL    HW218480   2.947   3.905  13.465  3.2542  1.2808 -0.7412
 2340SOL     OW18481   2.648   3.166   6.350  0.6008  0.2596 -0.3707
 2340SOL    HW118482   2.742   3.153   6.363  0.2117 -0.4122  1.6359
 2340SOL    HW218483   2.633   3.240   6.409  0.0033  0.5522 -0.8877
 2341SOL     OW18484   1.203   1.924   4.475  0.3789 -0.7622  0.4610
 2341SOL    HW118485   1.188   1.882   4.391 -0.9229  0.7614 -0.0711
 2341SOL    HW218486   1.251   1.864   4.532  1.8475 -0.6130 -0.5930
 2342SOL     OW18487   2.616   3.315  16.515 -0.9648  0.0546 -0.2258
 2342SOL    HW118488   2.522   3.332  16.506 -0.8428  1.0966  0.5435
 2342SOL    HW218489   2.630   3.230  16.473 -1.3416  0.5742 -1.3911
 2343SOL     OW18490   0.736   3.636   1.571  0.1628  0.1385 -0.0219
 2343SOL    HW118491   0.759   3.615   1.661 -0.9197  1.9825  0.6718
 2343SOL    HW218492   0.826   3.635   1.536 -0.0930  3.2723 -0.7472
 2344SOL     OW18493   2.168   0.864   1.661 -0.3167  0.1751 -0.2345
 2344SOL    HW118494   2.209   0.867   1.747 -1.2799 -0.3657  0.2507
 2344SOL    HW218495   2.235   0.832   1.600 -0.5417  2.2712 -1.5731
 2345SOL     OW18496   1.394   1.038   8.284 -0.1230 -0.0666  0.6051
 2345SOL    HW118497   1.457   1.063   8.352  0.7553 -1.2822  0.2470
 2345SOL    HW218498   1.315   1.029   8.338 -1.4240 -1.5198 -1.5561
 2346SOL     OW18499   1.643   0.164   2.337 -0.0428  0.0787  0.0926
 2346SOL    HW118500   1.554   0.200   2.342  0.3486  0.9401  1.0387
 2346SOL    HW218501   1.651   0.126   2.425 -0.6253 -0.9318 -0.2990
 2347SOL     OW18502   2.193   2.746   6.554 -0.0279 -0.6644  0.2019
 2347SOL    HW118503   2.225   2.836   6.555 -0.1308 -0.5850 -2.6386
 2347SOL    HW218504   2.132   2.754   6.628 -0.2558  0.2016 -0.0861
 2348SOL     OW18505   0.370   2.482   4.369  0.1627 -0.2270  0.4782
 2348SOL    HW118506   0.377   2.513   4.279  1.8541 -2.4784 -0.1472
 2348SOL    HW218507   0.348   2.391   4.354 -0.9898  0.0121  0.7286
 2349SOL     OW18508   3.374   4.017   6.784  0.2946  0.0664 -0.4497
 2349SOL    HW118509   3.314   3.959   6.737  1.3297  1.0008 -2.9746
 2349SOL    HW218510   3.418   4.056   6.708  2.4228  0.5263  1.0016
 2350SOL     OW18511   1.608   3.948   4.712 -0.2255  0.1128  0.0724
 2350SOL    HW118512   1.623   4.035   4.749 -1.8855 -0.6838  2.5732
 2350SOL    HW218513   1.674   3.937   4.643 -2.1335  2.6462 -2.1757
 2351SOL     OW18514   1.375   1.125   1.790  0.0873 -0.1509 -0.5629
 2351SOL    HW118515   1.290   1.093   1.821  0.7328 -0.4977  0.8536
 2351SOL    HW218516   1.354   1.140   1.698 -0.8341  0.7390 -0.1990
 2352SOL     OW18517   1.328   3.787   5.585 -0.4037  0.2451 -0.4754
 2352SOL    HW118518   1.261   3.846   5.549 -0.9469  0.9788  1.6963
 2352SOL    HW218519   1.379   3.852   5.634  1.0433 -0.0829 -1.5619
 2353SOL     OW18520   1.296   3.988   3.231  0.3402  0.0220 -0.2671
 2353SOL    HW118521   1.357   4.056   3.261 -2.8916  3.1461 -0.7094
 2353SOL    HW218522   1.336   3.971   3.145 -0.1626  0.3337 -0.5676
 2354SOL     OW18523   4.007   3.915   0.001  0.5391  0.3434 -0.3621
 2354SOL    HW118524   4.098   3.886  17.691  1.4488  2.5246  1.2052
 2354SOL    HW218525   3.976   3.881  17.619  0.2775  0.5723 -0.3586
 2355SOL     OW18526   2.496   2.607   2.553 -0.4408  0.2239  0.0422
 2355SOL    HW118527   2.589   2.606   2.572 -0.8495  0.7863  2.0125
 2355SOL    HW218528   2.473   2.691   2.592 -2.8936  0.5295 -2.0119
 2356SOL     OW18529   4.226   0.233   2.506  0.2717  0.5464 -0.1939
 2356SOL    HW118530   4.215   0.328   2.514 -1.2052  0.3577 -0.0489
 2356SOL    HW218531   4.316   0.225   2.538  1.4189  1.7938 -3.1874
 2357SOL     OW18532   3.934   3.976  11.010  0.1339 -0.2827  0.6719
 2357SOL    HW118533   3.897   3.915  11.073 -3.0662  0.9939  0.0298
 2357SOL    HW218534   3.903   4.055  11.054 -1.5501 -0.0119 -1.0213
 2358SOL     OW18535   0.985   2.423   6.067 -0.3274 -0.1800 -0.5349
 2358SOL    HW118536   0.931   2.373   6.006  2.1825 -3.6681  0.0918
 2358SOL    HW218537   1.073   2.385   6.061  0.3946  1.1706  1.2691
 2359SOL     OW18538   0.863   0.519  13.256  0.0026  0.6867 -0.0352
 2359SOL    HW118539   0.923   0.452  13.289 -0.0886  0.6518  0.0594
 2359SOL    HW218540   0.845   0.519  13.162  0.0452 -1.9140 -0.0617
 2360SOL     OW18541   3.199   0.033   1.880  0.8815  0.1902 -0.3065
 2360SOL    HW118542   3.286   0.018   1.917  1.1971  0.4184 -0.9425
 2360SOL    HW218543   3.232   0.050   1.791  1.3069  1.7300  0.1488
 2361SOL     OW18544   2.449   1.669   6.262  0.0498 -0.5535 -0.5881
 2361SOL    HW118545   2.469   1.717   6.182  0.6959  0.6759  0.3108
 2361SOL    HW218546   2.459   1.577   6.238 -0.5512 -1.0024  0.8926
 2362SOL     OW18547   0.875   3.658   8.793 -0.1170 -0.0083 -0.1837
 2362SOL    HW118548   0.863   3.702   8.877  1.5638  1.9379 -0.9823
 2362SOL    HW218549   0.871   3.565   8.818  0.5493 -0.5988 -2.2270
 2363SOL     OW18550   4.572   0.021   6.597  0.2789 -0.3905 -0.4551
 2363SOL    HW118551   4.602   0.100   6.641  0.9801 -0.3300 -1.0427
 2363SOL    HW218552   4.648   4.691   6.580  0.7139 -0.2795  1.1800
 2364SOL     OW18553   3.126   1.884  13.912  0.3136 -0.4595 -0.4610
 2364SOL    HW118554   3.213   1.879  13.873  1.7174  2.4324  2.3814
 2364SOL    HW218555   3.126   1.973  13.947 -0.4421 -0.4774 -0.4020
 2365SOL     OW18556   2.322   4.423   1.711  0.0732  0.3683  0.3733
 2365SOL    HW118557   2.395   4.446   1.768  0.8090  2.2115 -1.3276
 2365SOL    HW218558   2.361   4.352   1.661  1.2659  0.8651  0.5961
 2366SOL     OW18559   3.271   2.285   1.400  0.0866 -0.2631  0.4279
 2366SOL    HW118560   3.271   2.191   1.383  0.3696 -0.4171  1.2998
 2366SOL    HW218561   3.178   2.294   1.423 -0.3239 -0.6872 -1.0269
 2367SOL     OW18562   4.382   0.602   3.583 -0.5582 -0.2093  0.3775
 2367SOL    HW118563   4.335   0.526   3.549  0.7392 -0.5517 -0.6349
 2367SOL    HW218564   4.308   0.663   3.578  0.3290  0.9826  1.5703
 2368SOL     OW18565   0.313   3.558   9.956  0.2914 -0.0533 -0.1184
 2368SOL    HW118566   0.393   3.605   9.931  1.9179 -4.2805 -2.8361
 2368SOL    HW218567   0.250   3.594   9.893 -1.0152 -0.4201  0.9727
 2369SOL     OW18568   1.266   0.096   3.883  0.0234  0.8472  0.0733
 2369SOL    HW118569   1.280   0.107   3.789 -0.2727  4.7205  0.4736
 2369SOL    HW218570   1.219   0.177   3.905  1.2615  2.0778 -1.8187
 2370SOL     OW18571   2.778   4.079   4.023 -0.6607 -0.2965  0.0042
 2370SOL    HW118572   2.756   4.118   3.938  0.1436 -0.2174 -0.1682
 2370SOL    HW218573   2.853   4.129   4.056 -1.7375  1.2192  0.1469
 2371SOL     OW18574   0.473   2.364   5.497 -0.0140 -0.0834  0.1376
 2371SOL    HW118575   0.548   2.376   5.556 -2.0613  1.1332  2.5219
 2371SOL    HW218576   0.480   2.432   5.430  0.7343 -0.0750  0.2298
 2372SOL     OW18577   1.822   0.613   1.872  0.1011 -0.7238 -0.2066
 2372SOL    HW118578   1.877   0.563   1.933  1.1696 -0.5979 -1.0591
 2372SOL    HW218579   1.844   0.706   1.877 -1.5977 -0.2191 -2.1609
 2373SOL     OW18580   2.206   4.610  14.221  0.3624 -0.0226  0.0892
 2373SOL    HW118581   2.226   4.703  14.208 -1.5509  0.0328 -2.4581
 2373SOL    HW218582   2.288   4.569  14.194 -0.4301 -1.1727 -0.5836
 2374SOL     OW18583   4.145   2.029   1.532  0.1026 -0.9669 -0.4050
 2374SOL    HW118584   4.198   1.998   1.605 -0.5874 -0.3066  0.3714
 2374SOL    HW218585   4.074   1.965   1.543 -0.3949 -0.4121 -0.4217
 2375SOL     OW18586   1.041   4.426   9.126 -1.0895 -0.1926  0.2425
 2375SOL    HW118587   1.075   4.491   9.064  0.1228 -0.2839  0.8201
 2375SOL    HW218588   0.948   4.448   9.135 -0.6544  1.3251  0.9816
 2376SOL     OW18589   0.800   0.850   5.546  0.0418 -0.6113  0.0930
 2376SOL    HW118590   0.812   0.800   5.465 -0.7712  0.0866 -0.4562
 2376SOL    HW218591   0.828   0.935   5.514  1.0374 -0.7914  0.4914
 2377SOL     OW18592   4.071   3.922  16.740  0.6334 -0.4917  0.0521
 2377SOL    HW118593   4.079   3.974  16.660 -3.0830 -1.8582 -1.2222
 2377SOL    HW218594   4.160   3.929  16.776  0.0899 -0.3844  1.3861
 2378SOL     OW18595   0.885   4.127  17.449  0.2307 -0.0741  0.0766
 2378SOL    HW118596   0.948   4.197  17.433 -0.5191  0.2558 -1.4635
 2378SOL    HW218597   0.940   4.049  17.458  2.6110  1.6360  0.4086
 2379SOL     OW18598   3.563   0.893   5.555  0.5855  0.2858  0.0142
 2379SOL    HW118599   3.650   0.882   5.517 -0.4278 -1.8008 -1.7228
 2379SOL    HW218600   3.592   0.920   5.642 -0.7475  1.2096  0.1671
 2380SOL     OW18601   0.643   3.256  16.522  0.1289 -0.0133 -0.1722
 2380SOL    HW118602   0.574   3.317  16.494  1.5130  1.6622  0.0548
 2380SOL    HW218603   0.669   3.237  16.433  0.8079  0.8701 -0.1665
 2381SOL     OW18604   0.939   3.521   9.911  0.0117  0.0616  0.0042
 2381SOL    HW118605   0.845   3.506   9.903 -0.7166  3.8821  1.6970
 2381SOL    HW218606   0.963   3.442   9.961  0.7223  2.1807  3.0043
 2382SOL     OW18607   4.540   3.520   4.140 -0.1557 -0.5792  0.0144
 2382SOL    HW118608   4.511   3.573   4.066 -1.1964 -0.8546  0.2266
 2382SOL    HW218609   4.619   3.480   4.104  1.8814  2.6791  0.8782
 2383SOL     OW18610   0.082   0.923   4.695  0.0714 -0.3358  0.1596
 2383SOL    HW118611   0.031   1.004   4.703  0.7764 -0.0162  1.4600
 2383SOL    HW218612   0.129   0.944   4.614 -0.6736  1.0194  0.0783
 2384SOL     OW18613   3.388   4.387   1.728  0.3523  0.2894  0.5894
 2384SOL    HW118614   3.465   4.393   1.785  1.3492  1.7838 -0.8891
 2384SOL    HW218615   3.416   4.460   1.672  3.0183  1.8423  3.9437
 2385SOL     OW18616   2.098   0.440   7.801 -0.4234  0.0109  0.2074
 2385SOL    HW118617   2.087   0.354   7.760 -1.2592 -0.2953  1.0800
 2385SOL    HW218618   2.008   0.472   7.807 -0.9362 -1.5040  0.4136
 2386SOL     OW18619   4.405   2.569   3.680 -0.2101  0.0508  0.4779
 2386SOL    HW118620   4.475   2.546   3.740  0.6025  0.3803 -0.3390
 2386SOL    HW218621   4.419   2.664   3.673  1.4269 -0.1990  0.4690
 2387SOL     OW18622   1.188   1.233   7.557  0.4355  0.3521  0.1822
 2387SOL    HW118623   1.242   1.218   7.634 -1.4437  0.9358  1.6250
 2387SOL    HW218624   1.119   1.168   7.567  0.6646 -0.2850 -2.3056
 2388SOL     OW18625   1.706   2.217  10.293  0.0840  0.1365 -0.1747
 2388SOL    HW118626   1.748   2.277  10.355 -0.8113 -0.1664  0.7358
 2388SOL    HW218627   1.777   2.166  10.254 -1.4972 -0.2401 -2.5571
 2389SOL     OW18628   4.122   3.202   6.403  0.1132  0.2536 -0.0942
 2389SOL    HW118629   4.073   3.171   6.327  0.7300  0.6857 -0.6633
 2389SOL    HW218630   4.133   3.296   6.393 -0.0146  0.1618 -1.0700
 2390SOL     OW18631   4.605   3.715   4.725  0.1420 -0.0786 -0.4090
 2390SOL    HW118632   4.600   3.781   4.655  1.1200  0.4066 -0.0263
 2390SOL    HW218633   4.577   3.759   4.805  0.7022 -1.7528  0.6876
 2391SOL     OW18634   0.368   3.311   7.466 -0.2354  0.2174 -0.2441
 2391SOL    HW118635   0.285   3.359   7.473  0.6143  1.8700 -1.4535
 2391SOL    HW218636   0.382   3.309   7.561  0.3099  1.7525 -0.2853
 2392SOL     OW18637   3.777   0.552   3.938  0.1320 -0.5227  0.4256
 2392SOL    HW118638   3.823   0.635   3.923 -1.0314 -0.2607 -1.6689
 2392SOL    HW218639   3.744   0.524   3.852  3.6469 -0.4847 -0.9474
 2393SOL     OW18640   2.937   2.228   6.301 -0.4216 -0.2006 -0.1839
 2393SOL    HW118641   3.014   2.240   6.356 -0.4858 -2.1124  0.3123
 2393SOL    HW218642   2.904   2.142   6.327 -0.8690 -0.4569 -1.5713
 2394SOL     OW18643   3.295   4.287   5.588 -0.5192  0.3619  0.7312
 2394SOL    HW118644   3.245   4.212   5.556 -0.3537 -0.0963  1.5242
 2394SOL    HW218645   3.386   4.273   5.561 -1.3956 -1.0270 -1.4440
 2395SOL     OW18646   3.343   3.261   8.819  0.3007  0.1367  0.2142
 2395SOL    HW118647   3.421   3.218   8.855  0.3703  2.2367  2.5971
 2395SOL    HW218648   3.321   3.190   8.759  1.1740  1.0331 -1.1508
 2396SOL     OW18649   3.039   4.503   8.110  0.2149 -0.3749  0.1951
 2396SOL    HW118650   3.059   4.413   8.132 -0.1507 -0.6522 -0.6066
 2396SOL    HW218651   3.042   4.513   8.015  0.1951 -1.4681  0.0808
 2397SOL     OW18652   0.352   1.415   2.685  0.1367 -0.0755  0.5331
 2397SOL    HW118653   0.297   1.344   2.717  0.1748  0.3680  1.5761
 2397SOL    HW218654   0.422   1.418   2.750  1.4836  2.0713 -1.0039
 2398SOL     OW18655   1.856   1.653   7.696  0.2275  0.9879 -0.0691
 2398SOL    HW118656   1.929   1.607   7.654  1.4716  0.3004  2.7929
 2398SOL    HW218657   1.895   1.680   7.779 -0.1542  1.5971 -0.0886
 2399SOL     OW18658   2.527   3.121   6.935  0.0954  0.1014  0.9080
 2399SOL    HW118659   2.583   3.048   6.961  0.9282  0.9489  1.4964
 2399SOL    HW218660   2.439   3.105   6.969 -0.8984  3.3530 -0.0948
 2400SOL     OW18661   0.113   1.499  13.983 -0.2004 -0.3557  0.4504
 2400SOL    HW118662   0.147   1.416  13.949 -0.7044  0.6338 -2.3782
 2400SOL    HW218663   0.166   1.500  14.064  0.7928  0.4646 -0.2166
 2401SOL     OW18664   4.121   2.133  13.777 -0.2101 -0.0513 -0.3478
 2401SOL    HW118665   4.066   2.199  13.818 -1.8320 -0.3930 -1.9773
 2401SOL    HW218666   4.075   2.054  13.806  0.0761 -0.5816 -1.3356
 2402SOL     OW18667   2.209   2.042   0.852  0.3079  0.2474 -0.0202
 2402SOL    HW118668   2.292   2.026   0.897 -0.3863 -0.7825  0.8703
 2402SOL    HW218669   2.213   2.137   0.861 -0.2337  0.1543  1.1708
 2403SOL     OW18670   2.281   3.045   7.383  0.0923  0.4474 -0.1880
 2403SOL    HW118671   2.345   2.974   7.387 -1.2074 -0.6258  1.4451
 2403SOL    HW218672   2.245   3.034   7.471  1.3195 -1.8770  0.0047
 2404SOL     OW18673   1.219   3.695   2.770 -0.0255 -0.1339  0.4883
 2404SOL    HW118674   1.201   3.783   2.803 -1.3442 -0.1158 -0.3241
 2404SOL    HW218675   1.294   3.715   2.714  0.0036 -1.7120 -0.0309
 2405SOL     OW18676   0.620   4.206   2.938  0.5763 -0.0528  0.1220
 2405SOL    HW118677   0.711   4.227   2.917  0.3279 -1.2896 -2.1798
 2405SOL    HW218678   0.596   4.277   2.997  3.8270  1.9002 -0.8849
 2406SOL     OW18679   0.022   4.081   3.485 -0.4536 -0.3564  0.1517
 2406SOL    HW118680   4.695   4.127   3.550 -0.3078  0.9389 -0.6421
 2406SOL    HW218681   4.697   4.000   3.483  0.6839 -1.0668  0.1734
 2407SOL     OW18682   2.986   0.399   3.465 -0.2481  0.4611  0.4279
 2407SOL    HW118683   2.994   0.324   3.525  0.2696  0.8095  0.7993
 2407SOL    HW218684   2.893   0.422   3.466 -0.8529 -1.9088 -2.8592
 2408SOL     OW18685   2.332   3.370   4.116 -0.3506  0.6593  0.3308
 2408SOL    HW118686   2.341   3.313   4.193  1.1986  0.9206  0.3392
 2408SOL    HW218687   2.364   3.456   4.143  0.0492 -0.4456  3.4680
 2409SOL     OW18688   4.235   3.126   7.351  0.3380  0.2341 -0.4148
 2409SOL    HW118689   4.260   3.046   7.305  0.3449  0.3761 -0.6593
 2409SOL    HW218690   4.206   3.086   7.433 -1.7776  3.1413  0.2561
 2410SOL     OW18691   4.461   1.523  11.019  0.3222 -0.4220 -0.0283
 2410SOL    HW118692   4.445   1.603  11.068 -1.1387 -0.7577  0.0352
 2410SOL    HW218693   4.448   1.451  11.081 -0.2385 -0.1409  0.1753
 2411SOL     OW18694   4.657   1.899  17.500 -0.7091  0.1312 -0.0891
 2411SOL    HW118695   4.641   1.939  17.585  0.0833 -2.2388  1.1659
 2411SOL    HW218696   4.572   1.921  17.462 -0.7316 -0.7588 -0.5579
 2412SOL     OW18697   3.430   2.929   5.228 -0.0874 -0.5892  0.4623
 2412SOL    HW118698   3.422   2.882   5.311  0.5549 -0.9965  0.2964
 2412SOL    HW218699   3.401   3.015   5.257 -1.6911 -0.4244 -1.6544
 2413SOL     OW18700   2.226   4.057   4.161  0.0772 -0.5829 -0.2139
 2413SOL    HW118701   2.261   4.111   4.090 -1.6424 -0.1193 -0.7254
 2413SOL    HW218702   2.292   4.079   4.227  0.6915 -0.6904 -0.7921
 2414SOL     OW18703   1.701   3.534   6.547 -0.1084  0.5018  0.0379
 2414SOL    HW118704   1.674   3.621   6.516 -1.1410  1.2180  2.9790
 2414SOL    HW218705   1.635   3.516   6.614 -2.2577 -0.5901 -2.3513
 2415SOL     OW18706   2.872   0.292   4.577  0.6878 -0.3924  0.0512
 2415SOL    HW118707   2.865   0.199   4.560  4.2689 -0.4646 -1.1337
 2415SOL    HW218708   2.967   0.304   4.564  0.5725  1.0251  0.4676
 2416SOL     OW18709   4.147   3.002   0.144  0.2144  0.0569 -0.1710
 2416SOL    HW118710   4.218   2.956   0.100  1.3703  0.4056  1.3301
 2416SOL    HW218711   4.132   3.076   0.085  0.9893  0.4045  0.0789
 2417SOL     OW18712   1.138   0.918  14.622  0.0399  0.0284  0.0146
 2417SOL    HW118713   1.118   0.845  14.681 -3.6696  0.8594 -0.2000
 2417SOL    HW218714   1.218   0.880  14.586  1.7719  2.9948  0.7031
 2418SOL     OW18715   2.717   1.743  17.662 -0.8151 -0.3549 -0.2267
 2418SOL    HW118716   2.763   1.659  17.655 -0.5168 -0.2915  1.1007
 2418SOL    HW218717   2.634   1.728   0.004 -0.0248 -2.6198  0.4718
 2419SOL     OW18718   1.324   3.476   1.254  0.1596 -0.2035  0.1231
 2419SOL    HW118719   1.417   3.496   1.268 -0.1152  0.4521  1.0411
 2419SOL    HW218720   1.297   3.424   1.330 -0.6544 -0.5613 -0.4106
 2420SOL     OW18721   3.333   2.507   8.102 -0.1663 -0.1514  0.0478
 2420SOL    HW118722   3.422   2.482   8.080 -0.9709  0.2501 -3.5847
 2420SOL    HW218723   3.307   2.570   8.035 -1.0071 -1.5373 -0.9377
 2421SOL     OW18724   1.672   3.580   3.830 -0.1172 -0.1639 -0.3923
 2421SOL    HW118725   1.754   3.531   3.819 -0.4153 -0.6597 -0.4066
 2421SOL    HW218726   1.616   3.537   3.765  0.1563  0.6861 -1.1921
 2422SOL     OW18727   4.391   2.604  14.115 -0.3130 -0.0633  0.8685
 2422SOL    HW118728   4.472   2.601  14.166 -0.8409  1.9581  1.8651
 2422SOL    HW218729   4.341   2.544  14.171  0.7151 -0.5309  1.2826
 2423SOL     OW18730   2.343   3.461   6.963 -0.6617 -0.3187 -0.0464
 2423SOL    HW118731   2.271   3.466   6.900  0.2619 -1.0943 -1.1691
 2423SOL    HW218732   2.300   3.431   7.043 -1.9813  1.2315 -0.1839
 2424SOL     OW18733   3.685   0.426   3.719  0.2584  0.4186 -0.0663
 2424SOL    HW118734   3.673   0.341   3.761  0.1710 -0.3547 -1.6607
 2424SOL    HW218735   3.629   0.412   3.642 -0.2175  0.1895  0.3158
 2425SOL     OW18736   2.650   0.603   2.355  0.5761 -0.2124 -0.2399
 2425SOL    HW118737   2.631   0.512   2.380 -0.6456  0.2440  0.4942
 2425SOL    HW218738   2.730   0.602   2.302 -0.2293 -0.6857 -1.4467
 2426SOL     OW18739   0.280   2.496   9.114 -0.0042  1.1987 -0.0997
 2426SOL    HW118740   0.244   2.528   9.198  1.1883  0.5823  0.6434
 2426SOL    HW218741   0.367   2.534   9.116  0.7483 -0.5326  0.3991
 2427SOL     OW18742   4.281   2.860   7.228  0.0642  0.2623 -0.2246
 2427SOL    HW118743   4.366   2.861   7.183  0.1504 -0.6759 -0.0751
 2427SOL    HW218744   4.277   2.768   7.251 -0.2194  0.4857  0.5992
 2428SOL     OW18745   3.549   1.171   5.370 -0.2936 -0.2571  0.3876
 2428SOL    HW118746   3.456   1.194   5.379 -0.8841 -3.3229  2.0233
 2428SOL    HW218747   3.565   1.130   5.455  0.0861 -1.5943 -0.3271
 2429SOL     OW18748   3.470   4.106   6.532  0.1054 -0.7863  0.2588
 2429SOL    HW118749   3.472   4.039   6.463 -0.3601 -0.7951  0.2531
 2429SOL    HW218750   3.565   4.118   6.536 -0.0637 -1.0596  5.2334
 2430SOL     OW18751   3.896   1.306  17.366 -0.8808 -0.6119 -1.0966
 2430SOL    HW118752   3.816   1.254  17.375 -1.3293  0.6696  2.2121
 2430SOL    HW218753   3.962   1.239  17.346 -0.6563 -1.5503  2.8689
 2431SOL     OW18754   1.965   4.347   7.513  0.3318  0.3062 -0.9563
 2431SOL    HW118755   2.013   4.266   7.523  0.6069  0.6877  0.7715
 2431SOL    HW218756   1.881   4.310   7.485  0.6307 -0.7301 -0.4634
 2432SOL     OW18757   3.731   4.458  17.385 -0.3210  0.2932  0.1994
 2432SOL    HW118758   3.700   4.548  17.393 -1.7390 -0.1571 -0.2890
 2432SOL    HW218759   3.822   4.483  17.402 -0.0796  0.5646 -1.4737
 2433SOL     OW18760   1.432   4.079   9.267  0.1474  1.1001  0.4735
 2433SOL    HW118761   1.362   4.062   9.330  0.8493 -0.5438  0.7969
 2433SOL    HW218762   1.504   4.026   9.302  0.1665  1.1911  0.5737
 2434SOL     OW18763   1.029   4.159   0.368 -0.0434 -0.0834 -0.4049
 2434SOL    HW118764   1.103   4.116   0.410  0.3231  0.5263 -0.4347
 2434SOL    HW218765   1.078   4.228   0.324 -0.7789  0.3385 -0.5679
 2435SOL     OW18766   1.047   0.118   1.714 -0.4933 -0.0342 -0.1163
 2435SOL    HW118767   1.009   0.190   1.763 -0.1666  0.4154 -0.5292
 2435SOL    HW218768   1.139   0.131   1.738 -0.6267  0.8195 -0.0786
 2436SOL     OW18769   4.190   0.697  15.024  0.3176 -0.3411  0.7635
 2436SOL    HW118770   4.136   0.621  15.002  0.7486 -0.4233 -0.0356
 2436SOL    HW218771   4.128   0.770  15.025 -0.0983 -0.7077  2.1449
 2437SOL     OW18772   1.086   2.938  15.648 -0.4622 -0.3519  0.1701
 2437SOL    HW118773   1.046   2.927  15.562  0.4695 -0.2209 -0.2798
 2437SOL    HW218774   1.008   2.928  15.702 -1.3511 -0.2623 -1.1026
 2438SOL     OW18775   0.470   1.249  12.162  0.2664  0.7167  0.3836
 2438SOL    HW118776   0.449   1.336  12.197 -0.9096  0.7094 -0.3156
 2438SOL    HW218777   0.378   1.228  12.146  0.4664 -1.9417  2.8319
 2439SOL     OW18778   2.972   2.629   8.627  0.0008 -0.5983  0.0547
 2439SOL    HW118779   2.981   2.650   8.720 -0.9069  0.4580 -0.0941
 2439SOL    HW218780   3.055   2.582   8.637  0.2725 -0.5221 -1.7426
 2440SOL     OW18781   2.288   2.363   2.266 -0.1600 -0.8789  0.3839
 2440SOL    HW118782   2.314   2.328   2.351 -1.4709  0.3659  1.2965
 2440SOL    HW218783   2.228   2.302   2.223  0.6299 -0.0060 -1.9637
 2441SOL     OW18784   3.236   3.548   1.352  0.6622  0.4972 -0.0242
 2441SOL    HW118785   3.292   3.541   1.275  1.6609 -1.5604  0.8904
 2441SOL    HW218786   3.210   3.458   1.370 -3.3131  2.2031  2.7459
 2442SOL     OW18787   0.109   4.599   9.261  0.2041 -0.0363  0.2052
 2442SOL    HW118788   0.024   4.643   9.257  0.2536  0.0442  0.0584
 2442SOL    HW218789   0.168   4.673   9.275  1.4099 -1.0665  0.6339
 2443SOL     OW18790   2.335   3.593   7.541 -0.2865  0.0603 -0.5513
 2443SOL    HW118791   2.357   3.531   7.611  1.8081  1.0733 -0.3402
 2443SOL    HW218792   2.267   3.647   7.581  2.4400  4.2961 -1.6345
 2444SOL     OW18793   1.978   0.577   7.442  0.0811  0.5971  0.8954
 2444SOL    HW118794   2.023   0.655   7.411 -0.6552  1.2683  1.5196
 2444SOL    HW218795   2.041   0.516   7.478  0.7425  0.7511 -0.0054
 2445SOL     OW18796   0.495   2.457  13.385 -0.1984 -0.4523  0.5585
 2445SOL    HW118797   0.411   2.493  13.356  0.7397  0.4323 -1.0867
 2445SOL    HW218798   0.477   2.363  13.382 -1.5949 -0.2087  1.0608
 2446SOL     OW18799   1.149   4.190   2.975  0.6353  0.4640 -0.3517
 2446SOL    HW118800   1.116   4.106   2.944  0.6386  0.6642 -0.9050
 2446SOL    HW218801   1.191   4.168   3.058 -0.6263 -0.1133  0.1349
 2447SOL     OW18802   0.026   4.691   4.440 -0.2171 -0.1228 -0.2797
 2447SOL    HW118803   0.040   4.610   4.391 -0.5151 -0.3433 -0.0021
 2447SOL    HW218804   0.055   0.026   4.372 -1.0811  0.0142 -0.5206
 2448SOL     OW18805   4.509   3.755  10.029 -0.3957 -0.1240 -0.3429
 2448SOL    HW118806   4.431   3.808  10.039 -1.2634 -1.4985  0.2121
 2448SOL    HW218807   4.477   3.685   9.972 -0.3088  0.9391 -1.6788
 2449SOL     OW18808   1.535   0.852   4.107 -0.2146  0.0348  0.3066
 2449SOL    HW118809   1.504   0.901   4.183 -0.0742 -1.4768  1.3344
 2449SOL    HW218810   1.497   0.896   4.031  2.8800 -1.0638 -1.8580
 2450SOL     OW18811   1.454   3.573   6.334  0.2160 -0.0386  0.3241
 2450SOL    HW118812   1.447   3.481   6.357  1.0866  0.2014  1.5935
 2450SOL    HW218813   1.381   3.586   6.274 -1.2965 -0.6365  2.0265
 2451SOL     OW18814   1.791   1.790   5.351  0.3128 -0.1043 -0.3050
 2451SOL    HW118815   1.696   1.790   5.347  0.3106 -1.8424 -0.4305
 2451SOL    HW218816   1.810   1.857   5.417 -2.4770  1.0781 -0.7081
 2452SOL     OW18817   1.972   0.715   6.420  0.1892  0.4030  0.0128
 2452SOL    HW118818   1.919   0.699   6.498  1.7618 -0.4961  0.8834
 2452SOL    HW218819   2.035   0.780   6.449  1.3497 -1.2690  1.2525
 2453SOL     OW18820   3.924   2.087   0.576  0.5397 -0.9221 -0.1204
 2453SOL    HW118821   3.863   2.121   0.642 -0.1752 -0.1490 -1.1760
 2453SOL    HW218822   3.992   2.152   0.594 -1.2749  1.2900 -1.2679
 2454SOL     OW18823   4.402   1.275   5.674 -0.3555  0.2721 -0.0819
 2454SOL    HW118824   4.351   1.334   5.618  0.2139 -1.1234 -2.0582
 2454SOL    HW218825   4.349   1.247   5.749  0.7322 -2.1747 -0.2273
 2455SOL     OW18826   1.251   0.224  10.205 -0.0687  0.4708 -0.3597
 2455SOL    HW118827   1.335   0.269  10.211 -0.2425  0.8038 -0.4466
 2455SOL    HW218828   1.191   0.278  10.257  2.0358  0.9671  1.5568
 2456SOL     OW18829   4.056   0.879   7.960  0.2145  0.0749 -0.3438
 2456SOL    HW118830   4.054   0.869   7.865 -1.3138 -0.1772 -0.2908
 2456SOL    HW218831   4.149   0.860   7.975  0.0279 -1.0324 -0.6240
 2457SOL     OW18832   3.440   4.500   5.311 -0.0087 -0.1809  0.5534
 2457SOL    HW118833   3.456   4.422   5.258 -2.7726 -1.6298  1.8598
 2457SOL    HW218834   3.484   4.572   5.267  0.5886  0.3856  2.0726
 2458SOL     OW18835   3.166   2.470   6.160 -0.0193 -0.7013 -0.4637
 2458SOL    HW118836   3.104   2.502   6.226  1.2801 -0.9209  0.8540
 2458SOL    HW218837   3.247   2.481   6.209 -0.1949  1.4173 -0.6494
 2459SOL     OW18838   3.895   3.543   5.939  0.1971 -0.1111 -0.3446
 2459SOL    HW118839   3.864   3.503   6.020  1.9827 -3.0367 -1.0852
 2459SOL    HW218840   3.834   3.616   5.928  2.1008  1.8057  2.0188
 2460SOL     OW18841   3.382   1.132   7.607 -0.4476  0.5735  0.2208
 2460SOL    HW118842   3.390   1.037   7.618 -0.4620  0.8626  2.8921
 2460SOL    HW218843   3.444   1.161   7.674  1.2721 -3.1626  0.2387
 2461SOL     OW18844   1.930   2.662   0.207  0.6939 -0.2367  0.5168
 2461SOL    HW118845   1.993   2.627   0.144 -0.2687 -0.0968 -0.5161
 2461SOL    HW218846   1.863   2.691   0.145  1.1961 -0.2348 -0.0270
 2462SOL     OW18847   4.288   1.257   6.215  0.9237 -0.5016 -0.2717
 2462SOL    HW118848   4.333   1.175   6.236  0.8151 -0.4417  0.2105
 2462SOL    HW218849   4.358   1.290   6.159 -0.2491 -0.5994 -1.7815
 2463SOL     OW18850   1.396   1.409   3.283 -0.1448 -0.1046  0.0781
 2463SOL    HW118851   1.446   1.339   3.242  1.6980  0.2946  1.6580
 2463SOL    HW218852   1.316   1.392   3.233  0.5071 -1.2412 -0.5702
 2464SOL     OW18853   4.639   4.199   8.357  0.1661 -0.4539  0.0173
 2464SOL    HW118854   4.709   4.258   8.384 -0.7348  1.3638 -1.6489
 2464SOL    HW218855   4.674   4.118   8.394 -1.2787 -0.4465  1.4263
 2465SOL     OW18856   0.661   4.479  15.126 -0.3321  0.2969 -0.0115
 2465SOL    HW118857   0.740   4.434  15.155  0.2204  1.4173  0.2344
 2465SOL    HW218858   0.685   4.548  15.064 -0.2390  0.0355 -0.2651
 2466SOL     OW18859   3.769   3.948   8.775 -0.5752  0.4233 -0.0133
 2466SOL    HW118860   3.794   3.856   8.787 -0.4552  0.2241 -1.7396
 2466SOL    HW218861   3.695   3.950   8.836  1.2976  0.4205  2.2555
 2467SOL     OW18862   0.765   1.146   4.041 -0.2169 -0.0543 -0.0337
 2467SOL    HW118863   0.832   1.097   4.089 -0.0345 -1.0896 -1.3367
 2467SOL    HW218864   0.713   1.079   3.995  1.3946 -0.0773 -1.8559
 2468SOL     OW18865   1.913   2.943   0.308  0.0672 -0.2040 -0.3998
 2468SOL    HW118866   1.898   2.854   0.276  2.3614 -1.0370  0.8640
 2468SOL    HW218867   1.927   2.996   0.229  0.6652 -0.2177 -0.3073
 2469SOL     OW18868   4.473   2.529  12.390 -0.2026 -0.5316  0.3459
 2469SOL    HW118869   4.496   2.620  12.409 -0.1827  0.0759 -2.6238
 2469SOL    HW218870   4.498   2.511  12.481 -0.5109  1.5226  0.8428
 2470SOL     OW18871   4.091   0.277  15.715  0.0437 -0.0044 -0.4224
 2470SOL    HW118872   4.057   0.299  15.628 -1.5328 -0.9110 -0.0306
 2470SOL    HW218873   4.084   0.182  15.714  2.9911 -0.2202 -0.5480
 2471SOL     OW18874   1.509   2.470  11.738 -0.0921 -0.3065  0.3275
 2471SOL    HW118875   1.552   2.384  11.731  2.0412  0.8905 -1.4594
 2471SOL    HW218876   1.553   2.530  11.678 -2.6719  0.5208 -0.7271
 2472SOL     OW18877   0.417   3.971  15.627  0.5686  0.4413  0.3032
 2472SOL    HW118878   0.399   3.946  15.536 -0.7958  1.2329  0.3667
 2472SOL    HW218879   0.375   3.902  15.679 -2.1760  0.7765 -1.4796
 2473SOL     OW18880   0.859   4.567   8.902 -1.0143  0.1691  0.2638
 2473SOL    HW118881   0.954   4.576   8.907 -1.0219  0.7119 -0.5632
 2473SOL    HW218882   0.826   4.654   8.927  0.8535  1.0474 -0.3469
 2474SOL     OW18883   3.082   4.532   8.452  0.9691  0.0766 -0.1656
 2474SOL    HW118884   3.105   4.562   8.540 -0.3282 -0.6802  0.4405
 2474SOL    HW218885   2.993   4.562   8.432  1.4647 -0.3731 -2.9938
 2475SOL     OW18886   1.727   2.582   2.578  0.2139  0.6942 -0.5745
 2475SOL    HW118887   1.742   2.634   2.657 -2.6764  1.8530 -0.8007
 2475SOL    HW218888   1.634   2.577   2.558  0.3218 -4.1549  0.1713
 2476SOL     OW18889   1.782   2.284  17.219  0.1443  0.4845 -0.0258
 2476SOL    HW118890   1.831   2.321  17.292  0.7219 -0.2853 -0.0272
 2476SOL    HW218891   1.697   2.262  17.258 -0.0017 -0.9427 -1.1523
 2477SOL     OW18892   0.461   1.360  11.315 -0.0468  0.9047 -0.3080
 2477SOL    HW118893   0.457   1.327  11.405 -2.5357  2.7791  0.2536
 2477SOL    HW218894   0.546   1.405  11.309  0.8517 -1.0748 -2.4347
 2478SOL     OW18895   3.655   1.328  13.950  0.4739 -0.2846 -0.2625
 2478SOL    HW118896   3.647   1.424  13.948 -1.3567 -0.3871  1.3605
 2478SOL    HW218897   3.734   1.317  14.003  0.4290  0.4135 -0.0418
 2479SOL     OW18898   1.043   0.806  12.693  0.4664 -0.0838 -0.1666
 2479SOL    HW118899   1.114   0.866  12.715  0.8041 -0.3355 -0.5860
 2479SOL    HW218900   0.999   0.803  12.778 -1.3306 -0.1667 -1.0888
 2480SOL     OW18901   4.129   1.435   9.160  0.1405 -0.4529 -0.1560
 2480SOL    HW118902   4.058   1.389   9.206 -0.9496  1.2254 -0.1617
 2480SOL    HW218903   4.113   1.420   9.066  2.2410 -1.5848 -0.3316
 2481SOL     OW18904   0.526   2.146   3.071 -0.2247  0.3434  0.1813
 2481SOL    HW118905   0.433   2.152   3.091 -0.7500 -0.2302 -2.0838
 2481SOL    HW218906   0.570   2.193   3.142  0.1792  1.1926 -0.6299
 2482SOL     OW18907   3.496   3.269   7.662 -0.1782 -0.5092 -0.2872
 2482SOL    HW118908   3.401   3.282   7.656 -0.1138  0.0898 -0.0251
 2482SOL    HW218909   3.495   3.208   7.736  2.8091 -0.9943 -0.6626
 2483SOL     OW18910   3.142   4.621   8.715 -0.5089  0.1284 -0.1296
 2483SOL    HW118911   3.190   4.652   8.792  1.1765 -0.4709 -0.9280
 2483SOL    HW218912   3.050   4.620   8.741 -0.7368 -0.3625 -0.9675
 2484SOL     OW18913   4.689   0.980   6.217  0.1709 -0.1592  0.1027
 2484SOL    HW118914   4.668   0.935   6.134 -1.8807  0.4527  0.3025
 2484SOL    HW218915   0.056   1.004   6.204 -0.3295  1.5727 -0.2012
 2485SOL     OW18916   2.955   0.725  10.278 -0.0760  0.2722  0.1944
 2485SOL    HW118917   2.872   0.769  10.292 -0.9802 -3.0479  5.5090
 2485SOL    HW218918   2.927   0.638  10.304  1.4552  0.2133  1.7306
 2486SOL     OW18919   4.169   1.308   7.517 -0.5133 -0.6151  0.0607
 2486SOL    HW118920   4.101   1.323   7.582 -1.1470  0.6959 -0.9137
 2486SOL    HW218921   4.146   1.223   7.478 -2.2991 -0.4424  0.7350
 2487SOL     OW18922   0.985   0.462   5.274  0.6358 -0.1420 -0.7942
 2487SOL    HW118923   1.019   0.374   5.256 -1.1185 -1.0191  0.1707
 2487SOL    HW218924   1.066   0.512   5.270  0.2582  0.3631 -2.1989
 2488SOL     OW18925   4.130   4.297   5.685 -0.1658 -0.1535 -0.0629
 2488SOL    HW118926   4.178   4.216   5.704 -2.2682 -1.2575  0.6464
 2488SOL    HW218927   4.057   4.284   5.746  1.0038 -1.8449  0.9986
 2489SOL     OW18928   0.163   0.489   6.703  0.1479  0.4398 -0.0625
 2489SOL    HW118929   0.219   0.414   6.722 -0.2333 -0.5493 -2.8084
 2489SOL    HW218930   0.232   0.553   6.687  2.0050 -1.7654 -0.8289
 2490SOL     OW18931   3.806   0.235  17.381 -0.0075 -0.6782  0.5370
 2490SOL    HW118932   3.757   0.271  17.308 -0.0535 -0.8969  0.4580
 2490SOL    HW218933   3.856   0.309  17.415  2.8361 -1.6045 -1.5175
 2491SOL     OW18934   2.742   1.891   1.238  1.0272  0.7634 -0.4093
 2491SOL    HW118935   2.790   1.884   1.155  0.6047  5.1287 -1.0107
 2491SOL    HW218936   2.690   1.811   1.240  2.1213  0.0579 -0.1422
 2492SOL     OW18937   0.686   3.492   4.637  0.1023 -0.1422  0.2540
 2492SOL    HW118938   0.709   3.585   4.625  1.1132 -0.3934  0.2349
 2492SOL    HW218939   0.696   3.458   4.548 -0.1968 -0.0512  0.1864
 2493SOL     OW18940   0.741   0.204   7.396  0.1565  0.5880  0.9186
 2493SOL    HW118941   0.673   0.271   7.386  0.2874  0.7569  1.1459
 2493SOL    HW218942   0.684   0.132   7.421 -0.6075  1.2924  1.2148
 2494SOL     OW18943   3.794   2.164   3.866  0.1039 -0.1868 -0.4010
 2494SOL    HW118944   3.875   2.202   3.834  0.7748 -1.5488 -0.2983
 2494SOL    HW218945   3.818   2.072   3.869  1.7447  0.2685  0.3714
 2495SOL     OW18946   1.579   1.931   1.736 -0.1242 -0.3639  0.0968
 2495SOL    HW118947   1.673   1.947   1.731 -0.4160  1.7771  1.3775
 2495SOL    HW218948   1.578   1.837   1.753 -4.3823 -0.4903 -0.9340
 2496SOL     OW18949   2.653   0.228  11.358  0.2440  0.0016 -0.1352
 2496SOL    HW118950   2.617   0.280  11.429  2.0177  1.2184 -0.1193
 2496SOL    HW218951   2.711   0.287  11.310 -1.2154  2.3072  0.9270
 2497SOL     OW18952   3.840   0.344   6.523  0.0736 -0.2661 -0.2905
 2497SOL    HW118953   3.768   0.340   6.586 -0.5806 -0.7917 -1.0717
 2497SOL    HW218954   3.824   0.252   6.501  1.2949 -0.7371  0.7282
 2498SOL     OW18955   2.141   0.844  12.830  0.0715 -0.0422 -0.2859
 2498SOL    HW118956   2.111   0.934  12.830 -0.4957 -0.2382 -0.6826
 2498SOL    HW218957   2.100   0.818  12.913 -1.5728  1.2627 -0.7117
 2499SOL     OW18958   2.028   2.921  13.562  0.3753  0.4815 -0.3668
 2499SOL    HW118959   2.052   2.836  13.525 -0.7987 -0.1926  0.4470
 2499SOL    HW218960   1.937   2.901  13.581  0.7242 -0.9078 -0.1532
 2500SOL     OW18961   3.704   4.082   3.737  0.0163 -0.1551  0.1927
 2500SOL    HW118962   3.704   4.144   3.810  0.7658  1.8781 -1.5113
 2500SOL    HW218963   3.738   3.998   3.768 -1.6009 -1.1416 -0.7062
 2501SOL     OW18964   0.096   4.003   1.545  0.4188 -0.3995  0.1835
 2501SOL    HW118965   0.104   4.007   1.640 -1.2149  0.1932  0.2842
 2501SOL    HW218966   0.035   3.929   1.544  0.3807 -0.3664  0.1002
 2502SOL     OW18967   2.751   2.675   4.630 -0.3304 -0.4413  0.4112
 2502SOL    HW118968   2.756   2.587   4.668 -1.2623 -0.1108  1.2928
 2502SOL    HW218969   2.693   2.671   4.554 -1.7104  0.4426  1.4158
 2503SOL     OW18970   2.834   3.447   5.194  0.3801 -0.3750  0.4867
 2503SOL    HW118971   2.758   3.392   5.211  0.6428 -0.7482  0.4454
 2503SOL    HW218972   2.819   3.477   5.104 -1.1898 -0.3741  0.7532
 2504SOL     OW18973   3.562   1.469   9.753 -0.2734  0.5008  0.6182
 2504SOL    HW118974   3.617   1.547   9.740  1.2406 -0.1127  3.1937
 2504SOL    HW218975   3.475   1.493   9.785 -0.7954 -0.6416  0.0464
 2505SOL     OW18976   3.978   1.990   5.457  0.1309  0.1064 -0.7467
 2505SOL    HW118977   3.919   1.996   5.383 -0.2724 -0.8200 -0.4902
 2505SOL    HW218978   3.928   1.927   5.508 -0.7940  1.5819  0.1871
 2506SOL     OW18979   1.546   4.310   5.176 -0.0401  0.0365 -0.9390
 2506SOL    HW118980   1.563   4.400   5.149  0.0551 -0.0014 -1.0057
 2506SOL    HW218981   1.480   4.326   5.243  0.4743  1.6845 -0.8078
 2507SOL     OW18982   2.338   4.110   3.916  0.0363  0.0216 -0.4924
 2507SOL    HW118983   2.259   4.116   3.862  0.4946 -0.5702 -1.2161
 2507SOL    HW218984   2.396   4.157   3.857  1.9215 -1.3310  0.2884
 2508SOL     OW18985   2.722   4.303   2.951  0.0138 -0.5288 -0.3395
 2508SOL    HW118986   2.632   4.269   2.955 -0.3448  0.5146  0.3507
 2508SOL    HW218987   2.717   4.393   2.919 -1.8146 -0.6109 -0.3062
 2509SOL     OW18988   1.291   2.677  12.467 -0.2223  0.3535 -0.6209
 2509SOL    HW118989   1.250   2.761  12.491 -0.2921  0.4794 -1.1846
 2509SOL    HW218990   1.225   2.644  12.406  0.2737 -1.4404 -0.1813
 2510SOL     OW18991   1.712   1.408   2.551  0.0603 -0.5337  0.5812
 2510SOL    HW118992   1.781   1.395   2.486 -0.2387 -1.5398  0.4743
 2510SOL    HW218993   1.741   1.488   2.595  0.3311  0.5481 -1.5545
 2511SOL     OW18994   3.058   2.474  12.591 -0.0421 -0.3056  0.3758
 2511SOL    HW118995   3.007   2.519  12.523  0.6790 -1.1509 -0.7226
 2511SOL    HW218996   3.123   2.424  12.542  2.0252  2.2528  0.5113
 2512SOL     OW18997   0.302   2.569   4.117 -0.1149  0.6231  0.2973
 2512SOL    HW118998   0.221   2.520   4.137 -0.0717  0.8309  0.9774
 2512SOL    HW218999   0.266   2.646   4.073  0.4771 -0.2399 -1.6513
 2513SOL     OW19000   1.972   3.380   5.518 -0.1530 -0.0693 -0.7637
 2513SOL    HW119001   2.008   3.366   5.430  2.2051 -0.0034  0.1844
 2513SOL    HW219002   2.048   3.409   5.568 -2.4353  3.6776  0.5054
 2514SOL     OW19003   2.478   4.641  15.864  0.2818  0.4726 -0.2844
 2514SOL    HW119004   2.456   4.553  15.895  0.2944  0.5545 -0.0477
 2514SOL    HW219005   2.469   4.630  15.769  1.3109  0.3261 -0.3570
 2515SOL     OW19006   4.656   0.973   5.423  0.1248  0.0326 -0.1239
 2515SOL    HW119007   4.594   0.900   5.426  0.7444 -0.4165  2.0612
 2515SOL    HW219008   4.610   1.030   5.362  0.3541 -0.6803 -0.9651
 2516SOL     OW19009   0.429   1.334   8.318 -0.4627  0.0480 -0.3474
 2516SOL    HW119010   0.498   1.328   8.384  0.8028 -0.7021 -1.7478
 2516SOL    HW219011   0.423   1.243   8.289  1.2902 -0.7923  1.9167
 2517SOL     OW19012   4.687   3.793   5.632  0.1911  0.0420  0.0292
 2517SOL    HW119013   4.685   3.752   5.718 -0.3405 -0.1913 -0.0991
 2517SOL    HW219014   0.047   3.758   5.604 -0.1410  0.1977 -1.1746
 2518SOL     OW19015   3.819   2.325   1.061  0.1889  0.1099  0.0039
 2518SOL    HW119016   3.854   2.296   0.977  2.1268  3.6990 -0.4504
 2518SOL    HW219017   3.897   2.329   1.117 -0.4967 -1.7151  1.1016
 2519SOL     OW19018   4.021   3.520   9.121  0.9966 -0.2133 -0.2208
 2519SOL    HW119019   4.021   3.497   9.028 -0.3454  0.8031 -0.4732
 2519SOL    HW219020   3.926   3.525   9.131  0.9818 -0.3137 -0.3184
 2520SOL     OW19021   0.906   2.548  10.777  0.0392  0.7238 -0.3611
 2520SOL    HW119022   0.955   2.562  10.858 -0.3837  2.5628 -0.4247
 2520SOL    HW219023   0.942   2.464  10.749 -0.2204  0.0976  1.1802
 2521SOL     OW19024   3.959   2.500   0.892 -0.0956  0.1936 -0.1125
 2521SOL    HW119025   3.877   2.465   0.927 -0.5581  1.5577  0.1785
 2521SOL    HW219026   3.938   2.590   0.920 -0.5803  0.1986 -0.4717
 2522SOL     OW19027   4.012   2.965   1.880 -0.0811  0.0286 -0.5099
 2522SOL    HW119028   4.036   2.891   1.936  1.4837  2.4830  2.0586
 2522SOL    HW219029   4.085   3.020   1.907  2.2640 -2.5722 -1.6042
 2523SOL     OW19030   4.501   0.189   7.207 -0.5832 -0.2829  0.0404
 2523SOL    HW119031   4.501   0.270   7.156 -0.6127  0.9833  2.0561
 2523SOL    HW219032   4.581   0.140   7.189 -0.8037 -1.2177  1.6018
 2524SOL     OW19033   4.170   0.096  16.576 -0.0223  0.1455  0.1310
 2524SOL    HW119034   4.102   0.084  16.643  0.0298 -3.8512 -0.5292
 2524SOL    HW219035   4.245   0.055  16.618  1.1382  1.8827 -0.2747
 2525SOL     OW19036   0.557   4.009   3.479  0.1686 -0.5076  0.1415
 2525SOL    HW119037   0.625   3.947   3.509  0.2766  0.5009  1.9545
 2525SOL    HW219038   0.598   4.093   3.497  0.8001 -0.3247 -2.2722
 2526SOL     OW19039   0.068   0.326  12.233 -0.6723  0.2333  0.7908
 2526SOL    HW119040   0.128   0.306  12.161 -0.2432 -1.5061  1.6404
 2526SOL    HW219041   0.125   0.379  12.287  1.8852 -0.3663 -1.2900
 2527SOL     OW19042   1.684   0.199   2.628  0.2774  0.7087 -0.1106
 2527SOL    HW119043   1.722   0.144   2.697 -0.4153  0.9747  0.4758
 2527SOL    HW219044   1.631   0.267   2.670 -0.3971  0.0266  0.1236
 2528SOL     OW19045   0.843   4.595   9.804  0.2981 -0.4170  0.4369
 2528SOL    HW119046   0.785   4.551   9.867 -1.8126 -0.5259 -1.5581
 2528SOL    HW219047   0.787   4.597   9.726 -0.8039  0.6238  1.2668
 2529SOL     OW19048   3.281   1.311   1.686 -0.4781 -0.2386 -0.3036
 2529SOL    HW119049   3.358   1.358   1.654 -1.0486  0.3645 -0.8027
 2529SOL    HW219050   3.302   1.226   1.648 -0.7338 -1.3030  1.9702
 2530SOL     OW19051   1.468   4.650   9.589  0.0734 -0.0398  0.3946
 2530SOL    HW119052   1.527   4.714   9.629  0.3703  0.6135 -1.0833
 2530SOL    HW219053   1.521   4.571   9.577 -0.3030  0.0197 -1.6778
 2531SOL     OW19054   0.142   4.175  15.846  0.1787  0.2650  0.3452
 2531SOL    HW119055   0.138   4.230  15.924 -0.5348 -0.2877  0.6908
 2531SOL    HW219056   0.125   4.244  15.781  0.0652  1.1917  1.3625
 2532SOL     OW19057   0.539   2.605  12.397  0.0096  0.4258 -0.0467
 2532SOL    HW119058   0.614   2.619  12.455 -0.5292 -0.0034  0.7440
 2532SOL    HW219059   0.464   2.627  12.451  0.7827  3.2953 -0.1552
 2533SOL     OW19060   1.247   3.297   4.770  0.4237 -0.1896 -0.3045
 2533SOL    HW119061   1.154   3.295   4.752  0.5536 -0.7675 -0.8959
 2533SOL    HW219062   1.253   3.389   4.797 -2.3265  0.0368 -0.4816
 2534SOL     OW19063   3.679   4.720   3.098 -0.1676 -0.1621  0.1141
 2534SOL    HW119064   3.717   4.632   3.094 -2.0160 -0.9979  0.6748
 2534SOL    HW219065   3.608   4.706   3.035  0.6821  2.0199 -1.3366
 2535SOL     OW19066   1.187   3.703   5.191  0.0216  0.0452  0.0244
 2535SOL    HW119067   1.265   3.674   5.239 -0.3860  0.1470  0.7449
 2535SOL    HW219068   1.225   3.776   5.143 -0.7763 -0.3337 -1.2005
 2536SOL     OW19069   3.907   1.777   5.610  0.2427  0.1588 -0.8239
 2536SOL    HW119070   3.843   1.706   5.613  1.1968 -0.6075  1.6102
 2536SOL    HW219071   3.924   1.797   5.702 -0.8964 -3.0822  0.0919
 2537SOL     OW19072   2.224   3.822  13.194  0.0166 -0.2668  0.4301
 2537SOL    HW119073   2.264   3.807  13.109 -0.2297 -0.0981  0.2839
 2537SOL    HW219074   2.291   3.843  13.259 -0.1009 -2.4644  1.2560
 2538SOL     OW19075   0.060   4.294   6.006 -0.1185 -0.0303 -0.6521
 2538SOL    HW119076   0.058   4.199   6.011  0.6511 -0.1295 -2.0872
 2538SOL    HW219077   0.112   4.311   5.927  0.8247  0.7783  0.1426
 2539SOL     OW19078   0.847   0.877   1.626  0.0103  0.0841 -0.1635
 2539SOL    HW119079   0.836   0.782   1.636 -0.9062  0.2928  0.8842
 2539SOL    HW219080   0.788   0.888   1.552 -0.5727 -1.6826  0.0268
 2540SOL     OW19081   0.501   1.433   6.517  0.0156 -0.2609  0.0139
 2540SOL    HW119082   0.480   1.366   6.583 -1.4995  0.4803  0.2626
 2540SOL    HW219083   0.467   1.510   6.562 -2.5816 -0.9865 -0.7159
 2541SOL     OW19084   2.935   1.429   6.949 -0.5500  0.2696  0.0060
 2541SOL    HW119085   2.962   1.492   7.015  0.7054  0.5300 -0.7643
 2541SOL    HW219086   3.019   1.407   6.908  0.2435 -0.9235  2.2649
 2542SOL     OW19087   2.673   2.013  17.676  0.2963  0.3561  0.3336
 2542SOL    HW119088   2.643   2.029  17.586 -1.2846 -0.2372  0.7481
 2542SOL    HW219089   2.674   1.918  17.680 -1.7972  0.1936 -2.8046
 2543SOL     OW19090   3.712   0.449   2.610  0.2511 -0.2062 -0.3700
 2543SOL    HW119091   3.761   0.490   2.538  1.8811 -0.3264  0.6788
 2543SOL    HW219092   3.630   0.498   2.609 -0.9740 -2.2547 -0.8763
 2544SOL     OW19093   1.457   0.533   4.104 -0.4343  0.6984 -0.2475
 2544SOL    HW119094   1.397   0.589   4.054 -0.6652  1.7676  1.2254
 2544SOL    HW219095   1.447   0.452   4.054 -0.0501 -0.4470  1.5183
 2545SOL     OW19096   1.671   4.451   9.385 -0.5348 -0.0683  0.3091
 2545SOL    HW119097   1.740   4.385   9.382  0.9254  1.3930  1.7588
 2545SOL    HW219098   1.718   4.533   9.399  0.6886 -0.3265 -2.1842
 2546SOL     OW19099   3.797   1.507   3.040 -0.0174 -0.5480  0.5991
 2546SOL    HW119100   3.828   1.476   2.955 -0.6174  0.4844 -0.0056
 2546SOL    HW219101   3.756   1.428   3.075 -0.3670 -0.9082 -0.6133
 2547SOL     OW19102   3.823   3.555  15.198  0.2054  0.3953  0.5082
 2547SOL    HW119103   3.888   3.555  15.128  0.5375 -0.3596  0.8178
 2547SOL    HW219104   3.855   3.636  15.237  1.1430  0.8030 -1.0981
 2548SOL     OW19105   0.465   2.319   7.910  0.5340 -0.0211  0.4573
 2548SOL    HW119106   0.449   2.288   7.999 -1.5554 -0.1712  0.0258
 2548SOL    HW219107   0.382   2.290   7.873  1.5033 -0.8008 -1.1100
 2549SOL     OW19108   0.024   1.621   5.211  0.3131  0.1032  0.1789
 2549SOL    HW119109   0.035   1.711   5.181 -0.5082  0.4450  0.8985
 2549SOL    HW219110   0.116   1.599   5.225  0.3550  0.2534  0.1427
 2550SOL     OW19111   3.913   1.473  15.479 -0.1980 -0.2246 -0.3604
 2550SOL    HW119112   3.944   1.456  15.568  2.4271 -1.0972 -1.4364
 2550SOL    HW219113   3.952   1.558  15.458 -0.4978 -0.1422 -0.5863
 2551SOL     OW19114   4.270   2.820  14.310 -0.1511 -0.4849 -0.1339
 2551SOL    HW119115   4.266   2.868  14.392  1.0494  1.0685 -0.9648
 2551SOL    HW219116   4.366   2.820  14.302 -0.0605  1.2508  0.8638
 2552SOL     OW19117   1.372   3.916   9.878  0.0690 -0.0222 -0.1362
 2552SOL    HW119118   1.389   3.926   9.784 -2.0583 -1.3324 -0.6635
 2552SOL    HW219119   1.280   3.895   9.895  0.2077 -2.0398 -1.9283
 2553SOL     OW19120   2.937   2.567   2.737  0.1533  0.4407  0.7684
 2553SOL    HW119121   3.003   2.635   2.748 -0.4610  1.1046  0.2936
 2553SOL    HW219122   2.890   2.597   2.660 -1.0617 -0.6382  1.0762
 2554SOL     OW19123   1.717   1.001   2.531  0.0417 -0.2695 -0.1023
 2554SOL    HW119124   1.777   0.971   2.463 -1.8477 -0.0894 -1.8707
 2554SOL    HW219125   1.660   1.057   2.478 -1.2956 -1.9952 -0.4944
 2555SOL     OW19126   3.202   2.248   3.979  0.2152  0.5927 -0.1859
 2555SOL    HW119127   3.213   2.342   3.995 -1.8476  0.7028  0.5398
 2555SOL    HW219128   3.169   2.218   4.064  1.2562  1.7904  0.6386
 2556SOL     OW19129   3.000   1.332  10.124 -0.8046 -0.3027  0.2597
 2556SOL    HW119130   2.910   1.362  10.130 -0.8210 -0.4145  0.5424
 2556SOL    HW219131   3.020   1.306  10.214  0.5855  2.3262  0.7240
 2557SOL     OW19132   0.991   2.754  10.163 -0.3102 -0.0494  0.4655
 2557SOL    HW119133   1.025   2.665  10.168 -0.8720 -0.2278  1.0533
 2557SOL    HW219134   0.960   2.765  10.253  0.1565 -2.2023  0.8845
 2558SOL     OW19135   1.187   1.441  15.871  0.4456  0.3297 -0.0215
 2558SOL    HW119136   1.114   1.402  15.920 -2.1698  0.7987 -3.5488
 2558SOL    HW219137   1.243   1.364  15.863  0.8228  0.5607  0.4735
 2559SOL     OW19138   0.161   3.060   3.600 -0.1796 -0.0443  0.8407
 2559SOL    HW119139   0.084   3.107   3.569 -0.9778 -0.9378  1.4549
 2559SOL    HW219140   0.171   3.085   3.692 -1.0056 -1.3909  1.2958
 2560SOL     OW19141   0.985   0.452   9.100 -0.0207 -0.1506  0.1169
 2560SOL    HW119142   1.047   0.507   9.148  2.5577 -1.4757 -1.7374
 2560SOL    HW219143   0.902   0.475   9.142 -1.1191 -1.9838 -1.0607
 2561SOL     OW19144   2.528   4.500   6.038 -0.0844  0.8876 -0.1074
 2561SOL    HW119145   2.529   4.420   6.091 -1.1815  1.0458  0.1375
 2561SOL    HW219146   2.535   4.577   6.094 -1.3645 -0.6027  2.1007
 2562SOL     OW19147   4.318   2.843   1.137  0.4002 -0.5619 -0.0412
 2562SOL    HW119148   4.366   2.764   1.161  1.0248  0.2244  1.2837
 2562SOL    HW219149   4.366   2.869   1.058 -0.6890 -2.5201 -1.3746
 2563SOL     OW19150   2.920   3.712   5.452 -0.8822  0.3919 -0.1136
 2563SOL    HW119151   2.878   3.669   5.527  0.6832 -2.1767 -0.6723
 2563SOL    HW219152   2.991   3.759   5.496 -1.1649 -0.4465  1.2320
 2564SOL     OW19153   3.273   2.200   8.286 -0.7814 -0.3829 -0.6271
 2564SOL    HW119154   3.312   2.115   8.264 -2.0771 -1.4391  1.1780
 2564SOL    HW219155   3.208   2.163   8.345  1.1576 -1.1274  1.0611
 2565SOL     OW19156   4.068   2.330   2.938  0.4166  0.3454 -0.8364
 2565SOL    HW119157   4.019   2.317   2.857 -1.1184 -0.5771  0.2380
 2565SOL    HW219158   4.004   2.365   3.000  0.8518  1.0416 -0.7877
 2566SOL     OW19159   1.083   2.058   5.523 -0.1396 -0.3675  0.0880
 2566SOL    HW119160   0.989   2.074   5.522 -0.2513 -1.0832 -0.8438
 2566SOL    HW219161   1.129   2.139   5.549 -2.3063  0.2093  2.0954
 2567SOL     OW19162   0.915   2.485  13.040 -0.1245  0.1413  0.2597
 2567SOL    HW119163   1.004   2.520  13.045 -0.0587  0.1102 -0.8134
 2567SOL    HW219164   0.871   2.523  13.116  0.5829  1.9504 -0.2415
 2568SOL     OW19165   3.360   0.920  17.317 -0.0975 -0.3250 -0.0380
 2568SOL    HW119166   3.304   0.976  17.263 -0.9293 -0.5556  0.5816
 2568SOL    HW219167   3.451   0.945  17.305 -0.6629  1.7196 -0.0686
 2569SOL     OW19168   1.165   3.263   4.299 -0.6618  0.3862  0.2153
 2569SOL    HW119169   1.147   3.259   4.393 -2.2010  1.6806 -0.0332
 2569SOL    HW219170   1.109   3.336   4.274  0.1001  1.3302  1.2415
 2570SOL     OW19171   4.395   2.093  15.827  0.4051 -0.2203  0.2967
 2570SOL    HW119172   4.354   2.089  15.741  0.2436 -2.4059  0.4770
 2570SOL    HW219173   4.311   2.093  15.874  0.5142 -1.8346  0.4718
 2571SOL     OW19174   2.813   1.326  10.478 -0.2039  0.6005 -0.3381
 2571SOL    HW119175   2.799   1.324  10.384  2.1634  1.8832 -0.7109
 2571SOL    HW219176   2.745   1.393  10.490 -2.9759 -2.2310 -0.2315
 2572SOL     OW19177   0.067   1.143  16.886 -0.0882 -0.5701  0.2378
 2572SOL    HW119178   0.097   1.106  16.803  1.0219  0.4108  0.2000
 2572SOL    HW219179   0.144   1.131  16.942  0.4325  0.0741 -0.3271
 2573SOL     OW19180   3.522   2.196   2.267 -0.3614 -0.2099  0.3883
 2573SOL    HW119181   3.452   2.133   2.278 -0.3195 -0.5071 -0.9932
 2573SOL    HW219182   3.538   2.212   2.360 -0.7507  2.2770  0.0267
 2574SOL     OW19183   0.808   4.099  17.168  0.3747  0.4331  0.3263
 2574SOL    HW119184   0.825   4.007  17.149  1.4904  0.8186 -0.5004
 2574SOL    HW219185   0.827   4.107  17.262  0.5101  1.0145  0.2488
 2575SOL     OW19186   1.157   1.809  13.537  0.0021  0.1100  0.0093
 2575SOL    HW119187   1.192   1.788  13.451  1.0627  0.3341  0.3857
 2575SOL    HW219188   1.081   1.857  13.507  0.7609  0.3605 -1.4736
 2576SOL     OW19189   2.249   2.924   9.266 -0.4555 -0.2662 -0.2475
 2576SOL    HW119190   2.233   2.992   9.201 -0.7597  0.1544  0.2672
 2576SOL    HW219191   2.336   2.897   9.238 -0.3332  2.0393 -2.0696
 2577SOL     OW19192   2.738   3.669   0.032 -0.0369 -0.2382  0.0559
 2577SOL    HW119193   2.694   3.584   0.022 -1.0375  0.4460 -1.1624
 2577SOL    HW219194   2.800   3.652   0.104  2.6746 -0.2847 -2.2607
 2578SOL     OW19195   1.349   2.937   6.302  0.0683 -0.2409  0.4404
 2578SOL    HW119196   1.296   2.963   6.227  0.2365 -0.8403  0.1183
 2578SOL    HW219197   1.349   2.843   6.286 -2.3695 -0.2658  0.5817
 2579SOL     OW19198   4.083   0.752   6.977  0.1692 -0.3891 -0.3445
 2579SOL    HW119199   4.097   0.658   6.991  1.8764 -0.2110 -0.9035
 2579SOL    HW219200   4.161   0.784   7.021 -0.9097 -0.0562  1.3666
 2580SOL     OW19201   4.656   2.329  12.245 -0.3827 -0.0127 -0.3281
 2580SOL    HW119202   4.604   2.408  12.263  0.2383  0.3419 -0.0763
 2580SOL    HW219203   4.672   2.354  12.154 -0.4385 -1.6469 -0.7760
 2581SOL     OW19204   1.520   0.855   2.302 -0.1084 -0.3432 -0.4473
 2581SOL    HW119205   1.505   0.872   2.396 -0.0838  2.1073 -0.8678
 2581SOL    HW219206   1.431   0.829   2.282  0.7997 -1.0939 -3.4325
 2582SOL     OW19207   3.997   2.071  10.286 -0.0416  0.0258 -0.2824
 2582SOL    HW119208   3.984   2.074  10.191  3.1585  1.1848 -0.6938
 2582SOL    HW219209   3.979   2.162  10.306  1.9097  0.4572 -0.4947
 2583SOL     OW19210   0.390   4.453   0.907 -0.4317  0.1232 -0.0442
 2583SOL    HW119211   0.369   4.396   0.981  1.2674 -0.8876 -0.3484
 2583SOL    HW219212   0.337   4.531   0.922  1.2405  1.0682  0.8952
 2584SOL     OW19213   2.400   2.101   2.865 -0.3669 -0.1279  0.0789
 2584SOL    HW119214   2.489   2.136   2.854 -0.5309  0.6949  1.4301
 2584SOL    HW219215   2.353   2.142   2.792 -0.4639 -0.0440  0.1897
 2585SOL     OW19216   2.141   0.438   5.040 -0.2975 -0.1724  0.1729
 2585SOL    HW119217   2.135   0.343   5.044 -0.6806 -0.2256 -1.6548
 2585SOL    HW219218   2.178   0.460   4.955  0.6706 -1.8666  0.1684
 2586SOL     OW19219   0.785   1.924   2.141 -0.1916 -0.1287  0.1381
 2586SOL    HW119220   0.846   1.985   2.100 -1.2560  0.2100 -0.9268
 2586SOL    HW219221   0.847   1.851   2.151 -0.2659  0.1147  2.4438
 2587SOL     OW19222   0.486   4.526   9.195 -0.2288 -0.0418  1.0501
 2587SOL    HW119223   0.415   4.537   9.130 -0.0117  0.6001  0.9178
 2587SOL    HW219224   0.520   4.615   9.197 -1.5045  0.5095 -1.2963
 2588SOL     OW19225   1.915   2.197  12.029 -0.1226  0.3754 -0.0370
 2588SOL    HW119226   1.997   2.225  11.989 -0.2362  0.0470 -0.5054
 2588SOL    HW219227   1.862   2.275  12.018 -1.5189 -0.5653 -0.0158
 2589SOL     OW19228   3.137   1.197   3.857  0.4978 -0.1801 -0.2865
 2589SOL    HW119229   3.135   1.270   3.795 -0.7799  0.2516  0.2656
 2589SOL    HW219230   3.155   1.249   3.936 -0.1025 -0.2828 -0.0806
 2590SOL     OW19231   3.305   1.239   4.567  0.2191 -0.3088 -0.2138
 2590SOL    HW119232   3.333   1.153   4.600  0.2531 -0.9072 -1.8029
 2590SOL    HW219233   3.363   1.245   4.492 -0.0431 -0.7023 -0.4499
 2591SOL     OW19234   0.159   2.574   3.204  0.3888 -0.3653 -0.1285
 2591SOL    HW119235   0.210   2.655   3.190 -0.5927  0.4088  0.7890
 2591SOL    HW219236   0.086   2.595   3.146  0.9125 -0.8837 -0.9729
 2592SOL     OW19237   3.011   0.434  11.237  0.1557  0.1097 -0.2721
 2592SOL    HW119238   2.916   0.423  11.236  0.4060 -2.2340  0.3477
 2592SOL    HW219239   3.013   0.525  11.207  0.9703  0.0276 -0.4624
 2593SOL     OW19240   2.476   3.528   0.876 -0.6482  0.2224  0.1712
 2593SOL    HW119241   2.558   3.555   0.834 -1.6222  2.0548 -0.5880
 2593SOL    HW219242   2.448   3.469   0.807  0.9406  0.7843 -0.9627
 2594SOL     OW19243   0.802   0.170   5.900  0.2330  0.2234  0.0459
 2594SOL    HW119244   0.766   0.241   5.846 -0.6061  0.1094  0.4660
 2594SOL    HW219245   0.866   0.136   5.837  0.7324 -3.2428  2.4794
 2595SOL     OW19246   1.787   1.951   1.454  0.8283  0.4810  0.4951
 2595SOL    HW119247   1.768   1.927   1.545 -1.1903  1.5546  0.3482
 2595SOL    HW219248   1.883   1.947   1.453  0.6849 -2.4310 -1.7002
 2596SOL     OW19249   3.227   1.708   0.165  0.3274  0.0785 -0.1600
 2596SOL    HW119250   3.144   1.755   0.156  0.4037 -0.1122 -1.9582
 2596SOL    HW219251   3.282   1.770   0.116  2.6487 -1.7005  0.1976
 2597SOL     OW19252   0.133   2.066   4.877  0.1578  0.0674 -1.5636
 2597SOL    HW119253   0.096   2.074   4.965  1.1893  3.9423 -1.5265
 2597SOL    HW219254   0.213   2.117   4.886  0.2860 -0.4621  0.2415
 2598SOL     OW19255   0.206   0.103   1.556  0.0839  0.0094 -0.0412
 2598SOL    HW119256   0.276   0.039   1.569  0.6314  0.8811  1.3574
 2598SOL    HW219257   0.197   0.140   1.644 -1.3054 -0.3432 -0.0308
 2599SOL     OW19258   0.086   3.031  17.639 -0.0366  0.1139  0.2562
 2599SOL    HW119259   0.084   3.125  17.655  2.8402  0.7162 -2.9210
 2599SOL    HW219260   0.076   2.992   0.024  0.6782  2.0890  1.2150
 2600SOL     OW19261   2.586   2.683  10.758  0.5478 -0.1831  0.3958
 2600SOL    HW119262   2.508   2.739  10.764  0.5543 -0.0769 -0.5141
 2600SOL    HW219263   2.623   2.696  10.845  0.9821  0.4432  0.1186
 2601SOL     OW19264   2.825   3.647   2.697 -0.7266  0.2645 -0.5574
 2601SOL    HW119265   2.875   3.727   2.715 -1.1296  1.0274 -2.7749
 2601SOL    HW219266   2.891   3.580   2.715 -1.2565 -0.2842 -0.6612
 2602SOL     OW19267   1.103   1.757   4.279 -0.1342  0.2041  0.3393
 2602SOL    HW119268   1.060   1.672   4.269  0.6574  0.0552 -1.7789
 2602SOL    HW219269   1.086   1.789   4.191  2.0449 -3.5921 -1.4843
 2603SOL     OW19270   4.524   3.903   2.537 -0.5903 -0.3052 -0.1255
 2603SOL    HW119271   4.428   3.904   2.531 -0.3571  1.4723 -3.6693
 2603SOL    HW219272   4.542   3.972   2.601  1.1886 -1.0249  0.1262
 2604SOL     OW19273   4.274   0.962   3.778 -0.4151  0.7847  0.0615
 2604SOL    HW119274   4.236   0.903   3.712 -0.1825 -2.0605  2.4293
 2604SOL    HW219275   4.197   1.017   3.793 -0.6756  0.9006 -1.7609
 2605SOL     OW19276   0.336   0.629   3.974 -0.5175  0.1161 -0.0563
 2605SOL    HW119277   0.269   0.685   4.014 -1.1325 -0.3387 -0.4589
 2605SOL    HW219278   0.290   0.566   3.919  0.8385 -0.7345 -0.2199
 2606SOL     OW19279   0.837   0.382   0.908 -0.1933 -0.1486  0.0336
 2606SOL    HW119280   0.757   0.407   0.955 -0.1976 -0.7769  0.3554
 2606SOL    HW219281   0.894   0.458   0.923 -0.2849  0.0998 -0.8946
 2607SOL     OW19282   3.446   4.469   7.531  0.8379 -0.7086  0.5137
 2607SOL    HW119283   3.389   4.480   7.607 -0.6048 -2.3214 -0.3368
 2607SOL    HW219284   3.526   4.439   7.572  0.3161  0.3371  2.2882
 2608SOL     OW19285   0.253   0.633   3.493  0.0311 -0.1584  0.3055
 2608SOL    HW119286   0.197   0.704   3.522 -0.8108 -0.1600 -1.2921
 2608SOL    HW219287   0.321   0.686   3.451 -1.3689  1.3317 -0.0457
 2609SOL     OW19288   1.121   2.170  16.870 -0.1136  0.4168  0.2576
 2609SOL    HW119289   1.056   2.102  16.889  2.0783 -1.8563 -0.2266
 2609SOL    HW219290   1.086   2.241  16.923 -0.2100 -0.2622  1.1136
 2610SOL     OW19291   0.783   1.740   2.751 -0.4806  0.3226 -0.0242
 2610SOL    HW119292   0.782   1.834   2.768  0.7607  0.0018  1.7362
 2610SOL    HW219293   0.703   1.715   2.799 -0.9407 -1.5912 -1.7687
 2611SOL     OW19294   2.470   4.357   2.305  0.2434 -0.0850 -0.6511
 2611SOL    HW119295   2.385   4.399   2.298  1.0833  1.5092 -1.3179
 2611SOL    HW219296   2.471   4.341   2.400  1.1176  1.6736 -0.3670
 2612SOL     OW19297   1.667   1.919   7.265 -0.2629  0.0664 -0.4728
 2612SOL    HW119298   1.688   1.870   7.344 -1.1061  2.1819  1.0569
 2612SOL    HW219299   1.749   1.967   7.257  0.2770 -0.6823  0.6706
 2613SOL     OW19300   4.088   4.506  14.378 -0.9149 -0.1685 -0.1872
 2613SOL    HW119301   4.180   4.531  14.364 -0.4535 -2.0837 -0.6053
 2613SOL    HW219302   4.065   4.493  14.287 -0.3767  1.0131 -0.4952
 2614SOL     OW19303   4.482   2.601  14.510  0.4103  0.1622  0.1031
 2614SOL    HW119304   4.489   2.682  14.561 -0.2792  1.2044 -1.4608
 2614SOL    HW219305   4.552   2.618  14.447  1.7954 -1.6365  1.1697
 2615SOL     OW19306   1.212   4.642  13.964  0.1219 -0.0486  0.1554
 2615SOL    HW119307   1.157   4.619  14.039  0.3309  1.1836  0.6835
 2615SOL    HW219308   1.298   4.630  14.003  0.7110  1.4125 -0.7180
 2616SOL     OW19309   1.286   3.196   3.697 -0.6470  0.4010 -0.5014
 2616SOL    HW119310   1.281   3.265   3.764  1.0520 -1.0395  1.1187
 2616SOL    HW219311   1.363   3.146   3.724  0.3488  1.0712 -2.1149
 2617SOL     OW19312   0.474   0.404   7.626 -0.4548 -0.0812  0.6578
 2617SOL    HW119313   0.507   0.412   7.537 -1.8858  0.4167  0.1632
 2617SOL    HW219314   0.559   0.385   7.664 -0.7526  3.0220  2.8815
 2618SOL     OW19315   2.344   2.376   6.979  0.1567 -0.8154 -0.0617
 2618SOL    HW119316   2.269   2.427   7.009  1.2968 -0.1207  1.6222
 2618SOL    HW219317   2.369   2.424   6.900  0.6516 -1.3574 -0.2330
 2619SOL     OW19318   2.726   1.606   8.620  0.1576  1.1690 -0.0423
 2619SOL    HW119319   2.669   1.669   8.576  0.2442  0.8429 -0.6129
 2619SOL    HW219320   2.797   1.593   8.557  0.1051  0.7262 -0.0076
 2620SOL     OW19321   1.930   0.518   1.189  0.4739  0.3606 -0.4338
 2620SOL    HW119322   1.880   0.437   1.199  2.9110 -1.0784  0.3248
 2620SOL    HW219323   1.946   0.518   1.094  0.8809 -0.8603 -0.3612
 2621SOL     OW19324   2.136   0.968  16.840  0.0603  0.2550  0.0251
 2621SOL    HW119325   2.162   0.952  16.930 -1.1964  0.2121  0.3910
 2621SOL    HW219326   2.058   1.019  16.861  0.4070  0.6143  0.4265
 2622SOL     OW19327   4.314   3.117  17.182 -0.3010 -0.2413 -0.6773
 2622SOL    HW119328   4.359   3.199  17.161 -1.0508  0.3968  0.2502
 2622SOL    HW219329   4.280   3.144  17.267  3.8344  0.5914  0.7261
 2623SOL     OW19330   1.755   1.967  12.049  0.0580  0.2359  0.3775
 2623SOL    HW119331   1.780   1.945  12.138  3.1816  1.6556 -0.1253
 2623SOL    HW219332   1.813   2.043  12.036  1.0465 -0.5180  0.4311
 2624SOL     OW19333   3.470   3.580   5.509  0.0334  0.3800  0.0525
 2624SOL    HW119334   3.399   3.638   5.538 -1.7647 -0.9865 -1.6912
 2624SOL    HW219335   3.482   3.635   5.432 -0.8264 -0.8394 -0.9451
 2625SOL     OW19336   0.178   2.390  13.053  0.3090 -0.6365  0.3992
 2625SOL    HW119337   0.127   2.440  13.117 -0.0837 -1.2756  0.5864
 2625SOL    HW219338   0.184   2.455  12.983  0.6268  0.1414  1.1327
 2626SOL     OW19339   2.801   2.767   7.770  0.5120  0.5352  0.2047
 2626SOL    HW119340   2.728   2.824   7.794  1.6541  1.9856  0.2411
 2626SOL    HW219341   2.755   2.705   7.713 -2.9197  1.5523  1.8654
 2627SOL     OW19342   2.524   1.836   6.645 -0.3036 -0.6140 -0.1871
 2627SOL    HW119343   2.576   1.781   6.703  0.5976  1.2588  0.7561
 2627SOL    HW219344   2.436   1.819   6.678 -0.7886 -1.8921 -2.0777
 2628SOL     OW19345   2.657   2.775   8.186  0.0983 -0.0098 -0.3104
 2628SOL    HW119346   2.573   2.757   8.144 -0.9339 -1.1032  2.2298
 2628SOL    HW219347   2.653   2.721   8.265  2.2999 -1.1165 -0.9422
 2629SOL     OW19348   1.603   0.880   1.235 -0.0271 -0.0661  0.7627
 2629SOL    HW119349   1.676   0.925   1.276  0.9291 -0.5258 -0.4303
 2629SOL    HW219350   1.620   0.796   1.278  1.7276  0.1080  0.4198
 2630SOL     OW19351   2.897   3.640   2.344  0.1843 -0.4957 -0.1458
 2630SOL    HW119352   2.858   3.561   2.383 -3.1807  0.7452 -1.0191
 2630SOL    HW219353   2.827   3.698   2.374  0.6308  0.4246 -0.8960
 2631SOL     OW19354   2.503   3.718  11.820 -0.2582  0.6684  0.4056
 2631SOL    HW119355   2.543   3.743  11.904 -0.7217 -0.2661  0.9064
 2631SOL    HW219356   2.421   3.766  11.833 -0.7416 -0.0441 -0.0309
 2632SOL     OW19357   0.242   1.559   6.715  0.3032  0.1347 -0.7320
 2632SOL    HW119358   0.336   1.576   6.706  0.1331  0.8322 -1.1516
 2632SOL    HW219359   0.215   1.549   6.624  0.2256 -2.0251 -0.4915
 2633SOL     OW19360   0.617   3.195   5.980  0.1730  1.3295  0.2081
 2633SOL    HW119361   0.710   3.171   5.985 -0.4957 -1.3695 -0.4513
 2633SOL    HW219362   0.591   3.147   5.902  0.5830 -0.7195  1.3464
 2634SOL     OW19363   2.520   0.644   0.543 -0.0030  0.1527  1.1654
 2634SOL    HW119364   2.451   0.670   0.604 -2.0148 -0.3155 -0.9132
 2634SOL    HW219365   2.597   0.690   0.575 -0.7812  1.0990  1.6686
 2635SOL     OW19366   2.193   2.926   4.863 -0.3581 -0.3910 -0.2656
 2635SOL    HW119367   2.245   2.921   4.943  2.0999 -1.2781 -1.9287
 2635SOL    HW219368   2.107   2.895   4.893 -0.0612  1.9590  2.9751
 2636SOL     OW19369   0.374   3.913   9.945 -0.9134  0.3463  0.3649
 2636SOL    HW119370   0.427   3.993   9.945 -0.4151  0.0131  0.2230
 2636SOL    HW219371   0.429   3.856   9.999 -0.0760 -0.8804 -1.8156
 2637SOL     OW19372   0.093   3.768   8.583 -0.0411 -0.4434  0.0465
 2637SOL    HW119373   0.071   3.702   8.649  1.8444 -0.3272  0.7850
 2637SOL    HW219374   0.179   3.787   8.620 -0.6530  0.0989  1.1896
 2638SOL     OW19375   2.283   2.050   2.560  0.0814 -0.0193  0.4442
 2638SOL    HW119376   2.320   2.138   2.554  0.7353 -0.5124 -2.8940
 2638SOL    HW219377   2.268   2.030   2.468 -1.8420  1.0608  0.5120
 2639SOL     OW19378   0.100   2.936  14.496  0.2023  0.0505  0.1173
 2639SOL    HW119379   0.151   2.991  14.437  2.2971 -2.2479 -0.2159
 2639SOL    HW219380   0.136   2.853  14.467 -0.0488  0.3926 -1.1827
 2640SOL     OW19381   2.369   3.424  10.540  0.5698 -0.1213  0.5378
 2640SOL    HW119382   2.301   3.474  10.586 -1.5872 -1.4109 -1.3140
 2640SOL    HW219383   2.446   3.458  10.586  0.8969 -0.9480  0.6012
 2641SOL     OW19384   2.392   3.256  12.369 -0.3129 -0.1387 -0.1208
 2641SOL    HW119385   2.378   3.346  12.399  0.0162 -0.9663  2.5406
 2641SOL    HW219386   2.339   3.203  12.429 -1.3233  0.1031 -0.8046
 2642SOL     OW19387   2.898   4.305   5.292  0.0912  0.5213  0.9696
 2642SOL    HW119388   2.831   4.287   5.227  0.3881 -0.8253  1.0301
 2642SOL    HW219389   2.923   4.389   5.254 -1.3984 -0.4365 -2.0879
 2643SOL     OW19390   4.001   0.552  15.937  0.0447 -0.0935 -0.3754
 2643SOL    HW119391   3.956   0.494  15.998 -2.1376  1.7433 -0.2259
 2643SOL    HW219392   3.963   0.629  15.979  0.6110 -1.0166  1.8446
 2644SOL     OW19393   3.318   4.278   7.443 -0.6195  0.2151  0.0787
 2644SOL    HW119394   3.368   4.349   7.482 -0.7475 -0.2348  1.0596
 2644SOL    HW219395   3.309   4.314   7.355 -0.4510  1.1234  0.4368
 2645SOL     OW19396   0.691   0.049  10.041 -0.4421 -0.1487 -0.3068
 2645SOL    HW119397   0.687   4.679  10.047  2.8413 -0.3548 -0.9615
 2645SOL    HW219398   0.598   0.068  10.046 -0.2232  0.6374  0.9940
 2646SOL     OW19399   2.381   4.085   9.162 -0.1197  0.0348  0.3112
 2646SOL    HW119400   2.353   3.997   9.138  2.5521 -1.1395  1.4925
 2646SOL    HW219401   2.430   4.118   9.087  0.7340  1.2786  1.4077
 2647SOL     OW19402   2.454   4.006   6.637  0.3715 -0.3268  0.4124
 2647SOL    HW119403   2.523   3.968   6.691  0.6237 -0.3661  0.0705
 2647SOL    HW219404   2.380   3.952   6.663  0.6490 -0.2079  1.4439
 2648SOL     OW19405   2.039   1.746   7.355 -0.6183  0.1090 -0.1759
 2648SOL    HW119406   1.973   1.681   7.380 -0.4452 -0.2029 -0.5249
 2648SOL    HW219407   2.042   1.802   7.433 -0.8706 -1.4757  0.9618
 2649SOL     OW19408   1.183   2.150   8.512  0.5604 -0.1348 -0.0079
 2649SOL    HW119409   1.191   2.225   8.571 -1.6190 -0.4030  0.6560
 2649SOL    HW219410   1.244   2.097   8.563  0.4112 -1.6414 -1.4363
 2650SOL     OW19411   4.644   2.248   8.011 -0.1905 -0.0204 -0.0763
 2650SOL    HW119412   4.579   2.319   8.009 -0.2067 -0.0424 -0.3214
 2650SOL    HW219413   4.594   2.185   8.063  2.8835 -1.0909  1.5638
 2651SOL     OW19414   2.674   0.317  16.757 -0.0097  0.1894  0.0481
 2651SOL    HW119415   2.691   0.330  16.851  1.9070  1.8975 -0.5483
 2651SOL    HW219416   2.683   0.410  16.737  0.6759  0.5081  1.8200
 2652SOL     OW19417   2.635   3.081   2.969  0.2225  0.3777  0.0824
 2652SOL    HW119418   2.626   3.117   2.881 -0.4848 -1.7280 -0.7028
 2652SOL    HW219419   2.545   3.049   2.965  0.0087  0.9146  0.5722
 2653SOL     OW19420   4.288   0.668  16.200  0.3551 -0.0321  0.1471
 2653SOL    HW119421   4.313   0.697  16.113  1.5897  0.0356  0.5309
 2653SOL    HW219422   4.327   0.734  16.257  2.0625  1.8297 -3.2332
 2654SOL     OW19423   3.425   4.623   3.229 -0.5810 -0.0208 -0.2211
 2654SOL    HW119424   3.465   4.610   3.315 -1.0316  2.2345  0.3476
 2654SOL    HW219425   3.484   4.576   3.170  1.2978  1.0373  0.8301
 2655SOL     OW19426   0.877   3.964   4.801 -0.0622  0.1580 -0.4356
 2655SOL    HW119427   0.797   3.916   4.822  0.1025  0.1287  0.1158
 2655SOL    HW219428   0.847   4.033   4.743  2.3715 -0.5782 -2.5969
 2656SOL     OW19429   1.117   2.114   8.926 -0.1218 -0.0951 -0.9096
 2656SOL    HW119430   1.048   2.111   8.859 -1.7973  3.0355  0.6497
 2656SOL    HW219431   1.077   2.078   9.005 -3.0881  2.3445 -1.3084
 2657SOL     OW19432   1.674   3.021   2.335 -0.6512 -0.0411  0.1686
 2657SOL    HW119433   1.582   2.998   2.343 -0.6752  0.2030  0.6099
 2657SOL    HW219434   1.678   3.108   2.374 -0.2627  0.0189  0.0003
 2658SOL     OW19435   2.709   2.402   1.308 -0.1053 -0.0889 -0.6130
 2658SOL    HW119436   2.644   2.345   1.348  2.5264 -1.9762  0.9982
 2658SOL    HW219437   2.774   2.345   1.266  1.8551  0.4647  1.6933
 2659SOL     OW19438   2.701   0.440   7.225  0.2974  0.4440 -0.1618
 2659SOL    HW119439   2.717   0.470   7.314 -1.0900  3.1135 -0.8172
 2659SOL    HW219440   2.607   0.428   7.233  0.2758  1.0610  0.4736
 2660SOL     OW19441   4.074   4.603   3.329  0.4270  0.0478  0.2097
 2660SOL    HW119442   4.145   4.543   3.352  1.6064  0.9422 -1.0826
 2660SOL    HW219443   4.070   4.579   3.237 -0.5716  0.2688  0.1895
 2661SOL     OW19444   1.950   2.392  15.239 -0.0116 -0.1546 -0.6007
 2661SOL    HW119445   2.030   2.441  15.260  0.4647 -0.7736 -0.9836
 2661SOL    HW219446   1.974   2.350  15.157 -3.6473 -1.5752 -0.9376
 2662SOL     OW19447   2.703   2.313   2.085 -0.4889  0.2216 -0.7203
 2662SOL    HW119448   2.712   2.393   2.034  0.1586  0.0751 -0.8286
 2662SOL    HW219449   2.704   2.349   2.173 -0.2569  1.5348 -1.2656
 2663SOL     OW19450   2.610   0.357  10.032  0.0615 -0.0513 -0.0453
 2663SOL    HW119451   2.582   0.407  10.108  2.4924  1.3685 -0.0803
 2663SOL    HW219452   2.530   0.318   9.998  0.6601 -0.8569 -0.5297
 2664SOL     OW19453   0.817   2.046   5.819  0.5022  0.2470  0.4791
 2664SOL    HW119454   0.898   2.005   5.850 -0.4176 -1.7830  0.1649
 2664SOL    HW219455   0.758   1.993   5.873  0.7014 -1.9853 -1.5155
 2665SOL     OW19456   2.397   2.298   3.833 -0.1752  0.6298 -0.3726
 2665SOL    HW119457   2.370   2.333   3.748  1.3452  0.6264 -0.8591
 2665SOL    HW219458   2.324   2.309   3.894 -0.3683 -0.2482 -0.4580
 2666SOL     OW19459   0.439   0.695  15.868  0.1805  0.0572  0.2765
 2666SOL    HW119460   0.444   0.707  15.773 -2.6875  2.5463  0.4031
 2666SOL    HW219461   0.361   0.746  15.892 -1.1105 -0.9527 -1.6863
 2667SOL     OW19462   0.097   0.640  12.201 -0.1792 -0.0413  0.2235
 2667SOL    HW119463   0.165   0.589  12.243  0.2375  0.5950  0.3181
 2667SOL    HW219464   0.043   0.664  12.276  0.2507 -1.4833  0.9902
 2668SOL     OW19465   3.020   4.403   7.306  0.6460 -0.3222 -0.1975
 2668SOL    HW119466   3.007   4.309   7.323  1.3637 -0.1059  1.5838
 2668SOL    HW219467   3.089   4.419   7.370 -0.9713  0.8593  1.2510
 2669SOL     OW19468   4.117   2.815   5.516  0.3632  0.2642 -0.4519
 2669SOL    HW119469   4.174   2.817   5.439  0.4130 -2.0415 -0.4944
 2669SOL    HW219470   4.134   2.894   5.567  0.6382  0.6992 -1.2087
 2670SOL     OW19471   1.273   4.296   8.612 -0.1806  0.0669  0.4203
 2670SOL    HW119472   1.358   4.255   8.597 -0.6255 -0.7459  0.1265
 2670SOL    HW219473   1.306   4.385   8.598 -2.6470  1.0147  0.5941
 2671SOL     OW19474   0.631   0.327  13.183  0.2321 -0.1139  0.1141
 2671SOL    HW119475   0.665   0.383  13.113  1.9983  0.2920  1.2966
 2671SOL    HW219476   0.714   0.289  13.209  0.6295 -1.7274 -3.5405
 2672SOL     OW19477   3.046   1.662   6.628  0.1532 -0.2244 -0.3265
 2672SOL    HW119478   2.961   1.660   6.672  0.0303 -0.2363 -0.5622
 2672SOL    HW219479   3.014   1.697   6.545  2.9304 -1.0882 -1.7573
 2673SOL     OW19480   3.656   4.398  15.456  0.7578  0.3359  0.0531
 2673SOL    HW119481   3.651   4.397  15.361  1.7972 -1.4681  0.0144
 2673SOL    HW219482   3.566   4.406  15.488  0.8956 -1.1399  0.8250
 2674SOL     OW19483   3.734   1.593   6.463 -0.4768  0.1307  0.1447
 2674SOL    HW119484   3.794   1.613   6.391 -1.0319  1.2546 -0.0054
 2674SOL    HW219485   3.796   1.551   6.522  1.8837  1.9618 -1.0297
 2675SOL     OW19486   2.320   3.206   2.275  0.5788  0.0904 -0.5819
 2675SOL    HW119487   2.259   3.132   2.278 -1.1794  1.7099  2.9376
 2675SOL    HW219488   2.256   3.276   2.286 -0.0975 -0.6276 -0.0421
 2676SOL     OW19489   0.759   1.898   6.621 -0.1289 -0.0241  0.1157
 2676SOL    HW119490   0.737   1.806   6.631 -0.0643 -0.0685 -0.1510
 2676SOL    HW219491   0.836   1.900   6.564 -0.2304  1.9052  0.0291
 2677SOL     OW19492   3.333   4.095  11.548 -0.0640  0.0635  0.2068
 2677SOL    HW119493   3.246   4.057  11.538 -0.4808  0.6746  1.5333
 2677SOL    HW219494   3.383   4.013  11.557 -1.2047 -0.8802 -1.9306
 2678SOL     OW19495   0.282   4.057   7.149 -0.0027  0.5600  0.3789
 2678SOL    HW119496   0.365   4.045   7.102 -0.8281  0.0950 -0.9804
 2678SOL    HW219497   0.293   4.136   7.202  0.9125  1.1859 -0.7445
 2679SOL     OW19498   3.122   2.588   7.722 -0.1315 -0.4485  0.3203
 2679SOL    HW119499   3.039   2.604   7.678 -0.3889  0.3145  1.0752
 2679SOL    HW219500   3.110   2.658   7.787 -3.1462  1.0736 -1.8811
 2680SOL     OW19501   0.603   1.672   6.988 -0.2509 -0.0893 -0.1677
 2680SOL    HW119502   0.652   1.643   6.910  0.7572  2.3349 -0.4516
 2680SOL    HW219503   0.664   1.646   7.058  0.4998 -0.1567 -0.8401
 2681SOL     OW19504   4.122   1.657  11.143 -0.5223 -0.2077 -0.5695
 2681SOL    HW119505   4.114   1.562  11.155 -0.6739 -0.0836  0.3078
 2681SOL    HW219506   4.173   1.675  11.222 -1.7176 -1.8660  0.5884
 2682SOL     OW19507   0.322   4.689   4.176 -0.4126 -0.7439 -0.0613
 2682SOL    HW119508   0.349   0.048   4.212 -0.2202  0.5131 -3.1359
 2682SOL    HW219509   0.232   4.707   4.149 -0.9230  2.8655  3.9607
 2683SOL     OW19510   3.159   0.393  10.828 -0.3937  0.8087  1.1807
 2683SOL    HW119511   3.249   0.387  10.860  0.0572  3.6489  0.4060
 2683SOL    HW219512   3.113   0.339  10.893 -0.1882  1.1317  1.5958
 2684SOL     OW19513   1.166   1.389   9.503 -0.0338 -0.1443  0.0884
 2684SOL    HW119514   1.237   1.451   9.516  1.5524 -1.9856  0.1099
 2684SOL    HW219515   1.221   1.323   9.462  0.1964 -0.1420  0.3908
 2685SOL     OW19516   3.234   0.506   5.031 -0.8008  0.3027  0.4777
 2685SOL    HW119517   3.187   0.565   5.090  0.7109  2.1573 -0.1945
 2685SOL    HW219518   3.174   0.513   4.956 -0.7163 -2.2489  0.1602
 2686SOL     OW19519   4.182   2.253   8.095  0.1098  0.7150 -0.4519
 2686SOL    HW119520   4.194   2.192   8.022  0.7425  1.4027 -0.9184
 2686SOL    HW219521   4.107   2.305   8.065 -1.1723  0.0247  1.5060
 2687SOL     OW19522   2.220   2.583   2.509 -0.0464 -0.1146 -0.2480
 2687SOL    HW119523   2.221   2.613   2.418  2.2411 -1.3340 -0.6289
 2687SOL    HW219524   2.314   2.568   2.525  0.0862  0.9659 -0.0241
 2688SOL     OW19525   4.335   1.597   4.688 -0.5820  0.1879  0.5663
 2688SOL    HW119526   4.359   1.685   4.659 -2.9352 -0.1260 -2.4047
 2688SOL    HW219527   4.384   1.552   4.618 -1.1593 -0.2488  0.4493
 2689SOL     OW19528   4.510   0.625   0.701 -0.1655 -0.8164 -0.3269
 2689SOL    HW119529   4.555   0.698   0.658 -0.0791 -0.4204  0.4403
 2689SOL    HW219530   4.433   0.620   0.646  0.2500 -2.2423 -0.7811
 2690SOL     OW19531   3.536   0.639   5.052 -0.0668  0.1117 -0.1283
 2690SOL    HW119532   3.546   0.556   5.098 -2.1556 -0.3514 -0.5155
 2690SOL    HW219533   3.457   0.623   5.000  1.1989  0.4997 -2.1878
 2691SOL     OW19534   0.074   2.612   3.460 -0.0681 -0.3298 -0.5725
 2691SOL    HW119535   0.122   2.556   3.400  0.0972 -1.4426  0.5910
 2691SOL    HW219536   0.045   2.540   3.516  1.1213 -1.1547 -1.0207
 2692SOL     OW19537   3.330   2.389   5.019  0.4092 -0.4628 -0.3619
 2692SOL    HW119538   3.359   2.461   4.963 -4.2271 -0.1642 -2.3561
 2692SOL    HW219539   3.346   2.427   5.105 -1.7767 -1.5239  0.5028
 2693SOL     OW19540   0.406   0.667   2.060  0.3847  0.3005 -0.2874
 2693SOL    HW119541   0.359   0.750   2.061 -1.7433 -0.9510  2.8230
 2693SOL    HW219542   0.453   0.664   1.977  1.6403  0.7146  0.4172
 2694SOL     OW19543   0.503   1.798   5.466 -0.1275 -0.3505  0.6350
 2694SOL    HW119544   0.556   1.809   5.546  1.1490  0.4343 -0.3150
 2694SOL    HW219545   0.490   1.893   5.456 -0.3591 -0.5567 -0.8786
 2695SOL     OW19546   1.671   1.130   1.507  0.2928  0.4997  0.2291
 2695SOL    HW119547   1.672   1.153   1.600 -0.8823 -0.0406  0.3744
 2695SOL    HW219548   1.577   1.139   1.493  0.0056 -0.0692  1.7913
 2696SOL     OW19549   2.611   1.035  12.092  0.0503  0.5261  0.2922
 2696SOL    HW119550   2.601   1.105  12.027 -2.3214 -1.4167 -1.4014
 2696SOL    HW219551   2.652   0.964  12.044 -3.0444 -0.9389 -0.1192
 2697SOL     OW19552   2.883   3.129  16.328 -0.3037  0.2559  0.0495
 2697SOL    HW119553   2.914   3.074  16.400 -2.2739 -1.4176 -0.3877
 2697SOL    HW219554   2.788   3.132  16.334 -0.3133  0.5648 -0.2631
 2698SOL     OW19555   1.224   1.802   7.888  0.4638  0.2254  0.0962
 2698SOL    HW119556   1.299   1.791   7.946 -0.3743  2.0179  1.4944
 2698SOL    HW219557   1.155   1.817   7.952  1.1972  0.6476  0.7838
 2699SOL     OW19558   3.045   4.243   1.812  0.0095  0.0342 -0.0009
 2699SOL    HW119559   3.065   4.309   1.878  0.1591  0.3814 -0.3954
 2699SOL    HW219560   3.128   4.196   1.810 -0.5041 -0.8757 -0.2079
 2700SOL     OW19561   1.946   4.126   7.988 -0.5444 -0.2685  0.1125
 2700SOL    HW119562   2.016   4.101   8.047  0.4692  1.2373 -0.4615
 2700SOL    HW219563   1.978   4.194   7.929 -0.8461 -0.1144  0.1252
 2701SOL     OW19564   3.326   2.137   9.003 -0.6784  0.7298 -0.2848
 2701SOL    HW119565   3.265   2.169   9.068  0.7925  0.0068  1.4679
 2701SOL    HW219566   3.407   2.181   9.028  0.0951 -2.2978  2.5478
 2702SOL     OW19567   3.664   2.407  16.764  0.1938  0.2406  0.2493
 2702SOL    HW119568   3.676   2.323  16.808  0.2191  1.1799  2.0335
 2702SOL    HW219569   3.684   2.463  16.838  1.5982 -0.4931  0.4099
 2703SOL     OW19570   4.408   3.366   7.390  0.7427 -0.0737  0.4509
 2703SOL    HW119571   4.334   3.388   7.448 -0.6912 -1.0657 -1.0224
 2703SOL    HW219572   4.380   3.281   7.359 -0.6199  1.0287 -1.3332
 2704SOL     OW19573   0.012   2.821  15.948  0.4429 -0.2505 -0.4125
 2704SOL    HW119574   0.068   2.893  15.976 -1.2078  0.6498  0.5646
 2704SOL    HW219575   4.707   2.853  15.863  3.1576 -0.9130 -1.6092
 2705SOL     OW19576   3.604   2.255   8.283  0.1777  0.0558 -0.3283
 2705SOL    HW119577   3.527   2.218   8.241 -0.2732  1.7191 -0.9338
 2705SOL    HW219578   3.612   2.208   8.367  0.8438 -1.2239 -1.1008
 2706SOL     OW19579   0.459   4.002   8.130  0.1610  0.1094  0.0832
 2706SOL    HW119580   0.449   3.959   8.216 -0.5164 -0.1947 -0.1529
 2706SOL    HW219581   0.428   3.943   8.062 -0.0542 -0.4125  0.6393
 2707SOL     OW19582   3.141   3.884  15.539 -0.3247  0.1082 -0.3085
 2707SOL    HW119583   3.124   3.791  15.554 -0.5831  0.7303  3.1485
 2707SOL    HW219584   3.102   3.919  15.619 -1.4440 -0.3873 -0.6230
 2708SOL     OW19585   3.914   3.224  10.666  0.1991 -0.0824 -0.4203
 2708SOL    HW119586   3.881   3.167  10.735  0.5062  0.0262 -0.1849
 2708SOL    HW219587   3.834   3.231  10.613  0.1866 -0.6626 -0.4743
 2709SOL     OW19588   4.681   4.070   0.659 -0.1859 -0.5506  0.0155
 2709SOL    HW119589   4.613   4.004   0.671 -0.3336 -0.1665  1.2797
 2709SOL    HW219590   4.632   4.152   0.672 -0.5891 -0.7958  0.0366
 2710SOL     OW19591   2.734   3.717   4.309 -0.7814 -0.4930  0.2654
 2710SOL    HW119592   2.796   3.774   4.263  0.3223 -3.0306 -1.3980
 2710SOL    HW219593   2.750   3.629   4.275  2.4182  0.4434 -0.6103
 2711SOL     OW19594   4.392   0.875   3.287 -0.1969 -0.0455 -0.3347
 2711SOL    HW119595   4.404   0.839   3.199  1.5954  1.4718 -0.7153
 2711SOL    HW219596   4.316   0.826   3.319  0.6831 -1.4387 -0.3288
 2712SOL     OW19597   4.201   2.037   4.263  0.1283 -0.2186  0.0376
 2712SOL    HW119598   4.218   2.105   4.328 -1.5909 -0.4584  0.7355
 2712SOL    HW219599   4.258   1.969   4.300 -3.0397 -2.5813  0.5998
 2713SOL     OW19600   1.539   0.620   1.315  0.5473 -0.4460 -0.3758
 2713SOL    HW119601   1.445   0.638   1.311  0.2814 -1.5991  0.7372
 2713SOL    HW219602   1.543   0.637   1.409  1.5125 -1.9407 -0.1564
 2714SOL     OW19603   2.117   0.590   4.185 -0.5121  0.5079  0.3039
 2714SOL    HW119604   2.082   0.504   4.208 -4.5433  1.6638 -1.4414
 2714SOL    HW219605   2.208   0.584   4.215 -1.0870  1.3469  2.1808
 2715SOL     OW19606   3.277   2.552   8.357 -0.6212  0.4554  0.2128
 2715SOL    HW119607   3.278   2.459   8.380  3.0973  1.2447  3.2521
 2715SOL    HW219608   3.323   2.543   8.274 -0.9961  2.0680 -0.1751
 2716SOL     OW19609   3.120   4.524  17.638  0.0398 -0.3498 -0.4613
 2716SOL    HW119610   3.099   4.457   0.001 -0.9123 -0.8235 -1.2663
 2716SOL    HW219611   3.148   4.474  17.561  0.2921 -2.7307  1.1615
 2717SOL     OW19612   0.220   3.538   0.605  0.2116 -0.0250 -0.0743
 2717SOL    HW119613   0.206   3.449   0.573  1.7774 -1.2941  2.7149
 2717SOL    HW219614   0.222   3.503   0.695  0.3106 -0.3719 -0.2121
 2718SOL     OW19615   4.128   3.319  13.904  0.4950  0.5194  0.1313
 2718SOL    HW119616   4.200   3.279  13.856  1.9579  1.1364  1.8137
 2718SOL    HW219617   4.053   3.291  13.852  0.1451  1.5868  0.0606
 2719SOL     OW19618   2.847   3.824  10.006 -0.1271  0.0468 -0.0524
 2719SOL    HW119619   2.882   3.838  10.094  1.3264  1.8862 -0.9106
 2719SOL    HW219620   2.761   3.864  10.016 -0.0857  0.0204  0.4188
 2720SOL     OW19621   4.483   1.472   6.086  0.4005 -0.2707  0.3011
 2720SOL    HW119622   4.474   1.534   6.014 -0.0141 -1.6033 -0.7921
 2720SOL    HW219623   4.408   1.500   6.138 -1.0212 -1.9437 -0.8540
 2721SOL     OW19624   3.363   0.151  11.063  0.0902  0.0916 -0.8770
 2721SOL    HW119625   3.419   0.189  11.131  1.6276 -1.0490 -1.5022
 2721SOL    HW219626   3.275   0.180  11.086  0.5036  0.9041 -0.3284
 2722SOL     OW19627   0.224   1.611   7.639  0.2064  0.1543  0.3739
 2722SOL    HW119628   0.318   1.626   7.641  0.0442  1.7645 -3.9304
 2722SOL    HW219629   0.220   1.557   7.718  0.5758  0.2584  0.4649
 2723SOL     OW19630   3.215   1.341   2.709 -0.8138  1.0980  0.1110
 2723SOL    HW119631   3.192   1.339   2.616  0.0760  0.6966 -0.1102
 2723SOL    HW219632   3.196   1.432   2.730 -0.7630  1.8348 -3.0614
 2724SOL     OW19633   1.374   0.890   2.935 -0.3782 -1.0257 -0.1933
 2724SOL    HW119634   1.435   0.823   2.964 -0.6586 -1.6633 -1.0939
 2724SOL    HW219635   1.350   0.855   2.849  1.1203  2.6232 -2.0793
 2725SOL     OW19636   2.900   0.668   6.299 -0.4069  0.2851 -0.2247
 2725SOL    HW119637   2.881   0.619   6.379  2.1603  0.6203  0.6046
 2725SOL    HW219638   2.809   0.696   6.290 -0.2199  0.8791 -0.2627
 2726SOL     OW19639   0.709   3.538   3.488 -0.1845 -0.2798  1.1726
 2726SOL    HW119640   0.802   3.532   3.466 -1.1128 -0.1670 -2.7958
 2726SOL    HW219641   0.695   3.625   3.449  0.8094 -0.7528 -0.2331
 2727SOL     OW19642   2.196   3.117  17.273 -0.4754 -0.3175 -0.2539
 2727SOL    HW119643   2.279   3.160  17.295 -0.5715 -0.4120  0.2895
 2727SOL    HW219644   2.144   3.160  17.341  0.2782  0.0485  0.0852
 2728SOL     OW19645   0.186   0.565  11.685  0.2943  0.2746 -0.5623
 2728SOL    HW119646   0.247   0.625  11.727  0.1637  0.6716 -0.9397
 2728SOL    HW219647   0.127   0.559  11.760 -0.0767 -1.7351 -1.0150
 2729SOL     OW19648   3.383   2.619  17.180 -0.0876  0.0160 -0.3768
 2729SOL    HW119649   3.307   2.676  17.164 -1.6171 -2.1864 -0.9093
 2729SOL    HW219650   3.460   2.676  17.173  1.3253 -2.0226 -1.4110
 2730SOL     OW19651   4.236   2.603   3.091  0.2064 -0.5731 -0.4179
 2730SOL    HW119652   4.146   2.614   3.061 -0.4111  0.0133  1.6932
 2730SOL    HW219653   4.220   2.570   3.179  0.1950 -1.3360 -0.7102
 2731SOL     OW19654   1.011   1.979  13.393  0.1563 -0.3642 -0.3185
 2731SOL    HW119655   1.080   2.045  13.385  0.5096 -0.6760  0.1072
 2731SOL    HW219656   0.938   2.029  13.431 -1.6504 -1.3171 -2.5367
 2732SOL     OW19657   1.630   0.679   3.318 -0.0667 -0.5642  0.5565
 2732SOL    HW119658   1.539   0.701   3.298 -0.1836 -1.5089 -0.0084
 2732SOL    HW219659   1.618   0.593   3.360  0.5163 -1.1617 -0.4866
 2733SOL     OW19660   3.228   1.383  15.455 -0.3992  0.6062  0.2843
 2733SOL    HW119661   3.205   1.460  15.508  0.5340  1.1870 -0.1532
 2733SOL    HW219662   3.184   1.310  15.499  0.0552  0.4836  0.5313
 2734SOL     OW19663   2.954   1.413   7.942  0.3369 -0.6591 -0.0459
 2734SOL    HW119664   3.028   1.382   7.890  1.5192  0.9426  0.6953
 2734SOL    HW219665   2.967   1.507   7.939 -0.2502 -0.5268  1.2401
 2735SOL     OW19666   2.462   0.567  17.403  0.1920 -0.4557  0.4833
 2735SOL    HW119667   2.439   0.502  17.337  0.3162 -0.2776  0.2650
 2735SOL    HW219668   2.507   0.642  17.364 -1.7952  1.3003  1.5700
 2736SOL     OW19669   3.910   1.061   8.800  0.6880 -0.0122  0.2487
 2736SOL    HW119670   3.910   1.013   8.718 -0.1638 -0.5150  0.5391
 2736SOL    HW219671   3.952   0.995   8.855  1.1788  0.1143  0.0219
 2737SOL     OW19672   1.146   2.168  14.684 -0.4819  0.1404 -0.7250
 2737SOL    HW119673   1.181   2.250  14.650  1.1781 -1.0542 -1.9036
 2737SOL    HW219674   1.164   2.111  14.609 -0.8235  1.2561 -1.6491
 2738SOL     OW19675   3.992   4.596   1.983 -0.0460 -0.7416  0.0660
 2738SOL    HW119676   3.987   4.688   1.959  1.5432 -0.2179  1.6824
 2738SOL    HW219677   4.066   4.594   2.044  0.1686  0.0322 -0.1683
 2739SOL     OW19678   1.509   1.802   5.321  0.4924  0.3963  0.0629
 2739SOL    HW119679   1.524   1.798   5.227 -1.3680  0.7450 -0.2466
 2739SOL    HW219680   1.413   1.798   5.328  0.7558 -4.3069  1.5638
 2740SOL     OW19681   2.025   1.512  11.072  0.0674  0.1405  0.0500
 2740SOL    HW119682   2.086   1.585  11.072 -1.8531  1.7326  0.8789
 2740SOL    HW219683   1.949   1.564  11.096 -1.2616 -1.8741  0.1776
 2741SOL     OW19684   1.217   3.430   2.856 -0.2242 -0.0503 -0.1514
 2741SOL    HW119685   1.216   3.520   2.825  2.6105  0.3443  0.9428
 2741SOL    HW219686   1.305   3.403   2.830  0.3799  0.8715  0.9217
 2742SOL     OW19687   1.636   3.289   9.396 -0.2783  0.3950  0.1040
 2742SOL    HW119688   1.644   3.247   9.310  1.5536 -0.4915  0.7045
 2742SOL    HW219689   1.640   3.213   9.454  1.1628  1.2542  1.1249
 2743SOL     OW19690   2.547   1.258   8.364 -1.1675 -0.3522  0.6115
 2743SOL    HW119691   2.507   1.172   8.349  1.1930 -1.1747 -0.9709
 2743SOL    HW219692   2.634   1.220   8.379 -2.2308 -2.6709  0.9241
 2744SOL     OW19693   1.771   0.378   9.121  0.0759 -0.0569  0.1124
 2744SOL    HW119694   1.787   0.460   9.075  0.2995  0.1634  0.5809
 2744SOL    HW219695   1.682   0.351   9.099  0.1520  0.1564 -0.4644
 2745SOL     OW19696   2.822   0.373  14.769 -0.3138 -0.2279 -0.3411
 2745SOL    HW119697   2.858   0.385  14.856 -2.8092 -1.1496  0.8039
 2745SOL    HW219698   2.891   0.403  14.710 -1.2645 -0.0862 -1.3839
 2746SOL     OW19699   2.060   1.475   1.962 -0.4237 -0.1499 -0.1753
 2746SOL    HW119700   1.978   1.433   1.935 -1.2996  1.1428  0.4459
 2746SOL    HW219701   2.117   1.401   1.985 -3.5966 -2.5665 -0.0486
 2747SOL     OW19702   1.364   0.896   4.911  0.0277 -0.6625 -0.1875
 2747SOL    HW119703   1.442   0.877   4.963 -0.4153  0.3414  0.8444
 2747SOL    HW219704   1.310   0.953   4.966  3.4797  1.5666  0.9088
 2748SOL     OW19705   1.369   2.076   3.845  0.4600 -0.0976 -0.4509
 2748SOL    HW119706   1.321   2.001   3.879  1.6863 -0.7763 -0.2225
 2748SOL    HW219707   1.436   2.027   3.797  0.3458  0.1731 -0.8901
 2749SOL     OW19708   0.563   0.199   4.526 -0.0304 -0.5942  0.4188
 2749SOL    HW119709   0.571   0.104   4.534  1.8568 -0.3727  1.2870
 2749SOL    HW219710   0.656   0.219   4.529  0.2624 -1.9210  0.5410
 2750SOL     OW19711   2.298   1.197  15.649  0.2977 -0.1070 -0.1871
 2750SOL    HW119712   2.274   1.287  15.628  3.0107  0.4604 -0.8836
 2750SOL    HW219713   2.300   1.202  15.745 -3.9190 -1.9456 -0.0462
 2751SOL     OW19714   4.352   2.918   4.102  0.8871  0.4076 -0.3096
 2751SOL    HW119715   4.329   2.926   4.009 -0.1584 -1.7552 -0.2214
 2751SOL    HW219716   4.323   3.006   4.129 -0.2263  0.5343 -1.9233
 2752SOL     OW19717   2.658   4.170   7.172 -0.0764 -0.5074  0.0458
 2752SOL    HW119718   2.591   4.189   7.107  0.4006  0.4007 -0.1722
 2752SOL    HW219719   2.699   4.086   7.149  1.1548  0.5491 -1.5980
 2753SOL     OW19720   1.536   3.004   0.061 -0.0270  0.2125 -0.3633
 2753SOL    HW119721   1.542   3.050   0.146 -0.8786  2.0800 -1.3159
 2753SOL    HW219722   1.445   3.024   0.040  0.4373  2.0435 -0.7092
 2754SOL     OW19723   4.229   3.742   9.953 -0.2021  0.1257 -0.0166
 2754SOL    HW119724   4.158   3.795   9.988  0.6948  1.0540  0.4084
 2754SOL    HW219725   4.195   3.655   9.974 -0.3225 -0.0717 -1.0442
 2755SOL     OW19726   0.295   4.262   4.549 -0.1182 -0.2505  0.0533
 2755SOL    HW119727   0.202   4.238   4.551 -0.2536  0.2151 -1.2853
 2755SOL    HW219728   0.324   4.245   4.460 -0.5326  2.2874 -0.5678
 2756SOL     OW19729   0.242   2.741   6.804 -0.8208 -0.0613  0.1780
 2756SOL    HW119730   0.260   2.796   6.880 -0.6864 -4.1749  3.1225
 2756SOL    HW219731   0.331   2.712   6.783  0.1254  1.2821  2.3158
 2757SOL     OW19732   0.611   0.621   8.103  0.1540 -0.2030 -0.3811
 2757SOL    HW119733   0.623   0.639   8.196  1.3970 -0.9640 -0.3906
 2757SOL    HW219734   0.518   0.598   8.109  0.6315 -1.3104  2.8152
 2758SOL     OW19735   2.181   0.038   3.791  0.0310 -0.5960  0.2728
 2758SOL    HW119736   2.129   0.107   3.832  2.9475  1.3623  0.6943
 2758SOL    HW219737   2.205   0.084   3.711  1.9264  0.5314  1.4861
 2759SOL     OW19738   0.698   1.483  14.053  0.2902  0.0265 -0.1544
 2759SOL    HW119739   0.618   1.443  14.088  0.8165  0.6926  1.7608
 2759SOL    HW219740   0.740   1.466  14.137  0.0233 -0.6778 -0.1554
 2760SOL     OW19741   3.196   4.297   6.412 -0.4641  0.2241 -0.5182
 2760SOL    HW119742   3.156   4.324   6.495 -1.4449  0.5157 -1.0858
 2760SOL    HW219743   3.129   4.270   6.350 -1.7088 -0.5216  1.1278
 2761SOL     OW19744   1.565   0.394   0.639 -0.4030  0.3465 -0.4021
 2761SOL    HW119745   1.617   0.474   0.628 -1.0453  0.9456  0.9517
 2761SOL    HW219746   1.550   0.400   0.733  2.4805 -1.6103  0.1912
 2762SOL     OW19747   3.250   2.424  17.322  0.2937 -0.4189 -0.7722
 2762SOL    HW119748   3.190   2.422  17.247  0.6047 -1.3899 -0.9864
 2762SOL    HW219749   3.310   2.491  17.288 -0.6878 -0.1349 -1.9314
 2763SOL     OW19750   4.493   1.466   2.164 -0.0261 -0.1490 -0.4618
 2763SOL    HW119751   4.440   1.506   2.095 -1.2267 -1.5300 -0.3384
 2763SOL    HW219752   4.578   1.509   2.157  0.4141 -1.0583 -0.6219
 2764SOL     OW19753   0.921   3.953  10.131  0.1074 -0.8881 -0.4382
 2764SOL    HW119754   1.011   3.977  10.111 -0.3902  0.8242 -0.5798
 2764SOL    HW219755   0.873   4.034  10.111  0.2346 -0.4393  1.0983
 2765SOL     OW19756   3.556   2.498   0.238  1.0054 -0.5648 -0.5911
 2765SOL    HW119757   3.525   2.561   0.303 -1.1255 -1.8565 -0.3549
 2765SOL    HW219758   3.553   2.549   0.158  2.4664  0.7078  0.1725
 2766SOL     OW19759   3.986   2.992   4.806 -0.7732  0.3850 -0.4996
 2766SOL    HW119760   3.991   3.076   4.852  1.7808  0.9718 -1.8274
 2766SOL    HW219761   3.945   2.946   4.879  0.4455  2.7125  1.6448
 2767SOL     OW19762   3.804   3.939   2.223 -0.0873  0.3959 -0.2348
 2767SOL    HW119763   3.746   3.920   2.148 -1.2955 -0.7750  0.9913
 2767SOL    HW219764   3.862   4.001   2.179  0.6372  0.2794  0.5725
 2768SOL     OW19765   0.506   0.182  10.733  0.7832 -0.6181 -0.3434
 2768SOL    HW119766   0.461   0.208  10.813  1.3555  0.6783 -0.4428
 2768SOL    HW219767   0.534   0.264  10.691  1.7882 -0.1528  1.2352
 2769SOL     OW19768   4.047   1.349  12.934  0.1882  0.1353 -0.1263
 2769SOL    HW119769   4.086   1.267  12.966 -0.2212 -0.3334 -0.8303
 2769SOL    HW219770   4.071   1.359  12.842  1.2237  2.8663  0.4303
 2770SOL     OW19771   2.429   0.770   5.358  0.1536 -0.0567 -0.1669
 2770SOL    HW119772   2.431   0.859   5.394  1.5753  0.4630 -1.5247
 2770SOL    HW219773   2.406   0.803   5.271  0.6666 -1.0546 -0.6741
 2771SOL     OW19774   3.235   0.046   9.279  0.6476 -0.0024 -0.3083
 2771SOL    HW119775   3.295   4.698   9.296 -0.3822 -0.7118  0.2333
 2771SOL    HW219776   3.157   4.717   9.270 -0.7589  1.9251  0.5317
 2772SOL     OW19777   1.043   1.884   7.706 -0.3978  0.3267 -0.0432
 2772SOL    HW119778   1.110   1.856   7.768 -0.8372 -0.3100  0.1376
 2772SOL    HW219779   0.975   1.820   7.723 -2.3381  2.0742 -1.2071
 2773SOL     OW19780   1.616   3.503   9.101 -0.2799  0.0442 -0.3575
 2773SOL    HW119781   1.527   3.474   9.087 -0.1349 -0.8803  0.6443
 2773SOL    HW219782   1.599   3.597   9.094 -0.6586 -0.1412 -1.8173
 2774SOL     OW19783   0.001   2.487  15.159  0.4425 -0.0366  0.2519
 2774SOL    HW119784   0.000   2.401  15.200 -2.7935 -0.6134 -1.0340
 2774SOL    HW219785   4.633   2.506  15.153  0.5293 -0.0683 -1.2746
 2775SOL     OW19786   2.852   0.878  10.761 -0.2245  0.3585 -0.5982
 2775SOL    HW119787   2.843   0.953  10.701 -0.9226  0.2819 -0.5914
 2775SOL    HW219788   2.883   0.814  10.697  0.8245  0.6288 -0.3574
 2776SOL     OW19789   4.053   0.660   2.952 -0.3668 -0.6903  0.2077
 2776SOL    HW119790   4.113   0.590   2.976  0.2882 -0.1941  0.0241
 2776SOL    HW219791   3.990   0.629   3.017  0.4717 -4.1111 -0.6083
 2777SOL     OW19792   0.614   1.178  14.626  0.3542  0.1206 -0.2157
 2777SOL    HW119793   0.574   1.196  14.541  1.5972 -0.0123 -0.8246
 2777SOL    HW219794   0.649   1.264  14.649  0.5255 -0.1674  0.6039
 2778SOL     OW19795   1.690   2.527   7.442 -0.0939  0.1915  0.3874
 2778SOL    HW119796   1.695   2.522   7.537 -0.4662 -0.7069  0.3643
 2778SOL    HW219797   1.734   2.448   7.411  0.6820  0.0924  1.7500
 2779SOL     OW19798   3.114   4.299  16.218 -0.5652 -0.2514  0.5149
 2779SOL    HW119799   3.138   4.238  16.287  0.0760  0.8124  1.2411
 2779SOL    HW219800   3.195   4.351  16.213 -0.4236 -0.6495 -1.1770
 2780SOL     OW19801   3.464   3.587   1.655 -0.1711  0.0889 -0.3361
 2780SOL    HW119802   3.487   3.524   1.587 -1.0467 -1.5370  0.8959
 2780SOL    HW219803   3.370   3.604   1.654 -0.2002 -0.0052  0.6483
 2781SOL     OW19804   4.023   3.164   3.917 -0.0674  0.2276  0.6652
 2781SOL    HW119805   4.051   3.073   3.932  1.2464  0.6686  0.8534
 2781SOL    HW219806   3.969   3.171   3.996 -0.5687  1.0636  0.2480
 2782SOL     OW19807   3.126   3.090   7.761  0.0909  0.4836 -0.4192
 2782SOL    HW119808   3.156   3.134   7.682 -1.7308  3.2973  0.4827
 2782SOL    HW219809   3.203   3.066   7.813  1.3371  0.7888 -2.1332
 2783SOL     OW19810   4.560   1.279  10.562 -0.7264  0.1765 -0.5161
 2783SOL    HW119811   4.492   1.316  10.617  0.7742 -1.4827  2.4458
 2783SOL    HW219812   4.623   1.349  10.579 -2.5209  0.8622  3.2303
 2784SOL     OW19813   4.416   1.162   4.921 -0.1037  0.4295 -0.1610
 2784SOL    HW119814   4.380   1.209   4.845  0.1070  1.2761  0.2655
 2784SOL    HW219815   4.341   1.136   4.975  1.3001 -2.9238  0.1422
 2785SOL     OW19816   2.944   4.221   9.174 -0.1320  0.0428  0.4113
 2785SOL    HW119817   2.897   4.217   9.257  1.6345  4.7480  1.6548
 2785SOL    HW219818   2.885   4.247   9.104  0.5056 -2.4144 -1.0428
 2786SOL     OW19819   1.894   2.559  11.397 -0.3039 -0.0991  0.2362
 2786SOL    HW119820   1.888   2.493  11.327  2.7610 -0.0976 -0.0376
 2786SOL    HW219821   1.939   2.513  11.467 -0.9998  0.2567  0.9093
 2787SOL     OW19822   2.246   1.198   4.202  0.2928 -0.1384  0.2905
 2787SOL    HW119823   2.171   1.248   4.169  0.2139 -2.6261 -3.2966
 2787SOL    HW219824   2.318   1.255   4.176  1.8153 -2.5265 -0.8077
 2788SOL     OW19825   1.008   1.577  15.324  0.3942 -0.2309 -0.1954
 2788SOL    HW119826   1.096   1.607  15.347  0.6994 -1.8288  0.6906
 2788SOL    HW219827   0.957   1.574  15.405  0.5244  2.2146 -0.0258
 2789SOL     OW19828   2.635   1.848   2.479  0.0316  0.0527 -0.1583
 2789SOL    HW119829   2.623   1.901   2.558  0.5812 -2.8899  1.9036
 2789SOL    HW219830   2.714   1.796   2.495 -0.8803 -1.7026 -1.2516
 2790SOL     OW19831   0.305   0.004   6.977  0.3098 -0.3028 -0.0983
 2790SOL    HW119832   0.311   4.662   6.910  2.2128 -0.1354 -0.1017
 2790SOL    HW219833   0.350   4.675   7.042 -0.4399  0.8274  1.3703
 2791SOL     OW19834   3.849   2.662   2.669  0.3634 -0.7365 -0.4934
 2791SOL    HW119835   3.801   2.709   2.601 -0.4186 -0.2577  0.3898
 2791SOL    HW219836   3.783   2.657   2.738 -0.4249  4.0608 -0.8994
 2792SOL     OW19837   2.684   2.506   2.902  0.1890  0.3509  0.7819
 2792SOL    HW119838   2.684   2.559   2.823 -0.6055 -0.0618  0.4956
 2792SOL    HW219839   2.775   2.527   2.920  0.4436 -0.1989  0.1400
 2793SOL     OW19840   0.970   3.449   9.171 -0.2475 -0.7778 -0.2558
 2793SOL    HW119841   0.882   3.474   9.200  0.4094 -2.1615  2.9973
 2793SOL    HW219842   1.013   3.535   9.178 -0.3142 -0.6756 -1.1447
 2794SOL     OW19843   1.038   2.677   6.815  0.0897 -0.1099  0.1706
 2794SOL    HW119844   1.113   2.698   6.869 -0.5389  3.3810 -0.2913
 2794SOL    HW219845   1.043   2.755   6.758  1.5205  0.8190  1.5758
 2795SOL     OW19846   1.550   0.290   9.624  0.0966 -0.1551 -0.1613
 2795SOL    HW119847   1.559   0.297   9.529  1.4277 -0.0493 -0.0241
 2795SOL    HW219848   1.458   0.307   9.646  0.1891  0.1706 -0.0266
 2796SOL     OW19849   1.109   1.448   7.103  0.5472 -0.0477 -0.5006
 2796SOL    HW119850   1.080   1.412   7.186 -0.8679  1.1376 -0.4822
 2796SOL    HW219851   1.108   1.541   7.123  0.5457 -0.1114 -0.2083
 2797SOL     OW19852   3.611   0.291   4.382 -0.0631  0.2940  0.3634
 2797SOL    HW119853   3.656   0.331   4.456 -0.0808  1.4811 -0.2802
 2797SOL    HW219854   3.685   0.267   4.326  0.8177 -0.8983  2.0185
 2798SOL     OW19855   0.107   1.556  16.760  0.7075  0.1676  0.2506
 2798SOL    HW119856   0.053   1.503  16.702 -0.0817  1.0109  0.2139
 2798SOL    HW219857   0.050   1.552  16.836  1.7601 -1.2552  0.9652
 2799SOL     OW19858   4.332   2.364  13.715 -0.1060 -0.0022  0.2560
 2799SOL    HW119859   4.397   2.295  13.731 -0.1690  0.0212  0.6240
 2799SOL    HW219860   4.281   2.344  13.637 -1.3461  4.3201 -0.0635
 2800SOL     OW19861   4.157   0.097   6.502 -0.4791  0.0853 -0.1975
 2800SOL    HW119862   4.109   0.143   6.433 -1.2784 -0.6967 -0.1739
 2800SOL    HW219863   4.239   0.076   6.457  0.2843  2.1556  0.2530
 2801SOL     OW19864   4.423   1.712  17.637 -0.0508 -0.3621  0.1377
 2801SOL    HW119865   4.353   1.647  17.624 -0.4747  0.0651  0.3115
 2801SOL    HW219866   4.380   1.796  17.650  0.9197 -0.1644  1.9627
 2802SOL     OW19867   4.326   1.095   4.630  0.7357 -0.0675  0.0130
 2802SOL    HW119868   4.261   1.025   4.634  0.8239 -0.0550  1.9646
 2802SOL    HW219869   4.286   1.177   4.660  1.0934  0.9429 -2.3296
 2803SOL     OW19870   0.207   1.977   6.363  0.4674  0.3320  0.3671
 2803SOL    HW119871   0.201   1.961   6.457 -1.2994  0.9236  0.3519
 2803SOL    HW219872   0.209   2.072   6.361 -1.5049  0.3768  0.5679
 2804SOL     OW19873   4.125   1.429   8.788 -0.3442  0.3036 -0.3007
 2804SOL    HW119874   4.120   1.334   8.792  0.6695  0.2718  0.0787
 2804SOL    HW219875   4.088   1.445   8.702  1.1903  0.2767 -0.9640
 2805SOL     OW19876   3.959   1.801  11.461  0.1387 -0.1373  0.0786
 2805SOL    HW119877   3.999   1.716  11.475 -1.0658 -0.7467 -0.2282
 2805SOL    HW219878   4.029   1.866  11.458 -0.6886  0.7364 -0.5952
 2806SOL     OW19879   2.666   0.758   9.041 -0.3362 -0.2271  0.0766
 2806SOL    HW119880   2.633   0.766   8.952  0.6116  0.5072 -0.2088
 2806SOL    HW219881   2.617   0.681   9.068  1.8352 -1.9722 -0.8969
 2807SOL     OW19882   1.150   0.420   2.828 -0.0683  0.0803 -0.2966
 2807SOL    HW119883   1.194   0.405   2.744  1.1939 -2.2400  0.7760
 2807SOL    HW219884   1.058   0.414   2.803 -0.3424 -0.1228  0.7481
 2808SOL     OW19885   0.763   2.805   7.373  0.1191 -0.1745  0.3955
 2808SOL    HW119886   0.766   2.719   7.331 -4.7625  0.2297 -0.8292
 2808SOL    HW219887   0.765   2.775   7.464  0.6288  0.7934  0.7013
 2809SOL     OW19888   4.703   3.613  11.681  0.0542  0.3716  0.1536
 2809SOL    HW119889   0.055   3.668  11.696  0.1106 -0.7910  3.9792
 2809SOL    HW219890   4.638   3.658  11.735  0.8589  1.1771  0.4440
 2810SOL     OW19891   3.907   0.251   4.997  0.4675 -0.4129  0.0798
 2810SOL    HW119892   3.872   0.162   4.990  0.6023 -0.3942 -0.8781
 2810SOL    HW219893   3.928   0.277   4.907  1.4197 -0.2919  0.3352
 2811SOL     OW19894   1.732   1.488   1.207 -0.0622  0.0919  0.3295
 2811SOL    HW119895   1.772   1.562   1.253 -1.1925 -0.0561  1.5360
 2811SOL    HW219896   1.687   1.446   1.279 -2.1329  0.9198 -0.4983
 2812SOL     OW19897   3.000   4.705   9.077 -0.1556  0.3614 -0.4016
 2812SOL    HW119898   2.954   4.668   9.002  0.2702 -0.1502 -0.4031
 2812SOL    HW219899   2.935   4.680   9.144  1.5681 -1.0713  0.7258
 2813SOL     OW19900   4.690   2.287   9.310  0.0347  0.2818 -0.3099
 2813SOL    HW119901   0.053   2.316   9.332 -1.8099  3.5105  2.9382
 2813SOL    HW219902   4.685   2.202   9.354  0.2190  0.5468  0.2220
 2814SOL     OW19903   1.797   3.648  15.414 -0.0614  0.6677  0.0933
 2814SOL    HW119904   1.877   3.625  15.367 -0.7284 -0.7926 -0.3060
 2814SOL    HW219905   1.758   3.562  15.429  0.4850  0.3213 -0.4593
 2815SOL     OW19906   1.849   1.630   5.948 -0.7095 -0.2439  0.5518
 2815SOL    HW119907   1.924   1.688   5.932 -0.4952 -0.1421  1.9883
 2815SOL    HW219908   1.873   1.596   6.034 -0.5956 -0.5941  0.3827
 2816SOL     OW19909   2.396   2.924  12.948  0.2101  0.1206 -0.0531
 2816SOL    HW119910   2.374   2.961  12.863  0.2716  0.8310  0.2335
 2816SOL    HW219911   2.469   2.981  12.971  1.0103 -1.2879  0.9012
 2817SOL     OW19912   4.619   2.216  12.507  0.1887 -0.2411 -0.4509
 2817SOL    HW119913   4.658   2.279  12.568 -0.5822 -0.5669  0.3819
 2817SOL    HW219914   4.635   2.263  12.425 -1.1403  1.2457  0.1260
 2818SOL     OW19915   2.905   1.939   0.226  0.2223  0.1012 -0.4549
 2818SOL    HW119916   2.875   1.882   0.297 -0.8780 -0.3380 -1.2630
 2818SOL    HW219917   2.846   2.014   0.233 -0.0570 -0.1975  0.5262
 2819SOL     OW19918   1.834   1.556   7.351  0.2236  0.0974  0.0482
 2819SOL    HW119919   1.779   1.585   7.278 -0.4805 -0.6655  0.2831
 2819SOL    HW219920   1.763   1.540   7.414  0.0944  1.6347  0.3121
 2820SOL     OW19921   1.893   3.702   2.536  0.0685 -0.6360  0.5035
 2820SOL    HW119922   1.972   3.689   2.484 -2.0389 -2.9975 -2.1338
 2820SOL    HW219923   1.864   3.770   2.474  1.1549 -0.3928  0.2698
 2821SOL     OW19924   1.049   3.891   3.225 -0.5812  0.6344  0.0970
 2821SOL    HW119925   1.137   3.928   3.230 -0.8259  0.9779  1.8235
 2821SOL    HW219926   0.991   3.941   3.283  0.7481  1.2511  0.8891
 2822SOL     OW19927   0.291   1.438  15.502  0.0126  0.0680  0.2449
 2822SOL    HW119928   0.363   1.382  15.473  0.4582  0.3403  0.8333
 2822SOL    HW219929   0.237   1.377  15.552 -1.7629  2.0848  0.8049
 2823SOL     OW19930   1.182   2.217   2.734  0.4953 -0.0490 -0.1553
 2823SOL    HW119931   1.118   2.225   2.663  1.4371  0.4941 -0.9473
 2823SOL    HW219932   1.130   2.190   2.809  0.6049  1.3385  0.4251
 2824SOL     OW19933   3.063   2.972   4.327  0.6540 -0.0997  0.2278
 2824SOL    HW119934   3.001   2.963   4.399  1.0861 -2.8422  0.2498
 2824SOL    HW219935   3.078   3.067   4.319 -1.1744  0.0970 -0.6840
 2825SOL     OW19936   4.312   3.413   4.243 -0.1999  0.5432 -0.1593
 2825SOL    HW119937   4.395   3.450   4.212 -0.1901  0.7462  0.1118
 2825SOL    HW219938   4.253   3.435   4.171 -0.5660  0.2615  0.0558
 2826SOL     OW19939   3.476   1.963   4.505  0.3945 -0.2897  0.5303
 2826SOL    HW119940   3.396   1.993   4.464  0.4584 -2.3490 -1.1168
 2826SOL    HW219941   3.530   1.949   4.427  0.2228  1.4026  0.1103
 2827SOL     OW19942   2.188   3.154  10.818 -0.1158 -0.2716  0.1714
 2827SOL    HW119943   2.175   3.246  10.797  0.6755  0.4487  2.8449
 2827SOL    HW219944   2.242   3.122  10.746  1.0278 -0.2533  1.0222
 2828SOL     OW19945   0.319   1.633   3.107 -0.1475 -0.0092  0.5826
 2828SOL    HW119946   0.339   1.660   3.196  1.2151  0.1289  0.2408
 2828SOL    HW219947   0.261   1.702   3.076  2.6540  2.9168  1.8684
 2829SOL     OW19948   0.582   1.831   2.520  0.0504  0.4862  1.0183
 2829SOL    HW119949   0.624   1.814   2.604 -0.0847 -0.6962  0.8431
 2829SOL    HW219950   0.491   1.826   2.549 -0.7432 -1.2719 -1.7425
 2830SOL     OW19951   4.004   1.264  15.319  0.5065  0.2131 -0.2392
 2830SOL    HW119952   3.999   1.316  15.240  2.7605  1.3926  0.3961
 2830SOL    HW219953   3.969   1.332  15.377  0.2564  0.1638 -0.3337
 2831SOL     OW19954   1.524   1.698   5.631 -0.2602 -0.0691  0.5498
 2831SOL    HW119955   1.587   1.769   5.640  0.5967 -0.7500 -0.0802
 2831SOL    HW219956   1.475   1.716   5.550 -0.2863  0.8713  0.7710
 2832SOL     OW19957   3.693   1.252   1.987 -0.1814 -0.4040  0.1404
 2832SOL    HW119958   3.616   1.218   2.033 -0.5658  0.7733  0.3893
 2832SOL    HW219959   3.747   1.177   1.964  0.3468 -0.3753  1.2909
 2833SOL     OW19960   1.573   0.018   7.457  0.4723 -0.2067  0.2564
 2833SOL    HW119961   1.584   0.107   7.489  1.0040 -0.1709 -0.0318
 2833SOL    HW219962   1.510   0.042   7.388  2.1074  3.2587 -0.0184
 2834SOL     OW19963   2.009   1.263  10.993  0.4345  0.0718  0.3934
 2834SOL    HW119964   2.017   1.352  11.027 -0.0469  0.5625 -0.8066
 2834SOL    HW219965   2.054   1.211  11.061  3.3413  2.1816  0.1051
 2835SOL     OW19966   1.796   1.493  13.070  0.4582 -0.4964  0.5896
 2835SOL    HW119967   1.831   1.445  12.995 -0.1354  1.0883 -0.6910
 2835SOL    HW219968   1.855   1.568  13.073  0.3915 -0.4647  1.1438
 2836SOL     OW19969   2.058   0.328   9.210  0.3185  0.2535  0.1639
 2836SOL    HW119970   2.061   0.408   9.262 -0.3634 -0.5057  1.3825
 2836SOL    HW219971   1.972   0.317   9.169  0.7391  0.6440 -0.8185
 2837SOL     OW19972   1.027   3.354   5.630  0.0455 -0.5762 -0.5270
 2837SOL    HW119973   0.937   3.373   5.603 -1.0754 -1.7913  2.3281
 2837SOL    HW219974   1.083   3.377   5.556  1.3372 -1.6037  0.1510
 2838SOL     OW19975   2.567   2.948   2.478  0.4583 -0.1651 -0.2854
 2838SOL    HW119976   2.491   2.925   2.424 -0.1159  2.5361 -0.6648
 2838SOL    HW219977   2.640   2.927   2.419  1.7184  2.1292  0.4366
 2839SOL     OW19978   4.410   0.817   1.230  0.2215  0.3894  0.9588
 2839SOL    HW119979   4.385   0.905   1.259  1.8202  0.0806  3.3299
 2839SOL    HW219980   4.493   0.842   1.190  0.5804 -2.8262 -0.2465
 2840SOL     OW19981   2.326   3.344   8.025 -0.7729 -0.3209 -0.0695
 2840SOL    HW119982   2.399   3.392   8.062 -1.5834 -1.0515  2.5086
 2840SOL    HW219983   2.260   3.380   8.084  0.3542  0.1204  0.9206
 2841SOL     OW19984   3.445   0.521  15.452 -0.0892 -0.7083  0.1598
 2841SOL    HW119985   3.419   0.431  15.468 -1.1157  0.1715  3.5549
 2841SOL    HW219986   3.536   0.500  15.430 -0.5513 -1.3838 -1.1139
 2842SOL     OW19987   2.787   3.449  17.311  0.2338  0.3114  0.5639
 2842SOL    HW119988   2.804   3.355  17.305 -3.0240 -0.0454 -3.4096
 2842SOL    HW219989   2.692   3.460  17.312  0.0570 -1.1186  0.1175
 2843SOL     OW19990   3.603   3.911   8.995  0.4042  0.7650  0.0567
 2843SOL    HW119991   3.590   3.816   8.999  2.0927  0.4773 -1.2234
 2843SOL    HW219992   3.529   3.944   9.046 -1.5668 -0.8876 -1.7196
 2844SOL     OW19993   2.862   3.137   0.529 -0.1629  0.9328  0.3052
 2844SOL    HW119994   2.957   3.147   0.527 -0.3375  2.3512 -0.4665
 2844SOL    HW219995   2.856   3.050   0.490 -3.2818  2.1356 -1.8627
 2845SOL     OW19996   2.036   2.324   1.231  1.0467 -0.2610 -0.5803
 2845SOL    HW119997   1.943   2.330   1.253  1.1048 -0.6997 -0.2191
 2845SOL    HW219998   2.067   2.284   1.312 -0.0622 -0.5382 -0.2879
 2846SOL     OW19999   1.389   0.650   4.565  0.1329  0.2194 -0.0490
 2846SOL    HW120000   1.354   0.561   4.561 -0.8364  0.6347 -1.0355
 2846SOL    HW220001   1.443   0.659   4.644  2.1478  0.1564 -1.4371
 2847SOL     OW20002   1.345   3.452  15.633  0.3291 -0.2160  0.5407
 2847SOL    HW120003   1.428   3.470  15.676  0.4781  1.4520 -0.4323
 2847SOL    HW220004   1.279   3.484  15.694 -1.1205  0.2523 -1.2585
 2848SOL     OW20005   3.176   3.264   1.455 -0.9073 -0.4265  0.3048
 2848SOL    HW120006   3.136   3.239   1.538  1.5414 -2.0375  0.9930
 2848SOL    HW220007   3.267   3.238   1.468 -0.4842 -0.6544 -3.3793
 2849SOL     OW20008   0.914   2.975   0.847  0.1623 -0.9556 -0.6672
 2849SOL    HW120009   0.974   2.933   0.910  0.6045  1.6262  0.6235
 2849SOL    HW220010   0.852   2.907   0.822  1.3516 -1.7562 -1.4220
 2850SOL     OW20011   1.399   4.640   1.666 -0.8081 -0.1344  0.1700
 2850SOL    HW120012   1.461   4.570   1.644  0.3601 -0.0601  3.0948
 2850SOL    HW220013   1.410   4.690   1.585  0.4062 -0.8579 -0.1213
 2851SOL     OW20014   1.569   1.411   1.435 -0.0401  0.0594  0.4374
 2851SOL    HW120015   1.537   1.322   1.442  0.5243 -0.2632 -1.0280
 2851SOL    HW220016   1.496   1.471   1.420  1.6824  1.5239 -2.3417
 2852SOL     OW20017   3.515   3.037   3.520  0.2790 -0.3144  0.4554
 2852SOL    HW120018   3.598   3.054   3.564 -0.6612  0.0267  2.1203
 2852SOL    HW220019   3.506   2.942   3.520  2.1060 -0.4764 -2.5287
 2853SOL     OW20020   3.659   3.784   1.243 -0.2605  0.1365  0.0872
 2853SOL    HW120021   3.595   3.848   1.274 -1.6980 -0.9340 -0.6986
 2853SOL    HW220022   3.729   3.839   1.207 -2.3728  2.0387 -1.1134
 2854SOL     OW20023   1.454   2.278   2.753  0.0751  0.3019  0.4369
 2854SOL    HW120024   1.468   2.185   2.771  0.6932  0.4060  0.5042
 2854SOL    HW220025   1.359   2.266   2.754 -0.1833  2.2407 -0.8432
 2855SOL     OW20026   3.611   3.272  12.675  0.6014  0.1657  0.3265
 2855SOL    HW120027   3.529   3.222  12.683  0.2782  0.6685  0.1991
 2855SOL    HW220028   3.636   3.255  12.584 -2.9513 -3.7739  0.0585
 2856SOL     OW20029   2.247   2.791  16.486 -0.3976  0.2987 -0.8961
 2856SOL    HW120030   2.253   2.714  16.543 -2.1663  0.3123 -0.6900
 2856SOL    HW220031   2.325   2.786  16.430  0.4485  0.7797  0.2281
 2857SOL     OW20032   2.292   4.222  16.519  0.0928 -0.3050  0.1538
 2857SOL    HW120033   2.322   4.166  16.448 -1.3777 -1.4717  0.4501
 2857SOL    HW220034   2.348   4.300  16.509  0.8162 -0.4644  2.7576
 2858SOL     OW20035   4.356   3.517  17.244 -0.1948  0.0875 -0.4913
 2858SOL    HW120036   4.354   3.534  17.150  0.4198  0.8616 -0.3629
 2858SOL    HW220037   4.416   3.584  17.276 -0.9049 -0.0300  1.1068
 2859SOL     OW20038   4.368   1.388   8.589 -0.0690 -0.3406  0.1452
 2859SOL    HW120039   4.296   1.402   8.650 -1.3689  1.3674 -1.7868
 2859SOL    HW220040   4.435   1.354   8.648  0.8936  0.9945 -0.1783
 2860SOL     OW20041   3.784   0.132   7.231 -0.4439 -0.1828  0.1271
 2860SOL    HW120042   3.748   0.054   7.187 -2.0969  1.2698 -1.0999
 2860SOL    HW220043   3.793   0.194   7.158 -1.1415 -1.1192 -0.7732
 2861SOL     OW20044   2.075   2.863   5.283  0.2435  0.0913  0.0917
 2861SOL    HW120045   2.110   2.890   5.368  1.2921  0.4300 -0.4520
 2861SOL    HW220046   1.992   2.823   5.310  0.1361  1.7462  2.2441
 2862SOL     OW20047   3.252   2.525   2.965 -0.3059 -0.2873  0.1246
 2862SOL    HW120048   3.211   2.462   2.905 -3.2128 -1.6860  3.5851
 2862SOL    HW220049   3.184   2.549   3.027 -1.7364 -1.7204 -0.8897
 2863SOL     OW20050   0.864   3.705  13.367  0.1219 -0.7611 -0.5380
 2863SOL    HW120051   0.790   3.656  13.403  0.1076 -0.0664  0.3926
 2863SOL    HW220052   0.861   3.785  13.419  0.4602  0.3281 -2.1855
 2864SOL     OW20053   3.780   2.210   0.775  0.3244  0.2742  0.1780
 2864SOL    HW120054   3.759   2.300   0.749 -0.5772  0.7914  2.5996
 2864SOL    HW220055   3.707   2.195   0.836  0.2599  2.2772  0.6171
 2865SOL     OW20056   2.860   3.997  15.412  0.2836 -0.1832 -0.3685
 2865SOL    HW120057   2.895   3.984  15.500  2.4856 -2.3501 -1.5398
 2865SOL    HW220058   2.812   4.079  15.425 -0.1830 -0.5184  0.0081
 2866SOL     OW20059   4.199   3.934   2.932  0.5640 -0.6428 -0.1146
 2866SOL    HW120060   4.114   3.964   2.965  1.1191  1.8857 -0.9772
 2866SOL    HW220061   4.226   3.854   2.977  1.0529 -0.3599  0.0957
 2867SOL     OW20062   2.891   1.041   7.988  0.0601  0.1074 -0.1195
 2867SOL    HW120063   2.969   1.014   7.940  0.4158  0.8305  0.0351
 2867SOL    HW220064   2.844   1.076   7.912  0.5483  0.9972 -0.0247
 2868SOL     OW20065   1.339   1.463  17.505  0.6558  0.3357  0.2225
 2868SOL    HW120066   1.307   1.531  17.564 -0.8020 -0.4348  0.3182
 2868SOL    HW220067   1.424   1.440  17.543  1.7554  1.0346 -1.7900
 2869SOL     OW20068   3.957   2.217   7.636  0.5540 -0.2609  0.0640
 2869SOL    HW120069   3.981   2.124   7.636  2.3393  0.1917 -0.4867
 2869SOL    HW220070   3.998   2.243   7.553 -0.8876  0.9055 -0.2802
 2870SOL     OW20071   3.805   2.008   8.708  0.1048  0.5020 -0.3388
 2870SOL    HW120072   3.858   2.010   8.788 -2.6295  1.2058  1.4616
 2870SOL    HW220073   3.726   2.004   8.761  0.9713 -1.7791  0.8031
 2871SOL     OW20074   2.696   1.331   9.913 -0.4946  0.1868  0.2389
 2871SOL    HW120075   2.736   1.356   9.830  0.9806 -0.5716  0.7065
 2871SOL    HW220076   2.709   1.237   9.907 -1.2510  0.0051  1.3661
 2872SOL     OW20077   3.339   2.476  16.936  0.2757  0.5537 -0.3921
 2872SOL    HW120078   3.329   2.560  16.891  0.5663 -0.5721 -2.5069
 2872SOL    HW220079   3.280   2.487  17.011 -1.0336 -1.1865 -1.1766
 2873SOL     OW20080   3.106   1.281   7.713  0.0086  0.2257 -0.1392
 2873SOL    HW120081   3.172   1.348   7.729  1.3614 -0.9348 -0.8488
 2873SOL    HW220082   3.154   1.199   7.702  2.3104  1.7545 -1.5690
 2874SOL     OW20083   0.215   2.289  11.055 -0.4423 -0.1537 -0.9155
 2874SOL    HW120084   0.161   2.220  11.094  1.7291 -0.5337  1.3967
 2874SOL    HW220085   0.162   2.296  10.975 -1.1268 -1.7911 -0.6053
 2875SOL     OW20086   4.416   3.231   5.160 -0.6870 -0.8317  0.0512
 2875SOL    HW120087   4.465   3.298   5.113  0.1887 -0.8691  0.9371
 2875SOL    HW220088   4.435   3.247   5.252 -1.7592 -0.0311  0.1325
 2876SOL     OW20089   2.037   0.177   5.699  0.1715 -0.0204 -0.0903
 2876SOL    HW120090   1.981   0.117   5.748  0.9630  0.4226  1.3917
 2876SOL    HW220091   2.052   0.244   5.767 -2.4586  1.5882 -1.1006
 2877SOL     OW20092   3.086   3.030   5.964 -0.0171  0.0016  0.2638
 2877SOL    HW120093   2.999   3.069   5.971  1.4859  2.7190  3.9217
 2877SOL    HW220094   3.129   3.061   6.043  0.7368 -2.0510  0.6385
 2878SOL     OW20095   4.520   1.559   8.448 -0.2552  0.1300 -0.5698
 2878SOL    HW120096   4.446   1.501   8.433 -0.5489  0.1323  0.9587
 2878SOL    HW220097   4.598   1.504   8.447  0.6107  1.2949  2.2414
 2879SOL     OW20098   1.267   1.800  13.290 -0.0826  0.3504  0.6263
 2879SOL    HW120099   1.243   1.778  13.200  2.0576  0.2936  0.0631
 2879SOL    HW220100   1.288   1.892  13.275 -1.7957  0.4660 -0.9363
 2880SOL     OW20101   3.712   3.270   6.662 -0.1810 -0.1884  0.1726
 2880SOL    HW120102   3.729   3.346   6.718  0.5375 -1.5425  1.7981
 2880SOL    HW220103   3.800   3.238   6.640  1.0543  0.6516  3.8731
 2881SOL     OW20104   3.635   0.802  17.208 -0.5571 -0.0655 -0.2684
 2881SOL    HW120105   3.658   0.787  17.117 -0.2017  0.3132 -0.2390
 2881SOL    HW220106   3.598   0.719  17.238 -2.0045  1.2566  1.6318
 2882SOL     OW20107   4.500   2.862   6.119  0.1533 -0.3099 -0.2846
 2882SOL    HW120108   4.434   2.931   6.108 -0.6375 -1.1814 -1.0123
 2882SOL    HW220109   4.543   2.858   6.034  0.9533 -1.9248  0.2148
 2883SOL     OW20110   1.096   0.987   1.740  0.3539  0.4174 -0.5582
 2883SOL    HW120111   1.099   1.073   1.782 -1.5802  1.4448 -2.4676
 2883SOL    HW220112   1.016   0.990   1.687  0.1858 -1.4678 -0.3971
 2884SOL     OW20113   0.335   4.482   6.800  0.1131 -0.2486 -0.2708
 2884SOL    HW120114   0.367   4.522   6.719 -2.7884  2.5797 -0.0252
 2884SOL    HW220115   0.243   4.465   6.781 -0.3119 -0.8996  2.2952
 2885SOL     OW20116   0.629   2.416   2.249  0.2493  0.1403 -0.1711
 2885SOL    HW120117   0.595   2.464   2.325  0.7969 -1.2544  0.9570
 2885SOL    HW220118   0.555   2.379   2.201 -0.4926 -0.5409  1.4584
 2886SOL     OW20119   3.608   2.156   1.123  0.2825 -0.0366 -0.2396
 2886SOL    HW120120   3.685   2.213   1.126 -0.1691  0.5871 -0.4206
 2886SOL    HW220121   3.557   2.194   1.051  0.1766 -3.3588 -1.8951
 2887SOL     OW20122   2.779   2.486  12.105 -0.3905 -0.2251 -0.0934
 2887SOL    HW120123   2.727   2.412  12.075 -0.9075  0.1566 -0.1255
 2887SOL    HW220124   2.731   2.552  12.154  1.9570  0.0982  1.8166
 2888SOL     OW20125   3.758   1.153   3.403  0.1081 -0.4673 -0.5689
 2888SOL    HW120126   3.764   1.221   3.470 -0.7750 -1.3265  0.3919
 2888SOL    HW220127   3.813   1.184   3.332 -0.0285 -1.7680 -1.2501
 2889SOL     OW20128   1.249   2.489   9.598  0.2219 -0.2987  0.1861
 2889SOL    HW120129   1.197   2.557   9.640 -0.1941 -0.2850 -0.3492
 2889SOL    HW220130   1.230   2.422   9.663 -0.9112  1.1345  1.3207
 2890SOL     OW20131   1.032   3.426   7.996  0.0760 -0.2001  0.0866
 2890SOL    HW120132   1.114   3.465   8.024  0.1810 -1.2099  1.2236
 2890SOL    HW220133   1.066   3.354   7.942 -0.3850 -0.4354  0.1054
 2891SOL     OW20134   2.951   1.725   3.738  0.2854 -0.3604  0.0501
 2891SOL    HW120135   2.902   1.669   3.799 -0.1013 -0.0445  0.0325
 2891SOL    HW220136   3.029   1.730   3.792 -1.0667 -0.0590  2.0007
 2892SOL     OW20137   4.230   2.273  17.203 -0.2998  0.2946  0.3606
 2892SOL    HW120138   4.324   2.263  17.193 -0.1333  0.8825  1.3041
 2892SOL    HW220139   4.203   2.183  17.189  2.7963 -0.8152  1.5663
 2893SOL     OW20140   0.881   0.160   8.478  0.1327 -0.4049 -0.0945
 2893SOL    HW120141   0.811   0.191   8.534  0.0380 -2.4003  0.8860
 2893SOL    HW220142   0.953   0.181   8.537 -1.2010 -1.0239  1.7239
 2894SOL     OW20143   1.718   0.071   9.016  0.7586 -0.0139 -0.3173
 2894SOL    HW120144   1.751   0.063   9.105  1.4707  3.3350 -0.2889
 2894SOL    HW220145   1.650   0.138   9.023  0.5329 -0.2483 -0.2604
 2895SOL     OW20146   0.874   2.657   9.420 -0.9086  0.3999 -0.2773
 2895SOL    HW120147   0.879   2.640   9.514  0.5095  0.0120 -0.4263
 2895SOL    HW220148   0.796   2.611   9.389 -0.2691  0.1456 -1.5254
 2896SOL     OW20149   1.535   3.785   9.046  0.8025 -0.6061 -0.3118
 2896SOL    HW120150   1.614   3.824   9.083 -0.1977 -0.2288  1.4237
 2896SOL    HW220151   1.551   3.783   8.952  1.3755  0.3271 -0.2382
 2897SOL     OW20152   0.647   0.221   6.659 -0.7901  0.1092  0.0241
 2897SOL    HW120153   0.639   0.307   6.700  0.6439  0.3884 -0.2838
 2897SOL    HW220154   0.742   0.224   6.652 -0.7769 -0.4800 -0.0177
 2898SOL     OW20155   2.799   2.728   0.219 -0.4660 -0.4482 -0.6176
 2898SOL    HW120156   2.834   2.788   0.285 -0.7635 -0.3679 -0.5300
 2898SOL    HW220157   2.870   2.731   0.154  0.6277  0.5449  0.6305
 2899SOL     OW20158   3.273   4.295   8.008 -0.4027 -0.2431 -0.6047
 2899SOL    HW120159   3.280   4.346   8.089  0.2734  1.6482 -1.8467
 2899SOL    HW220160   3.297   4.204   8.026  0.6704  0.0164 -0.7250
 2900SOL     OW20161   4.212   3.324   6.135  0.1379 -0.0503 -0.1408
 2900SOL    HW120162   4.233   3.352   6.224  1.4706 -0.1090 -0.4355
 2900SOL    HW220163   4.210   3.411   6.094 -0.0184 -1.0897 -2.3418
 2901SOL     OW20164   1.866   1.157  16.647 -0.3941  0.3701 -0.0148
 2901SOL    HW120165   1.907   1.133  16.563  0.0170  2.7165 -0.4921
 2901SOL    HW220166   1.922   1.226  16.682  0.0976 -1.5895  3.0390
 2902SOL     OW20167   0.211   1.994   7.460  0.2513 -0.1138 -0.7607
 2902SOL    HW120168   0.159   2.074   7.452  1.2179  0.1764 -4.0134
 2902SOL    HW220169   0.150   1.950   7.519  1.2012  0.4244  0.6171
 2903SOL     OW20170   1.351   0.650   3.239  0.4729 -0.5870  0.0139
 2903SOL    HW120171   1.284   0.714   3.216  0.9427  0.3473  1.1965
 2903SOL    HW220172   1.332   0.572   3.188 -1.2786 -0.4558  0.4779
 2904SOL     OW20173   3.373   1.204  10.210 -0.2082  0.5644 -0.1880
 2904SOL    HW120174   3.397   1.291  10.240  1.9504  0.2689 -1.0196
 2904SOL    HW220175   3.335   1.221  10.124  0.1770  0.6045 -0.3516
 2905SOL     OW20176   0.305   2.088   1.155 -0.0640  0.4916  0.5631
 2905SOL    HW120177   0.325   2.091   1.249 -0.4608  2.1002  0.6075
 2905SOL    HW220178   0.370   2.022   1.132 -0.5786  0.2670 -0.2359
 2906SOL     OW20179   3.593   2.213  17.108 -0.5084  0.1436  0.4416
 2906SOL    HW120180   3.654   2.156  17.062 -0.0093  1.0538 -0.0454
 2906SOL    HW220181   3.655   2.283  17.130  1.6055 -1.4334 -0.5264
 2907SOL     OW20182   3.039   1.877   2.767  0.6080  0.3165  0.6059
 2907SOL    HW120183   3.010   1.924   2.845  4.0243  2.4996  0.5414
 2907SOL    HW220184   3.062   1.949   2.708  2.8734 -1.3474 -0.5398
 2908SOL     OW20185   0.816   2.444   6.801 -0.0958  0.0346  0.3581
 2908SOL    HW120186   0.786   2.532   6.823 -2.0942 -0.6262  0.3152
 2908SOL    HW220187   0.900   2.463   6.760  0.6237 -1.7033  1.0559
 2909SOL     OW20188   3.783   0.515  15.740 -0.2472  0.0703  0.2872
 2909SOL    HW120189   3.856   0.524  15.802  0.2588  2.6643 -0.7123
 2909SOL    HW220190   3.718   0.480  15.801 -2.4647  1.5768 -1.2115
 2910SOL     OW20191   2.104   1.379   4.955  0.4954  0.4966 -0.2076
 2910SOL    HW120192   2.198   1.383   4.938  0.3011  0.7320 -1.1929
 2910SOL    HW220193   2.104   1.455   5.013  0.1997  1.0427 -0.9259
 2911SOL     OW20194   4.129   3.323   2.703  0.4201 -0.5041 -0.1312
 2911SOL    HW120195   4.206   3.274   2.672  0.5425  0.3701 -1.2167
 2911SOL    HW220196   4.069   3.296   2.634  0.1685 -0.4168  0.0572
 2912SOL     OW20197   3.313   0.874  17.603  0.1053 -0.3375  0.2148
 2912SOL    HW120198   3.386   0.889  17.663  0.8103 -1.1842 -0.4361
 2912SOL    HW220199   3.351   0.909  17.522  1.2870 -0.4849  0.7142
 2913SOL     OW20200   3.509   4.377   4.862 -0.6845 -1.0344  0.0511
 2913SOL    HW120201   3.582   4.406   4.807 -0.3506 -0.8018  0.6168
 2913SOL    HW220202   3.560   4.334   4.930  0.1752  0.5801  0.4429
 2914SOL     OW20203   0.840   2.291   3.707 -0.1385 -0.2598  0.7469
 2914SOL    HW120204   0.840   2.358   3.775  1.1609  1.2576 -0.7567
 2914SOL    HW220205   0.932   2.266   3.705 -0.3906 -1.2039  0.8522
 2915SOL     OW20206   0.066   0.857   2.530 -0.0240  0.5671 -0.3957
 2915SOL    HW120207   0.133   0.879   2.595 -0.8383 -1.2541  1.0876
 2915SOL    HW220208   0.083   0.920   2.460  1.4754 -0.0919 -0.6321
 2916SOL     OW20209   2.152   4.412   9.362 -0.3862  0.5110  0.0770
 2916SOL    HW120210   2.206   4.482   9.324 -2.3513  0.6128 -2.5651
 2916SOL    HW220211   2.088   4.469   9.403  0.7752  0.0943  2.4947
 2917SOL     OW20212   2.475   4.273   1.210  0.2383 -0.7291 -0.2898
 2917SOL    HW120213   2.522   4.356   1.206 -0.1625 -0.4655  0.5780
 2917SOL    HW220214   2.409   4.294   1.275 -0.1940 -0.3866 -0.8326
 2918SOL     OW20215   3.824   3.578   5.630  0.0773  0.0918 -0.1733
 2918SOL    HW120216   3.891   3.531   5.681  0.4570  1.4573  0.5917
 2918SOL    HW220217   3.837   3.666   5.666 -0.2409 -0.3781  1.0896
 2919SOL     OW20218   0.269   3.699   9.466 -0.5357 -0.6929  0.2641
 2919SOL    HW120219   0.218   3.776   9.491 -1.1740 -0.3489 -2.1039
 2919SOL    HW220220   0.350   3.741   9.498 -0.7649 -0.8244  1.0094
 2920SOL     OW20221   1.763   3.215   1.910  0.6708 -0.1192  0.4794
 2920SOL    HW120222   1.802   3.290   1.955  1.2505 -0.4447  0.5035
 2920SOL    HW220223   1.674   3.244   1.889  0.5980 -0.1824  0.6906
 2921SOL     OW20224   2.426   4.379   3.564  0.0141  0.3921  0.0281
 2921SOL    HW120225   2.391   4.300   3.607  2.1824  0.5315  2.0229
 2921SOL    HW220226   2.343   4.418   3.535 -0.5385  0.4277  1.6700
 2922SOL     OW20227   4.114   1.398  11.150 -0.0627 -0.1276 -0.2730
 2922SOL    HW120228   4.079   1.311  11.169  2.9727 -1.3199 -0.2108
 2922SOL    HW220229   4.201   1.386  11.188 -0.8315 -0.7289  1.3184
 2923SOL     OW20230   4.350   0.380   1.673 -0.2495 -0.4432  0.3019
 2923SOL    HW120231   4.382   0.465   1.704  1.3121  0.0574 -2.5980
 2923SOL    HW220232   4.401   0.375   1.592  2.5381  2.5486  1.8729
 2924SOL     OW20233   3.370   4.482   3.603  0.6833 -0.5682 -0.6190
 2924SOL    HW120234   3.445   4.501   3.659 -1.0007 -0.6647  1.6966
 2924SOL    HW220235   3.403   4.404   3.560  0.0028 -1.4089  0.3806
 2925SOL     OW20236   3.898   1.501   8.233 -0.2567  0.6309 -0.0759
 2925SOL    HW120237   3.923   1.409   8.239 -0.7435  0.5512  0.8985
 2925SOL    HW220238   3.966   1.534   8.175 -0.2890 -1.0023 -1.0273
 2926SOL     OW20239   0.626   3.987   3.139 -0.4701 -0.3019 -0.1727
 2926SOL    HW120240   0.532   3.993   3.158  0.1168 -3.7335  3.8790
 2926SOL    HW220241   0.622   4.033   3.055 -0.3855 -1.9407 -1.0734
 2927SOL     OW20242   1.024   1.029   7.616  0.4453 -0.4298  0.2462
 2927SOL    HW120243   0.935   1.018   7.650 -0.1684  0.0709 -1.1846
 2927SOL    HW220244   1.057   0.940   7.626  1.7901  0.1947  1.3574
 2928SOL     OW20245   1.726   4.401   2.538 -0.7399 -0.2193 -0.0480
 2928SOL    HW120246   1.818   4.379   2.549 -0.3244  1.9838  0.7278
 2928SOL    HW220247   1.732   4.496   2.530 -0.2990 -0.2480 -0.0372
 2929SOL     OW20248   1.111   1.663  15.652 -0.1616 -0.4892 -0.4914
 2929SOL    HW120249   1.121   1.575  15.688 -0.8923 -0.7399 -0.8919
 2929SOL    HW220250   1.035   1.695  15.701 -0.1506  0.2488 -0.9553
 2930SOL     OW20251   3.053   3.589   6.438  0.7951  0.1188  0.0244
 2930SOL    HW120252   2.972   3.547   6.413  0.5421  0.2202  0.6764
 2930SOL    HW220253   3.085   3.523   6.498  0.0694 -0.4139 -0.1846
 2931SOL     OW20254   3.549   2.102   1.380  0.5548 -0.4850  0.4210
 2931SOL    HW120255   3.511   2.180   1.420 -1.2294 -1.4868  0.6647
 2931SOL    HW220256   3.569   2.126   1.289  1.4217  1.4334  1.1162
 2932SOL     OW20257   2.149   0.482  10.325  0.0740  0.5476  0.3127
 2932SOL    HW120258   2.105   0.461  10.408  0.1749  0.0708  0.2479
 2932SOL    HW220259   2.165   0.393  10.293 -1.2035  0.0170  1.1199
 2933SOL     OW20260   4.581   3.307   6.775 -0.1062  0.9550  0.1269
 2933SOL    HW120261   4.494   3.274   6.754  0.0986 -0.7247  1.9198
 2933SOL    HW220262   4.606   3.353   6.694  1.2122 -0.5391 -0.3233
 2934SOL     OW20263   2.998   2.181   6.700 -0.1116  0.6708 -0.2046
 2934SOL    HW120264   2.918   2.197   6.650  0.5787 -0.4550 -1.6847
 2934SOL    HW220265   3.004   2.085   6.696  2.6215  0.8030  1.0200
 2935SOL     OW20266   0.668   1.133   3.739  0.4521 -0.1211 -0.2814
 2935SOL    HW120267   0.595   1.114   3.798  1.5337 -1.2964  0.6699
 2935SOL    HW220268   0.628   1.109   3.655  0.8745 -0.0303 -0.5075
 2936SOL     OW20269   1.898   0.147   3.692 -0.4133  1.0306  0.2819
 2936SOL    HW120270   1.942   0.224   3.657  0.2018  0.1124 -0.9521
 2936SOL    HW220271   1.874   0.096   3.615 -1.9679  0.7039  0.9834
 2937SOL     OW20272   4.658   2.664   8.106  0.5992  0.4847  0.0447
 2937SOL    HW120273   4.638   2.631   8.193  1.1265  0.6104  0.2124
 2937SOL    HW220274   4.651   2.592   8.043 -1.1231 -0.5754  1.4637
 2938SOL     OW20275   3.249   2.218  11.215  0.4340  0.3258  0.2221
 2938SOL    HW120276   3.330   2.205  11.265  1.0142 -1.4829 -1.1738
 2938SOL    HW220277   3.186   2.241  11.284  0.2800  0.1042  0.1549
 2939SOL     OW20278   1.099   3.194  12.704 -0.7334  0.2590  0.0009
 2939SOL    HW120279   1.115   3.238  12.788  2.6030 -1.4505  0.2531
 2939SOL    HW220280   1.013   3.226  12.676 -1.3379 -0.7985  0.6388
 2940SOL     OW20281   4.164   1.397   6.461 -0.0841 -0.5400  0.1116
 2940SOL    HW120282   4.178   1.305   6.487 -0.7189  0.1284  2.7588
 2940SOL    HW220283   4.250   1.434   6.439 -0.4547  0.1720 -0.1040
 2941SOL     OW20284   0.293   0.796   8.559  0.1394 -0.0850  0.3876
 2941SOL    HW120285   0.339   0.769   8.639  0.8013 -0.0982  0.0072
 2941SOL    HW220286   0.363   0.851   8.522  0.2002 -0.8993 -0.7247
 2942SOL     OW20287   4.466   4.106   4.209  0.2479  0.1210  0.0716
 2942SOL    HW120288   4.522   4.114   4.133 -1.1296  4.5251 -0.5260
 2942SOL    HW220289   4.430   4.018   4.207  1.0631 -0.2368  1.2495
 2943SOL     OW20290   4.223   1.262  17.623 -0.0587  0.7609  0.7579
 2943SOL    HW120291   4.227   1.220  17.537 -0.6187  2.4506 -0.0858
 2943SOL    HW220292   4.268   1.196  17.677 -0.1174 -0.0472 -0.1790
 2944SOL     OW20293   3.911   0.785   4.228  0.1681  0.4695 -0.1977
 2944SOL    HW120294   3.850   0.728   4.274 -2.4907  3.4971  0.0283
 2944SOL    HW220295   3.972   0.718   4.197 -0.7354 -0.0702 -0.8178
 2945SOL     OW20296   2.425   2.224  11.480 -0.2145  0.1871  0.1075
 2945SOL    HW120297   2.514   2.187  11.479 -0.8604 -1.3531 -0.7995
 2945SOL    HW220298   2.434   2.300  11.423 -0.0253 -0.0419 -0.1676
 2946SOL     OW20299   4.516   1.096  15.994  0.5977 -0.2033  0.0220
 2946SOL    HW120300   4.469   1.028  15.945 -1.0296  2.1157 -1.6329
 2946SOL    HW220301   4.480   1.079  16.081  1.3127 -0.3304  0.2904
 2947SOL     OW20302   0.530   3.724  10.186 -0.1351  0.0913  0.3502
 2947SOL    HW120303   0.555   3.696  10.098 -0.4103  0.6244  0.1027
 2947SOL    HW220304   0.532   3.637  10.227  1.0246  1.6138  3.4616
 2948SOL     OW20305   1.913   0.420   4.645 -0.0437 -0.4326 -0.6790
 2948SOL    HW120306   1.878   0.501   4.607 -0.1158 -0.6148 -1.0035
 2948SOL    HW220307   1.992   0.459   4.684 -0.8430  2.3465 -1.8367
 2949SOL     OW20308   0.135   1.814   5.476  0.1136 -0.1331 -0.1574
 2949SOL    HW120309   0.128   1.896   5.428 -1.2027 -1.1286 -1.6813
 2949SOL    HW220310   0.101   1.830   5.564 -1.3191 -2.1781 -0.3238
 2950SOL     OW20311   3.189   4.161   6.964 -0.2865  0.9170 -0.6494
 2950SOL    HW120312   3.231   4.115   6.892 -0.0385  0.1765 -0.0250
 2950SOL    HW220313   3.123   4.214   6.918 -0.4797  2.8554  1.8767
 2951SOL     OW20314   4.482   0.678   2.106  0.1898  0.0242  0.7860
 2951SOL    HW120315   4.518   0.606   2.054  0.0132  0.0061  0.6851
 2951SOL    HW220316   4.559   0.696   2.158  0.9702 -0.0001 -0.3551
 2952SOL     OW20317   3.587   0.833  10.042  0.2940 -0.1083 -0.1473
 2952SOL    HW120318   3.527   0.907  10.045  0.1618 -0.2445  0.7393
 2952SOL    HW220319   3.668   0.884  10.044  0.7223 -0.7657 -0.8256
 2953SOL     OW20320   1.526   2.497   9.650 -0.4866  0.1602 -0.1011
 2953SOL    HW120321   1.435   2.519   9.635 -0.2780 -1.2029 -3.4217
 2953SOL    HW220322   1.565   2.579   9.679 -0.8266 -0.4428  2.1009
 2954SOL     OW20323   4.318   3.810   5.314  0.4053 -0.2798  0.3815
 2954SOL    HW120324   4.274   3.882   5.269 -1.1079 -1.0831  0.5691
 2954SOL    HW220325   4.410   3.835   5.310  0.0591  1.1959  1.3636
 2955SOL     OW20326   0.157   1.596   8.607  0.1105  0.4600 -0.5742
 2955SOL    HW120327   0.223   1.536   8.644 -1.6140 -0.8181  0.4425
 2955SOL    HW220328   0.132   1.661   8.673  2.2659  0.2716  0.4308
 2956SOL     OW20329   3.343   4.140   2.160  0.2815 -0.1710 -0.5639
 2956SOL    HW120330   3.322   4.155   2.068  0.1066  1.3755 -0.2633
 2956SOL    HW220331   3.380   4.051   2.159 -0.2774 -0.4021 -0.7893
 2957SOL     OW20332   2.540   0.431  14.716  0.0466 -0.2647 -0.0839
 2957SOL    HW120333   2.485   0.504  14.746  0.5404  0.3681 -0.7256
 2957SOL    HW220334   2.625   0.475  14.722 -0.2841  0.4543 -0.7700
 2958SOL     OW20335   2.521   1.164   6.473 -0.5514 -0.4341  0.4198
 2958SOL    HW120336   2.576   1.225   6.523  1.9103 -2.3657  0.0659
 2958SOL    HW220337   2.469   1.228   6.424  1.1996  1.5828  1.1810
 2959SOL     OW20338   4.180   4.001   1.897 -0.6005 -0.2599 -0.2482
 2959SOL    HW120339   4.233   4.055   1.955  0.0677 -1.3461  0.1692
 2959SOL    HW220340   4.149   3.932   1.956 -0.1772  0.6382  1.0050
 2960SOL     OW20341   2.129   4.508   0.708 -0.5340  0.2861 -0.0587
 2960SOL    HW120342   2.198   4.540   0.650 -0.0838 -1.4429 -0.4843
 2960SOL    HW220343   2.053   4.560   0.684  0.3062  0.5568 -2.1251
 2961SOL     OW20344   4.024   3.202   5.004 -0.9717 -0.2350  0.0243
 2961SOL    HW120345   3.950   3.258   4.981 -0.3872  0.3057 -0.5494
 2961SOL    HW220346   4.046   3.234   5.091  0.4945 -0.3552 -0.3032
 2962SOL     OW20347   4.280   4.023   8.496  0.4187 -1.1454  0.0662
 2962SOL    HW120348   4.299   3.960   8.427 -1.4286  0.0605 -1.5457
 2962SOL    HW220349   4.293   3.971   8.575 -2.1064  0.8049  1.7839
 2963SOL     OW20350   2.227   1.470   4.233 -0.7814 -0.0941 -0.7279
 2963SOL    HW120351   2.142   1.436   4.204 -1.0761  0.6460 -0.7344
 2963SOL    HW220352   2.240   1.554   4.190 -0.1294  0.3271  0.3018
 2964SOL     OW20353   4.602   1.167  14.901 -1.1175 -0.1120 -0.4564
 2964SOL    HW120354   4.658   1.136  14.830 -1.0310 -1.9538  0.3986
 2964SOL    HW220355   4.531   1.205  14.850 -1.5229  0.6629  0.6657
 2965SOL     OW20356   4.655   4.548   3.673 -0.0911  0.0366  0.3549
 2965SOL    HW120357   4.697   4.502   3.600 -0.3118 -0.3253  0.4574
 2965SOL    HW220358   4.711   4.626   3.672  1.0732 -0.7980  1.6927
 2966SOL     OW20359   3.371   0.119   2.681  0.1500 -0.0654  0.6976
 2966SOL    HW120360   3.421   0.148   2.758  1.7163 -1.4606  0.2068
 2966SOL    HW220361   3.286   0.110   2.724  0.1824 -2.1647  0.3152
 2967SOL     OW20362   4.376   2.438   8.825 -0.5806  0.0301  0.0470
 2967SOL    HW120363   4.439   2.368   8.841  0.8891  1.2334 -0.4241
 2967SOL    HW220364   4.328   2.432   8.908  1.6994  1.2059  1.4648
 2968SOL     OW20365   4.585   3.805   9.038 -0.0363  0.6014 -0.0371
 2968SOL    HW120366   4.560   3.720   9.075 -0.0496 -0.6184 -2.7830
 2968SOL    HW220367   4.675   3.815   9.067  0.1733  0.6161 -0.6762
 2969SOL     OW20368   3.482   4.348  16.376 -0.1934 -0.2455 -0.0690
 2969SOL    HW120369   3.449   4.391  16.296 -1.2115  0.9075  0.9590
 2969SOL    HW220370   3.536   4.417  16.414  0.7024 -0.3397 -1.1569
 2970SOL     OW20371   2.975   4.244   7.896 -0.2749 -0.0225  0.4442
 2970SOL    HW120372   3.058   4.218   7.936  1.0724  1.5846 -1.3387
 2970SOL    HW220373   2.983   4.214   7.805 -3.5968  0.8028 -0.1255
 2971SOL     OW20374   1.663   2.101   1.066  0.0957  0.5612  0.1659
 2971SOL    HW120375   1.628   2.186   1.091  0.3676  0.1143  2.0403
 2971SOL    HW220376   1.752   2.122   1.040 -0.2844  2.8813  0.7195
 2972SOL     OW20377   3.655   4.644   6.093 -0.3580 -0.3750  0.4648
 2972SOL    HW120378   3.589   4.648   6.023  1.8844 -1.6997 -1.7023
 2972SOL    HW220379   3.717   4.715   6.074  0.9046 -1.9951 -1.4102
 2973SOL     OW20380   4.220   1.105  11.331  0.4230 -0.3142 -0.0264
 2973SOL    HW120381   4.270   1.148  11.262  0.0885 -1.1783 -0.8034
 2973SOL    HW220382   4.283   1.045  11.372  0.0754 -0.8582 -0.2943
 2974SOL     OW20383   1.260   0.825   9.320  0.0438 -0.2619 -0.3585
 2974SOL    HW120384   1.182   0.871   9.289  0.8857  0.8409 -0.8358
 2974SOL    HW220385   1.249   0.860   9.409  2.3302 -0.2865 -0.0851
 2975SOL     OW20386   1.543   1.362  11.585  0.1500  0.2241  0.1904
 2975SOL    HW120387   1.572   1.335  11.497  0.3721  3.3338 -0.6834
 2975SOL    HW220388   1.548   1.457  11.574 -1.7436  0.0760 -2.0298
 2976SOL     OW20389   1.691   1.914   9.175 -0.5025  0.2746 -0.1335
 2976SOL    HW120390   1.664   1.877   9.259  1.6752 -0.7556  0.1376
 2976SOL    HW220391   1.623   1.981   9.176  0.0463  0.8499 -1.1592
 2977SOL     OW20392   3.976   4.145   1.783 -0.1674 -0.3375 -0.4769
 2977SOL    HW120393   3.902   4.087   1.767 -0.4975 -0.6370  2.1849
 2977SOL    HW220394   4.035   4.079   1.819  0.3603 -0.9984 -2.5705
 2978SOL     OW20395   1.842   4.720   7.381 -0.1545 -0.2603  0.2184
 2978SOL    HW120396   1.748   4.704   7.384  0.2339 -2.5409  0.4611
 2978SOL    HW220397   1.870   4.677   7.462 -1.2694 -2.5240 -0.5946
 2979SOL     OW20398   4.523   1.133   8.128 -0.1573 -0.1756  0.1658
 2979SOL    HW120399   4.512   1.074   8.053  0.4620  0.4175 -0.3934
 2979SOL    HW220400   4.507   1.210   8.074 -0.1136 -0.3616 -0.1108
 2980SOL     OW20401   0.193   4.134   0.864 -0.2941  0.3023  0.4054
 2980SOL    HW120402   0.098   4.133   0.856 -0.2167 -1.6385 -0.4028
 2980SOL    HW220403   0.216   4.042   0.850 -0.5781  0.2520  0.2684
 2981SOL     OW20404   4.110   2.330   5.876 -0.0513 -0.3213  0.5721
 2981SOL    HW120405   4.049   2.310   5.804 -2.0204 -1.8304  2.6586
 2981SOL    HW220406   4.087   2.422   5.893 -0.3037 -0.3515  0.3993
 2982SOL     OW20407   4.320   2.865   6.870 -0.1168  0.3169 -0.9057
 2982SOL    HW120408   4.330   2.945   6.923  0.8721 -1.1621  1.1422
 2982SOL    HW220409   4.243   2.818   6.901  0.2104  0.4978  0.1769
 2983SOL     OW20410   3.072   4.236   2.264 -0.3657  0.6272  0.0191
 2983SOL    HW120411   3.060   4.307   2.201 -1.4538  0.6323  0.2398
 2983SOL    HW220412   3.160   4.214   2.232  0.1497 -0.0445  1.9057
 2984SOL     OW20413   3.332   4.699   1.536  0.3580 -0.1972  0.0231
 2984SOL    HW120414   3.291   4.613   1.547 -1.4204  0.6543  0.0952
 2984SOL    HW220415   3.415   4.681   1.580 -0.1792 -1.7456  0.3894
 2985SOL     OW20416   4.142   1.679   5.582  0.2974  0.5930  0.2908
 2985SOL    HW120417   4.165   1.708   5.494 -1.4952  0.9531 -0.0661
 2985SOL    HW220418   4.054   1.717   5.584  0.9154  2.0923 -0.9842
 2986SOL     OW20419   1.861   1.660   2.540  0.9581  0.2739 -0.0997
 2986SOL    HW120420   1.927   1.704   2.487  0.3043 -0.3733 -1.4402
 2986SOL    HW220421   1.909   1.589   2.583  0.2187 -0.1006  0.1074
 2987SOL     OW20422   1.007   0.082   4.705 -0.0055  0.2101  0.5974
 2987SOL    HW120423   1.039   0.168   4.733 -1.3380  0.5140  1.1918
 2987SOL    HW220424   1.072   0.026   4.746 -0.3138 -0.2410  0.4687
 2988SOL     OW20425   4.207   3.711   9.112  0.3839 -0.2632  0.4339
 2988SOL    HW120426   4.134   3.649   9.108 -0.1109  0.2664  1.2430
 2988SOL    HW220427   4.283   3.655   9.129 -1.2519 -2.1921  1.4160
 2989SOL     OW20428   0.406   3.216   9.704  0.2476  0.9291 -0.7826
 2989SOL    HW120429   0.494   3.181   9.693  0.7510  1.6548  1.0606
 2989SOL    HW220430   0.419   3.309   9.721 -0.1516  1.0705 -1.2282
 2990SOL     OW20431   2.938   2.580   7.522 -0.1777  0.2793 -0.2197
 2990SOL    HW120432   2.963   2.521   7.451 -1.5251  0.5939 -0.9611
 2990SOL    HW220433   2.942   2.653   7.460 -0.7712  0.0196 -0.5655
 2991SOL     OW20434   3.967   0.044   5.316 -0.0856 -0.4238 -0.0351
 2991SOL    HW120435   4.020   0.124   5.316  1.2071 -1.2815  0.2893
 2991SOL    HW220436   3.986   0.007   5.230  2.2597  2.1162 -0.5858
 2992SOL     OW20437   1.178   4.090   4.804  0.1617 -0.0201 -0.4748
 2992SOL    HW120438   1.233   4.130   4.737 -1.7059  0.7859 -1.5319
 2992SOL    HW220439   1.101   4.144   4.787  0.3008 -0.4018 -2.2540
 2993SOL     OW20440   2.130   4.157   5.396  0.4949  0.5641 -0.2068
 2993SOL    HW120441   2.194   4.094   5.428  1.8998  1.8658 -0.4614
 2993SOL    HW220442   2.152   4.222   5.463  3.4971 -0.4878 -0.1885
 2994SOL     OW20443   0.848   0.888   0.243  0.8191  0.3729  0.0240
 2994SOL    HW120444   0.821   0.956   0.305 -0.2557  0.0674 -0.0945
 2994SOL    HW220445   0.941   0.889   0.262  0.1749  0.0147  3.2674
 2995SOL     OW20446   1.176   1.362   4.138  0.2996 -0.0161  0.6740
 2995SOL    HW120447   1.238   1.291   4.123 -0.6160 -0.5605 -0.5347
 2995SOL    HW220448   1.180   1.365   4.233  0.9879 -2.6875  0.7310
 2996SOL     OW20449   0.108   2.485  12.480 -0.3479  0.6535  0.3566
 2996SOL    HW120450   0.055   2.473  12.559  1.5208 -2.3794  1.1699
 2996SOL    HW220451   0.053   2.518  12.409  0.3204  1.1901  0.0941
 2997SOL     OW20452   4.698   1.944   0.269 -0.1705  0.1951  0.0320
 2997SOL    HW120453   4.711   1.859   0.312 -1.7205  0.2328  0.5847
 2997SOL    HW220454   0.049   1.953   0.211  0.5813 -1.2084  0.8125
 2998SOL     OW20455   2.374   1.770   5.972 -0.0571  0.0078  0.5014
 2998SOL    HW120456   2.293   1.816   5.996 -0.6206 -0.4189 -0.6108
 2998SOL    HW220457   2.376   1.815   5.888  0.7400 -1.0818 -0.0618
 2999SOL     OW20458   0.301   4.388   6.273 -0.0665  0.1667 -0.1306
 2999SOL    HW120459   0.283   4.423   6.186 -2.4903 -1.3867 -0.2502
 2999SOL    HW220460   0.297   4.467   6.328 -1.7266  0.2948 -0.4497
 3000SOL     OW20461   1.760   4.695   9.471  0.5712 -0.6624  0.1049
 3000SOL    HW120462   1.744   0.049   9.419  1.4187 -1.2009 -0.9675
 3000SOL    HW220463   1.707   4.718   9.548  1.0010 -2.6325  0.9975
 3001SOL     OW20464   1.865   2.995   2.657 -0.2615 -1.2667 -0.0855
 3001SOL    HW120465   1.891   2.955   2.574 -1.0083  0.1340 -0.9909
 3001SOL    HW220466   1.888   2.925   2.718  1.4293  0.8795  1.7759
 3002SOL     OW20467   3.532   4.146   3.105 -0.7184  0.3821 -0.5997
 3002SOL    HW120468   3.464   4.102   3.155  1.7937 -3.1391 -0.2446
 3002SOL    HW220469   3.605   4.085   3.118 -2.0740 -0.6436  2.0163
 3003SOL     OW20470   3.621   3.074   7.244  0.2853 -0.4281  0.0787
 3003SOL    HW120471   3.648   3.151   7.296  0.5699 -1.8585  2.0602
 3003SOL    HW220472   3.659   3.006   7.300  0.2175 -1.6236 -1.3364
 3004SOL     OW20473   4.461   1.381   3.312  0.0751 -0.0882 -0.2939
 3004SOL    HW120474   4.413   1.335   3.381  2.9723 -2.1682  0.3379
 3004SOL    HW220475   4.492   1.453   3.366 -1.1882 -0.1317  0.5062
 3005SOL     OW20476   0.574   2.007   8.269 -0.2245 -0.1012  0.4665
 3005SOL    HW120477   0.653   1.976   8.314 -0.2221  0.5986  0.9497
 3005SOL    HW220478   0.590   2.102   8.272  0.6768 -0.2714  1.2040
 3006SOL     OW20479   1.257   4.234  14.752  0.4195  0.7865 -0.5338
 3006SOL    HW120480   1.316   4.299  14.713  3.4278 -1.4895  0.1660
 3006SOL    HW220481   1.304   4.194  14.826  2.8468  0.8789 -2.0115
 3007SOL     OW20482   1.589   2.531  16.083 -0.2759  0.3627  0.4195
 3007SOL    HW120483   1.677   2.515  16.117  0.8033  6.2987  0.4225
 3007SOL    HW220484   1.601   2.613  16.036 -2.3543  0.7179  0.4974
 3008SOL     OW20485   3.097   3.644  15.622  0.3071 -0.1126 -0.1158
 3008SOL    HW120486   3.103   3.560  15.576 -0.1315 -1.5121  2.3706
 3008SOL    HW220487   3.086   3.618  15.713 -1.5808  0.5629 -0.1540
 3009SOL     OW20488   4.398   4.411   7.673  0.4131  0.3368  0.1021
 3009SOL    HW120489   4.357   4.442   7.754  2.8943  1.6893  0.8350
 3009SOL    HW220490   4.319   4.403   7.620  0.3459  2.5639 -0.1116
 3010SOL     OW20491   1.456   1.440   1.779 -0.2752  0.3833 -0.8696
 3010SOL    HW120492   1.419   1.426   1.692 -1.1878 -0.2203 -0.3970
 3010SOL    HW220493   1.377   1.443   1.833  0.2592  2.8065 -0.2040
 3011SOL     OW20494   2.657   1.411   7.693  0.0298 -0.6377  0.5127
 3011SOL    HW120495   2.569   1.388   7.665  0.6820  0.9159 -2.8252
 3011SOL    HW220496   2.687   1.489   7.647  0.3554 -0.6707  0.6655
 3012SOL     OW20497   1.331   1.522  10.710 -0.3149 -0.4147 -0.5035
 3012SOL    HW120498   1.400   1.484  10.765 -0.3147  1.3859  0.7639
 3012SOL    HW220499   1.303   1.451  10.653 -2.8336 -0.3114  0.5885
 3013SOL     OW20500   1.546   3.933   5.733 -0.1120  0.2047 -1.1398
 3013SOL    HW120501   1.575   3.876   5.805 -1.9246  2.0755  1.0369
 3013SOL    HW220502   1.472   3.978   5.772  1.3253  0.6475  1.0710
 3014SOL     OW20503   0.070   2.851  15.186  0.6040  0.2836  0.4165
 3014SOL    HW120504   0.095   2.763  15.157  0.0494 -0.1491  1.2417
 3014SOL    HW220505   0.057   2.902  15.107  2.1154 -3.6644 -2.4153
 3015SOL     OW20506   3.790   1.201   6.921  0.3289 -0.5073 -0.1965
 3015SOL    HW120507   3.730   1.276   6.925  0.0051 -0.7801  0.1383
 3015SOL    HW220508   3.759   1.152   6.846 -1.4470  0.3024 -0.0068
 3016SOL     OW20509   1.596   3.150  10.071  0.6731 -0.1767 -0.5772
 3016SOL    HW120510   1.515   3.201  10.072  0.8522  0.1141 -1.7308
 3016SOL    HW220511   1.668   3.213  10.072 -0.3341  0.9455  1.7473
 3017SOL     OW20512   4.295   2.269  12.213 -0.5609 -0.3218 -0.0375
 3017SOL    HW120513   4.239   2.204  12.257 -2.6957  0.7962 -1.1186
 3017SOL    HW220514   4.372   2.263  12.269  0.4810 -0.6780 -1.5137
 3018SOL     OW20515   2.360   1.208   1.236  0.2736  0.0487  0.2524
 3018SOL    HW120516   2.447   1.178   1.210 -0.4333 -1.5203 -0.3178
 3018SOL    HW220517   2.313   1.151   1.175 -0.5591  0.6756  0.3115
 3019SOL     OW20518   4.421   1.785   7.080  0.7001 -0.1696  0.0709
 3019SOL    HW120519   4.476   1.863   7.093 -0.7738  1.1191 -1.4141
 3019SOL    HW220520   4.489   1.718   7.084  0.1544 -0.6880  0.5180
 3020SOL     OW20521   3.513   4.320   4.053  0.0155 -0.5273 -0.3265
 3020SOL    HW120522   3.438   4.375   4.078  0.6974  0.8848 -1.3863
 3020SOL    HW220523   3.492   4.240   4.101  0.0359 -1.4675 -1.8690
 3021SOL     OW20524   4.579   1.045   5.710 -0.0544 -0.3885 -0.0875
 3021SOL    HW120525   4.588   1.028   5.616  0.7221  1.1848 -0.3029
 3021SOL    HW220526   4.501   1.101   5.707 -0.0053 -0.2479  1.0425
 3022SOL     OW20527   0.548   0.641   4.428 -0.0635  0.2945  0.3478
 3022SOL    HW120528   0.478   0.606   4.373 -0.0030  0.9143 -0.1302
 3022SOL    HW220529   0.596   0.690   4.361  0.5674 -0.0029  0.5853
 3023SOL     OW20530   1.905   2.266   2.448  0.3227  0.3581  0.5062
 3023SOL    HW120531   1.954   2.234   2.524 -0.8605  0.1762  1.1848
 3023SOL    HW220532   1.913   2.358   2.471 -3.1264  0.8321 -0.2842
 3024SOL     OW20533   3.848   3.889   2.840  0.0419 -0.2196 -0.6573
 3024SOL    HW120534   3.923   3.866   2.786 -0.5362 -0.8519 -1.1786
 3024SOL    HW220535   3.784   3.921   2.777 -0.0433 -0.0016 -0.4605
 3025SOL     OW20536   0.915   1.385   6.925  0.0853 -0.2509 -0.0034
 3025SOL    HW120537   0.972   1.378   6.848  3.2274 -2.4109  2.5196
 3025SOL    HW220538   0.984   1.410   6.986  1.8092  0.4475 -2.2330
 3026SOL     OW20539   4.145   1.552  10.215 -0.2417 -0.4525  0.5687
 3026SOL    HW120540   4.113   1.638  10.242  1.7248  0.5803 -0.3708
 3026SOL    HW220541   4.070   1.500  10.245  0.4730 -2.5949 -1.3035
 3027SOL     OW20542   1.212   1.579  11.796 -0.2717 -0.3743  0.6324
 3027SOL    HW120543   1.190   1.530  11.875 -2.0789 -0.5187  0.0225
 3027SOL    HW220544   1.130   1.605  11.755  0.4044  0.8946  0.0421
 3028SOL     OW20545   2.162   0.822   2.696 -0.5745 -0.3969 -0.0532
 3028SOL    HW120546   2.109   0.895   2.727 -1.7713 -1.4949  0.4778
 3028SOL    HW220547   2.252   0.848   2.715  0.3620 -0.8368 -3.7811
 3029SOL     OW20548   3.307   0.436  15.169 -0.3610  0.3847  0.3257
 3029SOL    HW120549   3.320   0.395  15.084  1.4231 -0.0520  0.8269
 3029SOL    HW220550   3.331   0.365  15.229  1.6849  0.3500 -0.5395
 3030SOL     OW20551   0.781   0.596  12.421 -0.1498 -0.2738  0.6608
 3030SOL    HW120552   0.857   0.611  12.366 -1.2443  1.1652 -0.4654
 3030SOL    HW220553   0.765   0.680  12.464  2.6730  0.9029 -0.5876
 3031SOL     OW20554   1.755   3.593   2.200 -0.1956  0.4788  0.0323
 3031SOL    HW120555   1.668   3.629   2.215  0.0439  1.3457 -0.6432
 3031SOL    HW220556   1.811   3.646   2.256  1.0495 -0.5010 -0.2820
 3032SOL     OW20557   1.277   3.217   8.332 -0.3486  0.6339 -0.2238
 3032SOL    HW120558   1.301   3.286   8.394 -1.0795  1.4057 -0.8047
 3032SOL    HW220559   1.205   3.177   8.381 -0.3879  0.0297 -0.7767
 3033SOL     OW20560   4.394   0.412  15.360 -0.1568 -0.0306 -0.0366
 3033SOL    HW120561   4.299   0.409  15.351 -0.2675  1.4576  0.5606
 3033SOL    HW220562   4.418   0.428  15.269 -1.4925  0.2313 -0.3379
 3034SOL     OW20563   2.758   3.713   9.121 -0.5068 -0.0367  0.6049
 3034SOL    HW120564   2.663   3.704   9.128 -0.6007  0.8885  0.6170
 3034SOL    HW220565   2.751   3.753   9.034 -0.9238 -1.9140 -0.2324
 3035SOL     OW20566   4.466   4.114  11.153  0.0090 -0.0815 -0.4811
 3035SOL    HW120567   4.429   4.032  11.120 -0.3356 -0.1721  0.1347
 3035SOL    HW220568   4.556   4.091  11.133  0.4625  2.3236 -1.2137
 3036SOL     OW20569   4.166   1.163   5.907  0.3064 -0.3701  0.0186
 3036SOL    HW120570   4.136   1.211   5.830 -1.7541  0.7084  1.4946
 3036SOL    HW220571   4.202   1.234   5.961 -0.7709  0.3738 -0.2212
 3037SOL     OW20572   0.062   0.406   3.953 -0.4000  0.3769 -0.3500
 3037SOL    HW120573   0.009   0.474   3.995  0.4252 -1.0461  2.9616
 3037SOL    HW220574   0.046   0.332   4.011  0.0864  1.0738  0.6809
 3038SOL     OW20575   1.054   1.916  13.112  0.5543  0.5089 -0.5096
 3038SOL    HW120576   0.974   1.957  13.077  0.8118  2.4109  1.1808
 3038SOL    HW220577   1.064   1.937  13.204  1.8190 -2.3510 -0.0051
 3039SOL     OW20578   4.489   2.095   3.462  0.2901 -0.5091 -0.0044
 3039SOL    HW120579   4.539   2.167   3.426 -0.8181  0.0950 -0.3299
 3039SOL    HW220580   4.526   2.016   3.422 -1.3244 -1.1713 -0.1869
 3040SOL     OW20581   2.754   4.264  17.092  0.1274  0.4452 -0.4285
 3040SOL    HW120582   2.795   4.331  17.146 -0.9574 -0.4408  1.4926
 3040SOL    HW220583   2.792   4.289  17.008 -0.2843 -0.0534 -0.7611
 3041SOL     OW20584   0.272   3.371   5.755  0.6964 -0.4242 -0.0875
 3041SOL    HW120585   0.190   3.414   5.730  1.5368 -0.0429 -2.2292
 3041SOL    HW220586   0.310   3.357   5.668 -2.7478  0.3149 -1.7358
 3042SOL     OW20587   2.723   1.049   9.537  0.1273  0.0284  0.8561
 3042SOL    HW120588   2.725   0.989   9.612 -1.6465 -0.6587  0.3469
 3042SOL    HW220589   2.643   1.014   9.497  0.8266  2.2994 -2.5588
 3043SOL     OW20590   0.658   2.113   4.271  0.4676 -0.0119  0.6682
 3043SOL    HW120591   0.672   2.203   4.241 -0.3622  0.2011  0.9229
 3043SOL    HW220592   0.739   2.073   4.236  0.1912 -0.4103  0.4858
 3044SOL     OW20593   1.936   0.173  10.116 -0.2250  0.0470 -0.2560
 3044SOL    HW120594   1.923   0.078  10.119  1.6838 -0.1945  0.6160
 3044SOL    HW220595   2.009   0.172  10.178 -2.6523  2.0405  2.6396
 3045SOL     OW20596   1.961   0.421   9.979  0.3349 -0.7404  0.0271
 3045SOL    HW120597   1.977   0.347  10.037  2.5618 -0.4102 -0.1643
 3045SOL    HW220598   1.899   0.390   9.913  0.9543 -0.2618 -0.7844
 3046SOL     OW20599   4.325   4.545   1.887 -0.9103  0.0855 -0.1341
 3046SOL    HW120600   4.394   4.550   1.954  1.2122 -0.7840 -2.2779
 3046SOL    HW220601   4.243   4.520   1.929 -0.1316 -2.6927 -0.2856
 3047SOL     OW20602   3.261   0.377   5.733 -0.0742 -0.0305  0.1705
 3047SOL    HW120603   3.230   0.382   5.823  1.2836 -1.3712  0.7153
 3047SOL    HW220604   3.171   0.378   5.702 -0.6097  0.0869  1.7733
 3048SOL     OW20605   4.264   0.625   0.603  0.3040 -0.1164 -0.1767
 3048SOL    HW120606   4.238   0.695   0.543 -0.7714  0.4272  0.9215
 3048SOL    HW220607   4.216   0.551   0.565 -1.5361  0.7318  0.4778
 3049SOL     OW20608   1.847   3.596   4.992  0.2099 -0.4145 -0.1003
 3049SOL    HW120609   1.900   3.670   5.022 -1.4510  0.2721  1.1488
 3049SOL    HW220610   1.816   3.554   5.072 -0.2596  0.5725  0.2318
 3050SOL     OW20611   0.774   4.405   2.312 -0.2289  1.1253  0.3114
 3050SOL    HW120612   0.686   4.435   2.288  0.0270  1.2390 -0.4584
 3050SOL    HW220613   0.819   4.432   2.232 -0.7085 -0.4282 -0.4677
 3051SOL     OW20614   4.547   1.516  14.910 -0.2408 -0.6090 -0.0028
 3051SOL    HW120615   4.558   1.421  14.921 -0.2421 -0.9409 -2.9252
 3051SOL    HW220616   4.593   1.523  14.827  0.2252 -1.1221  0.2073
 3052SOL     OW20617   2.983   3.494  14.819 -0.3460 -0.6113  0.1162
 3052SOL    HW120618   2.942   3.424  14.869 -0.0739 -0.5723  0.3932
 3052SOL    HW220619   3.068   3.453  14.802 -1.3898 -2.3448 -0.9268
 3053SOL     OW20620   2.917   2.483  17.672  0.1253 -0.5057  0.2565
 3053SOL    HW120621   2.880   2.395  17.661 -0.3838 -0.0520 -1.5700
 3053SOL    HW220622   3.005   2.473  17.635  0.1525 -2.5363  0.8635
 3054SOL     OW20623   1.496   0.386  11.846  0.2910  0.1137 -0.1746
 3054SOL    HW120624   1.476   0.299  11.882  3.1981 -0.5474 -0.2007
 3054SOL    HW220625   1.412   0.432  11.853 -1.0189 -2.3231  0.1710
 3055SOL     OW20626   4.077   2.743  14.716 -0.2253 -0.5936  0.0852
 3055SOL    HW120627   4.036   2.781  14.794  0.6858  0.7763 -0.1085
 3055SOL    HW220628   4.004   2.734  14.655 -1.3822 -0.1626  1.3988
 3056SOL     OW20629   1.886   3.851   7.033  0.2169  0.2236 -0.3788
 3056SOL    HW120630   1.962   3.819   7.082 -0.3359  2.1921  1.7601
 3056SOL    HW220631   1.926   3.846   6.946 -1.4739  1.1740 -1.2163
 3057SOL     OW20632   1.367   3.180  14.779 -0.3147 -0.1208 -0.1458
 3057SOL    HW120633   1.282   3.213  14.808 -1.8128 -2.7044 -1.5745
 3057SOL    HW220634   1.347   3.145  14.692 -0.3304  0.0606 -0.2144
 3058SOL     OW20635   2.734   3.481   1.538 -0.2054 -0.7906  0.3536
 3058SOL    HW120636   2.734   3.387   1.515  0.5601 -1.2341  2.2414
 3058SOL    HW220637   2.656   3.518   1.497  0.8544  0.1614 -0.8211
 3059SOL     OW20638   4.053   1.075   7.419  0.4143 -0.2443 -0.0660
 3059SOL    HW120639   4.055   1.044   7.328 -1.3971 -1.3654  0.2864
 3059SOL    HW220640   3.959   1.062   7.431  0.4695  0.6889  1.3776
 3060SOL     OW20641   2.204   0.255   2.693 -0.0754 -0.1966 -0.0069
 3060SOL    HW120642   2.268   0.271   2.625 -1.1342  0.1032 -0.9330
 3060SOL    HW220643   2.243   0.202   2.763  0.1129  0.9291  0.7477
 3061SOL     OW20644   0.243   2.128   3.079 -0.3486 -0.3911 -0.2679
 3061SOL    HW120645   0.206   2.186   3.012 -0.3382 -3.2271 -2.7000
 3061SOL    HW220646   0.214   2.174   3.157 -0.5787  2.1067 -1.8324
 3062SOL     OW20647   0.970   1.613   8.389  0.4504  0.0949  0.6372
 3062SOL    HW120648   0.929   1.541   8.341  0.2356 -0.7046  2.0195
 3062SOL    HW220649   1.063   1.592   8.380  0.8126  1.0779  2.0913
 3063SOL     OW20650   1.233   1.036   8.496 -0.4634  0.0734 -0.0424
 3063SOL    HW120651   1.188   0.997   8.571  1.1275  1.5132  1.6479
 3063SOL    HW220652   1.324   1.046   8.522 -1.2732  1.7233  2.0998
 3064SOL     OW20653   3.273   0.871   7.261  0.0392  0.1896  0.5508
 3064SOL    HW120654   3.345   0.828   7.306  0.8812 -0.7722 -1.7248
 3064SOL    HW220655   3.283   0.963   7.284  2.0445  0.2516 -0.5860
 3065SOL     OW20656   2.984   1.871   1.025 -0.1106 -0.1463 -0.4746
 3065SOL    HW120657   3.006   1.778   1.024 -2.4944 -0.7262 -0.0704
 3065SOL    HW220658   3.020   1.905   0.943 -2.0119 -0.6110 -1.4999
 3066SOL     OW20659   2.096   3.326  12.346  0.1936  0.1168 -0.4769
 3066SOL    HW120660   2.133   3.291  12.427 -0.2718  1.9073  0.5119
 3066SOL    HW220661   2.165   3.303  12.283 -1.4182 -1.4851 -1.6533
 3067SOL     OW20662   4.237   3.179   4.511  0.6194  0.3643 -0.1501
 3067SOL    HW120663   4.251   3.248   4.576 -0.1832 -0.0835  0.4960
 3067SOL    HW220664   4.271   3.106   4.561 -2.7370 -0.6803  0.5938
 3068SOL     OW20665   3.864   1.932   1.251 -0.3073 -0.4248  0.0998
 3068SOL    HW120666   3.913   1.911   1.171  0.5098  0.1004  0.4586
 3068SOL    HW220667   3.891   2.021   1.274  0.4592 -0.5362 -0.3521
 3069SOL     OW20668   4.110   1.722   0.057 -0.8573  0.5863  0.0287
 3069SOL    HW120669   4.158   1.654   0.011 -1.0144  0.0760  0.6235
 3069SOL    HW220670   4.032   1.734   0.002 -0.7009  0.0098 -0.3204
 3070SOL     OW20671   2.808   2.624  11.529 -0.4548 -0.5465 -0.1895
 3070SOL    HW120672   2.752   2.547  11.537 -2.2079  0.4685 -2.5659
 3070SOL    HW220673   2.737   2.688  11.519  0.5737  0.1782 -2.9652
 3071SOL     OW20674   3.913   1.899   6.996 -0.1706  0.1646 -0.7218
 3071SOL    HW120675   3.983   1.835   7.008 -1.7027 -1.1908  1.0216
 3071SOL    HW220676   3.913   1.948   7.078  3.7992 -2.2874  0.7305
 3072SOL     OW20677   3.607   4.574   2.663 -0.2844  0.1653 -0.2217
 3072SOL    HW120678   3.638   4.661   2.638  2.2598 -1.5592 -3.0572
 3072SOL    HW220679   3.651   4.529   2.591  0.6881  0.3303  0.2713
 3073SOL     OW20680   3.184   0.807  11.674  0.3287  0.3867 -0.0264
 3073SOL    HW120681   3.223   0.889  11.644 -0.6101  0.1332 -1.9202
 3073SOL    HW220682   3.098   0.813  11.633  0.9350  0.6149 -1.2513
 3074SOL     OW20683   0.141   2.450   8.867  0.0359 -0.0530  0.0107
 3074SOL    HW120684   0.232   2.457   8.837  0.6592 -4.2454  0.9144
 3074SOL    HW220685   0.149   2.499   8.949 -0.7820  1.0853 -0.5812
 3075SOL     OW20686   3.714   2.909   6.466 -0.1773  1.0798  0.0082
 3075SOL    HW120687   3.636   2.855   6.480  0.6955 -0.3072 -0.4588
 3075SOL    HW220688   3.718   2.950   6.552 -0.1658  0.5536  0.2607
 3076SOL     OW20689   1.083   4.688   7.482 -0.7427  0.0464  0.2560
 3076SOL    HW120690   1.047   0.030   7.540 -0.3445 -0.8177  1.5022
 3076SOL    HW220691   1.031   4.705   7.404 -2.3024 -1.2254  1.0064
 3077SOL     OW20692   4.257   4.663   6.948  0.0188  0.4239  0.3038
 3077SOL    HW120693   4.334   4.616   6.916  0.8369  0.8378  1.6408
 3077SOL    HW220694   4.186   4.599   6.948  0.7398 -0.3722 -1.2151
 3078SOL     OW20695   0.074   3.131   2.745 -0.2302  0.0118 -0.3241
 3078SOL    HW120696   0.024   3.117   2.825  2.1782  0.7778  1.2978
 3078SOL    HW220697   0.101   3.222   2.759  0.0444  0.2796 -2.5858
 3079SOL     OW20698   3.155   2.798   1.935  0.4068  0.0084 -0.3671
 3079SOL    HW120699   3.158   2.859   1.862  1.2588  1.2474  0.6875
 3079SOL    HW220700   3.184   2.714   1.900 -0.9172 -0.9932  0.9014
 3080SOL     OW20701   1.335   1.823   3.988 -0.2147 -0.3452  0.5281
 3080SOL    HW120702   1.412   1.766   3.982 -0.2750 -0.4065  0.3420
 3080SOL    HW220703   1.276   1.749   3.974 -1.4738  0.6434  0.6028
 3081SOL     OW20704   2.717   1.518   6.519  1.0384 -0.9425 -0.7409
 3081SOL    HW120705   2.671   1.445   6.561 -1.4784 -0.0326 -1.9067
 3081SOL    HW220706   2.730   1.569   6.599  1.4926 -1.8882 -0.2046
 3082SOL     OW20707   4.521   1.407   2.459  0.2149  0.3552 -0.0118
 3082SOL    HW120708   4.487   1.399   2.370  0.4730 -1.0266  0.0096
 3082SOL    HW220709   4.439   1.441   2.495  1.7970  1.5212  2.5218
 3083SOL     OW20710   1.288   0.106  12.695  0.2972  0.0571  1.0072
 3083SOL    HW120711   1.197   0.110  12.664  0.5089  0.8487  0.4951
 3083SOL    HW220712   1.277   0.036  12.760  0.7316  0.4150  1.4626
 3084SOL     OW20713   0.728   4.602   9.534  0.3802 -0.9824  0.5720
 3084SOL    HW120714   0.745   4.648   9.452  0.1828 -1.5445  0.2125
 3084SOL    HW220715   0.665   4.667   9.563  2.6334  0.9916  1.0763
 3085SOL     OW20716   4.680   0.270   1.668  0.1016  0.4124 -0.1338
 3085SOL    HW120717   4.592   0.306   1.662  0.5002  1.8500  2.3445
 3085SOL    HW220718   4.666   0.197   1.729  2.3253 -0.2532 -0.4279
 3086SOL     OW20719   4.276   0.699   7.332 -0.3469 -0.5789  0.5047
 3086SOL    HW120720   4.242   0.758   7.265  0.6057 -0.1655  0.3947
 3086SOL    HW220721   4.206   0.694   7.397 -0.1207  1.5449  0.8972
 3087SOL     OW20722   1.045   1.299   6.146 -0.0746  0.5896  0.0363
 3087SOL    HW120723   1.118   1.345   6.102  0.0385 -0.8028 -1.2171
 3087SOL    HW220724   0.987   1.277   6.073 -2.4072  0.5444  1.9372
 3088SOL     OW20725   1.719   1.572  14.271 -0.5307  0.6322  0.2199
 3088SOL    HW120726   1.721   1.648  14.329  1.1481 -0.2490  1.3049
 3088SOL    HW220727   1.705   1.500  14.333 -1.0156  0.4485 -0.1021
 3089SOL     OW20728   0.025   4.260   5.295 -0.1987  0.2294  0.5817
 3089SOL    HW120729   0.082   4.210   5.353  0.1086 -0.2271 -0.1191
 3089SOL    HW220730   0.087   4.329   5.271  0.3647 -0.3776  0.3030
 3090SOL     OW20731   0.872   2.498   7.792 -0.2026  0.2007 -0.2583
 3090SOL    HW120732   0.966   2.481   7.787  0.0982  2.0422 -1.2181
 3090SOL    HW220733   0.847   2.448   7.870 -1.4877 -0.6422 -1.2007
 3091SOL     OW20734   2.594   2.134   1.369 -0.7849 -0.4465  0.3134
 3091SOL    HW120735   2.550   2.055   1.400 -0.2279 -0.8019  0.1959
 3091SOL    HW220736   2.659   2.105   1.305 -1.4851  0.4635 -0.7958
 3092SOL     OW20737   3.122   2.737   6.588 -0.2246 -0.5199  0.3363
 3092SOL    HW120738   3.044   2.719   6.640 -0.4210 -2.6668 -0.7069
 3092SOL    HW220739   3.152   2.815   6.635 -2.9850  0.9569 -0.3658
 3093SOL     OW20740   1.158   2.184   6.588 -0.5042  0.3790 -0.1330
 3093SOL    HW120741   1.193   2.220   6.507 -2.4331  0.2713 -1.0349
 3093SOL    HW220742   1.164   2.257   6.649 -1.1408  0.9677 -0.7607
 3094SOL     OW20743   1.552   2.832   2.681 -0.1574  0.2241 -0.5140
 3094SOL    HW120744   1.550   2.794   2.769 -1.5685  1.2740 -0.0956
 3094SOL    HW220745   1.622   2.897   2.680  0.4698 -0.4550 -1.2824
 3095SOL     OW20746   3.195   3.428   6.628  0.1075  0.2439  0.9110
 3095SOL    HW120747   3.253   3.352   6.623  0.4634  0.5515  0.4166
 3095SOL    HW220748   3.262   3.495   6.638  1.4776 -0.8665 -0.7795
 3096SOL     OW20749   3.198   2.656   2.443 -0.8182 -0.5317 -0.2127
 3096SOL    HW120750   3.124   2.697   2.397 -0.7113 -0.3238 -0.2011
 3096SOL    HW220751   3.267   2.700   2.393 -0.5053  0.3110  0.9674
 3097SOL     OW20752   2.206   4.014  10.828  0.5902  0.0409 -0.1274
 3097SOL    HW120753   2.228   3.926  10.857  1.3426  0.0642 -0.6097
 3097SOL    HW220754   2.239   4.030  10.739  1.0894  1.2610  0.2769
 3098SOL     OW20755   3.111   2.474  17.071  0.1437 -0.4239  0.3426
 3098SOL    HW120756   3.038   2.438  17.121 -2.5403  2.7620 -1.3152
 3098SOL    HW220757   3.090   2.428  16.990  0.1984 -1.2298  0.7809
 3099SOL     OW20758   4.333   4.013  16.814  0.5216 -0.5769  0.4634
 3099SOL    HW120759   4.421   3.992  16.780  0.0725 -0.6157 -0.6803
 3099SOL    HW220760   4.319   4.107  16.801  0.0766 -0.5542  1.1360
 3100SOL     OW20761   2.541   4.557   6.355  0.3193  0.1514  0.1488
 3100SOL    HW120762   2.525   4.639   6.307  0.8739  1.3281  1.9633
 3100SOL    HW220763   2.459   4.529   6.397 -0.2113  0.1075 -0.9100
 3101SOL     OW20764   2.516   0.561   7.520  0.1811 -0.7970 -1.2236
 3101SOL    HW120765   2.441   0.605   7.559  1.3084 -0.5757  0.7313
 3101SOL    HW220766   2.586   0.607   7.566 -1.1628 -0.6307  0.6897
 3102SOL     OW20767   4.366   4.201   8.295  0.3769  0.1977  0.5950
 3102SOL    HW120768   4.459   4.213   8.313  0.6069  0.1576 -0.5960
 3102SOL    HW220769   4.342   4.137   8.362  0.5728  1.3285  1.7461
 3103SOL     OW20770   1.338   1.750  16.101  0.5075  0.0849  0.2558
 3103SOL    HW120771   1.386   1.819  16.055  1.4220 -2.0878 -2.0388
 3103SOL    HW220772   1.417   1.722  16.148 -0.4871 -0.3308  1.6897
 3104SOL     OW20773   0.841   2.319   5.881  0.6484  0.5047  0.6603
 3104SOL    HW120774   0.859   2.225   5.869  3.7296  1.3455 -1.2266
 3104SOL    HW220775   0.746   2.331   5.888  0.5723 -0.1461  0.7545
 3105SOL     OW20776   4.702   0.059   6.033  0.3636 -0.5787 -0.3795
 3105SOL    HW120777   4.685   4.692   6.053 -1.8961 -0.1181 -0.2385
 3105SOL    HW220778   0.072   0.050   6.027  0.1732 -1.1597 -2.5402
 3106SOL     OW20779   4.237   0.803  17.049 -0.5668 -0.3322  0.3585
 3106SOL    HW120780   4.214   0.725  16.998 -0.0780 -1.2812  1.6007
 3106SOL    HW220781   4.331   0.798  17.034 -0.4221 -0.8106  1.4327
 3107SOL     OW20782   2.497   1.614   3.282 -0.2163  0.1752 -0.3172
 3107SOL    HW120783   2.464   1.575   3.201 -1.1658 -0.8876  0.5781
 3107SOL    HW220784   2.591   1.592   3.281  0.1010  1.6295 -3.0538
 3108SOL     OW20785   1.559   2.156   9.337 -0.2082  0.1191  0.4676
 3108SOL    HW120786   1.536   2.085   9.397 -3.0547  0.8072  0.1678
 3108SOL    HW220787   1.632   2.189   9.390 -0.0985  0.1512  0.2986
 3109SOL     OW20788   1.228   3.433   3.351 -0.7677 -0.0222 -0.0391
 3109SOL    HW120789   1.229   3.395   3.263 -0.3388 -0.0997 -0.0027
 3109SOL    HW220790   1.317   3.469   3.357 -1.1763  0.5309  2.8034
 3110SOL     OW20791   4.699   3.230   3.479 -0.1676 -0.2055  1.0785
 3110SOL    HW120792   4.642   3.253   3.406  2.3880 -0.5575 -1.0398
 3110SOL    HW220793   4.679   3.299   3.542  1.4100 -1.3449  2.8212
 3111SOL     OW20794   4.236   2.928   6.457  0.2007 -0.3365  0.2938
 3111SOL    HW120795   4.226   3.016   6.420 -0.4574  0.4099  2.2790
 3111SOL    HW220796   4.328   2.929   6.483 -0.3534  1.1745  2.1524
 3112SOL     OW20797   3.480   2.964   1.391 -0.2372 -0.0826  0.2384
 3112SOL    HW120798   3.417   2.897   1.363  0.2013 -0.8633  1.1217
 3112SOL    HW220799   3.532   2.899   1.439 -1.5190 -1.9899 -0.9573
 3113SOL     OW20800   3.398   1.868  13.826 -0.2020  0.7567 -0.2783
 3113SOL    HW120801   3.424   1.943  13.773  0.4919  0.3674 -0.4890
 3113SOL    HW220802   3.357   1.808  13.764  0.7915 -1.1775  0.9532
 3114SOL     OW20803   3.750   4.099   6.613  0.0534  0.0255 -0.2129
 3114SOL    HW120804   3.768   4.121   6.704 -0.3391  0.4786 -0.2421
 3114SOL    HW220805   3.803   4.164   6.567  0.0906 -1.6534 -2.5543
 3115SOL     OW20806   2.910   1.658   7.488  0.6193  0.6368 -0.2744
 3115SOL    HW120807   2.818   1.632   7.497  0.9261 -1.1331 -2.2719
 3115SOL    HW220808   2.907   1.754   7.488  1.2426  0.6551  0.4726
 3116SOL     OW20809   1.073   3.786   3.846  0.2981  0.2632  0.4024
 3116SOL    HW120810   1.159   3.811   3.811  1.2767 -2.3962  0.9158
 3116SOL    HW220811   1.097   3.732   3.922 -0.6767  1.5325  1.6225
 3117SOL     OW20812   2.987   0.695  10.579  0.1605 -0.1721  0.0724
 3117SOL    HW120813   2.997   0.738  10.494  1.7879  1.6121  1.1697
 3117SOL    HW220814   3.040   0.616  10.569 -0.0342 -0.5014  1.6027
 3118SOL     OW20815   1.542   0.264   9.045 -0.2345 -0.2063  0.0106
 3118SOL    HW120816   1.507   0.271   8.956  0.6832  0.1999 -0.3182
 3118SOL    HW220817   1.460   0.281   9.091 -1.1213  1.5542 -2.2038
 3119SOL     OW20818   4.564   2.859   7.134 -0.0891 -0.5523 -0.6874
 3119SOL    HW120819   4.612   2.873   7.052 -3.1208 -0.4958 -2.4456
 3119SOL    HW220820   4.590   2.943   7.173 -0.5907 -0.9902  0.5911
 3120SOL     OW20821   2.146   0.820   7.517  0.4400 -0.0001  0.3286
 3120SOL    HW120822   2.228   0.796   7.561  0.1050  0.5946  1.2805
 3120SOL    HW220823   2.183   0.859   7.438  0.4811  0.7031  0.6959
 3121SOL     OW20824   4.010   1.857   2.470 -0.4744  0.0187 -0.2871
 3121SOL    HW120825   4.017   1.839   2.376 -1.3149  0.5919 -0.4588
 3121SOL    HW220826   4.091   1.906   2.487 -1.5368  2.1305 -1.2715
 3122SOL     OW20827   4.164   3.887  10.657  0.0253 -0.4489  0.1229
 3122SOL    HW120828   4.088   3.936  10.624  1.5229  1.5134 -0.3587
 3122SOL    HW220829   4.116   3.827  10.715  1.3436  0.6382  2.3436
 3123SOL     OW20830   1.147   3.425   2.403 -0.5916  0.4492 -0.0194
 3123SOL    HW120831   1.188   3.510   2.420  0.4440  0.0014 -0.3005
 3123SOL    HW220832   1.059   3.440   2.438 -0.9633 -2.5848  0.3316
 3124SOL     OW20833   4.184   1.867   6.914 -0.5549 -0.3537  0.1469
 3124SOL    HW120834   4.267   1.854   6.959 -0.2262 -0.0551 -0.3719
 3124SOL    HW220835   4.179   1.961   6.897 -0.9669 -0.7264 -1.7889
 3125SOL     OW20836   1.531   4.234  14.094  0.2457 -0.2779  0.0467
 3125SOL    HW120837   1.529   4.264  14.184  1.3168 -1.1153  0.3481
 3125SOL    HW220838   1.437   4.239  14.079  0.1006 -0.0617  1.0371
 3126SOL     OW20839   1.552   2.019   2.762 -0.3301 -0.7404 -0.0497
 3126SOL    HW120840   1.505   1.939   2.741 -1.7456 -0.2416  1.2143
 3126SOL    HW220841   1.635   2.003   2.718 -1.2613  0.1442 -2.1697
 3127SOL     OW20842   0.819   0.028   3.872  0.2759  0.0323  0.6982
 3127SOL    HW120843   0.881   0.057   3.805  0.3129  0.0189  0.7270
 3127SOL    HW220844   0.740   0.033   3.817 -0.0202 -1.9525  0.9437
 3128SOL     OW20845   1.167   2.813   8.254 -0.1513  0.6709  0.3583
 3128SOL    HW120846   1.199   2.879   8.193 -0.5174 -0.9148 -1.5204
 3128SOL    HW220847   1.075   2.807   8.229 -0.5422 -0.6969  2.1395
 3129SOL     OW20848   0.077   4.564   5.030  0.3027 -0.2813 -0.1699
 3129SOL    HW120849   0.086   4.528   4.942 -1.1264  2.4839 -1.4310
 3129SOL    HW220850   0.163   4.554   5.069  0.4441 -1.2137 -0.7391
 3130SOL     OW20851   3.535   3.605   8.693  0.1329 -0.0819 -0.4405
 3130SOL    HW120852   3.535   3.662   8.616  0.3224  1.1637  0.4770
 3130SOL    HW220853   3.446   3.572   8.682  0.0967  0.6520 -2.4424
 3131SOL     OW20854   4.394   2.569   2.883 -0.5194  0.0180  0.0084
 3131SOL    HW120855   4.396   2.653   2.837 -3.2324 -1.0375 -2.0761
 3131SOL    HW220856   4.360   2.603   2.966 -4.3048 -0.9388 -1.1153
 3132SOL     OW20857   0.237   3.946   4.980 -0.3142  0.1361 -0.1094
 3132SOL    HW120858   0.169   3.889   5.015  0.5308 -0.2069  0.9937
 3132SOL    HW220859   0.190   3.979   4.904 -0.0700  0.3192 -0.1820
 3133SOL     OW20860   1.550   2.031   4.160 -0.0244  0.1890 -0.0120
 3133SOL    HW120861   1.464   2.024   4.117 -0.0589 -3.1435  0.5793
 3133SOL    HW220862   1.605   2.017   4.083  0.2236  1.4674 -0.0554
 3134SOL     OW20863   1.252   2.344   6.077 -0.4756  0.3160 -0.7238
 3134SOL    HW120864   1.284   2.260   6.042 -0.3450 -0.0234  0.2189
 3134SOL    HW220865   1.297   2.403   6.017  1.7356 -0.7482 -0.0858
 3135SOL     OW20866   2.803   3.797   7.902  0.5342  0.0786 -0.0873
 3135SOL    HW120867   2.890   3.836   7.907  0.3329  0.4910  0.1557
 3135SOL    HW220868   2.816   3.729   7.836 -2.2096 -0.5480  0.0244
 3136SOL     OW20869   3.942   0.060   2.279 -1.0197 -0.1690  0.2380
 3136SOL    HW120870   3.974   0.128   2.221  0.8602 -0.4876  0.8952
 3136SOL    HW220871   3.934   0.106   2.363 -1.2333  1.0992 -0.4671
 3137SOL     OW20872   4.277   4.152   8.053 -0.3238 -0.2069  0.2721
 3137SOL    HW120873   4.336   4.167   8.127 -0.4317  1.0601  0.0942
 3137SOL    HW220874   4.331   4.094   7.998  0.6992 -0.3955  1.4861
 3138SOL     OW20875   3.506   1.424   1.492  0.1469  0.3115 -0.3332
 3138SOL    HW120876   3.527   1.504   1.539  2.4593 -0.2407 -0.4489
 3138SOL    HW220877   3.590   1.423   1.445  0.3250  0.0398  0.0001
 3139SOL     OW20878   0.636   0.087   2.970 -0.0115  0.5123  0.9454
 3139SOL    HW120879   0.707   0.102   2.907 -0.0042 -3.1614  0.0697
 3139SOL    HW220880   0.556   0.084   2.919  0.1214 -0.6218  0.7949
 3140SOL     OW20881   0.036   0.042  17.251 -0.2644 -0.2219  0.1955
 3140SOL    HW120882   0.022   4.675  17.274  1.4714 -0.6218 -0.3507
 3140SOL    HW220883   4.718   0.088  17.323  1.7159 -0.1367  1.3171
 3141SOL     OW20884   0.537   2.311   1.187  0.0676 -0.3016 -0.3162
 3141SOL    HW120885   0.563   2.327   1.096 -1.2453 -0.1776 -0.6666
 3141SOL    HW220886   0.532   2.216   1.195  3.1283 -0.3495  1.2442
 3142SOL     OW20887   1.378   0.457  10.526  0.0658 -0.0859 -0.1366
 3142SOL    HW120888   1.366   0.370  10.564  0.4566 -0.0454  0.0763
 3142SOL    HW220889   1.298   0.464  10.473  0.9817 -0.4798 -1.5512
 3143SOL     OW20890   0.603   4.333   6.625 -0.9839  0.2886  0.1447
 3143SOL    HW120891   0.582   4.300   6.538 -2.4644 -1.0624  1.0002
 3143SOL    HW220892   0.600   4.426   6.601 -0.3528  0.7196  1.7075
 3144SOL     OW20893   2.112   3.490   8.947  0.1795 -0.1050 -0.3986
 3144SOL    HW120894   2.140   3.567   8.897  0.3364 -0.6311 -1.1238
 3144SOL    HW220895   2.048   3.526   9.008 -0.8927 -2.9417  0.1168
 3145SOL     OW20896   4.362   0.678  12.506 -0.8801  0.1254 -0.0660
 3145SOL    HW120897   4.454   0.703  12.517 -0.9107  0.6206 -0.9415
 3145SOL    HW220898   4.369   0.660  12.412 -1.8911 -0.0175 -0.1094
 3146SOL     OW20899   1.935   3.183  10.034 -0.1520 -0.0030 -0.0016
 3146SOL    HW120900   1.985   3.107  10.066  0.3307 -0.2974 -1.4682
 3146SOL    HW220901   1.912   3.219  10.120 -0.4859 -1.1464  0.4031
 3147SOL     OW20902   4.166   2.404   2.122  0.3501  0.3440 -0.6475
 3147SOL    HW120903   4.222   2.398   2.199 -1.5449 -1.4792  0.5883
 3147SOL    HW220904   4.226   2.450   2.063  1.0098  1.0631  0.5927
 3148SOL     OW20905   0.824   1.942   6.321  0.3336 -0.7014  0.1968
 3148SOL    HW120906   0.855   1.948   6.412  1.1981 -0.6257 -0.1021
 3148SOL    HW220907   0.732   1.921   6.333  0.6332 -3.1576 -1.9188
 3149SOL     OW20908   2.211   3.872   6.347  0.1269  0.7638  0.3397
 3149SOL    HW120909   2.164   3.910   6.273 -1.0196  1.1867  1.2969
 3149SOL    HW220910   2.274   3.943   6.363  2.1145 -0.7982 -0.5121
 3150SOL     OW20911   4.199   1.322  17.201 -0.0932  0.1997  0.5041
 3150SOL    HW120912   4.138   1.380  17.156  1.0643  2.1260  1.4143
 3150SOL    HW220913   4.246   1.282  17.128 -1.5495  0.2600 -0.4661
 3151SOL     OW20914   0.647   2.524   3.125 -0.6845 -0.0553 -0.3903
 3151SOL    HW120915   0.574   2.529   3.186 -0.6973  0.3218 -0.4332
 3151SOL    HW220916   0.714   2.502   3.189  0.9351  4.2506 -0.6177
 3152SOL     OW20917   0.159   4.669   6.323 -0.1202 -0.4987  0.6020
 3152SOL    HW120918   0.091   4.627   6.270  0.9457 -1.2658 -0.1405
 3152SOL    HW220919   0.188   0.018   6.270 -0.0941 -0.7990  0.1998
 3153SOL     OW20920   2.556   4.593   1.003 -0.6973  0.2611 -0.6408
 3153SOL    HW120921   2.583   4.576   1.093  0.7028 -0.9529 -1.2800
 3153SOL    HW220922   2.464   4.571   1.015 -0.4656  0.3782  1.3578
 3154SOL     OW20923   0.529   2.758   4.110 -0.9113  0.0832 -0.0698
 3154SOL    HW120924   0.604   2.738   4.054 -1.8663  0.5118 -1.5002
 3154SOL    HW220925   0.452   2.707   4.084 -0.7046 -1.8976  3.1394
 3155SOL     OW20926   2.200   3.065   5.771 -0.0156 -0.3872  0.2783
 3155SOL    HW120927   2.253   3.081   5.849  4.0433 -0.2540 -2.5466
 3155SOL    HW220928   2.200   2.969   5.773 -0.5466 -0.4264 -1.7636
 3156SOL     OW20929   4.425   4.692   6.377 -0.0782 -0.3791 -0.1853
 3156SOL    HW120930   4.447   0.042   6.323  0.8373  0.7644  1.8116
 3156SOL    HW220931   4.463   4.725   6.459 -0.8849 -1.0033  0.4487
 3157SOL     OW20932   0.736   2.565   7.228  0.2697 -0.0841 -0.1504
 3157SOL    HW120933   0.709   2.493   7.284  1.4926 -1.1543 -0.9376
 3157SOL    HW220934   0.831   2.550   7.229  0.0793 -1.2561  0.5579
 3158SOL     OW20935   3.332   4.654  11.635 -0.1344  0.2498  0.2906
 3158SOL    HW120936   3.245   4.655  11.595 -0.0639  0.1110  0.1360
 3158SOL    HW220937   3.330   4.581  11.696 -1.0263 -0.4719 -0.6032
 3159SOL     OW20938   2.547   4.530   1.546  0.3996  0.1214  0.3446
 3159SOL    HW120939   2.542   4.439   1.573 -1.8574  0.7908  2.1496
 3159SOL    HW220940   2.554   4.573   1.631 -0.1557  1.0631 -0.0827
 3160SOL     OW20941   1.790   0.902   7.159  0.0734 -0.5763  0.2693
 3160SOL    HW120942   1.785   0.922   7.066  0.1190  1.3468  0.6733
 3160SOL    HW220943   1.884   0.883   7.156  0.5303  1.7233  0.2854
 3161SOL     OW20944   2.225   1.680   2.421  0.3589  0.0296  0.2209
 3161SOL    HW120945   2.314   1.645   2.429  0.8300  0.9751 -0.9906
 3161SOL    HW220946   2.191   1.681   2.511  3.7895  0.4600  1.4982
 3162SOL     OW20947   1.782   4.670   7.805  0.0697 -0.4730 -0.0586
 3162SOL    HW120948   1.699   4.694   7.764 -0.7401 -0.5620  1.4966
 3162SOL    HW220949   1.761   4.581   7.833  1.4684 -0.4276  1.1606
 3163SOL     OW20950   0.751   2.776   4.529  0.2266 -0.3419  0.3975
 3163SOL    HW120951   0.788   2.814   4.450 -1.2808  1.2224  0.4359
 3163SOL    HW220952   0.703   2.702   4.490  1.5212 -0.1457 -1.5394
 3164SOL     OW20953   2.290   4.640   5.855  0.2127  0.0938  0.0945
 3164SOL    HW120954   2.289   0.002   5.894 -3.1937 -0.1066  0.4422
 3164SOL    HW220955   2.372   4.600   5.883 -0.6026 -0.8435  1.0959
 3165SOL     OW20956   2.915   2.266   6.034  0.6046 -0.0668 -0.0615
 3165SOL    HW120957   2.987   2.221   5.989 -0.0289 -1.6146  0.4574
 3165SOL    HW220958   2.934   2.247   6.126 -0.4537 -2.9115 -0.4243
 3166SOL     OW20959   2.546   2.631   4.943 -0.1679 -0.3079 -0.2301
 3166SOL    HW120960   2.543   2.726   4.950 -0.0371 -0.3166 -0.0603
 3166SOL    HW220961   2.632   2.609   4.978  0.1710 -1.0025 -1.5097
 3167SOL     OW20962   1.378   2.400   3.272 -0.7354  0.3481 -0.0069
 3167SOL    HW120963   1.303   2.372   3.219  0.4956  0.5993 -1.8684
 3167SOL    HW220964   1.328   2.427   3.349 -2.1380  0.9016 -1.1143
 3168SOL     OW20965   2.466   4.349   7.287  0.1036  0.2077  0.3272
 3168SOL    HW120966   2.547   4.302   7.264  0.1934 -0.4225  1.9175
 3168SOL    HW220967   2.495   4.436   7.314  3.7119 -0.6431 -0.7285
 3169SOL     OW20968   3.016   1.784   0.596 -0.3717 -0.6749  0.4631
 3169SOL    HW120969   3.066   1.787   0.514  0.2325  1.4049  0.8970
 3169SOL    HW220970   2.927   1.761   0.566  0.1590 -2.5404  0.3447
 3170SOL     OW20971   2.229   0.498   0.588  0.0207 -0.3382 -0.0665
 3170SOL    HW120972   2.196   0.549   0.514  0.4156 -1.5362 -1.0556
 3170SOL    HW220973   2.265   0.570   0.640  0.3235 -0.3110 -0.3148
 3171SOL     OW20974   2.116   2.231   3.928 -0.2575 -0.0336  0.2393
 3171SOL    HW120975   2.083   2.235   3.839  0.5523  1.2004 -0.0046
 3171SOL    HW220976   2.040   2.177   3.951  0.5986 -1.0010  0.8333
 3172SOL     OW20977   2.573   0.233   6.304  0.0792 -0.1313 -0.0470
 3172SOL    HW120978   2.600   0.171   6.371 -1.4391 -0.2177  0.4976
 3172SOL    HW220979   2.509   0.287   6.350 -1.4813 -0.8687 -1.3407
 3173SOL     OW20980   0.802   2.394  10.077 -0.4112  0.5075  0.1535
 3173SOL    HW120981   0.759   2.329  10.133 -0.3226 -0.4733 -0.9078
 3173SOL    HW220982   0.741   2.467  10.063 -3.3800 -1.9290  0.3174
 3174SOL     OW20983   1.239   2.538   3.740  0.5389 -0.4261 -0.7539
 3174SOL    HW120984   1.303   2.486   3.692  1.5629  1.3252 -1.2625
 3174SOL    HW220985   1.208   2.476   3.807  0.6216 -1.9259 -2.1127
 3175SOL     OW20986   4.335   2.573  14.832 -0.1292 -0.1949 -0.2011
 3175SOL    HW120987   4.410   2.627  14.859 -0.0512 -1.0655  1.3425
 3175SOL    HW220988   4.380   2.494  14.803  0.3359  0.6502 -1.7845
 3176SOL     OW20989   3.471   0.230   5.727  0.2898  0.2098 -0.5113
 3176SOL    HW120990   3.524   0.260   5.801  0.0326  1.2047 -0.7298
 3176SOL    HW220991   3.395   0.288   5.721 -0.2331 -0.3171  0.7885
 3177SOL     OW20992   3.972   4.057   3.009 -0.0182  0.0188  0.4884
 3177SOL    HW120993   3.995   4.148   2.991  0.8288 -0.4164 -0.5933
 3177SOL    HW220994   3.910   4.049   2.937 -1.5293  1.3239  1.6490
 3178SOL     OW20995   2.591   0.965   4.976 -0.1627  0.6629 -0.9574
 3178SOL    HW120996   2.674   0.971   4.928  1.3327 -0.3485  1.4969
 3178SOL    HW220997   2.626   0.981   5.063 -0.5002 -2.9011 -0.1642
 3179SOL     OW20998   0.660   3.600   5.044 -0.1380 -0.2147  0.4104
 3179SOL    HW120999   0.637   3.651   5.121  0.0472 -0.7612  0.8305
 3179SOL    HW221000   0.736   3.549   5.073  0.2048  2.0228  3.3495
 3180SOL     OW21001   1.131   0.200   5.265  0.3943  0.4782 -0.1803
 3180SOL    HW121002   1.142   0.218   5.358  1.4590  0.9860 -0.4019
 3180SOL    HW221003   1.121   0.105   5.268 -2.2315  0.7470 -0.6735
 3181SOL     OW21004   1.495   2.221   9.691 -0.4911 -0.0313 -0.4830
 3181SOL    HW121005   1.523   2.308   9.663 -1.9618  0.5790 -0.0555
 3181SOL    HW221006   1.486   2.175   9.608  1.2323  0.7988 -1.1420
 3182SOL     OW21007   0.270   4.644   2.970 -0.1425  0.1300  0.5400
 3182SOL    HW121008   0.306   4.610   2.889 -0.1885  2.4116 -0.4226
 3182SOL    HW221009   0.268   4.574   3.035  0.8339 -1.1597 -0.8291
 3183SOL     OW21010   0.214   3.509   3.698  0.2600 -0.1494  0.3434
 3183SOL    HW121011   0.306   3.485   3.687  0.2368  0.2379 -0.6857
 3183SOL    HW221012   0.206   3.531   3.791  0.4860 -0.8548  0.5268
 3184SOL     OW21013   3.952   2.006   4.301  0.2489  0.8481 -0.2276
 3184SOL    HW121014   3.969   1.922   4.257  0.2983  1.4038 -1.2629
 3184SOL    HW221015   4.044   2.032   4.305 -0.3467  2.9733 -0.6081
 3185SOL     OW21016   1.720   2.238  14.026  0.2470  0.7278 -0.0574
 3185SOL    HW121017   1.807   2.227  13.988 -0.6014 -0.3526 -1.6712
 3185SOL    HW221018   1.743   2.302  14.094  3.3301  0.6435 -1.0214
 3186SOL     OW21019   4.402   1.621   2.827 -0.0640 -0.2953 -0.4937
 3186SOL    HW121020   4.473   1.678   2.859 -0.7132 -0.0323  0.4516
 3186SOL    HW221021   4.323   1.656   2.868  0.3921 -1.6454  1.5427
 3187SOL     OW21022   4.618   1.719  10.233 -0.4542 -0.0966  0.5023
 3187SOL    HW121023   4.676   1.699  10.159  0.6282 -0.6356  1.4958
 3187SOL    HW221024   4.656   1.796  10.274  1.2689 -1.1161  0.8352
 3188SOL     OW21025   4.655   2.112   7.503  0.3888 -0.2482  0.2148
 3188SOL    HW121026   4.639   2.204   7.485  1.8236  0.0801  0.5777
 3188SOL    HW221027   4.671   2.115   7.597  2.4787  0.4869 -0.1660
 3189SOL     OW21028   2.338   3.884  16.833 -0.3327  0.2967 -0.2905
 3189SOL    HW121029   2.312   3.971  16.804  0.6390  0.5576 -0.3587
 3189SOL    HW221030   2.303   3.848  16.751 -0.0320 -0.6488 -0.0029
 3190SOL     OW21031   3.202   0.987   9.537  0.3580  0.0565 -0.1563
 3190SOL    HW121032   3.203   0.895   9.513 -2.6208 -1.0438  3.9576
 3190SOL    HW221033   3.297   0.996   9.545  0.3791 -0.9486  0.6594
 3191SOL     OW21034   2.515   0.880  16.840  0.4467 -0.4840 -0.3267
 3191SOL    HW121035   2.609   0.865  16.848  0.2406 -0.8650  1.5749
 3191SOL    HW221036   2.494   0.794  16.803 -0.4443 -0.3633 -0.1136
 3192SOL     OW21037   0.678   0.897   8.440  0.1746  0.2138 -0.1702
 3192SOL    HW121038   0.733   0.973   8.459  0.9175  0.1958 -2.2042
 3192SOL    HW221039   0.642   0.876   8.526 -0.3258  1.1777 -0.1484
 3193SOL     OW21040   0.404   1.510   3.621  0.0604 -0.3268 -0.2526
 3193SOL    HW121041   0.494   1.477   3.632  0.5219  0.7312 -0.8197
 3193SOL    HW221042   0.425   1.594   3.580  0.6586 -0.1312  0.4527
 3194SOL     OW21043   4.103   4.724  15.599 -0.1719  0.0414  0.1963
 3194SOL    HW121044   4.011   4.718  15.623  0.6706 -1.1997  3.1799
 3194SOL    HW221045   4.109   0.047  15.517  0.4266 -2.0661 -0.9950
 3195SOL     OW21046   1.965   2.357   6.850  0.1995 -0.2686 -0.4049
 3195SOL    HW121047   2.044   2.303   6.845 -1.3927 -2.5755 -0.3879
 3195SOL    HW221048   1.938   2.341   6.940  1.7585  2.1683  0.5091
 3196SOL     OW21049   3.991   2.685  11.596  0.2874  0.8102 -0.8027
 3196SOL    HW121050   3.921   2.736  11.636 -0.6070  0.1372 -1.5115
 3196SOL    HW221051   4.055   2.674  11.666 -0.6108  0.0083 -0.1100
 3197SOL     OW21052   1.278   2.682  14.487  0.5113  0.0017 -0.0638
 3197SOL    HW121053   1.280   2.735  14.567  1.2206 -0.5700  0.3053
 3197SOL    HW221054   1.224   2.736  14.429  0.2400  0.3227  0.4931
 3198SOL     OW21055   0.544   0.067   5.665  1.0094  0.5775 -0.7787
 3198SOL    HW121056   0.582   0.041   5.581 -1.6273 -1.1573 -1.4296
 3198SOL    HW221057   0.543   0.159   5.639  1.0199  0.4543 -1.2106
 3199SOL     OW21058   3.634   1.123   2.234 -0.3237 -0.3995  0.2310
 3199SOL    HW121059   3.713   1.172   2.257 -0.6131  0.0917  0.1879
 3199SOL    HW221060   3.656   1.061   2.165  1.6386  2.3722 -1.6354
 3200SOL     OW21061   1.278   3.922   5.849  0.2066  0.1030  0.1764
 3200SOL    HW121062   1.195   3.891   5.814 -1.0921  0.9076  2.5646
 3200SOL    HW221063   1.241   3.967   5.925  1.2293  0.5223  0.4259
 3201SOL     OW21064   3.173   1.689   3.532 -0.6349 -0.7862 -0.0887
 3201SOL    HW121065   3.237   1.685   3.603  0.1018 -1.1049 -0.7723
 3201SOL    HW221066   3.097   1.691   3.589 -0.0878 -1.3202  0.6570
 3202SOL     OW21067   2.267   1.747   7.804  0.0862  0.6620  0.0152
 3202SOL    HW121068   2.289   1.827   7.757 -0.4619  1.5986  1.3317
 3202SOL    HW221069   2.187   1.774   7.850 -0.2112 -1.2589  0.6350
 3203SOL     OW21070   2.703   3.921   1.825  0.2229 -0.1910  0.9516
 3203SOL    HW121071   2.642   3.887   1.891 -0.9515 -1.4669 -0.8153
 3203SOL    HW221072   2.781   3.876   1.855  0.5388 -1.1934 -1.4057
 3204SOL     OW21073   0.699   0.553   5.148 -0.1926  0.4519 -0.0218
 3204SOL    HW121074   0.731   0.533   5.236 -3.7219 -3.4679  0.3283
 3204SOL    HW221075   0.604   0.556   5.150 -0.3362 -3.0602 -1.3566
 3205SOL     OW21076   4.462   2.349   3.185  0.7294 -0.5882  0.0895
 3205SOL    HW121077   4.432   2.332   3.095 -2.5320  0.3251  0.9973
 3205SOL    HW221078   4.395   2.412   3.212 -0.2608 -1.1826 -0.9240
 3206SOL     OW21079   1.745   1.381   0.765 -0.1534 -0.6411  0.0888
 3206SOL    HW121080   1.661   1.426   0.754  1.5255  2.5796  0.3087
 3206SOL    HW221081   1.719   1.327   0.840  2.0809 -1.6543  0.1297
 3207SOL     OW21082   3.490   2.408   1.364  0.3344  0.1905  0.3074
 3207SOL    HW121083   3.397   2.387   1.359  0.1377  1.0009  0.6768
 3207SOL    HW221084   3.521   2.408   1.273  0.8658  0.7814  0.4922
 3208SOL     OW21085   1.765   2.984   8.058  0.3046 -0.2150 -0.1357
 3208SOL    HW121086   1.715   3.055   8.097 -1.9883 -2.3034  0.7316
 3208SOL    HW221087   1.715   2.905   8.080  0.5267 -0.6246 -1.0899
 3209SOL     OW21088   4.035   0.896   1.698 -0.3813 -0.8111  0.3940
 3209SOL    HW121089   4.130   0.890   1.710 -0.2340 -0.8072 -0.7435
 3209SOL    HW221090   4.046   0.875   1.605 -1.5829  1.9164 -0.3548
 3210SOL     OW21091   1.729   2.260   2.794 -0.3713  0.0109  0.0190
 3210SOL    HW121092   1.710   2.296   2.881  1.3781  0.6875  0.1321
 3210SOL    HW221093   1.641   2.257   2.757 -0.9968  1.7269  1.3268
 3211SOL     OW21094   1.886   1.812  14.166 -0.4075  0.7758 -0.3571
 3211SOL    HW121095   1.960   1.809  14.226 -0.0606  0.9259 -0.7764
 3211SOL    HW221096   1.895   1.897  14.123  0.8653  0.1552 -1.3264
 3212SOL     OW21097   1.292   2.490   9.120  0.6192  0.1984 -0.0091
 3212SOL    HW121098   1.281   2.544   9.198 -0.1668  2.0707 -1.4205
 3212SOL    HW221099   1.378   2.519   9.090  1.0752 -1.1732 -0.0152
 3213SOL     OW21100   0.056   3.920   7.507 -0.6441  0.3950 -0.3913
 3213SOL    HW121101   0.116   3.975   7.558 -0.5190  0.4925 -0.6434
 3213SOL    HW221102   0.123   3.906   7.441 -0.3719 -1.4920  0.2789
 3214SOL     OW21103   4.163   3.909   0.862  0.1721 -0.3353 -0.1766
 3214SOL    HW121104   4.160   3.996   0.902  1.1437 -0.6574  0.5981
 3214SOL    HW221105   4.068   3.908   0.849  0.3046 -1.1884 -1.0509
 3215SOL     OW21106   0.226   4.653  14.285  0.5806  0.4705  0.0370
 3215SOL    HW121107   0.212   4.602  14.365  2.2847  0.6820  0.4749
 3215SOL    HW221108   0.250   0.012  14.324 -1.9739  0.8614  0.7182
 3216SOL     OW21109   3.861   2.521   7.805 -0.5270  0.0233  0.0914
 3216SOL    HW121110   3.943   2.566   7.826 -0.7858 -0.1534  1.4730
 3216SOL    HW221111   3.864   2.518   7.709  0.3237 -0.5657  0.1299
 3217SOL     OW21112   0.312   1.699  16.693 -0.1182  0.3165  0.3839
 3217SOL    HW121113   0.311   1.655  16.607  0.3302  0.7449  0.1573
 3217SOL    HW221114   0.229   1.664  16.724  0.5678 -0.3105  1.5168
 3218SOL     OW21115   0.475   4.122   1.834 -0.2378  0.2321  0.4938
 3218SOL    HW121116   0.567   4.147   1.842 -0.4625  2.1529 -3.0136
 3218SOL    HW221117   0.479   4.045   1.777  2.4763 -0.9695  2.2786
 3219SOL     OW21118   4.215   2.613   9.674 -0.0267  0.2995  0.2252
 3219SOL    HW121119   4.129   2.653   9.687 -1.0000 -2.3274  1.6611
 3219SOL    HW221120   4.272   2.657   9.737 -0.6030  1.8055 -0.2840
 3220SOL     OW21121   1.261   1.456   8.093  0.7380 -0.8045  0.2544
 3220SOL    HW121122   1.282   1.464   8.000  2.8264 -1.7113  0.6592
 3220SOL    HW221123   1.285   1.365   8.110  0.4420 -1.2006 -1.4262
 3221SOL     OW21124   0.094   0.185   8.573  0.2254  0.0766  0.1328
 3221SOL    HW121125   0.040   0.157   8.499  0.4174 -2.9027  1.1347
 3221SOL    HW221126   0.026   0.223   8.629  1.9310 -0.3575  2.5401
 3222SOL     OW21127   4.103   2.821   0.823  0.4563  0.2635 -0.0201
 3222SOL    HW121128   4.023   2.783   0.860  1.2835 -1.2842  0.2095
 3222SOL    HW221129   4.072   2.911   0.826  4.1987  1.5752 -0.5738
 3223SOL     OW21130   0.218   0.667   7.261  0.0906 -0.7406 -0.0505
 3223SOL    HW121131   0.257   0.751   7.285  0.5054 -0.8064 -0.5045
 3223SOL    HW221132   0.264   0.654   7.178  2.2714  1.4581  0.8216
 3224SOL     OW21133   1.803   2.498   9.115  0.5471 -0.1057 -0.2553
 3224SOL    HW121134   1.787   2.415   9.069 -2.6899 -0.5362  1.6633
 3224SOL    HW221135   1.775   2.473   9.203  0.4005 -0.8653 -0.5179
 3225SOL     OW21136   4.556   2.999   8.765  0.2180 -0.2261 -0.2832
 3225SOL    HW121137   4.487   3.032   8.708  0.1985  1.2736  0.6061
 3225SOL    HW221138   4.523   3.003   8.855  0.7577  3.6461 -0.2842
 3226SOL     OW21139   1.655   4.190   1.849  0.3008  0.2015 -0.6589
 3226SOL    HW121140   1.648   4.284   1.831 -1.3201  0.0623 -0.7430
 3226SOL    HW221141   1.714   4.205   1.923  1.0058 -0.9882 -0.9776
 3227SOL     OW21142   2.930   1.848   1.419 -0.1063  0.0322  0.3751
 3227SOL    HW121143   2.930   1.753   1.414  0.1830  0.0869 -0.6588
 3227SOL    HW221144   2.849   1.862   1.370 -0.2329 -0.2845  0.4962
 3228SOL     OW21145   0.850   3.533   7.827  0.2709  0.5355 -0.3694
 3228SOL    HW121146   0.904   3.477   7.882  0.5765 -1.9573 -3.1778
 3228SOL    HW221147   0.904   3.526   7.748 -1.6613  0.4417 -1.7045
 3229SOL     OW21148   3.563   1.535  15.118 -0.3824 -0.0484 -0.1181
 3229SOL    HW121149   3.583   1.627  15.102 -2.9300  0.3366 -1.1676
 3229SOL    HW221150   3.571   1.496  15.031 -0.6422  0.2351 -0.2713
 3230SOL     OW21151   4.615   1.540  16.950 -0.0490  1.0552 -0.3520
 3230SOL    HW121152   4.530   1.583  16.941  0.7016  2.6248  0.1080
 3230SOL    HW221153   4.602   1.495  17.033 -1.1510 -0.2007 -1.2004
 3231SOL     OW21154   3.921   0.356  13.271 -0.1961  0.9117  0.7994
 3231SOL    HW121155   3.997   0.341  13.215 -0.2317  1.0488  0.7124
 3231SOL    HW221156   3.953   0.320  13.353  0.1673 -0.1587  0.1895
 3232SOL     OW21157   3.829   1.704   4.743 -0.1030 -0.1465 -0.1316
 3232SOL    HW121158   3.866   1.768   4.682 -1.2189  0.6724  0.0541
 3232SOL    HW221159   3.749   1.679   4.696  0.3686 -1.7521 -0.1006
 3233SOL     OW21160   0.355   1.698   2.751 -0.1168  0.0585 -0.1252
 3233SOL    HW121161   0.432   1.735   2.794 -1.5110  1.0176  1.5392
 3233SOL    HW221162   0.382   1.608   2.734 -0.4147  0.0365 -0.5134
 3234SOL     OW21163   0.591   1.712   8.247  0.2214  0.2532 -0.1293
 3234SOL    HW121164   0.664   1.651   8.240  0.4156  0.3984  0.5809
 3234SOL    HW221165   0.627   1.787   8.295  0.5696 -0.0597  0.0990
 3235SOL     OW21166   4.178   2.559  15.073 -0.1695 -0.3805 -0.4890
 3235SOL    HW121167   4.235   2.532  15.001  2.0906  1.1606  0.7330
 3235SOL    HW221168   4.105   2.608  15.035  1.1842  2.4780  0.6856
 3236SOL     OW21169   3.651   3.263  10.324 -0.7879  0.7470  0.2224
 3236SOL    HW121170   3.652   3.274  10.419 -1.6100  1.5706  0.1397
 3236SOL    HW221171   3.742   3.275  10.298 -0.1297  2.5901  3.4948
 3237SOL     OW21172   1.823   2.506   5.716  0.2402  0.0710 -0.0760
 3237SOL    HW121173   1.729   2.491   5.718  0.1760  0.3758 -0.7480
 3237SOL    HW221174   1.840   2.497   5.622 -0.2595 -0.2246 -0.1349
 3238SOL     OW21175   0.027   4.089   7.040 -0.0413  0.1506  0.2498
 3238SOL    HW121176   0.051   4.137   6.961  1.4743 -1.6831 -0.3868
 3238SOL    HW221177   0.109   4.087   7.088  0.0279 -0.7527  0.0859
 3239SOL     OW21178   1.063   2.687   3.937 -0.1857 -0.3075 -0.9515
 3239SOL    HW121179   1.146   2.658   3.901  1.1971 -0.0158  1.9808
 3239SOL    HW221180   1.079   2.781   3.944 -2.6246  0.0712 -0.2449
 3240SOL     OW21181   3.248   1.163   5.417 -0.3045  0.7861 -0.5055
 3240SOL    HW121182   3.176   1.187   5.474  0.7161  1.8437  0.3468
 3240SOL    HW221183   3.261   1.074   5.450  0.0461  0.6249 -1.0748
 3241SOL     OW21184   3.966   0.942   1.402 -0.1671 -0.2413  0.1646
 3241SOL    HW121185   4.008   0.857   1.394 -2.1580 -1.3230  1.2478
 3241SOL    HW221186   4.003   0.973   1.319  1.8163 -0.4469  0.9656
 3242SOL     OW21187   1.962   2.107  13.982 -0.7087  0.3143 -0.5248
 3242SOL    HW121188   2.048   2.148  13.972  1.2220 -3.3539  0.7135
 3242SOL    HW221189   1.994   2.016  13.985 -2.2842 -0.3000 -2.2402
 3243SOL     OW21190   2.477   0.566   6.111  0.0436  0.6523  0.1155
 3243SOL    HW121191   2.449   0.589   6.022 -0.6537 -0.3334  0.0829
 3243SOL    HW221192   2.404   0.513   6.141  0.3500  1.1520  1.7215
 3244SOL     OW21193   3.497   3.625  16.326  0.0340 -0.5896  0.2984
 3244SOL    HW121194   3.553   3.663  16.394  0.1024 -1.0167  0.4795
 3244SOL    HW221195   3.431   3.585  16.383 -0.6793 -0.6174 -0.5532
 3245SOL     OW21196   3.472   3.075  13.690 -0.6582  0.0120 -0.0018
 3245SOL    HW121197   3.452   3.024  13.611  1.4018 -1.6454  0.5654
 3245SOL    HW221198   3.548   3.026  13.721 -0.1873  1.2541  0.8296
 3246SOL     OW21199   3.217   2.851   4.114  0.3592 -0.6287  0.2746
 3246SOL    HW121200   3.174   2.873   4.032  0.0991 -1.2825  0.2357
 3246SOL    HW221201   3.162   2.904   4.172  2.7299  0.7999  1.2067
 3247SOL     OW21202   0.633   0.242   8.574  0.1423 -0.1332 -0.1022
 3247SOL    HW121203   0.570   0.240   8.646 -0.2116  1.2503 -0.3711
 3247SOL    HW221204   0.603   0.320   8.528 -0.8385  1.6049  3.5166
 3248SOL     OW21205   2.024   3.592  15.259 -0.0180 -0.3413  0.2122
 3248SOL    HW121206   2.119   3.603  15.246 -0.2762 -0.3956 -1.8181
 3248SOL    HW221207   2.000   3.542  15.181  0.8754 -1.2998  0.5519
 3249SOL     OW21208   0.330   0.334   4.969  0.3961  0.3868  0.0486
 3249SOL    HW121209   0.357   0.250   5.008  1.5524  1.0702  0.7250
 3249SOL    HW221210   0.405   0.334   4.910  1.5842  0.7481  1.5383
 3250SOL     OW21211   2.407   2.326   1.486  0.2249  0.4131  0.0979
 3250SOL    HW121212   2.467   2.266   1.442 -1.3407 -2.2504  1.5849
 3250SOL    HW221213   2.328   2.275   1.474  0.0977  0.4669  0.7118
 3251SOL     OW21214   1.802   0.148   5.043 -0.0546  0.3340  0.5310
 3251SOL    HW121215   1.831   0.229   5.085  1.4386  0.9506 -1.6326
 3251SOL    HW221216   1.857   0.085   5.089  0.0045  0.3406  0.4703
 3252SOL     OW21217   3.087   1.403   5.825  1.2558 -0.5355  0.5634
 3252SOL    HW121218   3.172   1.367   5.848  1.5433 -0.5365 -0.4723
 3252SOL    HW221219   3.082   1.485   5.874 -1.5611 -1.5773  2.0225
 3253SOL     OW21220   1.269   4.460   7.545 -0.2536 -0.4575  0.1823
 3253SOL    HW121221   1.258   4.375   7.502 -1.5389  0.7367 -1.8887
 3253SOL    HW221222   1.208   4.523   7.506 -1.7006 -1.7950  0.2990
 3254SOL     OW21223   0.248   3.502   3.963 -0.2808 -0.4569  0.3424
 3254SOL    HW121224   0.220   3.460   4.044 -1.2698 -0.3963  0.0270
 3254SOL    HW221225   0.340   3.475   3.966  0.4583  1.6765 -3.3727
 3255SOL     OW21226   1.734   1.015   4.700 -0.2357 -0.0904  0.4016
 3255SOL    HW121227   1.710   1.039   4.789  0.2690  0.8593  0.2842
 3255SOL    HW221228   1.650   0.988   4.664 -0.9200  0.5485  1.5230
 3256SOL     OW21229   2.343   0.501   0.295  0.0024 -0.4796 -0.0987
 3256SOL    HW121230   2.362   0.449   0.373  1.0387  1.4286  0.9225
 3256SOL    HW221231   2.419   0.560   0.295 -1.2036  1.0631  1.6136
 3257SOL     OW21232   2.231   3.365   8.512 -0.6036 -0.7882 -0.1365
 3257SOL    HW121233   2.252   3.298   8.577  0.3376 -0.1185  0.2529
 3257SOL    HW221234   2.169   3.417   8.563 -0.4034  1.6717 -2.3868
 3258SOL     OW21235   1.560   3.399   1.985  0.0159 -0.1054  0.1793
 3258SOL    HW121236   1.556   3.366   2.075  2.7747  0.1937  0.4154
 3258SOL    HW221237   1.579   3.492   2.001 -1.0470  0.1286  0.0613
 3259SOL     OW21238   2.622   3.303  16.081 -0.0362 -0.2564  0.0994
 3259SOL    HW121239   2.590   3.298  15.991  0.5702 -2.0539 -0.0006
 3259SOL    HW221240   2.542   3.300  16.133 -0.9118  1.7452 -1.1156
 3260SOL     OW21241   2.311   1.978   7.687 -0.5129 -0.1484 -0.9289
 3260SOL    HW121242   2.265   2.018   7.761 -0.7645 -1.1631 -0.5479
 3260SOL    HW221243   2.394   2.019   7.709 -2.0888  2.4557  0.2354
 3261SOL     OW21244   3.587   0.328   3.041 -0.1354 -0.2756  0.0998
 3261SOL    HW121245   3.537   0.250   3.062  0.7369 -1.3525 -1.7428
 3261SOL    HW221246   3.608   0.310   2.949  1.0706  1.1197  0.0946
 3262SOL     OW21247   0.448   2.253   6.189 -0.5882  0.1859  0.4715
 3262SOL    HW121248   0.426   2.206   6.108 -1.1081  0.5670  0.3958
 3262SOL    HW221249   0.476   2.180   6.245  0.5323  0.7532  0.6432
 3263SOL     OW21250   0.957   3.388   8.900  0.7489  0.2212  0.4996
 3263SOL    HW121251   0.941   3.404   8.993  0.3033  1.8836  0.1387
 3263SOL    HW221252   1.048   3.419   8.892  0.6644 -0.3766 -2.5684
 3264SOL     OW21253   3.792   2.476   1.799  0.4024 -0.4715  0.4216
 3264SOL    HW121254   3.743   2.476   1.716 -1.8862  0.8770  1.7832
 3264SOL    HW221255   3.878   2.475   1.758  0.8783  0.1795  1.4219
 3265SOL     OW21256   3.820   3.014   5.981  0.5997  0.0083  0.1153
 3265SOL    HW121257   3.781   3.068   5.913 -0.2129 -1.0659 -0.2714
 3265SOL    HW221258   3.746   2.984   6.034  0.8755  0.1551  0.5928
 3266SOL     OW21259   1.681   1.223   4.268  0.0696 -0.0719  0.7191
 3266SOL    HW121260   1.729   1.148   4.304 -0.1893  0.4113  2.0259
 3266SOL    HW221261   1.626   1.248   4.341 -1.4554  0.7855 -0.7205
 3267SOL     OW21262   2.545   1.588  10.057 -0.4935  0.4161  0.2594
 3267SOL    HW121263   2.477   1.542  10.009  2.2825 -2.3531 -1.0188
 3267SOL    HW221264   2.496   1.613  10.135 -0.3551  1.9641 -0.1445
 3268SOL     OW21265   1.566   4.690   1.970  1.0277  0.5495  0.0272
 3268SOL    HW121266   1.500   4.655   2.029 -0.3356  0.6374 -1.4463
 3268SOL    HW221267   1.520   0.031   1.920  0.3292 -1.4820 -2.0348
 3269SOL     OW21268   4.399   2.572   5.891 -0.1307  0.6959 -0.1324
 3269SOL    HW121269   4.436   2.576   5.979 -0.0193  0.9555 -0.1877
 3269SOL    HW221270   4.384   2.665   5.873  0.1553  1.2459  2.5593
 3270SOL     OW21271   1.937   2.888   3.630  0.3472 -0.6218 -0.1815
 3270SOL    HW121272   1.988   2.807   3.627  1.3595 -0.1757  4.3684
 3270SOL    HW221273   1.998   2.951   3.592  1.1551 -0.1377  1.8953
 3271SOL     OW21274   4.208   0.333  16.954 -0.4223  0.2116  0.2068
 3271SOL    HW121275   4.240   0.250  16.989  0.4954 -0.2866 -1.7992
 3271SOL    HW221276   4.148   0.313  16.882 -1.3480  1.6469  0.5697
 3272SOL     OW21277   2.438   1.091   8.800  0.6043 -0.1240  0.5876
 3272SOL    HW121278   2.429   1.149   8.876  1.2397  1.7594 -0.7622
 3272SOL    HW221279   2.506   1.141   8.755 -0.9506  1.3307 -0.1309
 3273SOL     OW21280   2.206   1.622   1.064 -0.0036  0.4157  0.5273
 3273SOL    HW121281   2.178   1.611   0.973  0.2280 -1.2371  0.6442
 3273SOL    HW221282   2.152   1.560   1.114  1.1295 -2.2961 -1.5895
 3274SOL     OW21283   0.303   0.867   8.139 -0.5277 -0.7038  0.1229
 3274SOL    HW121284   0.333   0.788   8.094  0.0580  0.9356 -2.3700
 3274SOL    HW221285   0.215   0.885   8.107 -0.3065 -0.1270 -0.1548
 3275SOL     OW21286   2.241   3.019   6.249 -0.1416 -0.9100  0.3799
 3275SOL    HW121287   2.160   3.046   6.206  1.2258  2.3065 -0.1773
 3275SOL    HW221288   2.246   2.926   6.229  3.7551 -0.9666  1.5550
 3276SOL     OW21289   2.276   0.625   7.654 -1.1977  0.2564 -0.2989
 3276SOL    HW121290   2.316   0.690   7.712 -0.7344 -0.0197 -0.3025
 3276SOL    HW221291   2.203   0.600   7.710 -0.7870  0.4633  0.3238
 3277SOL     OW21292   0.523   3.554  13.959  0.3287 -0.4588 -0.5927
 3277SOL    HW121293   0.490   3.465  13.945 -0.1026 -0.3880 -0.0357
 3277SOL    HW221294   0.498   3.583  13.871  2.0186  1.3607 -0.4644
 3278SOL     OW21295   2.336   3.012   7.743  0.4815 -0.3947  0.2754
 3278SOL    HW121296   2.280   2.989   7.817 -2.1070  0.8310 -1.3204
 3278SOL    HW221297   2.388   2.933   7.731  1.6203  0.5463 -0.9804
 3279SOL     OW21298   0.628   2.917   6.590 -0.1782 -0.2783 -0.0097
 3279SOL    HW121299   0.612   2.983   6.523 -0.9480 -1.5297 -1.0645
 3279SOL    HW221300   0.655   2.833   6.552  0.9337 -0.4284  1.1027
 3280SOL     OW21301   2.207   1.977   1.797 -0.2543 -0.0406  0.2124
 3280SOL    HW121302   2.137   2.015   1.744 -0.6647 -0.1451  0.6777
 3280SOL    HW221303   2.152   1.918   1.849 -3.3349  1.4243 -1.3501
 3281SOL     OW21304   3.190   2.673  11.917 -0.2891 -0.8174  0.1892
 3281SOL    HW121305   3.140   2.746  11.956 -0.9133 -0.5877 -1.0512
 3281SOL    HW221306   3.274   2.680  11.962  0.0847 -1.9686 -0.3429
 3282SOL     OW21307   1.923   2.384   4.889  0.0907 -0.0461  0.7071
 3282SOL    HW121308   1.827   2.384   4.886  0.0649  0.0779  1.5533
 3282SOL    HW221309   1.935   2.357   4.980  2.6993 -1.1526  0.0207
 3283SOL     OW21310   1.358   2.930  11.230  0.0139 -0.5460 -1.2512
 3283SOL    HW121311   1.445   2.928  11.270 -1.7511 -0.2842  2.5435
 3283SOL    HW221312   1.369   2.986  11.153 -1.3029  0.5667 -0.6370
 3284SOL     OW21313   2.811   1.530   2.825 -0.3793 -0.1066  0.2650
 3284SOL    HW121314   2.769   1.614   2.846 -2.6337 -0.1881 -4.0659
 3284SOL    HW221315   2.872   1.523   2.899  0.2747  0.9955 -0.1678
 3285SOL     OW21316   3.547   3.310   2.577  0.2136  0.3151 -0.2072
 3285SOL    HW121317   3.622   3.329   2.521  0.4955 -0.6079 -0.1442
 3285SOL    HW221318   3.581   3.236   2.627  1.4384 -0.3904 -2.0781
 3286SOL     OW21319   1.684   1.068   6.237  0.0585 -0.1171  0.0581
 3286SOL    HW121320   1.589   1.078   6.230  0.1195  1.4871  1.5483
 3286SOL    HW221321   1.680   1.014   6.316 -2.6051 -1.5979 -1.0782
 3287SOL     OW21322   1.070   2.748   7.847  0.4500  0.0818  0.0629
 3287SOL    HW121323   1.013   2.690   7.898 -0.7524  0.5762 -0.7507
 3287SOL    HW221324   1.100   2.812   7.913  0.7999  0.0837 -0.0965
 3288SOL     OW21325   1.734   1.849  10.202 -0.1107 -0.1106 -0.2740
 3288SOL    HW121326   1.776   1.934  10.186 -1.9979  0.9279  0.3187
 3288SOL    HW221327   1.813   1.796  10.210  1.2909  1.8232 -1.1676
 3289SOL     OW21328   1.126   1.568   2.264 -0.4050 -0.3607  0.3562
 3289SOL    HW121329   1.078   1.564   2.347 -0.2614 -0.7700  0.4213
 3289SOL    HW221330   1.061   1.620   2.217  1.7121  1.9677  0.0064
 3290SOL     OW21331   1.937   3.549   6.407  0.0115  0.4232  0.5380
 3290SOL    HW121332   1.946   3.459   6.375 -0.6453  1.0753 -1.4399
 3290SOL    HW221333   1.855   3.538   6.455 -0.8328  0.4027 -0.9101
 3291SOL     OW21334   3.925   1.033   8.514  0.7257  0.2901 -0.1781
 3291SOL    HW121335   3.870   1.111   8.509  1.4391  0.8220  0.2485
 3291SOL    HW221336   4.018   1.057   8.516  1.2971 -2.0684  1.0484
 3292SOL     OW21337   2.734   3.499  14.110 -0.1673 -0.1590  0.6174
 3292SOL    HW121338   2.704   3.460  14.193 -0.7836  0.8319  0.8629
 3292SOL    HW221339   2.652   3.491  14.061  1.4722 -1.2371 -1.9085
 3293SOL     OW21340   2.654   0.808   2.824  0.3233 -0.0503 -0.0338
 3293SOL    HW121341   2.587   0.829   2.889  0.4274  4.0604 -1.2539
 3293SOL    HW221342   2.659   0.714   2.837  3.8155  0.0392 -0.6586
 3294SOL     OW21343   4.252   1.278  10.610  0.0531  0.1564  0.8383
 3294SOL    HW121344   4.254   1.193  10.655 -0.6448 -0.0053  0.5612
 3294SOL    HW221345   4.312   1.319  10.672  1.9005 -0.1142 -0.7680
 3295SOL     OW21346   0.205   2.245   4.036  0.2440 -0.2620  0.2994
 3295SOL    HW121347   0.189   2.289   3.953  0.7396  0.6748  0.7035
 3295SOL    HW221348   0.172   2.313   4.094  1.5846 -1.0036  1.9466
 3296SOL     OW21349   3.932   1.962   7.299  0.1075  0.0184  0.1646
 3296SOL    HW121350   3.965   2.032   7.244 -0.4897  0.5747  0.5145
 3296SOL    HW221351   4.014   1.931   7.337  0.8199  0.4240 -1.0595
 3297SOL     OW21352   2.629   3.971   1.558 -0.0279  0.1600  0.0668
 3297SOL    HW121353   2.625   3.968   1.653  0.5512 -1.2982  0.0518
 3297SOL    HW221354   2.712   4.017   1.545  0.2760 -0.6936 -1.0097
 3298SOL     OW21355   3.932   2.323   7.950 -0.5969  0.3836  0.0030
 3298SOL    HW121356   3.903   2.265   7.879 -0.2902  1.4449 -0.9869
 3298SOL    HW221357   3.908   2.402   7.902 -1.3664 -1.1598 -2.1685
 3299SOL     OW21358   4.210   2.042   7.892  0.2519 -0.4849 -0.5655
 3299SOL    HW121359   4.261   1.962   7.904  0.0704 -0.7894 -1.7788
 3299SOL    HW221360   4.131   1.997   7.859  0.5141 -2.1864  1.1501
 3300SOL     OW21361   4.690   0.731   3.785 -0.7400 -0.1390 -0.5149
 3300SOL    HW121362   4.712   0.771   3.701  0.7277  0.4502  0.1589
 3300SOL    HW221363   4.668   0.641   3.760 -1.1961  0.0734 -0.8853
 3301SOL     OW21364   1.023   1.727   1.493 -0.0970 -0.9504  0.2328
 3301SOL    HW121365   1.001   1.635   1.508  0.0620 -1.1169 -0.5433
 3301SOL    HW221366   1.106   1.743   1.538  0.8475 -2.1278 -1.0993
 3302SOL     OW21367   3.507   4.688   2.892 -0.0886  0.2941  0.2782
 3302SOL    HW121368   3.439   4.626   2.920 -1.0247  1.4507  0.5879
 3302SOL    HW221369   3.549   4.640   2.821  2.0140 -1.0489  2.4234
 3303SOL     OW21370   1.481   2.386   2.245  0.2012  0.3558 -0.3934
 3303SOL    HW121371   1.462   2.313   2.304  0.0191  0.3312 -0.4820
 3303SOL    HW221372   1.514   2.335   2.170 -2.0058 -0.0973 -1.0660
 3304SOL     OW21373   0.066   4.190   6.417 -0.5598 -1.1889  0.0914
 3304SOL    HW121374   0.087   4.148   6.333  0.9559 -1.1323  0.4371
 3304SOL    HW221375   0.030   4.271   6.381 -1.0771 -0.2682  2.6582
 3305SOL     OW21376   2.679   2.332   5.932  0.5370  0.0352  0.2334
 3305SOL    HW121377   2.765   2.341   5.974  1.2481 -2.9117 -0.5918
 3305SOL    HW221378   2.683   2.247   5.888  2.1639  0.3379 -0.2164
 3306SOL     OW21379   2.538   2.286   7.120  0.2147 -0.0445 -0.0200
 3306SOL    HW121380   2.465   2.319   7.067 -1.0924  1.3119  2.6763
 3306SOL    HW221381   2.516   2.334   7.199  1.8385 -0.1151  0.4666
 3307SOL     OW21382   1.131   4.654   4.099 -0.3495 -0.6396  0.3440
 3307SOL    HW121383   1.103   4.620   4.014 -0.8271  0.0948  0.2038
 3307SOL    HW221384   1.159   4.568   4.130 -0.3409 -0.9805 -0.5955
 3308SOL     OW21385   0.336   2.646  12.580  0.0936 -1.1572  0.0166
 3308SOL    HW121386   0.296   2.643  12.667 -0.9084  0.1992 -0.4043
 3308SOL    HW221387   0.272   2.585  12.544  1.0430 -1.0104 -1.8778
 3309SOL     OW21388   2.199   1.143  12.810 -0.0582  0.2383 -0.6922
 3309SOL    HW121389   2.279   1.194  12.796 -1.4496  2.6019 -0.0300
 3309SOL    HW221390   2.209   1.127  12.903 -2.7091  4.2357  0.2583
 3310SOL     OW21391   1.973   4.403  17.046  0.6035  0.8608  0.0676
 3310SOL    HW121392   1.938   4.491  17.063 -1.4486 -0.1057  0.9369
 3310SOL    HW221393   2.065   4.426  17.042  0.3309  1.8120 -0.7237
 3311SOL     OW21394   1.286   3.685   1.796  0.2111 -0.7383 -0.4597
 3311SOL    HW121395   1.259   3.777   1.800  2.8808  0.0939 -1.9236
 3311SOL    HW221396   1.229   3.650   1.728  0.2592  0.6398 -1.1988
 3312SOL     OW21397   2.246   1.397  10.543  0.2294 -0.5429  0.7250
 3312SOL    HW121398   2.246   1.355  10.629  1.4939  0.9799  1.4757
 3312SOL    HW221399   2.166   1.358  10.508  0.1031 -1.9180  2.5684
 3313SOL     OW21400   1.808   4.210   5.085 -0.6418 -0.0426 -0.2919
 3313SOL    HW121401   1.719   4.237   5.107 -0.6006  1.4758 -1.9680
 3313SOL    HW221402   1.798   4.142   5.018 -0.4800  0.4930 -0.8599
 3314SOL     OW21403   0.233   3.721  11.686 -0.5065 -0.0643 -0.4968
 3314SOL    HW121404   0.285   3.640  11.691 -0.4448  0.0265  0.5107
 3314SOL    HW221405   0.242   3.731  11.592 -2.8652 -2.5215 -0.9946
 3315SOL     OW21406   3.364   1.374   6.541  0.3155  0.1290  0.4711
 3315SOL    HW121407   3.422   1.316   6.492 -0.0476 -0.1554  0.3858
 3315SOL    HW221408   3.357   1.337   6.628  0.1966 -0.5235  0.1818
 3316SOL     OW21409   0.819   0.014   5.186  0.3404 -0.2027 -0.0107
 3316SOL    HW121410   0.785   0.065   5.261  1.7114  0.6255  0.0513
 3316SOL    HW221411   0.764   0.054   5.118  0.2323  0.8349  0.6703
 3317SOL     OW21412   3.791   0.958  11.306  0.3153  0.2806 -0.8948
 3317SOL    HW121413   3.754   0.883  11.354  0.6863  0.9038  0.3660
 3317SOL    HW221414   3.723   1.019  11.336  1.0292  0.5689  0.1225
 3318SOL     OW21415   1.590   2.593  12.905  0.5102 -0.0004  0.6270
 3318SOL    HW121416   1.561   2.502  12.900  2.5881 -0.5810 -1.1975
 3318SOL    HW221417   1.665   2.594  12.845  0.7951 -1.8997  0.9705
 3319SOL     OW21418   1.334   1.854  11.568  0.2930 -0.2187 -0.0355
 3319SOL    HW121419   1.341   1.917  11.639 -2.3206  2.8338 -2.4801
 3319SOL    HW221420   1.378   1.898  11.496 -2.3861  0.4481 -1.2869
 3320SOL     OW21421   1.584   1.529   7.478 -0.5770  1.0201 -0.3306
 3320SOL    HW121422   1.622   1.458   7.530  1.0940  1.2381 -1.2486
 3320SOL    HW221423   1.493   1.534   7.507 -0.7161  1.0372 -0.7720
 3321SOL     OW21424   1.257   4.236   7.983  0.1755  0.0793 -0.1057
 3321SOL    HW121425   1.289   4.318   7.946  0.5132  0.3535  0.8079
 3321SOL    HW221426   1.235   4.184   7.906 -0.1398 -3.0455  2.0840
 3322SOL     OW21427   2.822   1.598   6.784  0.0172  0.1669 -0.1451
 3322SOL    HW121428   2.771   1.647   6.848 -0.2431  1.1224 -1.0969
 3322SOL    HW221429   2.864   1.535   6.844 -1.2005  1.0984  1.6996
 3323SOL     OW21430   2.552   3.690   0.288 -0.3598  0.0827  0.0442
 3323SOL    HW121431   2.483   3.656   0.344  0.1863 -1.5853 -0.2949
 3323SOL    HW221432   2.530   3.637   0.211 -0.6096  0.3932 -0.0986
 3324SOL     OW21433   1.173   0.971  14.015  0.0975  0.1039  0.1793
 3324SOL    HW121434   1.136   0.883  14.013  1.2856 -0.3962  0.0248
 3324SOL    HW221435   1.200   0.970  14.107 -0.3687  0.6517  0.3197
 3325SOL     OW21436   3.709   1.565   7.602  0.1485 -0.3732  0.0451
 3325SOL    HW121437   3.777   1.608   7.551  0.6884 -0.4662  0.6971
 3325SOL    HW221438   3.631   1.602   7.561  1.2305  1.8714  0.0317
 3326SOL     OW21439   3.403   1.213   2.079 -0.1759 -0.3051 -0.1805
 3326SOL    HW121440   3.461   1.182   2.148  0.7455 -0.1110 -0.8537
 3326SOL    HW221441   3.320   1.220   2.125  0.3710  2.0467  0.4583
 3327SOL     OW21442   0.746   2.352  15.858 -0.5032  0.3315 -0.1249
 3327SOL    HW121443   0.677   2.355  15.925  0.3983  1.9005  0.7221
 3327SOL    HW221444   0.755   2.265  15.818  2.6395 -0.4031  2.1260
 3328SOL     OW21445   3.312   4.017   7.157 -0.2701  0.3339 -0.3422
 3328SOL    HW121446   3.249   4.055   7.096 -1.1806 -2.1961 -0.9484
 3328SOL    HW221447   3.387   4.000   7.100  0.3541  2.0138 -0.0203
 3329SOL     OW21448   0.969   4.024   8.409 -0.1541 -0.0599 -0.3656
 3329SOL    HW121449   0.883   4.025   8.367 -2.1141  0.7584  3.6845
 3329SOL    HW221450   1.000   4.113   8.395  0.6122 -0.4560 -1.1931
 3330SOL     OW21451   2.932   1.099   3.991  0.2684  0.2347  0.4530
 3330SOL    HW121452   2.886   1.062   3.917  3.7424 -2.3743 -0.4221
 3330SOL    HW221453   2.999   1.142   3.938  1.3744 -2.8825 -0.6770
 3331SOL     OW21454   0.937   1.757   5.218 -0.0949 -0.9759  0.8597
 3331SOL    HW121455   0.937   1.846   5.183  0.0403 -1.1324  0.4632
 3331SOL    HW221456   0.844   1.735   5.212 -0.3630  1.0031 -2.3386
 3332SOL     OW21457   3.912   1.131   5.069  0.7224  0.1652  0.1137
 3332SOL    HW121458   3.968   1.065   5.111 -0.8528 -1.3948 -0.2021
 3332SOL    HW221459   3.864   1.148   5.150 -1.1893  0.2264 -1.0275
 3333SOL     OW21460   0.178   4.279   8.330 -0.4092 -0.4101 -0.0712
 3333SOL    HW121461   0.227   4.262   8.249  1.0404 -1.3150  0.9869
 3333SOL    HW221462   0.234   4.227   8.388  1.5714  1.5035 -0.2580
 3334SOL     OW21463   2.412   1.180  10.850 -0.4996  0.3004 -0.0126
 3334SOL    HW121464   2.332   1.232  10.842 -0.3939  0.1227 -2.4915
 3334SOL    HW221465   2.386   1.093  10.879 -2.6832  1.0374  0.2184
 3335SOL     OW21466   1.459   2.494   7.294  0.0259  0.5446 -0.3448
 3335SOL    HW121467   1.533   2.502   7.353  0.1379  0.9543 -0.5445
 3335SOL    HW221468   1.499   2.534   7.217 -2.0732 -3.1888 -3.4121
 3336SOL     OW21469   2.639   0.639   7.046 -0.5443 -0.3530  0.1643
 3336SOL    HW121470   2.544   0.644   7.056 -0.6643  1.6462 -1.6468
 3336SOL    HW221471   2.664   0.577   7.114  0.1991  0.4643  0.6425
 3337SOL     OW21472   0.475   4.557   4.480  0.3221 -0.1818 -0.6368
 3337SOL    HW121473   0.439   4.510   4.404 -0.8791 -0.9243  0.4009
 3337SOL    HW221474   0.551   4.587   4.430 -0.7435  0.9437 -1.5847
 3338SOL     OW21475   0.773   0.513   7.887 -0.5036 -0.0776 -0.1189
 3338SOL    HW121476   0.728   0.444   7.839  0.2478 -2.4231  2.4891
 3338SOL    HW221477   0.734   0.513   7.975 -0.3239 -0.1040 -0.0394
 3339SOL     OW21478   0.992   3.610   2.091 -0.2835 -0.1982  0.7381
 3339SOL    HW121479   0.952   3.545   2.148 -3.6057  0.4862 -0.7715
 3339SOL    HW221480   0.929   3.678   2.116  0.9169  0.1136  2.8819
 3340SOL     OW21481   0.555   2.437  11.486 -0.9354  0.1879  0.1625
 3340SOL    HW121482   0.599   2.458  11.569  0.8212 -0.0492 -0.7183
 3340SOL    HW221483   0.480   2.497  11.489 -1.1526 -0.2649  3.4114
 3341SOL     OW21484   0.193   3.368   4.407  0.0146  0.8131  0.2644
 3341SOL    HW121485   0.122   3.305   4.421  0.8066  0.5764  3.4125
 3341SOL    HW221486   0.204   3.363   4.312 -1.9603  0.7905  0.0471
 3342SOL     OW21487   0.861   3.037  15.500 -0.3129  0.5350 -0.1900
 3342SOL    HW121488   0.827   3.024  15.589 -0.0809  2.6933  0.2015
 3342SOL    HW221489   0.785   3.059  15.447 -0.1652 -1.3725 -1.2185
 3343SOL     OW21490   3.206   1.229  17.323  0.4050  0.2980  0.3358
 3343SOL    HW121491   3.126   1.177  17.320 -0.1127  1.1606 -0.7526
 3343SOL    HW221492   3.206   1.241  17.418  2.9061 -0.5908  0.4374
 3344SOL     OW21493   3.602   3.429   0.891  0.2068  0.4121 -0.6175
 3344SOL    HW121494   3.693   3.455   0.905 -0.2125  1.4010  0.2673
 3344SOL    HW221495   3.579   3.465   0.805  1.7303  1.0666 -0.7499
 3345SOL     OW21496   1.553   0.402  15.262 -0.5364  0.4440  0.1143
 3345SOL    HW121497   1.512   0.323  15.297 -0.5828 -0.0202 -0.9745
 3345SOL    HW221498   1.569   0.377  15.171  2.0844 -2.8214  1.4549
 3346SOL     OW21499   2.330   2.196   6.521  0.0176  0.0274 -0.9433
 3346SOL    HW121500   2.397   2.142   6.479  0.3002  0.3122 -0.8520
 3346SOL    HW221501   2.256   2.165   6.468 -2.2071 -0.0506  2.2010
 3347SOL     OW21502   2.060   3.332   7.652 -0.5073 -0.1381  0.0101
 3347SOL    HW121503   2.109   3.404   7.611 -0.4396  0.1038  0.5219
 3347SOL    HW221504   2.016   3.385   7.719  1.4881  0.1602  1.0877
 3348SOL     OW21505   2.433   2.269   6.061  0.3497 -0.1842 -0.0438
 3348SOL    HW121506   2.360   2.301   6.009  0.1344 -1.4597 -0.5262
 3348SOL    HW221507   2.511   2.291   6.009 -0.0197  2.0187  0.3655
 3349SOL     OW21508   4.534   3.830   2.873  0.5078  0.0568  0.0293
 3349SOL    HW121509   4.554   3.918   2.840 -0.8217  0.9534  1.6167
 3349SOL    HW221510   4.552   3.779   2.794  0.4220 -0.0682  0.0900
 3350SOL     OW21511   0.973   2.406   5.358  0.2706 -0.1053  0.1780
 3350SOL    HW121512   1.032   2.356   5.415 -0.8231  0.7459  2.0534
 3350SOL    HW221513   0.974   2.494   5.394  1.5055 -0.0246 -0.0709
 3351SOL     OW21514   4.062   3.530   4.329  0.3200  0.2983 -0.3576
 3351SOL    HW121515   4.010   3.460   4.370 -0.4281  0.9185 -0.2560
 3351SOL    HW221516   4.153   3.516   4.355  0.1857  1.8534  0.8825
 3352SOL     OW21517   2.186   2.007  11.012 -0.2689 -0.3727 -0.2071
 3352SOL    HW121518   2.260   1.999  10.953 -1.5458 -2.6832 -1.4647
 3352SOL    HW221519   2.181   2.102  11.023 -2.3734 -0.6123  0.9182
 3353SOL     OW21520   0.169   3.475   7.591 -0.1308  0.1166  0.2036
 3353SOL    HW121521   0.087   3.443   7.628 -1.1354 -2.5101 -4.3852
 3353SOL    HW221522   0.134   3.527   7.518  0.2692  2.0093  1.3375
 3354SOL     OW21523   2.713   2.087   8.100 -0.4135 -0.7373  0.2013
 3354SOL    HW121524   2.670   2.170   8.122 -0.2743 -0.2175 -1.4667
 3354SOL    HW221525   2.796   2.121   8.067  1.2264 -3.0117  1.9823
 3355SOL     OW21526   1.132   4.723   5.960 -0.3301  0.3555 -0.1599
 3355SOL    HW121527   1.154   0.089   5.979  2.7042 -0.2153 -0.9336
 3355SOL    HW221528   1.087   0.016   5.877 -0.5609 -2.0035 -0.5595
 3356SOL     OW21529   2.992   1.238   1.547 -0.5600 -0.3528 -0.2573
 3356SOL    HW121530   3.074   1.190   1.548 -0.8388 -0.7806  1.1644
 3356SOL    HW221531   2.957   1.224   1.459  1.0649 -2.1337 -0.6111
 3357SOL     OW21532   2.905   3.039  17.552  0.4633  0.0670  0.4991
 3357SOL    HW121533   2.966   2.967  17.539 -0.6795 -0.8291  0.1426
 3357SOL    HW221534   2.838   2.995  17.605 -1.6869 -0.0080 -2.2394
 3358SOL     OW21535   2.098   2.761   1.995 -0.8145 -0.0655 -0.1014
 3358SOL    HW121536   2.117   2.846   2.036  1.0262 -2.0502  3.2338
 3358SOL    HW221537   2.112   2.774   1.901 -0.4717  3.5261  0.4120
 3359SOL     OW21538   0.444   3.562   4.343  0.4648  0.1299  0.6933
 3359SOL    HW121539   0.374   3.520   4.394  0.2398 -1.7704 -1.1602
 3359SOL    HW221540   0.521   3.514   4.374  0.9045  0.6098  0.3346
 3360SOL     OW21541   0.532   1.375   8.867 -0.5096 -0.1636  0.1212
 3360SOL    HW121542   0.595   1.398   8.799 -0.8321  3.5140  1.0687
 3360SOL    HW221543   0.500   1.464   8.877  1.0337  0.5561 -1.2168
 3361SOL     OW21544   1.294   1.391   3.540  0.0197 -0.2684  0.3467
 3361SOL    HW121545   1.325   1.404   3.451  0.8842  0.0928  0.7047
 3361SOL    HW221546   1.332   1.306   3.561  0.2537  0.0840  1.3304
 3362SOL     OW21547   3.451   1.800   0.921 -0.0430  0.0093  0.2987
 3362SOL    HW121548   3.420   1.890   0.910  2.0418  0.7835  0.6442
 3362SOL    HW221549   3.540   1.818   0.952  0.1777  1.3550 -1.0885
 3363SOL     OW21550   0.054   1.411   8.449 -0.1104 -0.3624 -0.0327
 3363SOL    HW121551   0.107   1.337   8.476  0.9580  0.1163 -0.8237
 3363SOL    HW221552   0.082   1.478   8.512 -2.0825  2.1970 -1.8628
 3364SOL     OW21553   3.761   4.414   6.226 -0.4562  0.2650  0.8044
 3364SOL    HW121554   3.728   4.503   6.212 -3.6651 -0.8209  1.3753
 3364SOL    HW221555   3.688   4.365   6.189  0.1887  1.4987 -2.1189
 3365SOL     OW21556   2.162   1.054  13.091 -0.0024  0.1108 -0.1518
 3365SOL    HW121557   2.143   0.990  13.160  1.6776  2.5124  2.5428
 3365SOL    HW221558   2.138   1.133  13.140  1.7625  0.0486  0.8101
 3366SOL     OW21559   3.256   2.580   7.177  0.8297 -0.2919  0.1343
 3366SOL    HW121560   3.184   2.586   7.113  1.2481 -0.8385 -0.3920
 3366SOL    HW221561   3.336   2.604   7.130  1.2411  0.3211  1.1474
 3367SOL     OW21562   1.565   0.844   8.205 -0.7274  0.0397 -0.0562
 3367SOL    HW121563   1.515   0.922   8.227 -0.5822 -0.1604  0.9846
 3367SOL    HW221564   1.557   0.829   8.110  0.8004 -0.4001 -0.1161
 3368SOL     OW21565   1.105   1.655   5.990  0.1155 -0.1978  0.2365
 3368SOL    HW121566   1.186   1.660   5.939  0.2504 -1.1595  0.3452
 3368SOL    HW221567   1.110   1.745   6.023  0.9276 -0.4559  0.8322
 3369SOL     OW21568   3.464   1.990   5.769 -0.2016  0.2141  0.4901
 3369SOL    HW121569   3.395   1.924   5.773 -0.8198  0.9248  1.6116
 3369SOL    HW221570   3.442   2.033   5.852  0.9060  0.4501  0.6639
 3370SOL     OW21571   3.371   4.193  11.269 -0.3482  0.3494 -0.1090
 3370SOL    HW121572   3.347   4.286  11.272 -1.5865 -0.0013  0.6946
 3370SOL    HW221573   3.369   4.175  11.363  0.4219  0.7990 -0.0038
 3371SOL     OW21574   2.014   4.249  16.476 -0.3258 -0.1378  0.4834
 3371SOL    HW121575   2.102   4.238  16.512 -0.5078  0.5390  1.1351
 3371SOL    HW221576   2.013   4.343  16.460 -0.4582 -0.2108  0.0551
 3372SOL     OW21577   0.690   3.477   5.942 -0.4790  0.3691 -0.2926
 3372SOL    HW121578   0.666   3.484   5.850  1.0458  2.1821 -0.5532
 3372SOL    HW221579   0.712   3.384   5.950 -0.7819  0.4546  1.6592
 3373SOL     OW21580   2.059   2.106   8.639  0.0852 -0.3770  0.2532
 3373SOL    HW121581   2.082   2.127   8.730  1.1181  1.1415 -0.3550
 3373SOL    HW221582   2.023   2.020   8.658  1.2511 -0.7325  0.8721
 3374SOL     OW21583   2.809   2.429   0.605  0.5628  1.1244 -0.2746
 3374SOL    HW121584   2.803   2.428   0.509 -1.9151  1.9105 -0.1294
 3374SOL    HW221585   2.888   2.481   0.618  1.1030  0.2073  0.1045
 3375SOL     OW21586   4.655   1.605   3.109 -0.0079  0.0400  0.0665
 3375SOL    HW121587   4.597   1.529   3.113  0.4326 -0.4399 -2.5021
 3375SOL    HW221588   4.632   1.650   3.190  0.3176 -1.0906  0.7870
 3376SOL     OW21589   4.271   4.495  10.009  0.2848 -0.2817  0.7272
 3376SOL    HW121590   4.303   4.488   9.919  1.1759 -1.9019  1.1752
 3376SOL    HW221591   4.177   4.506   9.993  0.1367 -2.2915  0.2041
 3377SOL     OW21592   1.109   3.989  14.814 -0.3156 -0.2099 -0.5316
 3377SOL    HW121593   1.020   4.003  14.781 -0.4375  2.4522  0.9470
 3377SOL    HW221594   1.150   4.061  14.767  1.9482 -1.5346 -0.5660
 3378SOL     OW21595   3.304   2.551   3.276  0.0792  0.1607 -0.3824
 3378SOL    HW121596   3.353   2.602   3.210  2.5331 -2.5397 -0.6572
 3378SOL    HW221597   3.216   2.565   3.239 -0.1951  0.2984  0.3288
 3379SOL     OW21598   2.987   3.923   4.635  0.1665 -0.2458 -0.1929
 3379SOL    HW121599   3.054   3.884   4.691 -0.2460 -1.3854 -0.4716
 3379SOL    HW221600   3.039   3.925   4.554  0.9728 -0.7263  0.3116
 3380SOL     OW21601   4.034   3.741   2.691  0.5163 -0.3212  0.2341
 3380SOL    HW121602   3.999   3.682   2.625 -0.3312 -0.0986  0.4785
 3380SOL    HW221603   4.071   3.681   2.756 -0.2506 -0.1719  0.8038
 3381SOL     OW21604   0.914   0.341  12.491  0.3528 -0.4141 -0.0634
 3381SOL    HW121605   0.984   0.376  12.437  0.3331 -1.9525 -1.1123
 3381SOL    HW221606   0.846   0.401  12.462  1.2477  0.1744 -0.9093
 3382SOL     OW21607   3.899   0.252   2.492  0.0341 -0.4433 -0.3013
 3382SOL    HW121608   3.905   0.346   2.476  3.7106 -0.7715 -0.8423
 3382SOL    HW221609   3.985   0.237   2.531 -0.5505  0.2110  1.2570
 3383SOL     OW21610   2.418   4.261  10.456 -0.7995 -0.3863 -0.0976
 3383SOL    HW121611   2.381   4.315  10.386  0.4460  0.0887 -0.3951
 3383SOL    HW221612   2.511   4.252  10.434 -0.6551 -1.9467  1.1627
 3384SOL     OW21613   0.072   0.663   3.204  0.4777  0.4484  0.0772
 3384SOL    HW121614   0.136   0.592   3.206  0.8405  0.7997  0.8916
 3384SOL    HW221615   0.031   0.649   3.289  1.1215  2.3603  0.7053
 3385SOL     OW21616   4.210   4.000   3.263  0.0981 -0.2547  0.0551
 3385SOL    HW121617   4.142   4.011   3.196 -1.0873  1.6688  1.5876
 3385SOL    HW221618   4.159   3.945   3.322  0.2975  1.7751  2.0823
 3386SOL     OW21619   3.322   4.425  17.106  0.3593  0.4334 -0.3847
 3386SOL    HW121620   3.312   4.510  17.065 -0.0167 -0.2516 -1.7085
 3386SOL    HW221621   3.416   4.411  17.093  0.0358  0.0141 -2.2555
 3387SOL     OW21622   0.763   2.962   7.973  0.0722  0.3998 -0.8622
 3387SOL    HW121623   0.699   2.890   7.971  1.3308 -0.7794  1.0105
 3387SOL    HW221624   0.721   3.033   8.022 -0.8526 -2.2344  2.1476
 3388SOL     OW21625   4.040   3.745   5.232  0.1049 -0.2976 -0.1661
 3388SOL    HW121626   3.985   3.696   5.294  1.4300 -0.7912  0.6271
 3388SOL    HW221627   4.043   3.833   5.270  2.7231 -0.3602 -0.2743
 3389SOL     OW21628   2.694   3.478   4.955  0.0784  0.3370  0.6820
 3389SOL    HW121629   2.648   3.557   4.927  0.4691 -0.1757 -1.4079
 3389SOL    HW221630   2.629   3.411   4.935  1.9417 -2.0476  2.5579
 3390SOL     OW21631   4.653   3.658   5.885  0.2117 -0.5592  0.0907
 3390SOL    HW121632   4.681   3.600   5.956 -0.9289  0.7221  1.5820
 3390SOL    HW221633   4.585   3.710   5.929 -0.1092 -0.7502 -0.1835
 3391SOL     OW21634   0.952   0.087   8.207 -0.0065  1.2452  0.1146
 3391SOL    HW121635   0.914   0.088   8.295 -0.4139  2.1392 -0.0752
 3391SOL    HW221636   1.039   0.117   8.235  1.1557 -0.7563 -1.3337
 3392SOL     OW21637   2.866   2.381   3.260 -0.0131  0.0541 -0.1116
 3392SOL    HW121638   2.832   2.324   3.191 -1.1404 -2.0352  2.1462
 3392SOL    HW221639   2.879   2.314   3.327 -0.4089  1.5104  1.4249
 3393SOL     OW21640   4.435   1.093   2.329 -0.6772  0.5593 -0.3500
 3393SOL    HW121641   4.442   0.999   2.311  1.2667  1.1606 -2.6796
 3393SOL    HW221642   4.496   1.097   2.402  0.2454  0.9755 -1.1506
 3394SOL     OW21643   3.368   0.318   3.635  0.7299  0.0426  0.4354
 3394SOL    HW121644   3.359   0.367   3.553  0.2190 -2.0792 -0.7835
 3394SOL    HW221645   3.383   0.226   3.614 -1.0890 -0.3579  0.9149
 3395SOL     OW21646   3.240   3.999   5.914 -0.1635  0.4951 -0.2486
 3395SOL    HW121647   3.152   3.994   5.877 -0.7041 -0.3888  1.1490
 3395SOL    HW221648   3.256   4.092   5.928  2.0881  0.0568  0.2379
 3396SOL     OW21649   0.898   0.772   7.789 -0.8687 -0.2321  0.1113
 3396SOL    HW121650   0.946   0.794   7.869 -0.4150 -0.0391 -0.2196
 3396SOL    HW221651   0.805   0.771   7.815 -0.1825 -0.7940  2.5742
 3397SOL     OW21652   1.755   1.083  10.591  0.5206 -0.4262 -0.5696
 3397SOL    HW121653   1.683   1.025  10.614  0.8765 -1.0237 -0.9821
 3397SOL    HW221654   1.738   1.080  10.497 -1.2696  0.5004 -0.2796
 3398SOL     OW21655   0.794   2.790  17.498  0.4626  0.7882 -0.1516
 3398SOL    HW121656   0.730   2.781  17.427 -1.9417  1.2736  1.9330
 3398SOL    HW221657   0.815   2.697  17.505  2.5364  1.5439  3.2891
 3399SOL     OW21658   0.730   1.707   7.512 -0.5585 -0.5192  0.3772
 3399SOL    HW121659   0.762   1.727   7.600  0.1848  1.0608 -0.2524
 3399SOL    HW221660   0.748   1.613   7.517  0.5940 -0.2635  1.1561
 3400SOL     OW21661   1.592   3.893   4.402  0.4689  0.7811 -0.2924
 3400SOL    HW121662   1.645   3.818   4.375 -1.4106 -0.9668  0.9049
 3400SOL    HW221663   1.654   3.941   4.458 -0.1266 -0.6113  1.5550
 3401SOL     OW21664   0.453   1.001   1.667  0.3444 -0.2202  0.2443
 3401SOL    HW121665   0.424   0.911   1.652  0.1319 -0.3517  1.4062
 3401SOL    HW221666   0.365   1.035   1.653  0.3563 -0.8831 -1.4307
 3402SOL     OW21667   1.596   1.143   6.758  0.3057  0.0587  0.1528
 3402SOL    HW121668   1.603   1.230   6.797  1.3886  0.5987 -1.2302
 3402SOL    HW221669   1.548   1.169   6.678 -1.0490 -0.1315  0.9019
 3403SOL     OW21670   2.766   2.061   7.732 -0.0127 -0.0658  0.3389
 3403SOL    HW121671   2.746   2.052   7.825 -0.0201  1.3433  0.4622
 3403SOL    HW221672   2.855   2.096   7.735 -1.1204  2.6737  1.1743
 3404SOL     OW21673   0.819   2.068   5.536 -0.4609 -0.6128  0.4308
 3404SOL    HW121674   0.772   2.149   5.516  1.1986 -0.1016 -1.4182
 3404SOL    HW221675   0.796   2.063   5.628  1.1058 -0.4575  0.8235
 3405SOL     OW21676   3.810   1.796  13.100  0.0607 -0.3075 -0.0532
 3405SOL    HW121677   3.725   1.776  13.061 -1.4235 -0.0070  3.0031
 3405SOL    HW221678   3.847   1.709  13.087  1.4597  0.3130 -0.2218
 3406SOL     OW21679   2.931   0.595   7.680 -0.4088 -0.0859 -0.1613
 3406SOL    HW121680   2.862   0.659   7.665 -0.6212 -0.7821 -2.1504
 3406SOL    HW221681   2.901   0.517   7.634 -2.9629  1.7415 -1.5814
 3407SOL     OW21682   3.007   2.500   8.233  0.2538  0.8788 -0.0514
 3407SOL    HW121683   3.097   2.509   8.202 -0.0775  1.7182 -0.7537
 3407SOL    HW221684   2.985   2.585   8.272 -0.7559  1.2570 -1.4106
 3408SOL     OW21685   4.585   1.838  14.129  0.1343 -0.1682  0.3390
 3408SOL    HW121686   4.525   1.857  14.057 -1.2589 -0.8375  1.3270
 3408SOL    HW221687   4.540   1.765  14.172  0.6879 -1.5722 -1.4778
 3409SOL     OW21688   4.501   1.841   2.149 -0.3509  0.5623 -0.1949
 3409SOL    HW121689   4.592   1.868   2.159 -1.1344  2.7741  1.1066
 3409SOL    HW221690   4.513   1.759   2.102  1.2161  0.9994 -0.5628
 3410SOL     OW21691   3.833   0.928   3.544  0.4693 -0.0409 -0.7141
 3410SOL    HW121692   3.843   1.022   3.528 -0.5345  0.1252 -0.3463
 3410SOL    HW221693   3.900   0.916   3.611 -1.2072 -0.4367  0.8912
 3411SOL     OW21694   2.302   1.363   6.630 -0.3462  0.3034 -0.4291
 3411SOL    HW121695   2.236   1.319   6.684 -0.2474  0.7969  0.0972
 3411SOL    HW221696   2.300   1.307   6.552  0.6311 -0.1221 -0.1630
 3412SOL     OW21697   4.485   1.144   8.470  0.2241 -0.1414  0.1678
 3412SOL    HW121698   4.402   1.154   8.516 -0.3227 -1.7500 -0.4602
 3412SOL    HW221699   4.516   1.231   8.446 -1.5609  0.6502  0.8121
 3413SOL     OW21700   1.999   3.667   4.251  0.4555  0.5922  0.2220
 3413SOL    HW121701   2.087   3.693   4.279  0.6735 -1.4608  1.4149
 3413SOL    HW221702   2.014   3.576   4.227 -1.5034  0.9722 -2.3980
 3414SOL     OW21703   1.189   3.268   2.183  0.1542 -0.0144  0.1205
 3414SOL    HW121704   1.150   3.292   2.267  1.8425  0.4970  0.7506
 3414SOL    HW221705   1.139   3.315   2.116  1.7115 -0.3043 -1.2558
 3415SOL     OW21706   1.377   2.043  16.551  0.5767  0.2647 -0.2671
 3415SOL    HW121707   1.402   2.013  16.463  0.9295 -0.9748  0.2563
 3415SOL    HW221708   1.285   2.021  16.559  0.4463  1.8943  2.7603
 3416SOL     OW21709   3.743   4.562   4.730  0.5913 -0.6781  0.0397
 3416SOL    HW121710   3.838   4.575   4.726  0.3732  1.0203  0.5664
 3416SOL    HW221711   3.713   4.641   4.776  2.2835 -0.5280  0.8953
 3417SOL     OW21712   1.249   1.488  14.903  0.2365  0.2582 -0.7095
 3417SOL    HW121713   1.184   1.423  14.879 -0.1299 -0.1078  1.3416
 3417SOL    HW221714   1.319   1.433  14.938  0.7988  0.5100 -1.4333
 3418SOL     OW21715   1.611   0.636   5.289 -0.7589  0.2833  0.2100
 3418SOL    HW121716   1.633   0.622   5.381 -0.9374  2.5261  0.5991
 3418SOL    HW221717   1.653   0.562   5.246 -0.5303 -0.3958  1.6048
 3419SOL     OW21718   3.626   2.959   8.107 -0.5100  0.7084  0.3235
 3419SOL    HW121719   3.631   2.892   8.174 -2.1581 -0.8268 -1.0890
 3419SOL    HW221720   3.686   2.926   8.040 -1.2045  0.8044 -0.3518
 3420SOL     OW21721   4.543   4.336   0.636  0.3677 -0.7928  0.6100
 3420SOL    HW121722   4.528   4.408   0.697 -1.3967 -0.0892 -0.6714
 3420SOL    HW221723   4.461   4.345   0.588  0.2834 -0.7748  0.7577
 3421SOL     OW21724   2.491   2.051   4.439  0.4713  0.0013  0.0136
 3421SOL    HW121725   2.439   2.126   4.408 -0.1841 -0.1971  0.6239
 3421SOL    HW221726   2.559   2.041   4.372  0.4409 -0.0596 -0.0077
 3422SOL     OW21727   3.140   0.344   1.716 -0.2700 -0.3802  0.6816
 3422SOL    HW121728   3.164   0.388   1.798  1.0096 -3.6533  2.0871
 3422SOL    HW221729   3.219   0.290   1.709 -0.2871 -0.3237  0.0571
 3423SOL     OW21730   3.009   1.451   0.452 -0.1774  0.2214 -0.0227
 3423SOL    HW121731   2.939   1.494   0.403  0.0007 -1.4645 -1.7533
 3423SOL    HW221732   2.955   1.387   0.499  0.3664 -0.0386  0.2526
 3424SOL     OW21733   4.075   4.306  14.538 -0.0832 -0.1431  0.4370
 3424SOL    HW121734   4.002   4.261  14.496  0.5883 -0.9172  0.0880
 3424SOL    HW221735   4.092   4.374  14.473  0.8347 -0.6947  0.0874
 3425SOL     OW21736   4.596   1.260  17.455 -0.4388 -0.3893  0.0408
 3425SOL    HW121737   4.579   1.248  17.549 -0.0793 -1.5198 -0.0420
 3425SOL    HW221738   4.622   1.351  17.443 -2.0446  0.2970  1.7248
 3426SOL     OW21739   4.395   2.727   9.843  0.2961 -0.3880 -0.2446
 3426SOL    HW121740   4.483   2.765   9.855  0.6652 -0.5957 -2.3372
 3426SOL    HW221741   4.338   2.803   9.833 -0.6414 -1.2174 -1.0579
 3427SOL     OW21742   1.860   1.646   0.977  0.2642  0.5688 -0.1172
 3427SOL    HW121743   1.892   1.692   1.055  1.4465 -1.2445  0.4727
 3427SOL    HW221744   1.767   1.657   0.994 -0.1526 -0.1701 -1.9657
 3428SOL     OW21745   0.556   3.628   6.162 -0.7129  0.2250 -0.1365
 3428SOL    HW121746   0.632   3.597   6.113 -0.4245 -0.7007  0.8704
 3428SOL    HW221747   0.493   3.556   6.160 -1.2043  0.6009  2.0139
 3429SOL     OW21748   2.900   0.476   1.686 -0.1168  0.3397  0.1171
 3429SOL    HW121749   2.825   0.425   1.718  1.3575 -1.8029  0.1869
 3429SOL    HW221750   2.968   0.409   1.695  0.3420  0.5198 -1.9341
 3430SOL     OW21751   3.919   3.217   4.172  0.0735 -1.2749 -0.0512
 3430SOL    HW121752   3.958   3.223   4.259  0.6192 -0.4168 -0.3516
 3430SOL    HW221753   3.833   3.255   4.190 -2.0989 -5.2114 -2.0726
 3431SOL     OW21754   3.706   1.813   1.025 -0.6502 -0.1683  0.4297
 3431SOL    HW121755   3.712   1.896   1.072 -2.3929 -0.0513  0.4342
 3431SOL    HW221756   3.747   1.846   0.945  1.9167 -0.3166  1.7046
 3432SOL     OW21757   0.072   3.797   3.052 -0.1983  0.2404  0.4586
 3432SOL    HW121758   0.144   3.771   2.994  1.1548  2.6249  1.0629
 3432SOL    HW221759   4.723   3.808   2.993  1.6160  0.1454 -1.8591
 3433SOL     OW21760   3.190   1.217  14.525  0.2843  0.0589 -0.2525
 3433SOL    HW121761   3.153   1.300  14.553  2.2366  0.5268  0.8925
 3433SOL    HW221762   3.264   1.254  14.477 -0.2080 -0.6742 -1.6041
 3434SOL     OW21763   0.012   1.239  10.095 -0.3425 -0.3792  0.1073
 3434SOL    HW121764   4.656   1.217  10.141  0.5480  0.1309  1.9265
 3434SOL    HW221765   0.004   1.334  10.088 -1.6524 -0.4849  0.2685
 3435SOL     OW21766   2.892   2.889   0.999 -0.0214 -0.4893 -0.1138
 3435SOL    HW121767   2.850   2.805   0.980 -0.2042 -0.2332 -0.8270
 3435SOL    HW221768   2.979   2.872   0.965 -0.2353 -0.5488 -0.6309
 3436SOL     OW21769   0.057   3.032  14.965 -0.5523 -0.4532  0.7998
 3436SOL    HW121770   4.716   3.089  15.002 -0.9071 -0.5973  0.3858
 3436SOL    HW221771   0.036   3.037  14.872  0.1476  0.0531  0.6672
 3437SOL     OW21772   3.921   2.589  14.945 -0.7959 -0.1495 -0.1591
 3437SOL    HW121773   3.900   2.514  15.001  2.9307  1.2729  3.1495
 3437SOL    HW221774   3.914   2.549  14.858  2.1846  3.0192 -1.8096
 3438SOL     OW21775   2.359   2.483  11.353  0.1260  0.7307 -0.3961
 3438SOL    HW121776   2.426   2.549  11.371  0.8875  0.1588 -1.1444
 3438SOL    HW221777   2.326   2.530  11.277 -0.4012  1.2128  0.1263
 3439SOL     OW21778   3.780   4.373   1.559  0.1758  0.1983  0.2219
 3439SOL    HW121779   3.802   4.280   1.548  0.1800  0.5413 -2.7518
 3439SOL    HW221780   3.831   4.396   1.636 -0.3619  0.0523  0.6225
 3440SOL     OW21781   4.062   1.675   9.286 -0.3423 -0.1068 -0.4154
 3440SOL    HW121782   4.105   1.749   9.245  1.1922 -0.1648  1.0527
 3440SOL    HW221783   4.121   1.601   9.267 -0.3460 -0.1992 -0.0741
 3441SOL     OW21784   4.455   3.301   5.411  0.1679 -0.7168  0.0277
 3441SOL    HW121785   4.549   3.313   5.396  0.1780 -1.4698 -0.5080
 3441SOL    HW221786   4.458   3.254   5.495 -3.1614  0.3063  0.6969
 3442SOL     OW21787   2.391   0.184   7.117 -0.4449 -0.0860 -0.4398
 3442SOL    HW121788   2.422   0.138   7.039  2.4148  1.7259 -0.3801
 3442SOL    HW221789   2.331   0.123   7.160 -0.9170 -0.8411 -2.1760
 3443SOL     OW21790   3.271   3.153   3.531  0.3439 -0.0988  0.2786
 3443SOL    HW121791   3.281   3.168   3.437  0.5446 -0.5343  0.2293
 3443SOL    HW221792   3.341   3.089   3.540 -0.4053 -1.3975 -2.9541
 3444SOL     OW21793   2.058   1.206  10.428 -0.8424  0.9400  0.3850
 3444SOL    HW121794   1.988   1.177  10.369 -1.2317  2.3145  0.1783
 3444SOL    HW221795   1.998   1.240  10.494  0.2328  0.8839  1.3820
 3445SOL     OW21796   2.702   2.918   3.768 -0.0478 -0.0194 -0.2196
 3445SOL    HW121797   2.649   2.976   3.714  0.2125 -0.8094 -1.3153
 3445SOL    HW221798   2.781   2.966   3.747 -0.8515  0.4978 -2.0141
 3446SOL     OW21799   0.765   3.049   4.688  0.5787  0.7242 -0.2917
 3446SOL    HW121800   0.820   3.074   4.613 -0.0311  0.5074 -0.8041
 3446SOL    HW221801   0.831   3.015   4.750 -1.8389 -1.3105  1.1612
 3447SOL     OW21802   0.506   4.187   7.749  0.6509 -0.0522 -0.3645
 3447SOL    HW121803   0.556   4.210   7.827  2.1139 -2.9471 -0.4500
 3447SOL    HW221804   0.472   4.271   7.718 -0.2666 -0.7961 -1.3626
 3448SOL     OW21805   2.384   1.745   5.407 -0.3138  0.2630 -0.3193
 3448SOL    HW121806   2.424   1.827   5.438 -0.1720  0.5347 -1.2063
 3448SOL    HW221807   2.296   1.745   5.447 -0.2961 -0.7273 -0.2798
 3449SOL     OW21808   2.431   3.164   1.698 -0.2315  0.2223  0.3800
 3449SOL    HW121809   2.389   3.176   1.783 -1.4863  1.7769 -0.4593
 3449SOL    HW221810   2.479   3.245   1.683 -1.4459  0.9965  0.6495
 3450SOL     OW21811   0.702   1.891  17.103  0.5282  0.9206  0.0947
 3450SOL    HW121812   0.699   1.978  17.143 -2.6105  0.8494 -0.0096
 3450SOL    HW221813   0.732   1.844  17.181 -0.7706 -3.9136 -2.3293
 3451SOL     OW21814   3.398   2.256   8.647  0.0795 -0.3192 -0.2480
 3451SOL    HW121815   3.347   2.185   8.688  1.4417 -0.1265  1.7465
 3451SOL    HW221816   3.436   2.220   8.567  1.6474 -0.4098  0.5537
 3452SOL     OW21817   1.433   3.663  10.003  0.1583 -0.3155  0.2269
 3452SOL    HW121818   1.485   3.702   9.933 -0.9788  0.2617 -0.2908
 3452SOL    HW221819   1.443   3.720  10.079 -1.2082  1.0690 -0.6246
 3453SOL     OW21820   3.550   0.541  17.264 -0.2538 -0.0341 -0.0033
 3453SOL    HW121821   3.463   0.519  17.295 -0.1907  0.6405  0.6391
 3453SOL    HW221822   3.588   0.455  17.245 -2.8891 -1.3610  0.7191
 3454SOL     OW21823   0.362   1.150  11.542  0.2927 -0.7610 -0.3049
 3454SOL    HW121824   0.429   1.097  11.498  0.7407 -1.1477  0.8607
 3454SOL    HW221825   0.411   1.176  11.620 -1.8275  1.0233  0.4291
 3455SOL     OW21826   4.311   3.007   3.831 -0.1868 -0.0095 -0.4679
 3455SOL    HW121827   4.250   2.945   3.791  0.0817 -0.3422 -0.3605
 3455SOL    HW221828   4.296   3.087   3.781 -1.8349  0.8120  1.3379
 3456SOL     OW21829   2.621   0.835   4.540  0.1514  0.5090  0.4993
 3456SOL    HW121830   2.552   0.823   4.606  0.0262 -0.9119  0.1205
 3456SOL    HW221831   2.695   0.780   4.569  0.1299  0.7940  1.1054
 3457SOL     OW21832   3.886   1.407   4.285  0.6636 -0.2290  0.0517
 3457SOL    HW121833   3.957   1.419   4.348  2.9109  1.1653 -2.7645
 3457SOL    HW221834   3.855   1.493   4.257 -0.9231 -1.0648 -0.7541
 3458SOL     OW21835   2.305   3.145   2.620 -0.2395 -0.3691 -0.3797
 3458SOL    HW121836   2.281   3.071   2.565  0.8935  0.3469 -1.8192
 3458SOL    HW221837   2.247   3.142   2.697 -1.3060  1.5800 -1.0932
 3459SOL     OW21838   2.884   1.914  13.478 -0.1366 -0.1292 -0.2866
 3459SOL    HW121839   2.954   1.963  13.437 -1.3409  2.0365  0.2642
 3459SOL    HW221840   2.903   1.916  13.572  0.8772  1.0340 -0.5211
 3460SOL     OW21841   1.748   1.747   6.419  0.4052 -0.2472  0.0542
 3460SOL    HW121842   1.659   1.779   6.428  0.6739  0.5452 -0.0541
 3460SOL    HW221843   1.774   1.729   6.509 -4.8297 -0.6465  1.4594
 3461SOL     OW21844   2.500   2.522  10.112 -0.0607 -0.4534 -0.4999
 3461SOL    HW121845   2.453   2.489  10.189  3.3629 -0.2466  1.6794
 3461SOL    HW221846   2.532   2.442  10.071 -0.2006  0.0051 -1.4983
 3462SOL     OW21847   3.752   0.290  12.479  0.0518  0.0030 -0.7446
 3462SOL    HW121848   3.776   0.215  12.425 -0.2684 -0.8821  0.3355
 3462SOL    HW221849   3.723   0.256  12.564  0.3172  2.7945  0.4424
 3463SOL     OW21850   0.878   2.801   9.105 -0.2920  0.0081 -0.6733
 3463SOL    HW121851   0.965   2.837   9.093  0.2987 -0.2641  2.7074
 3463SOL    HW221852   0.895   2.723   9.157 -0.5174  0.7562  0.5414
 3464SOL     OW21853   0.345   3.949   8.404 -0.3916  0.3783 -0.6762
 3464SOL    HW121854   0.361   4.014   8.472  1.5086  0.6303 -1.3442
 3464SOL    HW221855   0.370   3.880   8.466  0.2750  1.6674  0.4697
 3465SOL     OW21856   3.518   1.989   2.635 -0.3764  0.1510  0.4016
 3465SOL    HW121857   3.468   1.979   2.555 -1.2698 -0.2456  1.0107
 3465SOL    HW221858   3.601   1.948   2.608 -1.0446 -0.7711 -0.2597
 3466SOL     OW21859   0.824   0.883  12.555 -0.4028 -0.2474  0.0417
 3466SOL    HW121860   0.903   0.850  12.596 -0.3451 -0.7728 -0.4965
 3466SOL    HW221861   0.851   0.900  12.465  0.4197  0.6187  0.4505
 3467SOL     OW21862   3.281   1.576   0.809 -0.2212 -0.2675 -0.1671
 3467SOL    HW121863   3.329   1.656   0.831 -2.7257  1.0506  0.4426
 3467SOL    HW221864   3.296   1.532   0.893  0.5758 -1.0718 -0.7345
 3468SOL     OW21865   1.539   1.020  13.650  0.3890 -0.2021  0.1202
 3468SOL    HW121866   1.626   0.981  13.641 -0.4604 -2.2497  0.8585
 3468SOL    HW221867   1.546   1.084  13.579 -0.0841 -1.1758 -0.7949
 3469SOL     OW21868   3.708   3.736   4.587 -1.1101 -0.1045  0.1771
 3469SOL    HW121869   3.680   3.826   4.572  1.1555  0.8645  1.7462
 3469SOL    HW221870   3.804   3.739   4.587 -1.2237  2.4654  1.9434
 3470SOL     OW21871   3.900   0.789   8.384 -0.0533 -0.1276  0.1842
 3470SOL    HW121872   3.844   0.776   8.461  0.0842 -0.3858  0.2379
 3470SOL    HW221873   3.895   0.885   8.385  1.3707 -0.0564  0.4113
 3471SOL     OW21874   2.088   3.572   1.983  0.0440  0.5258 -0.3435
 3471SOL    HW121875   2.070   3.564   1.889  1.3167  0.4002 -0.5734
 3471SOL    HW221876   2.013   3.520   2.014  0.6728 -1.2788 -1.8616
 3472SOL     OW21877   3.289   4.633  17.417 -0.1639 -0.4618  0.1964
 3472SOL    HW121878   3.313   4.573  17.488 -1.2606  1.8046  2.4821
 3472SOL    HW221879   3.200   4.608  17.392  0.9858 -0.7573 -3.5390
 3473SOL     OW21880   4.642   2.240   3.801  0.5610 -0.3294  0.4887
 3473SOL    HW121881   4.549   2.249   3.822  0.4656  1.7497 -0.7615
 3473SOL    HW221882   4.665   2.153   3.834  1.7243  0.5623  2.0311
 3474SOL     OW21883   0.047   1.759  11.987  0.4808  0.5379  0.2280
 3474SOL    HW121884   0.122   1.721  12.034 -2.7022 -1.4811  3.6313
 3474SOL    HW221885   4.724   1.786  12.065 -2.7276 -0.8255 -1.2786
 3475SOL     OW21886   1.204   3.548   8.880 -0.0112 -0.2552  0.3764
 3475SOL    HW121887   1.225   3.622   8.936 -0.0113 -0.8312  1.1411
 3475SOL    HW221888   1.245   3.582   8.801 -0.1164 -0.4851  0.2210
 3476SOL     OW21889   3.241   3.757  10.746 -0.3623  0.3393 -0.3138
 3476SOL    HW121890   3.220   3.830  10.804  0.4525  0.4994 -0.2287
 3476SOL    HW221891   3.230   3.684  10.808 -0.7377  0.6848  0.0295
 3477SOL     OW21892   2.394   0.238   1.762  0.3059  0.3003  0.2865
 3477SOL    HW121893   2.397   0.146   1.787 -0.9989 -0.3988 -2.0523
 3477SOL    HW221894   2.369   0.212   1.673 -1.3951  0.1901  0.7853
 3478SOL     OW21895   2.292   0.958  14.588  0.2726 -0.3598 -0.3209
 3478SOL    HW121896   2.201   0.952  14.619 -0.3573 -0.2324 -2.1511
 3478SOL    HW221897   2.287   1.023  14.518  0.0605 -0.3091 -0.2590
 3479SOL     OW21898   0.796   4.160   6.648 -0.0361 -0.3326 -0.4721
 3479SOL    HW121899   0.721   4.216   6.629 -1.0045 -1.5546 -0.1942
 3479SOL    HW221900   0.750   4.106   6.711 -1.3475  0.4407 -0.7695
 3480SOL     OW21901   2.727   2.779   1.831 -0.2476 -0.1883  0.0215
 3480SOL    HW121902   2.643   2.809   1.796 -0.3324 -0.5428 -0.0878
 3480SOL    HW221903   2.747   2.863   1.872 -0.1229  0.0956 -0.6168
 3481SOL     OW21904   3.455   1.792   4.834 -0.2071  0.1983  0.4907
 3481SOL    HW121905   3.438   1.878   4.795 -2.1297 -0.0341  0.8354
 3481SOL    HW221906   3.366   1.771   4.863 -0.5941  0.1967 -0.6884
 3482SOL     OW21907   1.098   2.188   3.686 -0.4327  0.0110  0.2823
 3482SOL    HW121908   1.126   2.128   3.617  1.3132  1.7697 -0.5425
 3482SOL    HW221909   1.180   2.220   3.725  1.3667 -3.5055 -0.5390
 3483SOL     OW21910   0.189   4.193  12.489 -0.0643 -0.1844  0.1514
 3483SOL    HW121911   0.151   4.268  12.443 -0.5813 -0.4688  0.1224
 3483SOL    HW221912   0.170   4.215  12.581 -2.6357 -0.2364 -0.3624
 3484SOL     OW21913   3.442   1.267   6.135  0.3539  0.1774  0.0732
 3484SOL    HW121914   3.418   1.290   6.225  0.9117 -0.8858  0.4882
 3484SOL    HW221915   3.536   1.251   6.141  0.3220 -0.4391 -0.9464
 3485SOL     OW21916   2.378   1.621   1.879 -0.0155 -0.3865  0.2509
 3485SOL    HW121917   2.454   1.678   1.886  0.4819 -0.9407 -0.6903
 3485SOL    HW221918   2.312   1.652   1.941  0.0187  2.8833 -1.3603
 3486SOL     OW21919   2.408   0.598   4.334  0.4093  0.1248 -0.3557
 3486SOL    HW121920   2.467   0.533   4.371 -1.4002 -0.8673  0.8121
 3486SOL    HW221921   2.476   0.653   4.294  0.6450 -1.4616 -2.1270
 3487SOL     OW21922   4.255   3.374   1.871  0.2850 -0.4119  0.0784
 3487SOL    HW121923   4.214   3.446   1.917  0.2271 -1.7853  2.2050
 3487SOL    HW221924   4.329   3.425   1.837 -2.6654  2.0507 -2.5501
 3488SOL     OW21925   2.851   3.416   6.432  0.1886  0.0869  0.3333
 3488SOL    HW121926   2.837   3.428   6.526 -0.0939 -0.7172  0.3946
 3488SOL    HW221927   2.896   3.331   6.434  2.3447  1.3198  3.6681
 3489SOL     OW21928   2.053   3.057   7.633  0.6963 -0.4771  0.2603
 3489SOL    HW121929   1.966   3.044   7.670 -0.0747  1.2590 -0.9216
 3489SOL    HW221930   2.075   3.146   7.662  0.0496 -0.5359  0.9297
 3490SOL     OW21931   0.492   1.976   6.291  0.1811  0.0970  0.4289
 3490SOL    HW121932   0.531   1.889   6.283  0.1570  0.0311  1.0411
 3490SOL    HW221933   0.399   1.964   6.311  0.0415 -1.7744 -1.2801
 3491SOL     OW21934   3.383   2.046   4.231  0.0205  0.3641  0.4153
 3491SOL    HW121935   3.330   2.123   4.251 -2.0462 -0.6360 -1.1774
 3491SOL    HW221936   3.471   2.084   4.224  0.1345 -0.3044 -1.9473
 3492SOL     OW21937   0.389   3.867   6.454  0.3521  0.0610 -0.0956
 3492SOL    HW121938   0.391   3.772   6.459 -1.2761  0.0314 -0.1762
 3492SOL    HW221939   0.376   3.904   6.542  1.6871  0.6926 -0.1594
 3493SOL     OW21940   4.723   0.794  16.816  0.8234  0.2537 -0.2518
 3493SOL    HW121941   0.038   0.844  16.745  0.6073 -2.4710 -2.2695
 3493SOL    HW221942   0.057   0.819  16.887 -0.0641 -0.2245  0.6583
 3494SOL     OW21943   3.136   3.057  14.954 -0.2137  0.8243  0.2828
 3494SOL    HW121944   3.062   3.117  14.946 -0.0457  0.9474 -0.3154
 3494SOL    HW221945   3.112   2.990  15.018 -0.3643 -0.7353 -1.3940
 3495SOL     OW21946   1.296   3.458  10.545 -0.0953 -0.0722  0.4747
 3495SOL    HW121947   1.255   3.539  10.514 -0.2706 -0.7433 -1.0442
 3495SOL    HW221948   1.300   3.406  10.465 -1.4406  0.3271  0.1578
 3496SOL     OW21949   4.290   1.268   3.757 -0.3098 -0.4704 -0.1772
 3496SOL    HW121950   4.212   1.213   3.754  0.5276 -1.7280  0.7486
 3496SOL    HW221951   4.278   1.337   3.822  1.3636 -0.4110  0.0830
 3497SOL     OW21952   1.168   0.852   0.300  0.0584 -0.4299  0.2751
 3497SOL    HW121953   1.219   0.933   0.297 -1.7784  0.6899 -0.9149
 3497SOL    HW221954   1.239   0.795   0.328  0.5681 -0.4398 -1.0282
 3498SOL     OW21955   0.649   0.038   8.910 -0.2437 -0.1770 -0.2215
 3498SOL    HW121956   0.576   0.068   8.964 -1.3859 -2.3419 -0.5566
 3498SOL    HW221957   0.603   4.713   8.842 -1.9715  0.4764  0.4824
 3499SOL     OW21958   3.602   3.932   5.034  0.4167 -0.3533 -0.1035
 3499SOL    HW121959   3.695   3.927   5.011  0.2909 -0.8740 -0.5202
 3499SOL    HW221960   3.565   3.883   4.961  1.1152  1.4966 -1.7043
 3500SOL     OW21961   1.275   0.225   6.819 -0.1840 -0.0517 -0.0353
 3500SOL    HW121962   1.310   0.280   6.749 -1.2822 -1.4030 -1.6459
 3500SOL    HW221963   1.232   0.151   6.776 -3.9144  1.0881  1.7372
 3501SOL     OW21964   0.240   2.577  13.322  0.8604  0.2432  0.6514
 3501SOL    HW121965   0.162   2.521  13.321  1.7265 -1.0119  2.2358
 3501SOL    HW221966   0.192   2.659  13.306 -1.1236 -0.7803  1.2739
 3502SOL     OW21967   1.826   2.523  15.864  0.2715 -0.2691  0.4106
 3502SOL    HW121968   1.877   2.526  15.945 -0.4843 -1.1891  0.9271
 3502SOL    HW221969   1.746   2.570  15.889  0.0377 -1.1288  1.3162
 3503SOL     OW21970   0.117   0.692  16.548 -0.0238  0.2585 -0.7143
 3503SOL    HW121971   0.192   0.657  16.501  0.5561  1.4392 -0.6547
 3503SOL    HW221972   0.151   0.764  16.600  0.9791  0.0668 -1.1112
 3504SOL     OW21973   2.492   4.066   8.346 -0.0049  0.4625  0.0402
 3504SOL    HW121974   2.438   4.033   8.417 -0.5636 -3.8301 -2.3896
 3504SOL    HW221975   2.497   4.160   8.364  0.3071  0.5905 -0.7184
 3505SOL     OW21976   4.379   2.062   1.056 -0.5126 -0.1983  0.5785
 3505SOL    HW121977   4.422   2.108   1.129  1.6051 -0.2916 -0.6352
 3505SOL    HW221978   4.325   2.002   1.108 -0.4528  1.2926  2.4030
 3506SOL     OW21979   4.040   4.153   6.370  0.2021  0.2015  0.6272
 3506SOL    HW121980   4.056   4.076   6.425  1.1665 -0.8856 -1.1602
 3506SOL    HW221981   4.107   4.204   6.415  0.0855 -0.5709  1.6726
 3507SOL     OW21982   2.480   3.703   9.111  0.1974 -0.3478 -0.2060
 3507SOL    HW121983   2.447   3.629   9.161 -0.6032  1.6038  2.1185
 3507SOL    HW221984   2.397   3.746   9.093  0.2282 -0.4589 -0.6164
 3508SOL     OW21985   4.405   1.530  10.336 -0.2077 -0.5139  0.0155
 3508SOL    HW121986   4.402   1.622  10.361 -0.0983 -0.2004 -1.1269
 3508SOL    HW221987   4.314   1.521  10.308 -0.5358  2.8993 -0.0583
 3509SOL     OW21988   2.500   3.648   7.087 -0.1521  0.1111  0.1254
 3509SOL    HW121989   2.447   3.574   7.056 -0.2622  0.6890 -1.0840
 3509SOL    HW221990   2.458   3.645   7.173  0.8885 -0.8587  0.6028
 3510SOL     OW21991   1.688   0.775   2.957  0.0421 -0.4717  0.6229
 3510SOL    HW121992   1.666   0.833   2.883 -0.2831 -0.6164  0.6065
 3510SOL    HW221993   1.782   0.787   2.968 -0.0703 -0.9241  2.0158
 3511SOL     OW21994   1.022   1.945  12.294 -0.0572  0.0537 -0.1189
 3511SOL    HW121995   0.932   1.976  12.279 -0.1261 -0.5796 -1.0284
 3511SOL    HW221996   1.062   2.020  12.336 -0.5900 -0.9034  2.1180
 3512SOL     OW21997   4.664   2.291   2.419  0.3301 -0.9694 -0.2314
 3512SOL    HW121998   4.713   2.280   2.338 -3.1046  0.1825 -2.5049
 3512SOL    HW221999   4.642   2.201   2.442  0.7755 -0.6234  1.5691
 3513SOL     OW22000   0.435   2.322   2.826 -0.0499  0.2269  0.7543
 3513SOL    HW122001   0.340   2.314   2.816 -0.2814  0.5118  2.7472
 3513SOL    HW222002   0.444   2.416   2.843 -0.2127  0.1852  1.0762
 3514SOL     OW22003   2.486   0.568   4.870  0.3580 -0.4112 -0.0257
 3514SOL    HW122004   2.547   0.501   4.838  0.0877 -1.3272  1.3919
 3514SOL    HW222005   2.473   0.531   4.957  1.3274 -1.2076 -0.2093
 3515SOL     OW22006   4.719   3.220   3.970 -0.0929 -0.1722  0.2795
 3515SOL    HW122007   0.069   3.202   3.913 -0.8163 -1.1112 -0.3773
 3515SOL    HW222008   4.656   3.268   3.915 -0.1458 -0.0178  0.4766
 3516SOL     OW22009   3.071   4.569   3.531  0.2517  0.9166  0.0563
 3516SOL    HW122010   3.159   4.532   3.521 -0.5075 -0.6159 -0.9088
 3516SOL    HW222011   3.022   4.487   3.530  0.2818  0.8696  1.6911
 3517SOL     OW22012   0.682   2.283   0.943 -0.2553 -0.3111 -0.3723
 3517SOL    HW122013   0.633   2.205   0.915 -0.5583 -0.2552  0.0146
 3517SOL    HW222014   0.770   2.251   0.967  0.4789  0.9299 -1.4005
 3518SOL     OW22015   1.230   2.193   7.166  0.2404  0.1080  0.3744
 3518SOL    HW122016   1.324   2.205   7.161 -0.0265  1.4087 -1.9110
 3518SOL    HW222017   1.227   2.103   7.199 -0.7688 -0.2231 -0.5820
 3519SOL     OW22018   3.721   3.926   8.122  0.1860 -0.2173 -0.3003
 3519SOL    HW122019   3.718   3.917   8.218 -1.7985  0.1144 -0.3460
 3519SOL    HW222020   3.668   3.853   8.091 -1.6001  0.8049  0.3902
 3520SOL     OW22021   0.077   3.684  14.441  0.4997 -0.2383 -0.2429
 3520SOL    HW122022   0.096   3.767  14.484  0.8361 -0.0008 -0.8636
 3520SOL    HW222023   4.712   3.659  14.462  0.8270  0.0688  1.5086
 3521SOL     OW22024   2.523   4.721   6.966  0.4005  0.5676  0.5430
 3521SOL    HW122025   2.546   4.628   6.965  0.9888  0.7497 -2.1255
 3521SOL    HW222026   2.615   0.017   6.981  0.0906  0.6939  2.2388
 3522SOL     OW22027   0.568   0.465  14.582 -0.3067 -0.1282  0.9407
 3522SOL    HW122028   0.565   0.482  14.487 -2.3957  2.3665  1.4237
 3522SOL    HW222029   0.619   0.384  14.577 -0.8043 -0.3115 -1.5903
 3523SOL     OW22030   1.268   1.923  14.005 -0.4113 -0.5498  0.3094
 3523SOL    HW122031   1.331   1.856  13.979  0.2021  0.6887 -1.3958
 3523SOL    HW222032   1.189   1.874  13.983 -0.8907  0.6952 -0.7265
 3524SOL     OW22033   2.171   1.441  17.269  0.6519 -0.2089 -0.4262
 3524SOL    HW122034   2.135   1.530  17.273 -1.6168 -1.2226  1.4740
 3524SOL    HW222035   2.223   1.450  17.349 -0.7790  0.3519  0.4445
 3525SOL     OW22036   3.026   0.342  12.891 -0.1154  0.4901  0.8060
 3525SOL    HW122037   2.952   0.349  12.952 -0.1492  0.2521  0.7935
 3525SOL    HW222038   3.044   0.249  12.904 -0.0642  0.5018  0.8185
 3526SOL     OW22039   1.028   0.016  13.792 -1.1981 -0.4161 -0.9411
 3526SOL    HW122040   1.006   0.082  13.858 -2.0794 -2.1793  0.5118
 3526SOL    HW222041   1.111   4.709  13.825 -2.6744 -1.4085  1.8056
 3527SOL     OW22042   4.046   2.474   1.704 -0.1417 -0.1907 -0.6742
 3527SOL    HW122043   4.098   2.407   1.749 -0.2410  0.4611  0.4076
 3527SOL    HW222044   4.100   2.463   1.626 -0.8937  1.4361 -1.4246
 3528SOL     OW22045   0.431   2.591   8.383 -0.3547 -0.1668 -0.4527
 3528SOL    HW122046   0.369   2.662   8.367  0.7179  0.9469  0.3523
 3528SOL    HW222047   0.460   2.609   8.473 -0.1124 -2.3115 -0.0949
 3529SOL     OW22048   2.475   3.917  12.174 -0.2979 -0.2026  0.1372
 3529SOL    HW122049   2.502   3.973  12.247 -1.5044  0.9682 -0.3292
 3529SOL    HW222050   2.556   3.869  12.154  0.1155  0.6337 -0.1967
 3530SOL     OW22051   1.038   2.745   8.844 -0.1973  0.4104  0.4314
 3530SOL    HW122052   1.123   2.738   8.801 -0.0938 -2.0391  1.0284
 3530SOL    HW222053   1.036   2.839   8.859  1.4033  0.4517  0.3166
 3531SOL     OW22054   1.267   3.745   7.010 -0.1543  0.4832 -0.3330
 3531SOL    HW122055   1.326   3.709   7.077 -0.4611  0.8013  0.1049
 3531SOL    HW222056   1.230   3.666   6.971 -0.2995 -0.2249  1.2293
 3532SOL     OW22057   3.275   1.615   0.454 -0.0387 -0.0559  0.0215
 3532SOL    HW122058   3.359   1.661   0.455  0.8919 -1.7432 -0.9971
 3532SOL    HW222059   3.285   1.573   0.368  1.8422 -0.6238  0.5301
 3533SOL     OW22060   0.813   0.566   6.381  0.2159 -0.5903  0.5755
 3533SOL    HW122061   0.905   0.588   6.366 -0.6437  3.1093  0.9318
 3533SOL    HW222062   0.831   0.481   6.423 -0.9012 -0.8316  0.5689
 3534SOL     OW22063   1.701   3.363   8.485  0.3275  0.3136 -0.1626
 3534SOL    HW122064   1.680   3.278   8.523 -1.6163  0.8816 -0.0126
 3534SOL    HW222065   1.669   3.428   8.547 -1.8644 -1.7100  0.8055
 3535SOL     OW22066   2.402   1.643   7.577  0.0067  0.1423  0.3808
 3535SOL    HW122067   2.332   1.671   7.636 -0.4581  1.2970 -0.7362
 3535SOL    HW222068   2.385   1.549   7.572 -1.6893  0.5455 -1.4592
 3536SOL     OW22069   0.422   4.402   8.689 -0.2119 -0.0632  0.3069
 3536SOL    HW122070   0.455   4.479   8.735  0.5664 -0.1645 -0.0677
 3536SOL    HW222071   0.330   4.398   8.713 -0.4958 -0.0654 -0.7675
 3537SOL     OW22072   2.446   0.882  10.409 -0.1016  0.5377  0.0883
 3537SOL    HW122073   2.396   0.943  10.356  0.1171  0.7951  0.1802
 3537SOL    HW222074   2.378   0.822  10.439  0.9109 -0.0295  1.2680
 3538SOL     OW22075   0.711   0.598   9.432  0.0515 -0.3722  0.2578
 3538SOL    HW122076   0.627   0.567   9.465 -0.0753 -0.2160  0.0807
 3538SOL    HW222077   0.717   0.674   9.490 -1.1345  0.7665 -1.1189
 3539SOL     OW22078   0.653   3.689  11.314 -0.2982  0.1311  0.1720
 3539SOL    HW122079   0.739   3.708  11.277  0.1786 -1.7219  0.3503
 3539SOL    HW222080   0.610   3.678  11.229  0.1013 -2.1570  0.2665
 3540SOL     OW22081   4.464   4.655  15.717  0.0927 -0.5279 -0.0269
 3540SOL    HW122082   4.506   4.569  15.709 -0.9186 -0.8569 -1.6399
 3540SOL    HW222083   4.453   4.682  15.626  0.1980  1.4997  0.5771
 3541SOL     OW22084   3.924   1.994   0.940 -0.4799 -0.1529 -0.0728
 3541SOL    HW122085   3.990   1.925   0.944 -0.6422 -0.1967  2.2142
 3541SOL    HW222086   3.965   2.060   0.883  1.0714 -1.4558 -0.4628
 3542SOL     OW22087   1.775   2.395   1.250 -0.2123 -0.7472 -0.6856
 3542SOL    HW122088   1.703   2.401   1.313  1.1143 -1.7962  0.9435
 3542SOL    HW222089   1.759   2.479   1.207 -0.3181 -0.3705  0.0732
 3543SOL     OW22090   2.631   1.913   4.633 -0.3787  0.2940  0.1890
 3543SOL    HW122091   2.634   1.981   4.700  0.2105  1.3790 -0.9243
 3543SOL    HW222092   2.554   1.936   4.581 -0.2506 -1.1258 -0.6208
 3544SOL     OW22093   4.503   2.822   3.737 -0.8096 -0.0726  0.2897
 3544SOL    HW122094   4.589   2.862   3.731 -0.0231 -1.8087  0.1908
 3544SOL    HW222095   4.461   2.885   3.796 -1.5802  1.0154 -1.4597
 3545SOL     OW22096   1.086   0.098   3.191  0.1934  0.2142 -0.1346
 3545SOL    HW122097   1.018   0.165   3.190 -0.9376 -0.9434  0.0564
 3545SOL    HW222098   1.132   0.117   3.109 -0.0692 -0.1158 -0.3549
 3546SOL     OW22099   3.390   2.212   5.577  0.4329  0.1498  0.3153
 3546SOL    HW122100   3.437   2.236   5.656  1.6897 -3.9416  0.8239
 3546SOL    HW222101   3.316   2.168   5.619 -1.0190  0.0056 -2.3395
 3547SOL     OW22102   1.995   0.990   5.470 -0.6152 -0.8275  0.3041
 3547SOL    HW122103   2.055   1.044   5.522  0.6634 -1.6876 -0.2758
 3547SOL    HW222104   2.018   0.906   5.508 -2.5904 -0.5599  2.0654
 3548SOL     OW22105   2.305   3.110  10.575 -0.3422 -0.2923 -0.0104
 3548SOL    HW122106   2.356   3.187  10.549  0.4227 -0.6839  0.3262
 3548SOL    HW222107   2.315   3.059  10.494  0.6835 -0.5392  0.2710
 3549SOL     OW22108   3.017   2.280  11.387 -0.0226  0.2706 -0.5917
 3549SOL    HW122109   2.949   2.213  11.391 -0.0929  0.4317  0.7642
 3549SOL    HW222110   3.006   2.320  11.473 -1.3904 -0.5670 -0.3784
 3550SOL     OW22111   1.080   4.693   6.829 -0.0186 -0.2956 -0.2694
 3550SOL    HW122112   1.009   4.695   6.764 -0.7321  0.0306  0.5172
 3550SOL    HW222113   1.029   4.706   6.910  0.4427 -1.0519  0.1339
 3551SOL     OW22114   1.266   2.501  14.266 -0.4429 -0.0892  0.5159
 3551SOL    HW122115   1.286   2.554  14.343 -1.6963 -0.1907  0.9097
 3551SOL    HW222116   1.240   2.564  14.199  0.7261  0.6045  0.7247
 3552SOL     OW22117   1.616   4.608   4.153  0.0268  0.0776  0.2234
 3552SOL    HW122118   1.544   4.672   4.149 -0.4942 -0.2879  3.6436
 3552SOL    HW222119   1.622   4.575   4.063 -0.2434 -0.1088  0.2724
 3553SOL     OW22120   1.812   4.288   2.031  0.0423  0.6049  0.3676
 3553SOL    HW122121   1.778   4.348   2.098  0.5255  2.2353 -0.8406
 3553SOL    HW222122   1.887   4.338   1.997 -0.3213  0.1218 -1.1215
 3554SOL     OW22123   2.993   0.680   4.251 -0.1007  0.1500 -0.4102
 3554SOL    HW122124   3.037   0.727   4.181 -3.4855  1.1727 -1.8464
 3554SOL    HW222125   3.054   0.609   4.270 -0.2240 -0.2258 -1.4277
 3555SOL     OW22126   2.903   4.506   1.522 -0.2413 -0.5889 -0.2824
 3555SOL    HW122127   2.991   4.470   1.530  0.2046  0.5610 -0.0333
 3555SOL    HW222128   2.850   4.429   1.500 -2.9728  0.4972  2.5262
 3556SOL     OW22129   3.525   0.864   5.852  0.0793  0.4187  0.4081
 3556SOL    HW122130   3.453   0.807   5.827  1.1858 -1.0109  0.4728
 3556SOL    HW222131   3.572   0.805   5.910  1.4767  0.0676 -1.0633
 3557SOL     OW22132   1.107   1.713   7.124  0.1133 -0.1032  0.4518
 3557SOL    HW122133   1.093   1.758   7.208 -0.1040  0.2718  0.2148
 3557SOL    HW222134   1.028   1.742   7.079 -0.1442 -0.4100  0.7063
 3558SOL     OW22135   4.233   2.100  13.504  0.3349 -0.4762  0.1966
 3558SOL    HW122136   4.192   2.115  13.589  1.8808 -0.8653  1.0051
 3558SOL    HW222137   4.165   2.141  13.451  0.8798 -0.3411 -0.3970
 3559SOL     OW22138   3.647   0.868   6.889  0.3473  0.4053 -0.2097
 3559SOL    HW122139   3.732   0.858   6.931 -0.4773 -1.4717  1.0066
 3559SOL    HW222140   3.615   0.956   6.909  2.8232  0.7373  2.2341
 3560SOL     OW22141   0.636   3.837   4.909  0.2595 -0.3991 -0.5391
 3560SOL    HW122142   0.559   3.838   4.851 -0.1709  1.0865  0.0812
 3560SOL    HW222143   0.643   3.747   4.941 -1.2318 -0.2538  0.1934
 3561SOL     OW22144   0.080   2.368  13.853 -0.1229  0.4831  0.1613
 3561SOL    HW122145   0.078   2.272  13.850 -2.6001  0.5490 -0.7004
 3561SOL    HW222146   0.115   2.395  13.768  0.2280  0.2897  0.2425
 3562SOL     OW22147   1.137   2.268  14.233  0.3863 -0.0918 -0.0142
 3562SOL    HW122148   1.183   2.341  14.275 -0.8766 -0.0090  1.2669
 3562SOL    HW222149   1.104   2.318  14.158 -0.1574  1.4373  1.2190
 3563SOL     OW22150   4.494   1.024   6.904 -0.6900 -0.1499 -0.1086
 3563SOL    HW122151   4.513   0.932   6.918 -0.4374  0.1089  1.2469
 3563SOL    HW222152   4.488   1.066   6.990  0.7216 -0.8310  0.3058
 3564SOL     OW22153   2.932   4.592   5.258 -0.0365  0.4536  0.6303
 3564SOL    HW122154   3.011   4.645   5.243  0.3421 -0.5987 -1.0887
 3564SOL    HW222155   2.936   4.593   5.354 -0.7297 -0.4489  0.6743
 3565SOL     OW22156   1.594   2.775  11.838 -0.4235  0.8865 -0.0779
 3565SOL    HW122157   1.675   2.747  11.880 -1.4187 -3.3672 -1.0014
 3565SOL    HW222158   1.619   2.770  11.745  0.2006 -0.7061  0.1691
 3566SOL     OW22159   2.590   1.815  11.043  0.2723 -0.1096  0.0798
 3566SOL    HW122160   2.512   1.812  10.989  2.3342 -0.2182 -2.8780
 3566SOL    HW222161   2.558   1.794  11.131  2.7405  0.0787  1.0384
 3567SOL     OW22162   4.649   2.160   7.769 -0.5409 -0.5023 -0.3550
 3567SOL    HW122163   4.554   2.166   7.756 -0.6035  1.5968  1.2115
 3567SOL    HW222164   4.653   2.209   7.851  1.7039 -3.4758  1.3075
 3568SOL     OW22165   4.035   4.620  14.663 -0.1476 -0.1477 -0.2563
 3568SOL    HW122166   3.961   4.676  14.640 -0.3588 -0.6806 -0.8905
 3568SOL    HW222167   4.034   4.562  14.587  0.9178 -1.2916  0.6107
 3569SOL     OW22168   1.364   3.934   2.548 -0.4028  0.9041  0.3098
 3569SOL    HW122169   1.276   3.946   2.512 -0.9111 -0.7154  1.0272
 3569SOL    HW222170   1.414   3.991   2.488  2.8573 -2.2894 -0.0339
 3570SOL     OW22171   3.074   2.634   6.995 -0.1444  0.4107  0.0906
 3570SOL    HW122172   3.114   2.567   6.940 -1.2353 -1.1499  1.2253
 3570SOL    HW222173   3.010   2.665   6.931  0.6166  1.4837 -0.1708
 3571SOL     OW22174   4.373   3.213  10.292 -0.1196  0.1340  0.3776
 3571SOL    HW122175   4.361   3.303  10.261 -0.0033 -0.1045 -0.3783
 3571SOL    HW222176   4.396   3.215  10.384 -1.1682 -2.0139  0.6838
 3572SOL     OW22177   0.238   0.502   5.724 -0.5406 -0.1213  0.7787
 3572SOL    HW122178   0.174   0.555   5.676  2.9241  2.6704 -0.7673
 3572SOL    HW222179   0.238   0.536   5.813 -1.6114  0.2795  0.6250
 3573SOL     OW22180   0.759   4.354   2.607 -0.5678  0.0294 -0.6134
 3573SOL    HW122181   0.743   4.411   2.532  1.6886  2.5643  0.8311
 3573SOL    HW222182   0.821   4.409   2.655  0.0579 -1.3991  0.1915
 3574SOL     OW22183   1.604   3.392   3.145  0.4517 -0.3997  0.0310
 3574SOL    HW122184   1.513   3.422   3.145  0.0593 -1.5945 -0.1930
 3574SOL    HW222185   1.653   3.472   3.125  0.2103 -0.1740  0.3360
 3575SOL     OW22186   0.512   0.316   5.536 -0.0630  0.1656 -0.0385
 3575SOL    HW122187   0.484   0.397   5.493  0.1361  0.1570 -0.1863
 3575SOL    HW222188   0.587   0.296   5.480 -0.6475 -1.4969 -0.2058
 3576SOL     OW22189   2.737   4.657   5.910 -0.1027  0.3015  0.0859
 3576SOL    HW122190   2.777   4.682   5.993  2.0526  0.4476 -1.0202
 3576SOL    HW222191   2.669   4.599   5.946  0.9490 -0.9209  0.0944
 3577SOL     OW22192   0.474   4.348  16.880  0.8719 -0.3469 -0.1734
 3577SOL    HW122193   0.543   4.414  16.881  1.4693 -0.9589 -0.6785
 3577SOL    HW222194   0.504   4.296  16.954 -0.3115 -0.9587 -0.1253
 3578SOL     OW22195   2.327   2.347  10.611 -0.7194  0.3298  0.4567
 3578SOL    HW122196   2.266   2.275  10.626  1.0291 -1.6631 -1.9970
 3578SOL    HW222197   2.299   2.409  10.678 -0.8266  1.3022 -0.4687
 3579SOL     OW22198   3.657   0.901   7.228  0.0107 -0.1396 -0.8614
 3579SOL    HW122199   3.734   0.891   7.172  2.3324 -0.7563  2.4057
 3579SOL    HW222200   3.610   0.964   7.174  2.4516  2.6891  0.3377
 3580SOL     OW22201   2.951   3.934   1.955 -0.8180  0.0046 -0.2058
 3580SOL    HW122202   2.976   3.860   2.011  1.1100  0.6934 -0.1749
 3580SOL    HW222203   3.006   4.005   1.987 -1.1998  0.7928 -1.3399
 3581SOL     OW22204   2.011   4.618   9.467  0.4587 -0.0100  0.4882
 3581SOL    HW122205   2.016   4.597   9.561  0.5979 -3.0241 -0.1794
 3581SOL    HW222206   1.926   4.661   9.468  0.7073  0.5042 -1.9775
 3582SOL     OW22207   3.154   4.060   9.874 -0.2676 -0.1760 -0.1495
 3582SOL    HW122208   3.132   4.151   9.896 -0.9714 -0.1127 -1.1265
 3582SOL    HW222209   3.199   4.030   9.953 -1.2418  2.7652  1.5012
 3583SOL     OW22210   2.603   4.235   5.142 -0.2129  0.4930 -0.2023
 3583SOL    HW122211   2.664   4.292   5.094  1.8430 -1.3784  0.2071
 3583SOL    HW222212   2.599   4.269   5.231  2.5834 -0.7931  0.4146
 3584SOL     OW22213   1.405   3.545  14.149  0.3983 -0.3478 -0.1574
 3584SOL    HW122214   1.454   3.618  14.112 -0.0293  1.1296  2.1474
 3584SOL    HW222215   1.470   3.476  14.157  0.2720 -0.4637 -0.1268
 3585SOL     OW22216   3.253   2.068   8.758  1.4362  0.1177 -0.2963
 3585SOL    HW122217   3.291   2.066   8.846 -0.9544  2.6907  0.7871
 3585SOL    HW222218   3.241   1.974   8.748  0.6259  0.0582  1.1996
 3586SOL     OW22219   2.348   2.839   2.359 -0.1186  0.2337  0.1495
 3586SOL    HW122220   2.277   2.869   2.415  0.9033 -0.2932  1.7068
 3586SOL    HW222221   2.316   2.758   2.320 -0.9403  0.0835  1.1673
 3587SOL     OW22222   3.270   2.913   6.787  0.3732  0.3417 -0.3535
 3587SOL    HW122223   3.334   2.932   6.855 -2.4304  1.6275  1.9069
 3587SOL    HW222224   3.325   2.913   6.708 -0.5329  2.9698 -0.9743
 3588SOL     OW22225   2.218   3.050   7.988 -0.6441  0.1655 -0.3032
 3588SOL    HW122226   2.147   3.077   8.045 -0.5731 -1.6450  0.6393
 3588SOL    HW222227   2.223   3.121   7.925 -0.9740  1.5150  1.2079
 3589SOL     OW22228   2.776   3.410   4.618 -0.1779 -0.0557 -0.1810
 3589SOL    HW122229   2.682   3.423   4.631 -0.5188 -1.7306 -0.9969
 3589SOL    HW222230   2.814   3.498   4.612  1.8585 -0.7460  2.7728
 3590SOL     OW22231   3.613   0.725   3.676  0.0849  0.0419 -0.2881
 3590SOL    HW122232   3.653   0.641   3.652  1.1763 -0.1803  2.2343
 3590SOL    HW222233   3.593   0.768   3.593  0.9000 -2.0405 -1.5656
 3591SOL     OW22234   2.537   1.014   2.034 -0.8917 -0.1962 -0.4707
 3591SOL    HW122235   2.581   0.956   2.096 -1.3746  0.0455  0.1030
 3591SOL    HW222236   2.476   1.061   2.091 -1.8133  1.0900 -2.5145
 3592SOL     OW22237   2.396   4.048   6.341 -0.1086 -0.1343 -0.0667
 3592SOL    HW122238   2.444   3.966   6.338 -2.4391 -1.5471  0.9707
 3592SOL    HW222239   2.445   4.097   6.407  0.2512  2.0481 -1.9390
 3593SOL     OW22240   3.099   1.342   7.252  0.0991  0.2711 -0.2089
 3593SOL    HW122241   3.067   1.282   7.186  2.8004 -0.3962 -0.9195
 3593SOL    HW222242   3.060   1.300   7.329 -0.2996  0.1160 -0.4994
 3594SOL     OW22243   1.247   2.092   9.735  0.2512 -0.5261 -0.1418
 3594SOL    HW122244   1.290   2.028   9.791  0.5660  0.8306  1.1742
 3594SOL    HW222245   1.323   2.150   9.730  0.0065 -0.0898  1.1997
 3595SOL     OW22246   1.579   3.564  10.256  0.7409  0.7232 -0.2174
 3595SOL    HW122247   1.528   3.626  10.308 -0.0283  0.4705 -0.6644
 3595SOL    HW222248   1.538   3.481  10.281  1.1086  0.9586  1.2078
 3596SOL     OW22249   0.432   2.804   7.287  0.3930  0.2469 -0.4901
 3596SOL    HW122250   0.528   2.806   7.291  0.3454 -2.1364  1.6217
 3596SOL    HW222251   0.408   2.778   7.376  1.7369 -4.8929 -1.6187
 3597SOL     OW22252   3.292   3.532  11.710  0.0863 -0.1799 -0.2905
 3597SOL    HW122253   3.344   3.598  11.755 -0.1819 -0.2329  0.1035
 3597SOL    HW222254   3.333   3.519  11.625 -1.5470 -0.9554 -0.9759
 3598SOL     OW22255   1.046   0.123   4.282  0.3420  0.0819 -0.3106
 3598SOL    HW122256   1.055   0.077   4.198 -0.8214 -0.4298 -0.1603
 3598SOL    HW222257   1.100   0.060   4.330  0.2918  0.9688  0.9107
 3599SOL     OW22258   3.962   2.905  17.459 -0.2429  0.1346 -0.5238
 3599SOL    HW122259   4.019   2.976  17.430 -0.1398 -0.5681 -2.0883
 3599SOL    HW222260   4.021   2.843  17.501  2.1830  3.7006  1.3098
 3600SOL     OW22261   1.873   3.596   9.067  0.0963 -0.1601 -0.1254
 3600SOL    HW122262   1.813   3.568   8.998 -0.0156 -1.4427  0.4793
 3600SOL    HW222263   1.834   3.546   9.139  1.7271 -0.2362  0.6994
 3601SOL     OW22264   0.259   3.742   9.770  0.3947 -0.1323 -0.0465
 3601SOL    HW122265   0.294   3.811   9.826  1.8505 -1.9494  1.2557
 3601SOL    HW222266   0.276   3.767   9.679 -0.2340 -2.2294 -0.7401
 3602SOL     OW22267   2.042   4.537   3.726  0.5545 -0.1967  0.3634
 3602SOL    HW122268   2.066   4.623   3.761 -2.4791  0.8302 -0.0827
 3602SOL    HW222269   2.049   4.492   3.810 -0.3387 -1.6834 -0.3572
 3603SOL     OW22270   2.936   3.067   3.778  0.1096  0.1612 -0.1454
 3603SOL    HW122271   3.012   3.125   3.779  0.1707  0.1119 -1.5572
 3603SOL    HW222272   2.896   3.107   3.855  0.9073  1.1081 -0.2249
 3604SOL     OW22273   2.579   3.581   8.886 -0.4570  0.2458  0.9468
 3604SOL    HW122274   2.655   3.637   8.870  0.8259 -1.6246  0.4366
 3604SOL    HW222275   2.539   3.637   8.952  0.7803  1.9329  0.2609
 3605SOL     OW22276   1.984   3.823   0.603 -0.1162 -0.2965 -0.8777
 3605SOL    HW122277   1.962   3.732   0.626 -1.8872 -0.0851 -1.7264
 3605SOL    HW222278   2.068   3.813   0.558 -0.4516  0.6053 -1.6979
 3606SOL     OW22279   3.464   0.244  16.887  0.4135  0.0460 -0.4436
 3606SOL    HW122280   3.396   0.306  16.911  0.0460 -0.8480  0.8180
 3606SOL    HW222281   3.406   0.177  16.851  0.8094 -1.2226  1.2963
 3607SOL     OW22282   2.894   2.768   5.109  0.2943 -0.6138  0.3881
 3607SOL    HW122283   2.960   2.826   5.147 -0.1160  1.6924 -2.3335
 3607SOL    HW222284   2.912   2.785   5.016 -1.2368 -0.7329  0.0684
 3608SOL     OW22285   2.397   0.846   9.550 -0.3320 -0.6641 -0.4094
 3608SOL    HW122286   2.317   0.864   9.502 -0.2891 -2.0268 -1.0054
 3608SOL    HW222287   2.466   0.860   9.484  0.0156  0.8075  0.2853
 3609SOL     OW22288   4.335   1.851  10.230  0.4775  0.6091  0.8860
 3609SOL    HW122289   4.348   1.924  10.169  3.0609 -0.3240  0.2998
 3609SOL    HW222290   4.398   1.790  10.192 -1.5185 -1.4453  0.9058
 3610SOL     OW22291   4.132   1.333   3.311 -0.4420  0.2461 -0.2447
 3610SOL    HW122292   4.221   1.328   3.276  0.5661  1.0824  2.1911
 3610SOL    HW222293   4.163   1.363   3.397  1.5499  0.5338 -1.0481
 3611SOL     OW22294   0.069   3.413   7.281 -0.5963 -0.3044 -0.3081
 3611SOL    HW122295   0.142   3.397   7.222  1.1334  0.8099  1.5510
 3611SOL    HW222296   4.717   3.396   7.226 -0.9317 -0.3404  0.1692
 3612SOL     OW22297   1.033   1.083   6.752 -0.3816  0.2535  0.2365
 3612SOL    HW122298   1.027   1.171   6.716 -1.8611 -0.0878 -0.3471
 3612SOL    HW222299   1.114   1.086   6.803 -0.0970 -2.7718 -0.0331
 3613SOL     OW22300   2.139   1.463   6.230  0.3262  0.5587 -0.4950
 3613SOL    HW122301   2.048   1.441   6.249  0.1231  2.0079  0.1794
 3613SOL    HW222302   2.132   1.490   6.139  1.1716  0.1908 -0.6696
 3614SOL     OW22303   3.343   1.879  12.748  0.0404 -0.1312  0.3571
 3614SOL    HW122304   3.248   1.888  12.742  0.0008 -1.0983 -0.3929
 3614SOL    HW222305   3.377   1.959  12.708 -0.0291  0.4899  1.5337
 3615SOL     OW22306   3.134   0.682   7.388 -0.0822 -0.1469  0.4508
 3615SOL    HW122307   3.137   0.588   7.371 -1.7954  0.2663 -2.2374
 3615SOL    HW222308   3.196   0.720   7.326  2.3183 -0.9902  2.3740
 3616SOL     OW22309   2.715   0.321   2.202 -0.2481  0.5941 -0.3992
 3616SOL    HW122310   2.677   0.298   2.287  1.1488  2.2821  0.6757
 3616SOL    HW222311   2.788   0.262   2.188 -1.6733 -1.9490  3.0102
 3617SOL     OW22312   2.280   2.322  15.089  0.3156  0.0699  0.4969
 3617SOL    HW122313   2.194   2.288  15.064  0.8784 -0.1204 -1.1882
 3617SOL    HW222314   2.296   2.377  15.012 -0.9367 -1.3590 -0.8137
 3618SOL     OW22315   1.157   1.184   2.951 -0.5231  0.3701 -0.4092
 3618SOL    HW122316   1.228   1.126   2.921  1.0063  1.1783  1.6191
 3618SOL    HW222317   1.083   1.157   2.897 -1.6216 -0.4469  1.5129
 3619SOL     OW22318   2.084   1.645   5.058 -0.1144  0.1919 -0.2720
 3619SOL    HW122319   1.999   1.621   5.097  0.6518  0.7762  1.7485
 3619SOL    HW222320   2.142   1.610   5.125 -2.7938  0.8581  2.4256
 3620SOL     OW22321   4.062   1.541  11.464  0.6919  0.0549 -0.3217
 3620SOL    HW122322   4.063   1.461  11.516  1.7076 -0.1693 -0.6797
 3620SOL    HW222323   4.156   1.555  11.450  1.2184 -2.1962  0.9169
 3621SOL     OW22324   4.349   0.327   4.548 -0.0851  0.3543  0.0501
 3621SOL    HW122325   4.415   0.357   4.486 -0.3503 -0.4590 -0.6261
 3621SOL    HW222326   4.333   0.238   4.517 -0.4369  0.5481 -0.3247
 3622SOL     OW22327   3.137   2.511   3.845 -0.0026 -0.3160  0.3747
 3622SOL    HW122328   3.139   2.452   3.770 -2.4990 -1.6808  1.3799
 3622SOL    HW222329   3.141   2.596   3.802  1.6399 -0.0672  1.0260
 3623SOL     OW22330   3.019   1.427   8.209 -0.0518  0.2092 -0.6250
 3623SOL    HW122331   3.014   1.335   8.182  2.1917 -0.3565  0.9335
 3623SOL    HW222332   2.959   1.467   8.146 -2.3395 -1.9714  0.1184
 3624SOL     OW22333   2.702   0.373   6.118  0.1284  0.3531  0.2370
 3624SOL    HW122334   2.650   0.453   6.109 -1.5955 -0.7377  0.4607
 3624SOL    HW222335   2.662   0.318   6.184  2.0301 -0.6070  0.5884
 3625SOL     OW22336   3.157   1.444   4.088  0.3200  0.5949 -0.1704
 3625SOL    HW122337   3.232   1.384   4.092 -1.3690 -1.5127 -0.3036
 3625SOL    HW222338   3.145   1.453   4.182 -2.0440 -0.7458 -0.3364
 3626SOL     OW22339   1.889   2.488   2.134 -0.4083 -0.3477  0.1644
 3626SOL    HW122340   1.843   2.558   2.088 -1.0527  1.4338  3.5144
 3626SOL    HW222341   1.962   2.469   2.075  0.4228  0.6465  0.8794
 3627SOL     OW22342   3.046   3.250   5.185  0.0350  0.2925  0.4400
 3627SOL    HW122343   2.972   3.303   5.215  1.7646  2.3923  0.9869
 3627SOL    HW222344   3.107   3.323   5.190 -0.2326  0.7275 -2.5966
 3628SOL     OW22345   4.272   3.805  17.554 -0.4279 -0.3456  0.4162
 3628SOL    HW122346   4.278   3.840  17.466  1.8390  1.1960  1.1937
 3628SOL    HW222347   4.237   3.717  17.538 -0.3013 -0.3052 -0.0721
 3629SOL     OW22348   4.292   2.243   8.535 -0.3940 -0.1081  0.4167
 3629SOL    HW122349   4.290   2.182   8.609 -3.2889  0.3352  0.7147
 3629SOL    HW222350   4.256   2.202   8.457  1.6737  3.4587 -2.4503
 3630SOL     OW22351   4.386   0.156   7.738 -0.8572  0.4633  0.4168
 3630SOL    HW122352   4.332   0.092   7.691  0.3239 -0.5563  0.4374
 3630SOL    HW222353   4.339   0.154   7.821  0.1274 -2.2766  0.9059
 3631SOL     OW22354   2.872   2.941   2.890  0.1733 -0.0007 -0.9018
 3631SOL    HW122355   2.908   3.012   2.837 -0.1815 -0.3393 -1.5906
 3631SOL    HW222356   2.804   2.983   2.942  0.2393 -0.0136 -0.8046
 3632SOL     OW22357   1.470   3.200   7.822  0.4373  0.2657  0.0857
 3632SOL    HW122358   1.407   3.159   7.762  0.0276  2.0216 -0.6676
 3632SOL    HW222359   1.486   3.118   7.869  0.0606  1.0947  1.6250
 3633SOL     OW22360   1.889   3.475   6.760 -0.1757  0.2787 -0.3484
 3633SOL    HW122361   1.861   3.442   6.845  0.6615 -0.3438 -0.3026
 3633SOL    HW222362   1.808   3.479   6.710  0.3751  0.9794 -1.1737
 3634SOL     OW22363   1.091   4.665   5.282  0.4209 -0.4941 -0.2881
 3634SOL    HW122364   1.031   4.634   5.214  0.7320  0.6665 -1.1004
 3634SOL    HW222365   1.050   4.636   5.364  1.5161 -0.3862  0.2927
 3635SOL     OW22366   0.031   3.823  10.101  0.1611  0.3237  0.0395
 3635SOL    HW122367   0.087   3.753  10.137  2.0876  0.8073 -1.9839
 3635SOL    HW222368   4.675   3.774  10.092 -0.1339  0.8374 -0.0404
 3636SOL     OW22369   0.943   0.270   2.605 -0.0366  0.0798 -0.3880
 3636SOL    HW122370   0.848   0.278   2.592  0.2669  1.9490 -1.4982
 3636SOL    HW222371   0.977   0.357   2.581  0.1092  0.3372  0.7586
 3637SOL     OW22372   2.169   3.935  10.410  0.0475  0.4071 -0.3861
 3637SOL    HW122373   2.198   3.977  10.329 -1.3640 -0.7149 -1.4644
 3637SOL    HW222374   2.172   3.845  10.378 -3.5974  0.3827 -0.6653
 3638SOL     OW22375   4.450   4.591  15.261  0.4857  0.6289  0.3948
 3638SOL    HW122376   4.424   4.502  15.240 -0.6121  1.3091 -1.1372
 3638SOL    HW222377   4.423   4.640  15.183 -0.3155 -2.8918 -1.5333
 3639SOL     OW22378   1.825   0.555   3.124  0.2357 -0.3975  0.2496
 3639SOL    HW122379   1.740   0.558   3.167  0.4482  1.3362  0.5398
 3639SOL    HW222380   1.843   0.648   3.116 -0.5840 -0.2473  0.1884
 3640SOL     OW22381   2.280   2.036   3.374 -0.0731 -0.0487 -0.1771
 3640SOL    HW122382   2.271   2.042   3.279  1.1554 -0.7172 -0.3319
 3640SOL    HW222383   2.226   1.962   3.399  1.0606 -0.5734  0.7070
 3641SOL     OW22384   2.018   4.434   1.435  0.2039  0.2059 -0.5078
 3641SOL    HW122385   1.953   4.364   1.442 -0.0894  0.6355  1.1849
 3641SOL    HW222386   1.962   4.507   1.406  1.2843  1.2083 -0.0493
 3642SOL     OW22387   4.395   3.906  17.057  0.1681 -1.1031  0.4328
 3642SOL    HW122388   4.377   3.956  16.978  1.0197 -0.2747  0.7705
 3642SOL    HW222389   4.391   3.824  17.008 -0.7367  0.7881 -2.6560
 3643SOL     OW22390   3.540   2.588   2.165  0.9550 -0.4427  0.0592
 3643SOL    HW122391   3.467   2.648   2.180  2.2449  1.1545 -0.0397
 3643SOL    HW222392   3.571   2.581   2.256  1.4583  1.4174  0.0116
 3644SOL     OW22393   2.477   0.987   6.227  0.0200 -0.1929 -0.1186
 3644SOL    HW122394   2.383   0.967   6.225  0.3336 -1.6683 -0.7266
 3644SOL    HW222395   2.482   1.032   6.311 -0.7456 -1.6376  0.7060
 3645SOL     OW22396   0.957   1.355   2.828  0.5663  0.1705  0.9561
 3645SOL    HW122397   0.957   1.440   2.785 -0.6081  0.0817  0.7618
 3645SOL    HW222398   1.043   1.349   2.869  0.2822 -2.4777  1.1565
 3646SOL     OW22399   3.822   2.269   8.697 -0.0157  0.2805  0.2280
 3646SOL    HW122400   3.815   2.174   8.699  0.6197  0.2164 -0.4095
 3646SOL    HW222401   3.748   2.304   8.747  0.7800  2.4709 -0.1170
 3647SOL     OW22402   4.582   2.755  13.039 -0.4699  0.1019  0.4330
 3647SOL    HW122403   4.538   2.817  13.096 -1.3283 -0.4192  0.3368
 3647SOL    HW222404   4.513   2.759  12.973  1.0283  1.3056 -1.0669
 3648SOL     OW22405   3.990   0.159   9.592  0.1961  0.5670 -0.2905
 3648SOL    HW122406   4.073   0.119   9.620 -0.3714 -1.6458 -1.7309
 3648SOL    HW222407   4.026   0.239   9.554  1.7426 -0.7112 -1.4931
 3649SOL     OW22408   4.638   2.033   2.496 -0.0797  0.2993 -0.0437
 3649SOL    HW122409   4.565   2.015   2.556  0.4230  1.3682  0.8918
 3649SOL    HW222410   4.664   1.944   2.471 -2.3797 -0.3728 -0.0432
 3650SOL     OW22411   1.415   0.318   5.469 -0.1044 -0.5192  0.2512
 3650SOL    HW122412   1.343   0.293   5.526  1.5662 -1.3443  2.0160
 3650SOL    HW222413   1.397   0.412   5.462 -3.2343 -1.3474 -2.5243
 3651SOL     OW22414   1.559   2.923  16.250 -0.0452  0.8598  0.0846
 3651SOL    HW122415   1.466   2.917  16.226  0.2686  2.7800 -1.6095
 3651SOL    HW222416   1.548   2.990  16.317 -0.8169  0.0547  0.7775
 3652SOL     OW22417   1.301   1.830   1.546 -0.2803  0.6796 -0.3924
 3652SOL    HW122418   1.254   1.868   1.620  1.8869  0.7797  0.9587
 3652SOL    HW222419   1.369   1.894   1.523  2.6926 -1.9678  1.0636
 3653SOL     OW22420   4.433   1.720   0.850 -0.7117  0.6499  0.1226
 3653SOL    HW122421   4.457   1.725   0.757 -2.7502  2.4706 -0.2927
 3653SOL    HW222422   4.499   1.658   0.883 -1.0182 -1.2903 -2.9078
 3654SOL     OW22423   3.331   1.286   7.991  0.3458 -0.1699 -0.2268
 3654SOL    HW122424   3.402   1.254   7.934  0.6677 -2.9124  1.7189
 3654SOL    HW222425   3.300   1.360   7.939 -1.2845 -0.3815  0.4547
 3655SOL     OW22426   2.024   1.387   0.961  0.2311 -0.2888  0.2278
 3655SOL    HW122427   2.064   1.311   0.918  0.8861 -0.4754  1.1624
 3655SOL    HW222428   2.016   1.366   1.054  1.8691 -0.0857  0.4094
 3656SOL     OW22429   3.995   4.174   9.325  0.0592 -0.0883  0.2973
 3656SOL    HW122430   3.925   4.179   9.261  1.3466 -0.9941 -1.1944
 3656SOL    HW222431   4.033   4.089   9.301  1.1405  1.2237 -2.6087
 3657SOL     OW22432   1.098   4.699   8.603  0.8426 -0.2893 -0.0393
 3657SOL    HW122433   1.135   4.694   8.515 -0.1950  0.5296 -0.5153
 3657SOL    HW222434   1.159   0.033   8.646  3.3326 -0.4486 -3.3449
 3658SOL     OW22435   4.258   2.896   8.740 -0.3323 -0.2470  0.3722
 3658SOL    HW122436   4.306   2.820   8.707 -1.0908 -1.0840  1.1785
 3658SOL    HW222437   4.271   2.949   8.662  1.5771 -2.4403 -0.7912
 3659SOL     OW22438   1.877   2.644   2.345  0.4925 -0.5345 -0.3675
 3659SOL    HW122439   1.813   2.606   2.405  0.0556 -0.8457 -1.0323
 3659SOL    HW222440   1.882   2.578   2.276 -0.2201 -1.6377  0.6434
 3660SOL     OW22441   0.540   4.113   9.967  0.2838  0.1753  0.8156
 3660SOL    HW122442   0.629   4.120  10.002 -0.0282 -0.6674  1.7677
 3660SOL    HW222443   0.497   4.186  10.013 -0.2384  0.4031 -0.0307
 3661SOL     OW22444   4.522   0.058   8.500  0.7070  0.5986  0.3478
 3661SOL    HW122445   4.503   0.078   8.591  1.2706  0.9689  0.3882
 3661SOL    HW222446   4.475   4.700   8.507 -1.3973  1.7097 -0.9035
 3662SOL     OW22447   4.453   0.376   6.809 -0.3924 -0.0825 -0.1704
 3662SOL    HW122448   4.427   0.440   6.743  0.7079  1.2713  0.7108
 3662SOL    HW222449   4.387   0.308   6.798  0.8504 -1.5225  1.2743
 3663SOL     OW22450   1.767   1.923   2.633 -0.2074 -0.4839 -0.5192
 3663SOL    HW122451   1.859   1.945   2.629  0.4985 -3.0974  0.9043
 3663SOL    HW222452   1.773   1.828   2.645 -2.2355 -0.8174 -2.0494
 3664SOL     OW22453   0.689   2.038   6.893 -0.3604 -0.1290 -0.1584
 3664SOL    HW122454   0.669   2.100   6.822 -1.3777 -0.8183 -0.4730
 3664SOL    HW222455   0.669   1.958   6.844 -1.6777  0.7515 -1.0273
 3665SOL     OW22456   4.277   0.916   5.996  0.2763  0.0520 -0.6638
 3665SOL    HW122457   4.232   1.000   6.000 -1.4175 -0.9519  1.4271
 3665SOL    HW222458   4.312   0.917   5.907 -0.7080  0.1664 -1.0477
 3666SOL     OW22459   4.593   0.410  12.053 -0.2580 -0.3838  0.2440
 3666SOL    HW122460   4.521   0.391  12.113  0.5979 -0.3178  1.3080
 3666SOL    HW222461   4.668   0.387  12.108 -1.1723 -1.2090  1.1428
 3667SOL     OW22462   0.375   3.504   7.109 -0.2615  0.5930 -0.1498
 3667SOL    HW122463   0.438   3.434   7.094 -1.7651 -0.0956 -3.2080
 3667SOL    HW222464   0.300   3.446   7.121  0.8557 -0.5998  1.0374
 3668SOL     OW22465   2.517   4.236   6.518  0.3183 -0.1360 -0.4641
 3668SOL    HW122466   2.596   4.273   6.557  0.6708 -0.7086 -0.6302
 3668SOL    HW222467   2.480   4.174   6.582  3.0315  0.1792  1.3716
 3669SOL     OW22468   0.320   1.680   5.311  0.1704  0.4996 -0.2255
 3669SOL    HW122469   0.243   1.708   5.361 -0.5066 -1.9301  0.1019
 3669SOL    HW222470   0.388   1.714   5.369 -0.1529 -0.9073  0.9602
 3670SOL     OW22471   3.360   1.910   7.872  0.1303 -0.7023 -0.8333
 3670SOL    HW122472   3.293   1.974   7.847 -0.6196 -0.8915  0.7089
 3670SOL    HW222473   3.404   1.891   7.789  0.8162  0.2021 -0.6794
 3671SOL     OW22474   2.623   3.217   6.720  0.4268 -0.0281  0.3802
 3671SOL    HW122475   2.608   3.189   6.810 -0.6172  1.1584  0.5769
 3671SOL    HW222476   2.539   3.258   6.698  0.0560 -0.8322  0.2508
 3672SOL     OW22477   1.456   1.209   3.843  0.6850 -0.3243  0.1647
 3672SOL    HW122478   1.509   1.286   3.863 -0.1453  0.0456  0.9220
 3672SOL    HW222479   1.445   1.218   3.749 -0.1402 -0.8291  0.2190
 3673SOL     OW22480   1.274   0.971   1.377 -0.3342  0.4388 -0.1257
 3673SOL    HW122481   1.221   0.897   1.406 -0.4974  0.5788 -0.0698
 3673SOL    HW222482   1.328   0.925   1.313 -0.1300 -1.2708  1.2753
 3674SOL     OW22483   4.480   4.145  17.570  0.1296  0.0464 -0.1273
 3674SOL    HW122484   4.523   4.095  17.501 -0.1826 -1.2361  0.6112
 3674SOL    HW222485   4.478   4.079  17.639  2.3256  1.3149  1.1495
 3675SOL     OW22486   2.365   0.727   8.345  0.2270  0.2960  0.3675
 3675SOL    HW122487   2.285   0.779   8.351 -0.0188 -0.1111  0.5528
 3675SOL    HW222488   2.344   0.687   8.261 -0.5749  1.3709  0.0588
 3676SOL     OW22489   0.106   3.852   8.044  0.0294 -0.3965 -0.6900
 3676SOL    HW122490   0.200   3.861   8.058 -0.4373 -0.3254  2.4429
 3676SOL    HW222491   0.108   3.808   7.958  1.4446 -0.4416 -0.6318
 3677SOL     OW22492   2.098   0.548   7.088 -0.6935  0.0292 -0.6418
 3677SOL    HW122493   2.045   0.477   7.125  0.0594 -0.2572 -0.1194
 3677SOL    HW222494   2.142   0.506   7.015  1.3664  0.6348  0.2593
 3678SOL     OW22495   1.191   2.421   2.160 -0.3506  0.2183  0.1939
 3678SOL    HW122496   1.260   2.432   2.095 -1.3654  1.6574 -0.6518
 3678SOL    HW222497   1.194   2.326   2.164 -1.1150  0.1716 -0.4199
 3679SOL     OW22498   0.361   2.610  11.535 -0.0116  0.8358 -0.0057
 3679SOL    HW122499   0.322   2.688  11.573 -0.9729  0.0870  0.5326
 3679SOL    HW222500   0.280   2.560  11.526  1.3780 -1.7138  1.5421
 3680SOL     OW22501   0.941   2.211   2.562 -0.0265 -0.4467  0.6571
 3680SOL    HW122502   0.845   2.207   2.564 -0.0750  0.3172 -0.0711
 3680SOL    HW222503   0.961   2.248   2.476  1.9222 -0.0639  1.2798
 3681SOL     OW22504   2.787   2.659   0.936  0.7086  0.3180  0.3391
 3681SOL    HW122505   2.811   2.645   0.844 -0.5083  1.3860 -0.1504
 3681SOL    HW222506   2.736   2.579   0.948 -1.0985  1.6653  1.5873
 3682SOL     OW22507   1.325   3.393   5.161 -0.3008 -0.0744  0.1281
 3682SOL    HW122508   1.368   3.478   5.158  3.9588 -2.3067 -2.2980
 3682SOL    HW222509   1.392   3.338   5.203 -1.1980 -0.8601  0.5327
 3683SOL     OW22510   1.579   4.616   3.632 -0.4197  0.6103  0.4140
 3683SOL    HW122511   1.593   4.563   3.553  0.6356  3.6079 -1.4070
 3683SOL    HW222512   1.505   4.673   3.613  0.7760  1.2081 -2.5618
 3684SOL     OW22513   4.666   3.522   8.013 -0.0487  0.2989 -0.4172
 3684SOL    HW122514   4.690   3.579   8.087  0.6855 -0.8612  0.2303
 3684SOL    HW222515   4.680   3.590   7.947  0.4789  0.7919  0.1889
 3685SOL     OW22516   2.232   4.643   2.237  0.8283 -0.0552  0.1310
 3685SOL    HW122517   2.297   4.672   2.173 -0.3725  1.7121 -0.2731
 3685SOL    HW222518   2.168   4.706   2.203  2.2124  0.6998 -1.1175
 3686SOL     OW22519   4.111   0.454   5.381  0.0907  0.2285  0.1292
 3686SOL    HW122520   4.113   0.368   5.338  0.6426  0.1048  0.3967
 3686SOL    HW222521   4.035   0.497   5.342 -0.9872 -1.4113  0.4588
 3687SOL     OW22522   3.037   1.986   2.475 -0.1375 -0.2257 -0.5758
 3687SOL    HW122523   2.965   2.031   2.432  0.9140 -0.8332 -2.9643
 3687SOL    HW222524   3.052   1.907   2.424  1.6173  0.2953 -0.8741
 3688SOL     OW22525   0.719   1.424   4.075  0.4283  0.2138  0.2180
 3688SOL    HW122526   0.688   1.440   3.985  1.0823  1.4291  0.1988
 3688SOL    HW222527   0.756   1.337   4.066  0.8668  0.3287  0.8917
 3689SOL     OW22528   1.802   2.373  14.236  0.0511  0.4242 -0.4025
 3689SOL    HW122529   1.720   2.417  14.259  0.8813  1.9068 -0.2694
 3689SOL    HW222530   1.865   2.438  14.266 -1.9547  1.2811  1.9450
 3690SOL     OW22531   4.584   2.084   6.913 -0.2309 -0.3901  0.3896
 3690SOL    HW122532   4.519   2.057   6.849 -1.0052  1.3783  0.4184
 3690SOL    HW222533   4.670   2.057   6.880 -0.1450  1.4818 -0.8716
 3691SOL     OW22534   2.403   2.866   8.136  0.0387 -0.2739  0.2756
 3691SOL    HW122535   2.343   2.847   8.208 -1.9301 -1.4534 -1.6658
 3691SOL    HW222536   2.344   2.916   8.079 -0.7383 -2.3266 -0.7150
 3692SOL     OW22537   1.088   1.869   8.119 -0.1498  0.7371 -0.1236
 3692SOL    HW122538   1.059   1.953   8.155 -1.2255  0.9372 -1.4664
 3692SOL    HW222539   1.180   1.863   8.145  0.1109  1.9938 -0.7362
 3693SOL     OW22540   3.331   0.995  13.230  0.1063  0.6346  0.0910
 3693SOL    HW122541   3.257   0.952  13.187 -2.1140  1.8402  2.6833
 3693SOL    HW222542   3.397   0.939  13.189 -1.6619 -0.7537 -0.8825
 3694SOL     OW22543   4.551   1.135   3.703  0.4731  0.2097 -0.4759
 3694SOL    HW122544   4.535   1.055   3.653  1.8551  0.0684 -0.6938
 3694SOL    HW222545   4.461   1.169   3.708 -0.2403 -2.0222  1.7760
 3695SOL     OW22546   1.778   3.122   6.784 -0.4711 -0.0015 -0.4943
 3695SOL    HW122547   1.709   3.126   6.850  0.0809 -1.9289  0.1817
 3695SOL    HW222548   1.736   3.102   6.700 -1.3754 -1.8162  0.4109
 3696SOL     OW22549   0.740   0.367   2.436  0.7852 -0.0942  0.2815
 3696SOL    HW122550   0.819   0.386   2.385 -0.3303 -0.9173 -1.7524
 3696SOL    HW222551   0.681   0.367   2.361  1.5779 -1.5367 -0.3440
 3697SOL     OW22552   3.786   0.518  10.970 -0.4155 -0.2830  0.1887
 3697SOL    HW122553   3.766   0.540  11.061 -0.1109 -1.3878  0.5283
 3697SOL    HW222554   3.700   0.504  10.930  0.5444  2.1638 -2.6976
 3698SOL     OW22555   1.732   1.680   6.884  0.5279  0.5179  0.2878
 3698SOL    HW122556   1.785   1.692   6.805  0.4451 -1.6254 -0.0882
 3698SOL    HW222557   1.686   1.763   6.890  1.2068  0.8374  1.0856
 3699SOL     OW22558   4.521   2.128   5.232  0.2592  0.0581  0.5416
 3699SOL    HW122559   4.489   2.066   5.167 -0.3939  0.1336  0.7904
 3699SOL    HW222560   4.450   2.115   5.295 -0.1740  1.3754  0.3220
 3700SOL     OW22561   2.026   0.458   2.694  0.1506 -0.1662 -0.4736
 3700SOL    HW122562   1.938   0.428   2.715  0.0932 -0.0143 -0.4967
 3700SOL    HW222563   2.079   0.378   2.691 -0.5108 -0.5941 -0.6568
 3701SOL     OW22564   1.829   1.663  15.947  0.7823 -0.4551 -0.0907
 3701SOL    HW122565   1.902   1.675  16.008  0.4732  0.2377  0.1444
 3701SOL    HW222566   1.814   1.754  15.921  1.4261 -0.4020 -0.2736
 3702SOL     OW22567   4.145   3.103  14.166  0.2880  0.0650 -0.3235
 3702SOL    HW122568   4.078   3.136  14.105 -0.5818 -1.9446 -0.4543
 3702SOL    HW222569   4.098   3.034  14.213  1.2894  0.3603  1.0972
 3703SOL     OW22570   3.605   1.393   3.228 -0.7988  0.0623 -0.7984
 3703SOL    HW122571   3.615   1.327   3.159  0.2593  0.3333 -0.9044
 3703SOL    HW222572   3.535   1.347   3.275  0.7768 -2.2408 -0.7095
 3704SOL     OW22573   2.195   4.536   6.640 -0.2228  0.4229  0.4625
 3704SOL    HW122574   2.217   4.463   6.698 -0.4737 -0.9995 -1.2241
 3704SOL    HW222575   2.192   4.609   6.702 -2.0094  1.4488 -0.8107
 3705SOL     OW22576   3.152   2.369   5.715  0.2430 -0.4574  0.0411
 3705SOL    HW122577   3.240   2.368   5.753 -0.2032 -0.7043  1.0744
 3705SOL    HW222578   3.117   2.432   5.779  1.5990 -0.3995  0.7341
 3706SOL     OW22579   3.155   0.965  14.623  0.5424 -0.6673 -0.0649
 3706SOL    HW122580   3.183   0.922  14.542  0.0926  1.4519 -1.3386
 3706SOL    HW222581   3.161   1.056  14.596 -0.9358 -0.2803  0.9458
 3707SOL     OW22582   2.847   0.940   0.888 -0.6650 -0.0721 -0.0173
 3707SOL    HW122583   2.902   0.998   0.942 -0.2342 -0.7589  0.2882
 3707SOL    HW222584   2.890   0.929   0.803  0.4103 -1.9902  0.7774
 3708SOL     OW22585   1.374   1.532  15.236 -0.0401 -0.1670  0.5180
 3708SOL    HW122586   1.389   1.490  15.321 -0.8381 -0.3325  0.5769
 3708SOL    HW222587   1.382   1.625  15.258  1.0302  0.1327 -1.2016
 3709SOL     OW22588   4.473   2.361   1.615 -0.0694 -0.1783  0.0581
 3709SOL    HW122589   4.439   2.433   1.668 -1.7427 -0.8854 -0.0545
 3709SOL    HW222590   4.557   2.350   1.661 -0.3475  1.6914  1.0151
 3710SOL     OW22591   4.042   1.906   5.065 -0.2929 -0.2689 -0.7439
 3710SOL    HW122592   4.096   1.835   5.030  0.5696 -0.1315  0.3173
 3710SOL    HW222593   3.958   1.867   5.042  1.2125 -1.7787 -3.7391
 3711SOL     OW22594   4.063   2.660   2.501 -0.5349  0.2207 -0.2927
 3711SOL    HW122595   4.136   2.604   2.478 -0.4938 -0.0429  0.4663
 3711SOL    HW222596   4.034   2.619   2.583  2.6806 -0.9133  0.2876
 3712SOL     OW22597   0.204   4.699  13.142  0.0091 -0.0681  0.0638
 3712SOL    HW122598   0.156   0.056  13.130 -1.4584 -0.5418  2.5013
 3712SOL    HW222599   0.296   4.722  13.136 -0.1796  1.0618  1.3545
 3713SOL     OW22600   4.642   0.763   2.815 -0.0452  0.3476  0.2002
 3713SOL    HW122601   4.553   0.728   2.804  0.8975 -1.2533 -2.3116
 3713SOL    HW222602   4.663   0.784   2.724 -1.0871 -2.8471 -0.7607
 3714SOL     OW22603   0.653   1.681   3.459 -0.1199  0.0657  0.1085
 3714SOL    HW122604   0.572   1.731   3.462  0.4733  1.0663 -0.5876
 3714SOL    HW222605   0.634   1.627   3.382 -1.1312 -1.2535  1.2852
 3715SOL     OW22606   0.566   1.960   8.852 -0.2021 -0.5152 -0.2474
 3715SOL    HW122607   0.483   1.985   8.810 -1.8791 -2.3241  2.0209
 3715SOL    HW222608   0.628   1.941   8.781 -0.2082  0.7254 -0.5947
 3716SOL     OW22609   3.524   3.205   3.970  0.4956  0.6084 -0.7423
 3716SOL    HW122610   3.459   3.226   4.036  1.7473 -1.9378  1.2952
 3716SOL    HW222611   3.482   3.258   3.902 -0.3849 -0.3137 -0.9038
 3717SOL     OW22612   2.786   1.933  14.656  0.6020 -0.5995 -0.7390
 3717SOL    HW122613   2.801   1.851  14.609  0.9148 -0.1082 -1.4805
 3717SOL    HW222614   2.759   1.901  14.743  1.7247 -0.5287 -0.3680
 3718SOL     OW22615   4.597   0.219   5.847 -0.4057  0.2803 -0.4831
 3718SOL    HW122616   4.607   0.302   5.894  2.5408 -0.7533  0.7514
 3718SOL    HW222617   4.639   0.174   5.921 -2.6739 -1.4100 -0.2333
 3719SOL     OW22618   4.089   2.655   2.821 -0.1482 -0.1187  0.4210
 3719SOL    HW122619   4.157   2.723   2.816 -1.1361  0.7225 -1.3975
 3719SOL    HW222620   4.007   2.694   2.792 -0.5878 -1.1315  0.3041
 3720SOL     OW22621   0.598   2.125   2.718  0.0272  0.1372 -0.2075
 3720SOL    HW122622   0.535   2.196   2.725 -1.0862 -1.1307  2.4925
 3720SOL    HW222623   0.648   2.158   2.643 -0.8461 -0.7599 -1.1652
 3721SOL     OW22624   2.026   3.951   3.070  0.2285 -0.5757 -0.4191
 3721SOL    HW122625   2.077   3.890   3.123 -1.2990 -2.2173 -0.8474
 3721SOL    HW222626   2.081   3.977   2.996  2.2371 -1.1026  0.9030
 3722SOL     OW22627   0.897   3.615  12.149 -0.1976  0.0671  0.5058
 3722SOL    HW122628   0.862   3.583  12.232  0.7398 -1.5347  0.2913
 3722SOL    HW222629   0.830   3.595  12.085 -0.2834 -1.6410  1.1117
 3723SOL     OW22630   2.492   2.931   6.669  0.0874 -0.0339 -0.1278
 3723SOL    HW122631   2.424   2.971   6.615 -1.5198 -0.4774  1.5280
 3723SOL    HW222632   2.554   3.002   6.677  0.9088 -0.8410  0.7456
 3724SOL     OW22633   3.591   1.169   5.655 -0.1760  0.5704 -0.3549
 3724SOL    HW122634   3.626   1.181   5.743 -1.5111 -0.2313  0.2765
 3724SOL    HW222635   3.553   1.255   5.635 -0.0220  0.9296  0.8879
 3725SOL     OW22636   3.785   1.959   5.269 -0.2369  0.0164 -0.2433
 3725SOL    HW122637   3.818   1.911   5.193  0.1923  1.3958 -0.9347
 3725SOL    HW222638   3.739   2.035   5.233  0.3977  0.0520 -0.9792
 3726SOL     OW22639   0.461   1.974   9.944  0.0508  0.0787 -0.3977
 3726SOL    HW122640   0.430   1.914   9.876 -1.0191  1.2552 -0.9641
 3726SOL    HW222641   0.413   1.956  10.024 -0.7583  0.3177 -0.8212
 3727SOL     OW22642   4.060   0.712   6.387  0.6661  0.1663 -0.1625
 3727SOL    HW122643   4.101   0.698   6.302  1.3910 -3.1492  0.7459
 3727SOL    HW222644   4.079   0.806   6.395 -0.0717  0.2126  1.1114
 3728SOL     OW22645   0.390   4.711  14.819 -0.3927  0.3023 -0.1297
 3728SOL    HW122646   0.334   0.061  14.801 -1.3623 -0.6288 -0.9930
 3728SOL    HW222647   0.340   4.664  14.886 -0.7240  1.5992  0.5203
 3729SOL     OW22648   2.673   2.688  11.872 -0.2686  0.5998  0.1043
 3729SOL    HW122649   2.752   2.725  11.832  0.4021 -1.3642 -0.3993
 3729SOL    HW222650   2.666   2.610  11.817 -0.4767  1.3910 -0.9945
 3730SOL     OW22651   3.944   3.303   4.452 -0.4339 -0.0697 -0.3926
 3730SOL    HW122652   4.022   3.279   4.501 -1.1813  1.7807  1.7199
 3730SOL    HW222653   3.878   3.316   4.521  0.0824  1.6729 -0.2227
 3731SOL     OW22654   4.601   2.792   8.459  0.6279 -0.8251  0.4698
 3731SOL    HW122655   4.584   2.705   8.423  0.7760 -1.3107  1.5685
 3731SOL    HW222656   4.570   2.788   8.549 -0.0018  1.2889  0.3285
 3732SOL     OW22657   1.238   2.999   2.126 -0.6579 -0.4692 -0.0788
 3732SOL    HW122658   1.323   2.990   2.169 -0.0162 -0.0568 -1.2825
 3732SOL    HW222659   1.232   3.093   2.137 -1.7549 -0.6431  0.8389
 3733SOL     OW22660   4.214   4.035  10.174  0.3864  0.3840 -0.0065
 3733SOL    HW122661   4.272   4.030  10.250 -1.5854  0.3320  1.4798
 3733SOL    HW222662   4.244   4.121  10.144 -0.9334  0.7505 -0.2897
 3734SOL     OW22663   2.400   4.554   0.634  0.1468 -0.2290  0.5727
 3734SOL    HW122664   2.421   4.467   0.666 -0.0314 -1.9350 -3.9907
 3734SOL    HW222665   2.443   4.565   0.549  1.1980 -0.6342  1.0454
 3735SOL     OW22666   2.748   4.098   6.216  0.0214 -0.2794  0.1618
 3735SOL    HW122667   2.771   4.191   6.211  2.1879 -0.8993 -1.3315
 3735SOL    HW222668   2.731   4.084   6.123 -2.5351  0.2598  0.5466
 3736SOL     OW22669   3.493   1.164   6.411 -0.6632 -0.0957  0.0474
 3736SOL    HW122670   3.558   1.094   6.410 -1.0787 -0.4719 -0.5268
 3736SOL    HW222671   3.415   1.114   6.386  0.5102 -1.0794 -1.6166
 3737SOL     OW22672   2.585   1.354   6.676 -0.5882  0.5221  0.0230
 3737SOL    HW122673   2.602   1.309   6.759  3.5818 -0.0721 -1.1494
 3737SOL    HW222674   2.490   1.359   6.668 -0.3798  2.0998 -1.4302
 3738SOL     OW22675   4.151   0.955   6.437  0.1756 -0.5096  0.2979
 3738SOL    HW122676   4.218   0.982   6.374 -0.1129 -2.8768 -1.0288
 3738SOL    HW222677   4.172   1.013   6.510  0.8926 -1.3905  0.7950
 3739SOL     OW22678   1.302   0.177   1.731  0.0579  0.0741 -0.6007
 3739SOL    HW122679   1.380   0.209   1.776 -0.2342 -0.3910  0.2162
 3739SOL    HW222680   1.343   0.096   1.700 -0.6235 -0.9716  1.2926
 3740SOL     OW22681   3.868   3.095   9.532  0.3705  0.5843  0.5419
 3740SOL    HW122682   3.939   3.048   9.488 -0.8448 -0.0574 -0.7253
 3740SOL    HW222683   3.833   3.138   9.454 -2.4322 -0.6940  1.0775
 3741SOL     OW22684   1.898   3.056  10.764  0.0587  0.3707 -0.2300
 3741SOL    HW122685   1.858   2.986  10.817  0.0969  0.1078 -0.5439
 3741SOL    HW222686   1.890   3.131  10.823 -0.8127 -0.8666  1.2379
 3742SOL     OW22687   4.006   3.759  10.855  0.0640 -0.5560 -0.1981
 3742SOL    HW122688   3.930   3.737  10.800 -0.3642  0.6074 -0.0787
 3742SOL    HW222689   3.977   3.835  10.906  1.8659  0.9080 -1.3457
 3743SOL     OW22690   2.086   1.630   2.924 -0.3610  0.1600 -0.2536
 3743SOL    HW122691   2.098   1.713   2.968  0.0247 -0.0789  0.0895
 3743SOL    HW222692   1.993   1.610   2.937 -0.8358  0.3698 -3.1552
 3744SOL     OW22693   3.737   1.531  17.031 -0.0533 -0.2791 -0.0421
 3744SOL    HW122694   3.703   1.485  16.955 -0.8707 -1.3561  0.9654
 3744SOL    HW222695   3.672   1.505  17.097 -1.4879  0.7550 -1.0556
 3745SOL     OW22696   2.095   1.350   5.790 -0.1870 -0.1698  0.0222
 3745SOL    HW122697   2.007   1.328   5.818  0.7679 -0.8408  2.5284
 3745SOL    HW222698   2.144   1.364   5.871  1.0527 -1.4167 -0.5111
 3746SOL     OW22699   0.273   2.372   8.271 -0.4044 -0.0874  0.1668
 3746SOL    HW122700   0.180   2.382   8.290 -0.2212  0.1202  0.9476
 3746SOL    HW222701   0.315   2.447   8.313 -0.6693  0.6032 -0.8299
 3747SOL     OW22702   0.841   4.240   5.016  0.0489 -0.2907 -0.0211
 3747SOL    HW122703   0.870   4.323   5.054 -3.4425  1.2735 -0.7959
 3747SOL    HW222704   0.758   4.266   4.978  1.6581 -0.8595 -3.8889
 3748SOL     OW22705   2.336   0.174  10.441  0.0236  0.0963 -0.5149
 3748SOL    HW122706   2.241   0.174  10.438 -0.0794 -1.1432  2.3008
 3748SOL    HW222707   2.355   0.147  10.531  0.4060  0.3537 -0.5161
 3749SOL     OW22708   0.112   4.627  13.462 -0.0596 -0.0778  0.3498
 3749SOL    HW122709   0.121   4.622  13.367 -1.8746 -1.4799  0.2462
 3749SOL    HW222710   0.099   4.718  13.486  1.5216  0.3568 -0.4606
 3750SOL     OW22711   2.763   0.296   3.703 -0.1315  0.0779 -0.1973
 3750SOL    HW122712   2.694   0.230   3.707  0.2397 -0.3361 -0.7694
 3750SOL    HW222713   2.830   0.240   3.664 -1.3631 -2.0934  0.8586
 3751SOL     OW22714   1.622   3.894   7.085  0.0879  0.4019 -0.2266
 3751SOL    HW122715   1.632   3.964   7.150 -0.4138 -0.5136  0.8390
 3751SOL    HW222716   1.710   3.861   7.072  0.5476  0.9532  1.4927
 3752SOL     OW22717   0.921   4.506   2.802  0.1177 -0.9817 -0.8878
 3752SOL    HW122718   0.887   4.584   2.844 -0.2649 -0.0561 -2.9132
 3752SOL    HW222719   1.009   4.533   2.776  1.0847 -2.4080  0.8965
 3753SOL     OW22720   4.648   3.597   4.380 -0.1393 -0.2183 -0.4886
 3753SOL    HW122721   4.597   3.581   4.300  0.0776 -2.2380 -0.2305
 3753SOL    HW222722   4.634   3.508   4.412 -2.4237 -0.3501 -1.7977
 3754SOL     OW22723   3.725   3.301   8.926  0.2415  0.3971 -0.4335
 3754SOL    HW122724   3.793   3.250   8.970  0.7233  1.9963  0.6895
 3754SOL    HW222725   3.651   3.251   8.959  0.1703  0.2575 -0.8076
 3755SOL     OW22726   1.470   2.926   4.067  0.0936  0.9819 -0.3720
 3755SOL    HW122727   1.541   2.990   4.063 -0.8557  1.9376 -2.1392
 3755SOL    HW222728   1.507   2.841   4.043  0.7333  0.5924  2.0353
 3756SOL     OW22729   3.004   0.487   6.923 -0.1736 -0.0261  0.1583
 3756SOL    HW122730   3.015   0.568   6.973 -1.6589 -0.2617  0.8663
 3756SOL    HW222731   2.964   0.524   6.844 -0.0226 -0.3032 -0.0471
 3757SOL     OW22732   1.743   2.818   0.072 -1.0938 -0.1882 -0.1273
 3757SOL    HW122733   1.660   2.858   0.049 -1.3744 -0.7061 -0.0157
 3757SOL    HW222734   1.813   2.868   0.028  0.9702 -2.4481  0.5790
 3758SOL     OW22735   1.331   2.841   2.889  0.2891  0.0637 -0.2007
 3758SOL    HW122736   1.296   2.840   2.978  0.2783 -0.4511 -0.2077
 3758SOL    HW222737   1.250   2.838   2.838 -0.5386  0.5416  1.0836
 3759SOL     OW22738   2.938   0.240  13.116  0.0715 -0.1091  0.0894
 3759SOL    HW122739   2.879   0.185  13.168 -0.1287 -1.2980 -1.4142
 3759SOL    HW222740   3.019   0.189  13.122  2.1880  3.2360 -0.3479
 3760SOL     OW22741   1.497   2.998   6.902  0.4149 -0.0877  0.0640
 3760SOL    HW122742   1.425   2.997   6.965  0.4245 -0.3079  0.0717
 3760SOL    HW222743   1.548   3.073   6.931 -0.8340  1.5023 -1.8497
 3761SOL     OW22744   4.455   2.435   0.720  0.3891 -0.0301  0.2308
 3761SOL    HW122745   4.375   2.472   0.756 -0.0152  0.3514 -1.0734
 3761SOL    HW222746   4.498   2.440   0.806  0.1661  0.6742  0.3032
 3762SOL     OW22747   0.675   2.541  13.182 -0.3824 -0.5802 -0.0059
 3762SOL    HW122748   0.629   2.509  13.260  0.2020 -0.8689  0.2214
 3762SOL    HW222749   0.665   2.635  13.194 -3.3831 -1.4492  4.2555
 3763SOL     OW22750   4.470   1.925  14.680 -0.3136 -0.2442 -0.3498
 3763SOL    HW122751   4.434   1.864  14.745 -0.2685 -0.3888 -0.4613
 3763SOL    HW222752   4.419   2.003  14.704 -0.0481 -0.3009  0.3894
 3764SOL     OW22753   0.574   4.355   7.457  0.0699 -0.0974  0.4719
 3764SOL    HW122754   0.560   4.288   7.390  0.2819  2.4533 -2.0724
 3764SOL    HW222755   0.492   4.363   7.507 -0.7888  2.5104 -1.3482
 3765SOL     OW22756   1.407   1.529   2.199  0.8053  0.2748 -0.1066
 3765SOL    HW122757   1.426   1.471   2.274 -2.1904 -0.3244  0.1961
 3765SOL    HW222758   1.321   1.561   2.225  1.3956  0.7188  1.3456
 3766SOL     OW22759   1.362   1.398   4.774 -0.3489  0.2957 -0.4816
 3766SOL    HW122760   1.277   1.396   4.731 -1.3890  0.7006  1.5729
 3766SOL    HW222761   1.366   1.327   4.837  1.1106  1.1373  0.3916
 3767SOL     OW22762   1.912   1.284  10.652  0.3351  0.2662  0.0541
 3767SOL    HW122763   1.875   1.197  10.665 -0.0708  0.3316 -0.6594
 3767SOL    HW222764   1.826   1.324  10.645  0.2302  0.2481  1.3345
 3768SOL     OW22765   2.948   2.172   3.428  0.4115  0.1538 -0.0502
 3768SOL    HW122766   3.036   2.159   3.394  1.0540  0.2502  1.6211
 3768SOL    HW222767   2.938   2.103   3.493  1.3784 -0.9724 -1.0948
 3769SOL     OW22768   1.818   3.260   2.773  0.0466 -0.8436 -0.3570
 3769SOL    HW122769   1.724   3.277   2.776  0.1711 -0.1190 -0.7112
 3769SOL    HW222770   1.816   3.173   2.733  1.6983 -1.4446  0.8691
 3770SOL     OW22771   2.713   4.538   4.426 -0.2405  0.3813  0.3762
 3770SOL    HW122772   2.644   4.553   4.361  0.9272 -0.6747 -1.1221
 3770SOL    HW222773   2.681   4.485   4.499 -0.5515  0.1524  0.0768
 3771SOL     OW22774   3.922   4.255   4.745 -0.2953 -0.0770 -0.0206
 3771SOL    HW122775   4.017   4.239   4.749 -0.1305 -0.1769 -4.6503
 3771SOL    HW222776   3.901   4.227   4.656  1.9930 -0.9532 -0.3062
 3772SOL     OW22777   0.808   0.957   8.088 -0.0513  0.4755  0.6837
 3772SOL    HW122778   0.856   0.876   8.107 -0.5484  0.0092 -0.0442
 3772SOL    HW222779   0.737   0.911   8.044 -0.8136  2.5460 -0.1979
 3773SOL     OW22780   2.504   4.275   1.567 -0.3665 -0.5926 -0.1182
 3773SOL    HW122781   2.573   4.226   1.521  0.6593  2.1296 -1.4567
 3773SOL    HW222782   2.503   4.230   1.652  1.7948  1.3739  0.9527
 3774SOL     OW22783   3.696   1.804   3.420  0.0733 -0.2545 -0.1841
 3774SOL    HW122784   3.616   1.846   3.388 -0.1676 -1.5063 -1.2480
 3774SOL    HW222785   3.753   1.869   3.379  1.1829 -1.1757 -0.0820
 3775SOL     OW22786   2.434   2.936   3.214  0.1174 -0.3008 -0.0815
 3775SOL    HW122787   2.519   2.958   3.251  1.2612 -0.4745 -2.6263
 3775SOL    HW222788   2.429   2.842   3.231  0.5385 -0.4094 -0.5431
 3776SOL     OW22789   4.337   4.352   6.020 -0.1475  0.3864  0.7665
 3776SOL    HW122790   4.250   4.376   6.055  0.6595  0.6591  2.6045
 3776SOL    HW222791   4.369   4.285   6.081 -0.7297 -0.2185  0.4087
 3777SOL     OW22792   4.378   4.035   5.139 -0.0203  0.5664  0.1716
 3777SOL    HW122793   4.455   4.006   5.188 -0.9641 -2.7716 -0.3366
 3777SOL    HW222794   4.343   4.111   5.187 -1.2644  0.8438 -1.1890
 3778SOL     OW22795   4.198   3.719   5.031 -0.1996 -0.4582  0.7084
 3778SOL    HW122796   4.165   3.746   5.117 -2.3702  0.3931 -0.3995
 3778SOL    HW222797   4.117   3.713   4.980 -0.5400 -1.4008  1.3603
 3779SOL     OW22798   2.685   0.062   8.071 -0.0060 -0.4643 -0.0557
 3779SOL    HW122799   2.615   0.117   8.105  1.9180  3.6664 -2.6987
 3779SOL    HW222800   2.754   0.064   8.137  0.7853 -1.8303 -0.8237
 3780SOL     OW22801   2.496   3.246   9.197  0.4524 -0.0233  0.1553
 3780SOL    HW122802   2.461   3.232   9.109 -0.3062  2.3899  0.0649
 3780SOL    HW222803   2.585   3.276   9.178  0.0240  1.3174  0.2271
 3781SOL     OW22804   2.116   2.333  11.916  0.2383  0.9147  0.0900
 3781SOL    HW122805   2.206   2.364  11.927  0.7219 -0.7972  0.8552
 3781SOL    HW222806   2.077   2.392  11.851  1.1849  1.3475 -0.0865
 3782SOL     OW22807   0.273   1.553  13.349 -0.8872 -0.3247 -0.2201
 3782SOL    HW122808   0.298   1.464  13.324 -0.7775 -0.5203  0.5843
 3782SOL    HW222809   0.360   1.591  13.361 -0.7401 -0.4951 -0.7520
 3783SOL     OW22810   1.336   3.530  15.384  0.0557 -0.3266 -0.4813
 3783SOL    HW122811   1.343   3.496  15.474  0.7960  0.7657 -0.1276
 3783SOL    HW222812   1.281   3.464  15.343 -3.6239  2.1447  0.4144
 3784SOL     OW22813   0.394   1.241   7.347 -0.0489  0.2404 -0.0903
 3784SOL    HW122814   0.417   1.330   7.376  1.3445  0.0511 -0.6060
 3784SOL    HW222815   0.459   1.222   7.280 -0.7099  1.0673 -0.9627
 3785SOL     OW22816   0.869   0.405   3.789  0.6990 -0.0730 -0.2301
 3785SOL    HW122817   0.850   0.399   3.696 -0.9212 -0.5351  0.1284
 3785SOL    HW222818   0.791   0.455   3.814  0.6236 -0.9869  1.3575
 3786SOL     OW22819   4.041   2.494  15.515  0.3399  0.6387  0.7414
 3786SOL    HW122820   3.947   2.492  15.533  0.3084 -0.7471  0.3665
 3786SOL    HW222821   4.070   2.440  15.588 -3.2429  0.2848  1.8939
 3787SOL     OW22822   0.413   4.676   8.743 -0.1274  0.2639  0.3564
 3787SOL    HW122823   0.321   4.679   8.717 -0.4268  0.7560  1.4682
 3787SOL    HW222824   0.446   0.038   8.719 -0.1733  0.7105  1.9468
 3788SOL     OW22825   0.579   2.735  17.296 -0.1928 -0.4864  0.5040
 3788SOL    HW122826   0.546   2.701  17.379 -2.2739 -1.4658 -0.7326
 3788SOL    HW222827   0.622   2.651  17.278  0.3112  0.1519 -1.2890
 3789SOL     OW22828   0.935   0.601   8.827  0.2736  0.2136 -0.1558
 3789SOL    HW122829   0.959   0.577   8.916  0.5160 -0.3418 -0.3697
 3789SOL    HW222830   1.023   0.630   8.801  0.5796 -0.6087 -0.0578
 3790SOL     OW22831   0.701   2.428  14.966  0.2728  0.3779 -0.5841
 3790SOL    HW122832   0.723   2.516  14.996  1.0912 -0.3476  0.9096
 3790SOL    HW222833   0.605   2.430  14.970  0.2468  0.0816 -1.1033
 3791SOL     OW22834   0.263   4.236   5.057  0.0097 -0.2883 -0.0583
 3791SOL    HW122835   0.296   4.147   5.068  0.7160  0.4067  3.2706
 3791SOL    HW222836   0.176   4.223   5.019  1.0393 -2.7598 -1.5480
 3792SOL     OW22837   1.209   0.194   8.727 -0.1374 -0.2388 -0.6125
 3792SOL    HW122838   1.280   0.257   8.738 -0.5610  0.3958 -1.5582
 3792SOL    HW222839   1.149   0.215   8.799 -0.2615 -0.8643 -0.5316
 3793SOL     OW22840   3.678   1.636   1.988 -0.1566 -0.2095 -0.0850
 3793SOL    HW122841   3.619   1.561   1.993 -1.1967  0.7379  1.9178
 3793SOL    HW222842   3.756   1.584   1.969  0.5059  0.9322 -0.4943
 3794SOL     OW22843   2.863   1.195   6.233 -0.3103  0.0084 -0.2500
 3794SOL    HW122844   2.930   1.263   6.241  0.1727 -0.1874 -2.5883
 3794SOL    HW222845   2.787   1.250   6.219  0.6331  1.2124 -0.5878
 3795SOL     OW22846   3.144   3.254   4.603 -0.1309  0.7567  0.1109
 3795SOL    HW122847   3.217   3.239   4.662  0.5389  2.5519 -0.2536
 3795SOL    HW222848   3.075   3.194   4.632 -0.8581  2.3871  1.7654
 3796SOL     OW22849   1.319   3.252  13.836  0.3494  0.8700  0.3054
 3796SOL    HW122850   1.236   3.293  13.861 -1.0947 -1.8408 -0.0359
 3796SOL    HW222851   1.381   3.301  13.891 -0.9333 -0.0648  2.5885
 3797SOL     OW22852   2.411   0.250  13.862 -0.2034 -0.5765 -0.1768
 3797SOL    HW122853   2.444   0.281  13.777 -2.9725  1.1521 -0.6230
 3797SOL    HW222854   2.379   0.333  13.897  1.9683  0.0751  0.2449
 3798SOL     OW22855   3.685   2.284  13.621 -0.1788 -0.1915  0.7825
 3798SOL    HW122856   3.728   2.368  13.641 -0.4182  0.2299 -0.4708
 3798SOL    HW222857   3.606   2.313  13.577 -1.1059 -2.4045  0.9970
 3799SOL     OW22858   4.084   4.598   5.814  0.6303  0.3440  0.0544
 3799SOL    HW122859   3.993   4.571   5.829 -0.3884  3.2402 -0.7650
 3799SOL    HW222860   4.092   4.562   5.726  0.4134 -0.5092  0.3843
 3800SOL     OW22861   3.673   2.906   7.496  0.2840  0.5909  0.0033
 3800SOL    HW122862   3.577   2.907   7.500  0.3249  0.7956  0.9494
 3800SOL    HW222863   3.691   2.815   7.521  1.9457  0.3465 -2.1018
 3801SOL     OW22864   1.621   0.293   0.381 -0.0164 -0.1165 -1.1244
 3801SOL    HW122865   1.655   0.369   0.333  0.2672  1.3311  1.3515
 3801SOL    HW222866   1.576   0.330   0.457  2.7744 -0.3126  0.5805
 3802SOL     OW22867   2.322   2.631  11.124 -0.4436  0.6684  0.7191
 3802SOL    HW122868   2.241   2.681  11.131 -0.4275  0.5118  2.0339
 3802SOL    HW222869   2.391   2.697  11.120 -2.3902  2.5264 -2.9373
 3803SOL     OW22870   2.347   1.899   8.772 -0.3609 -0.6009 -0.0982
 3803SOL    HW122871   2.354   1.930   8.862  1.5486  0.2255 -0.5165
 3803SOL    HW222872   2.371   1.808   8.789  2.3018  0.0099 -0.5911
 3804SOL     OW22873   0.733   2.985   8.957 -0.4080 -0.0965 -0.1466
 3804SOL    HW122874   0.798   2.923   8.991 -0.1312  1.0189  1.3602
 3804SOL    HW222875   0.659   2.975   9.017 -0.6609  0.3210 -0.3883
 3805SOL     OW22876   2.720   4.361  11.351 -0.0283 -0.0733 -0.6682
 3805SOL    HW122877   2.779   4.354  11.426  0.1904 -0.2552 -0.8558
 3805SOL    HW222878   2.643   4.344  11.406  0.1015  1.0290 -0.1406
 3806SOL     OW22879   2.602   1.769   1.917 -0.2729 -0.1308 -0.3559
 3806SOL    HW122880   2.649   1.743   1.996 -0.0993  0.2224 -0.3409
 3806SOL    HW222881   2.674   1.802   1.863 -0.8898 -1.1602 -1.8070
 3807SOL     OW22882   1.806   0.147   7.011  0.5990 -0.2437  0.0544
 3807SOL    HW122883   1.749   0.186   7.078  0.4302 -0.0510 -0.2041
 3807SOL    HW222884   1.848   0.081   7.067 -0.8663  0.2908  1.8013
 3808SOL     OW22885   1.328   3.865   4.478 -0.0218 -0.7051  0.0746
 3808SOL    HW122886   1.420   3.855   4.455  0.0375  0.8528 -0.3340
 3808SOL    HW222887   1.283   3.825   4.404 -0.5765  0.7216 -0.3457
 3809SOL     OW22888   1.779   1.805   4.948  0.1846 -0.3907 -0.0858
 3809SOL    HW122889   1.826   1.797   4.865 -1.0448 -0.5087 -0.7673
 3809SOL    HW222890   1.845   1.846   5.004  0.7023  0.2462 -1.1655
 3810SOL     OW22891   4.505   1.681   8.120  0.0977  0.4925  0.0124
 3810SOL    HW122892   4.531   1.606   8.174 -0.5033  0.0235 -0.3526
 3810SOL    HW222893   4.579   1.742   8.123  0.9099 -0.4472 -0.7393
 3811SOL     OW22894   1.800   1.775   8.327 -0.1556 -0.4228 -0.4438
 3811SOL    HW122895   1.889   1.750   8.350 -0.4192 -0.1512  0.8722
 3811SOL    HW222896   1.744   1.723   8.385  1.2975 -3.6410 -1.9319
 3812SOL     OW22897   1.078   0.312  13.616 -0.2117 -0.0573 -0.3838
 3812SOL    HW122898   1.111   0.266  13.694 -1.0743  2.3761  1.4147
 3812SOL    HW222899   0.999   0.352  13.652  0.2661 -0.1375  0.7804
 3813SOL     OW22900   1.671   3.967   3.507  0.3914  0.1260 -0.0997
 3813SOL    HW122901   1.581   3.937   3.495  0.1226  0.1422  1.8345
 3813SOL    HW222902   1.699   3.917   3.584 -0.7004 -0.3104  0.0080
 3814SOL     OW22903   4.371   2.901  16.671 -0.1672 -0.4547  0.4137
 3814SOL    HW122904   4.421   2.829  16.632 -0.2485  0.5078 -1.4647
 3814SOL    HW222905   4.413   2.979  16.636  1.4544 -0.5730  2.0696
 3815SOL     OW22906   0.267   3.681   0.117 -0.2995 -0.2378 -0.1972
 3815SOL    HW122907   0.339   3.723   0.071  0.8831  0.8800  2.6344
 3815SOL    HW222908   0.253   3.602   0.065  0.3771 -0.2385 -0.3765
 3816SOL     OW22909   1.896   1.634   1.364  0.5140  0.3573  0.2461
 3816SOL    HW122910   1.896   1.714   1.312 -0.5209  0.5151  0.4800
 3816SOL    HW222911   1.977   1.642   1.413 -0.1149  1.0708  1.1747
 3817SOL     OW22912   0.948   2.670   5.450 -0.1846  0.1065 -0.3448
 3817SOL    HW122913   0.920   2.724   5.376  1.5092 -0.5002 -1.4218
 3817SOL    HW222914   0.883   2.690   5.517 -1.2499  0.3270 -1.4347
 3818SOL     OW22915   3.802   1.202   5.314  0.0247  0.2640  0.1832
 3818SOL    HW122916   3.706   1.199   5.323  0.0655  0.2301  0.6111
 3818SOL    HW222917   3.823   1.287   5.353  2.3496 -0.1041 -0.3213
 3819SOL     OW22918   3.938   3.826  10.341 -0.0483 -0.1557  0.1190
 3819SOL    HW122919   3.897   3.742  10.362 -0.1962  0.1714  1.1663
 3819SOL    HW222920   3.912   3.890  10.408 -0.2513 -1.6227  1.4308
 3820SOL     OW22921   3.052   2.126  10.360 -0.1728  0.4955  0.2786
 3820SOL    HW122922   3.013   2.205  10.396 -1.0340  0.1639  0.0764
 3820SOL    HW222923   3.059   2.152  10.268  0.4160 -1.3735 -0.2139
 3821SOL     OW22924   4.493   0.412   7.686 -0.1564  0.5707 -0.6095
 3821SOL    HW122925   4.407   0.452   7.673 -0.1827  1.3439  1.9293
 3821SOL    HW222926   4.457   0.327   7.710  0.9925 -0.5387 -2.9274
 3822SOL     OW22927   4.411   2.060  10.032 -0.3103  0.1887 -0.6220
 3822SOL    HW122928   4.349   2.127  10.061  1.2854  1.6630 -0.5970
 3822SOL    HW222929   4.481   2.077  10.094 -2.9272  1.4052  1.9587
 3823SOL     OW22930   2.599   1.235   8.645 -0.1567  0.2165 -0.0484
 3823SOL    HW122931   2.659   1.161   8.643 -2.2311 -1.4829  1.1830
 3823SOL    HW222932   2.664   1.295   8.681  1.3385 -1.4516  0.0316
 3824SOL     OW22933   3.597   1.717   3.875  0.2053  0.3561 -0.3310
 3824SOL    HW122934   3.657   1.674   3.936 -0.4841  0.3538  0.3532
 3824SOL    HW222935   3.568   1.794   3.924 -1.6659 -1.0240  0.7326
 3825SOL     OW22936   4.439   4.045   3.091 -0.1951 -0.2994  0.3481
 3825SOL    HW122937   4.417   3.961   3.050  1.3894  0.1469 -1.4277
 3825SOL    HW222938   4.375   4.045   3.162  0.0185  1.5502  0.5195
 3826SOL     OW22939   0.865   0.534  11.987 -0.3602  0.0094 -0.2211
 3826SOL    HW122940   0.867   0.449  11.943 -1.6193  0.7247 -1.6658
 3826SOL    HW222941   0.800   0.575  11.931 -0.4052  0.7254  0.3576
 3827SOL     OW22942   2.766   0.009   2.832  0.1818 -0.3862 -0.0748
 3827SOL    HW122943   2.820   0.083   2.803  0.0022 -0.1102  0.3024
 3827SOL    HW222944   2.784   4.671   2.763  0.4481 -1.2969  0.8321
 3828SOL     OW22945   1.372   1.807   4.654  0.6545  0.1056 -0.2842
 3828SOL    HW122946   1.449   1.786   4.600  0.5728 -0.8248 -0.0433
 3828SOL    HW222947   1.408   1.847   4.733  1.5550 -0.8879 -0.1829
 3829SOL     OW22948   2.673   1.991   7.496  0.1953 -0.1866  0.2150
 3829SOL    HW122949   2.749   2.027   7.450  0.5332  0.2918  1.1651
 3829SOL    HW222950   2.686   2.021   7.586 -1.8247 -0.6093  0.6425
 3830SOL     OW22951   4.380   3.196   3.012  0.5672  0.0102 -0.2473
 3830SOL    HW122952   4.309   3.234   3.063  1.2947 -0.8729  1.4066
 3830SOL    HW222953   4.362   3.103   3.003 -0.3791  0.1743 -0.0823
 3831SOL     OW22954   3.346   0.521   6.413  0.0611  0.4721  0.2666
 3831SOL    HW122955   3.356   0.521   6.508 -1.2894 -2.2048  0.4155
 3831SOL    HW222956   3.304   0.607   6.403 -1.3529 -0.0489  1.8306
 3832SOL     OW22957   2.679   3.940   8.626  0.1663  0.1861  0.1540
 3832SOL    HW122958   2.736   3.882   8.575 -0.9877  0.0652 -0.9871
 3832SOL    HW222959   2.713   4.024   8.593 -2.1519  1.0851  0.0906
 3833SOL     OW22960   2.369   2.024  16.703  0.4296  0.3805 -0.3103
 3833SOL    HW122961   2.321   1.971  16.639 -1.0060  1.5053 -0.1545
 3833SOL    HW222962   2.401   2.098  16.651 -2.0982  0.6440 -1.4854
 3834SOL     OW22963   2.749   3.279  16.931  0.4004  0.0159 -0.1901
 3834SOL    HW122964   2.837   3.284  16.969 -0.0934 -1.6991  1.1624
 3834SOL    HW222965   2.719   3.364  16.964 -0.5196  0.9698 -3.4589
 3835SOL     OW22966   0.391   3.486   9.608  0.6944 -0.4331 -0.6849
 3835SOL    HW122967   0.483   3.512   9.596  0.8981 -1.0336 -0.4685
 3835SOL    HW222968   0.349   3.558   9.562 -2.2817 -2.5595 -1.3228
 3836SOL     OW22969   2.241   3.505   3.463  0.5111  0.0291  0.2797
 3836SOL    HW122970   2.258   3.491   3.370  1.8642  0.1056  0.5110
 3836SOL    HW222971   2.323   3.552   3.479  1.9724 -3.2533  2.3087
 3837SOL     OW22972   0.655   0.916   2.294 -0.3179 -0.0055  0.4379
 3837SOL    HW122973   0.590   0.961   2.242 -1.7748 -2.9412 -0.3019
 3837SOL    HW222974   0.639   0.824   2.270 -0.2072  0.3894 -1.1419
 3838SOL     OW22975   1.869   1.493   0.448 -0.8421 -0.7776  0.1129
 3838SOL    HW122976   1.869   1.536   0.362 -0.3037 -2.8013 -0.8926
 3838SOL    HW222977   1.806   1.539   0.504 -0.0401 -1.1042  1.2923
 3839SOL     OW22978   3.247   1.302   0.648 -0.0938 -0.0035 -0.3553
 3839SOL    HW122979   3.203   1.217   0.643 -1.1247  0.5236 -0.2226
 3839SOL    HW222980   3.319   1.283   0.709 -0.5128 -0.8274 -0.1196
 3840SOL     OW22981   0.697   0.005   6.855 -0.2846  0.7236  0.4152
 3840SOL    HW122982   0.721   4.702   6.766 -0.7703 -0.9535  0.8115
 3840SOL    HW222983   0.701   4.651   6.908 -0.5542 -0.3457 -1.1411
 3841SOL     OW22984   1.680   0.655  14.977  0.1693  0.4505 -0.1557
 3841SOL    HW122985   1.757   0.628  15.027  1.4588  0.6247 -2.0615
 3841SOL    HW222986   1.653   0.566  14.954  0.9148 -0.1400  1.2649
 3842SOL     OW22987   3.560   1.722   9.652  0.0188 -0.0261  0.1122
 3842SOL    HW122988   3.539   1.682   9.567 -1.5778 -1.0258  0.9828
 3842SOL    HW222989   3.629   1.785   9.632  0.2676 -0.3273  0.0195
 3843SOL     OW22990   2.848   1.516   3.893  0.0171 -0.0955  0.0414
 3843SOL    HW122991   2.912   1.486   3.958  1.4291  0.5612 -1.0446
 3843SOL    HW222992   2.771   1.520   3.950 -0.6322 -0.4557 -0.8057
 3844SOL     OW22993   3.420   0.375  12.662  0.0484  0.1167 -0.2260
 3844SOL    HW122994   3.494   0.435  12.674 -0.2617  0.2479  1.0401
 3844SOL    HW222995   3.366   0.428  12.604  0.9820  0.7744 -0.5097
 3845SOL     OW22996   4.181   0.476   8.896  0.2449 -0.7007  0.4892
 3845SOL    HW122997   4.119   0.539   8.934  1.0340  0.7369 -0.6391
 3845SOL    HW222998   4.230   0.537   8.841 -0.3352  1.2388  2.1191
 3846SOL     OW22999   3.064   2.447  16.800 -0.0114 -0.3318 -0.4301
 3846SOL    HW123000   3.080   2.413  16.712  1.3336  0.0751 -0.3456
 3846SOL    HW223001   3.139   2.506  16.799 -0.2738  0.0032 -0.2985
 3847SOL     OW23002   3.675   3.653   4.052 -0.2623  0.2482  0.5002
 3847SOL    HW123003   3.714   3.653   4.139 -0.2643  3.8134  0.5019
 3847SOL    HW223004   3.601   3.711   4.069 -0.4340  0.3839 -0.6771
 3848SOL     OW23005   1.847   0.193   6.117  0.0386 -0.2981 -0.7704
 3848SOL    HW123006   1.906   0.267   6.105  0.6075 -0.5178  0.7521
 3848SOL    HW223007   1.884   0.154   6.196 -3.6423 -0.6064  0.8047
 3849SOL     OW23008   4.613   4.214   5.582  0.8694 -0.1063  0.0254
 3849SOL    HW123009   4.622   4.270   5.505 -2.2341  0.9459  0.4329
 3849SOL    HW223010   4.565   4.270   5.643  0.5669  1.8340 -2.0173
 3850SOL     OW23011   1.830   4.197   5.447 -0.4979  0.2842 -0.1515
 3850SOL    HW123012   1.918   4.227   5.424 -1.4279  1.8890 -1.6504
 3850SOL    HW223013   1.775   4.275   5.451 -0.2335  0.4196  0.6542
 3851SOL     OW23014   2.764   1.899   6.525 -0.6733 -0.0226 -0.3297
 3851SOL    HW123015   2.676   1.882   6.558 -1.1537  2.3351 -0.4285
 3851SOL    HW223016   2.796   1.974   6.575 -0.8527  1.5696 -2.5799
 3852SOL     OW23017   3.938   2.371   5.003 -0.2472 -0.7838  0.1219
 3852SOL    HW123018   3.877   2.311   4.961 -1.0275 -0.6292  1.0435
 3852SOL    HW223019   3.875   2.430   5.043 -0.0593 -0.3403 -0.2439
 3853SOL     OW23020   0.161   0.147  17.039 -0.2177  0.4078 -0.1289
 3853SOL    HW123021   0.146   0.092  17.116  3.5470  0.9163  0.9798
 3853SOL    HW223022   0.071   0.180  17.029 -0.8564 -0.7128  1.8240
 3854SOL     OW23023   1.960   1.091   1.088  0.7812 -0.2234 -0.3612
 3854SOL    HW123024   1.900   1.026   1.053  0.1528 -0.1778  0.6276
 3854SOL    HW223025   1.931   1.109   1.178 -0.6645 -1.7331 -0.5487
 3855SOL     OW23026   0.116   3.304   6.253 -0.2362 -0.3924  0.8163
 3855SOL    HW123027   0.165   3.253   6.188  2.0090  2.5929  0.1730
 3855SOL    HW223028   0.179   3.375   6.266 -3.5120  2.5685  0.7706
 3856SOL     OW23029   1.367   0.718   6.990 -0.3668  0.0758  0.4256
 3856SOL    HW123030   1.435   0.728   7.057  1.7510 -2.7115 -1.3027
 3856SOL    HW223031   1.335   0.632   7.017 -0.3346  0.2246  0.9517
 3857SOL     OW23032   2.491   4.172   6.924  0.0890 -0.7227  0.2682
 3857SOL    HW123033   2.494   4.077   6.919 -0.6410 -0.6443 -2.0570
 3857SOL    HW223034   2.565   4.202   6.871  0.4563 -2.4383 -0.1695
 3858SOL     OW23035   1.092   2.872   9.323 -0.1292  0.3889  0.0897
 3858SOL    HW123036   1.081   2.806   9.390  0.0813  0.2384 -0.0228
 3858SOL    HW223037   1.029   2.938   9.352 -2.4739 -1.6681 -0.2903
 3859SOL     OW23038   1.840   3.048  15.886 -0.2450  0.1504  0.1047
 3859SOL    HW123039   1.756   3.003  15.888  0.3417 -0.9163  1.2538
 3859SOL    HW223040   1.847   3.049  15.982 -2.1853 -2.3153  0.2683
 3860SOL     OW23041   4.353   1.568   6.690 -0.8546 -0.1042  0.9831
 3860SOL    HW123042   4.392   1.643   6.734  0.7973  0.1862 -0.9465
 3860SOL    HW223043   4.258   1.579   6.693 -0.7488  1.8722 -2.4346
 3861SOL     OW23044   0.721   3.330   9.612  0.1652  0.2475  0.1120
 3861SOL    HW123045   0.719   3.425   9.620 -1.0079  0.1443  1.0379
 3861SOL    HW223046   0.741   3.315   9.520 -0.0892 -0.8316  0.2241
 3862SOL     OW23047   3.324   2.734  16.836 -0.9008 -0.4830  0.0364
 3862SOL    HW123048   3.272   2.787  16.774  2.1097  0.2604 -1.8441
 3862SOL    HW223049   3.357   2.803  16.894 -0.2582 -0.3656 -0.4647
 3863SOL     OW23050   3.024   3.296   5.752 -0.0246 -0.0810  0.3709
 3863SOL    HW123051   3.087   3.301   5.824 -1.0777  2.0579  1.1751
 3863SOL    HW223052   3.046   3.370   5.696 -1.6981  0.2001  0.0759
 3864SOL     OW23053   2.148   1.601   6.689  0.0686  0.2777 -0.0285
 3864SOL    HW123054   2.204   1.595   6.611  1.4599 -0.2695  1.0059
 3864SOL    HW223055   2.179   1.527   6.742 -1.3184 -1.6018 -1.8570
 3865SOL     OW23056   1.989   1.141   4.998  0.5189  0.0231 -0.6320
 3865SOL    HW123057   1.978   1.150   5.093 -0.9903  2.7180 -1.0792
 3865SOL    HW223058   2.002   1.231   4.970  0.0290 -0.1573 -1.4461
 3866SOL     OW23059   2.239   0.876  16.495  0.4196 -0.0698 -0.1563
 3866SOL    HW123060   2.280   0.823  16.564  1.0546  1.0451  0.3166
 3866SOL    HW223061   2.253   0.965  16.525  0.1908 -0.2757  0.5564
 3867SOL     OW23062   1.285   4.698   9.788  0.0630 -0.5369 -0.0340
 3867SOL    HW123063   1.348   4.702   9.715  1.8705 -3.9060  1.2977
 3867SOL    HW223064   1.244   4.619   9.753 -0.8029  0.3381 -0.9733
 3868SOL     OW23065   0.459   1.347   7.987 -0.6082  0.1671  0.5756
 3868SOL    HW123066   0.552   1.351   8.010 -0.3524  0.9830 -0.5941
 3868SOL    HW223067   0.457   1.252   8.002 -0.1624  0.1167  0.3218
 3869SOL     OW23068   1.335   2.462  17.399  0.4751 -0.3009  0.3107
 3869SOL    HW123069   1.341   2.540  17.455 -0.4865 -1.8167  2.5369
 3869SOL    HW223070   1.286   2.494  17.323 -0.2065  0.1783  0.9486
 3870SOL     OW23071   3.969   1.654   0.838  0.2412  0.3891 -0.7378
 3870SOL    HW123072   4.009   1.584   0.787  0.7048 -0.4963  0.8257
 3870SOL    HW223073   3.895   1.678   0.782  0.4886  1.3677 -0.6524
 3871SOL     OW23074   1.233   2.881   9.079  0.0064  0.6634  0.2120
 3871SOL    HW123075   1.185   2.964   9.078 -0.8641  0.1731  0.8826
 3871SOL    HW223076   1.229   2.873   9.175  0.5320 -0.9652  0.0972
 3872SOL     OW23077   0.804   4.432   7.789 -0.2306 -0.1646  0.1663
 3872SOL    HW123078   0.756   4.381   7.855 -0.6201 -2.0771 -1.5989
 3872SOL    HW223079   0.882   4.442   7.843 -0.3548 -1.4455  0.5972
 3873SOL     OW23080   0.996   0.113  12.633 -0.5588 -0.2180 -0.0236
 3873SOL    HW123081   0.976   0.051  12.563 -1.1635  0.0576 -0.0935
 3873SOL    HW223082   0.993   0.195  12.583  0.9123  0.1443  0.4787
 3874SOL     OW23083   3.767   0.319   7.022  0.6153 -0.1094 -0.0147
 3874SOL    HW123084   3.723   0.312   6.937  0.1309  0.8234  0.1662
 3874SOL    HW223085   3.855   0.343   6.991  1.0404 -0.6107  0.8138
 3875SOL     OW23086   4.090   2.932   2.542 -0.4470  0.2873  0.4765
 3875SOL    HW123087   4.134   2.962   2.463 -2.4644  0.2124 -0.6728
 3875SOL    HW223088   4.080   2.837   2.532 -0.6890  0.4560 -0.8246
 3876SOL     OW23089   3.056   3.382   3.984 -0.0404  0.0075 -0.6030
 3876SOL    HW123090   3.105   3.366   3.903  1.5641 -2.0666  0.7623
 3876SOL    HW223091   2.995   3.310   4.000  1.0329 -1.0402 -1.2665
 3877SOL     OW23092   2.888   0.590   6.570  0.2702 -0.7329  0.0754
 3877SOL    HW123093   2.863   0.607   6.661  0.4531  0.1219 -0.0359
 3877SOL    HW223094   2.917   0.499   6.578  0.2173 -0.8165 -0.6269
 3878SOL     OW23095   4.576   2.578   7.644 -0.0365  0.3505  0.1937
 3878SOL    HW123096   4.670   2.565   7.634  0.2134  0.0025  2.8647
 3878SOL    HW223097   4.567   2.651   7.583  2.3000  2.3873  2.2695
 3879SOL     OW23098   1.644   2.125  11.103  0.1760 -0.2997 -0.5688
 3879SOL    HW123099   1.621   2.156  11.016  1.3063  2.2993  0.0361
 3879SOL    HW223100   1.561   2.122  11.150  0.4268 -0.5629 -0.1410
 3880SOL     OW23101   4.040   1.402   6.859 -0.2486  0.0997  0.5793
 3880SOL    HW123102   4.116   1.407   6.918 -0.4245 -2.0680  0.9917
 3880SOL    HW223103   4.005   1.316   6.884 -1.0512  0.8015  1.8410
 3881SOL     OW23104   4.662   3.764   3.706  0.9719  0.1239  0.5769
 3881SOL    HW123105   4.639   3.794   3.618 -0.5937  0.4358  1.1065
 3881SOL    HW223106   4.685   3.672   3.692  0.3275 -0.4392  3.2493
 3882SOL     OW23107   0.668   2.207  14.809 -0.3461  0.3158  0.4848
 3882SOL    HW123108   0.686   2.289  14.855 -1.8603  1.3644 -0.8119
 3882SOL    HW223109   0.597   2.162  14.856  0.3472  0.3556  1.5706
 3883SOL     OW23110   1.957   4.034  14.012  0.4808 -0.4112  0.5004
 3883SOL    HW123111   1.943   4.067  13.924 -0.8785 -3.1634 -0.3229
 3883SOL    HW223112   1.870   4.002  14.037 -0.0126  1.8352  1.6803
 3884SOL     OW23113   1.706   0.883   8.959 -0.8334 -0.1764 -0.3696
 3884SOL    HW123114   1.636   0.836   9.004  0.1454  0.7371  2.1016
 3884SOL    HW223115   1.767   0.900   9.031 -0.1297  0.7632 -1.1933
 3885SOL     OW23116   2.037   3.187   9.235  0.6035  0.3211  0.3127
 3885SOL    HW123117   1.956   3.232   9.211 -0.4621 -2.6257 -1.5679
 3885SOL    HW223118   2.068   3.230   9.315 -0.3262  0.4136  0.6231
 3886SOL     OW23119   3.130   2.105   5.620 -0.0545 -0.0734  0.1452
 3886SOL    HW123120   3.076   2.104   5.541  0.3696 -3.1803 -0.1220
 3886SOL    HW223121   3.099   2.183   5.665  0.2534 -0.4899  1.0888
 3887SOL     OW23122   2.971   3.564   9.008 -0.2340 -0.4938  0.5974
 3887SOL    HW123123   2.990   3.651   8.973 -0.7865 -1.3678 -1.8909
 3887SOL    HW223124   2.927   3.591   9.088 -1.6639  0.2871 -0.4355
 3888SOL     OW23125   4.627   3.690   7.784 -0.6971 -0.0495 -0.1195
 3888SOL    HW123126   4.575   3.769   7.768 -0.8599  0.2600  1.9785
 3888SOL    HW223127   4.580   3.635   7.721  1.2691 -0.2749 -1.4009
 3889SOL     OW23128   1.592   1.990   2.122  0.0176  0.1121  0.2024
 3889SOL    HW123129   1.604   1.963   2.213  0.6702  1.1683  0.4358
 3889SOL    HW223130   1.608   2.084   2.133  1.0737  0.1815 -1.9448
 3890SOL     OW23131   4.220   1.101  15.325 -0.0179 -0.1399 -0.6900
 3890SOL    HW123132   4.139   1.151  15.317 -1.2687 -2.3193 -1.9380
 3890SOL    HW223133   4.239   1.112  15.418  0.6439 -2.5596 -0.5193
 3891SOL     OW23134   1.892   0.734   4.161  0.4498 -0.3751 -0.0252
 3891SOL    HW123135   1.824   0.667   4.163  2.1306 -2.1238 -1.3145
 3891SOL    HW223136   1.969   0.681   4.141  0.5727 -1.1068  2.4129
 3892SOL     OW23137   3.035   2.478   9.980 -0.4109  0.3310  0.2513
 3892SOL    HW123138   2.952   2.509  10.015  0.2208 -1.3359  3.1934
 3892SOL    HW223139   3.010   2.476   9.887 -1.8142 -0.3908  0.6552
 3893SOL     OW23140   4.392   2.814   5.705 -0.1474 -0.0388 -0.5506
 3893SOL    HW123141   4.415   2.864   5.627  3.4012 -2.7711 -1.2096
 3893SOL    HW223142   4.302   2.784   5.693 -0.2284 -1.4374  3.4494
 3894SOL     OW23143   4.543   4.346  16.259  0.4306  0.0440  0.0135
 3894SOL    HW123144   4.503   4.432  16.270 -0.8063 -0.6357  0.8812
 3894SOL    HW223145   4.472   4.291  16.292  0.9176 -1.1520 -0.9057
 3895SOL     OW23146   0.033   0.707   4.835 -0.0710  0.1979 -0.2804
 3895SOL    HW123147   0.080   0.630   4.804  0.7833 -0.0154  1.5716
 3895SOL    HW223148   0.074   0.777   4.784  0.7506  2.3847  3.3445
 3896SOL     OW23149   1.899   3.687   3.600 -0.0978 -0.1799  0.6746
 3896SOL    HW123150   1.964   3.653   3.662  0.0546 -0.6919  0.2415
 3896SOL    HW223151   1.830   3.721   3.656 -0.1364 -0.1788  0.6264
 3897SOL     OW23152   3.742   2.178  13.967 -0.3573 -0.6482 -0.0657
 3897SOL    HW123153   3.804   2.244  13.998 -1.0441  0.2806 -0.6712
 3897SOL    HW223154   3.765   2.106  14.025 -0.4142 -1.0519 -0.5447
 3898SOL     OW23155   1.398   2.825   9.543  0.0401  0.5426  0.5363
 3898SOL    HW123156   1.417   2.891   9.476  0.6012  0.7321  0.8825
 3898SOL    HW223157   1.381   2.877   9.621  0.8914 -0.8006  1.6050
 3899SOL     OW23158   0.473   3.336   1.859  0.3965  0.0387 -0.2523
 3899SOL    HW123159   0.394   3.311   1.908  2.2451 -1.1246  2.1624
 3899SOL    HW223160   0.520   3.364   1.938  0.3800  0.0927 -0.2616
 3900SOL     OW23161   3.338   0.506   3.091  0.1840  0.2202 -0.6478
 3900SOL    HW123162   3.352   0.582   3.035 -2.3121 -0.9824 -2.8950
 3900SOL    HW223163   3.413   0.498   3.151 -1.0193  1.2230  0.9928
 3901SOL     OW23164   0.062   3.130   6.885  0.7229  0.2163 -0.2267
 3901SOL    HW123165   0.020   3.056   6.841 -1.4933  1.7608 -0.7402
 3901SOL    HW223166   0.002   3.200   6.858 -1.2135 -2.6705 -3.5059
 3902SOL     OW23167   1.688   2.991  13.740 -0.6788 -0.2939 -0.1757
 3902SOL    HW123168   1.712   2.912  13.692 -0.8366  0.6588 -1.8468
 3902SOL    HW223169   1.643   3.047  13.676 -0.1547 -1.3577 -1.4610
 3903SOL     OW23170   1.874   2.383   0.989  0.0526 -0.0883  0.1273
 3903SOL    HW123171   1.789   2.405   1.026 -0.4085 -0.1880 -0.8758
 3903SOL    HW223172   1.901   2.335   1.066 -0.7861  1.2347  1.2475
 3904SOL     OW23173   3.005   1.379   5.298  0.6254 -0.4926 -0.3359
 3904SOL    HW123174   3.006   1.458   5.352  0.0099 -0.3144 -0.5893
 3904SOL    HW223175   3.096   1.378   5.268  1.1443 -0.2236  1.2442
 3905SOL     OW23176   3.222   3.225  16.959 -0.0198  0.0770 -0.7734
 3905SOL    HW123177   3.196   3.159  17.023  0.1316 -0.0996 -0.8934
 3905SOL    HW223178   3.133   3.258  16.943  0.4075  2.5252  2.1078
 3906SOL     OW23179   2.951   4.137   7.381 -0.1771 -0.1194 -0.6269
 3906SOL    HW123180   2.991   4.126   7.467 -1.4378  1.5054  0.1808
 3906SOL    HW223181   2.960   4.048   7.349  0.4637  0.0046 -0.7953
 3907SOL     OW23182   2.221   3.071  11.995  0.3730 -0.6623  0.0452
 3907SOL    HW123183   2.144   3.028  11.959 -1.3348  0.3779  2.4455
 3907SOL    HW223184   2.265   3.000  12.042  0.9094  0.5492  1.4100
 3908SOL     OW23185   4.401   1.126   0.341 -0.0813  0.2200  0.1775
 3908SOL    HW123186   4.331   1.112   0.405  0.8757 -0.7927  0.9785
 3908SOL    HW223187   4.446   1.042   0.345 -0.6953 -0.1236 -0.0797
 3909SOL     OW23188   0.130   3.610  10.495 -0.3177  0.1447  0.2513
 3909SOL    HW123189   0.178   3.528  10.481 -0.5148  0.3286 -1.5978
 3909SOL    HW223190   0.161   3.665  10.423  3.2309 -0.6767  1.1708
 3910SOL     OW23191   0.471   4.449   7.723 -0.0362 -0.5136 -0.0211
 3910SOL    HW123192   0.390   4.499   7.729 -0.4150 -0.9684 -1.3515
 3910SOL    HW223193   0.516   4.483   7.800 -0.3715  0.1332 -0.1174
 3911SOL     OW23194   2.974   1.475   1.696 -0.0933 -0.0754 -0.5185
 3911SOL    HW123195   2.946   1.419   1.623 -0.1463 -0.0628 -0.5079
 3911SOL    HW223196   3.009   1.419   1.765  2.6605 -0.2262 -2.0382
 3912SOL     OW23197   1.755   2.612   7.982 -0.8956 -0.2455 -0.2445
 3912SOL    HW123198   1.763   2.589   8.074 -0.7726 -0.9872 -0.4398
 3912SOL    HW223199   1.666   2.648   7.987 -0.7979 -0.0040 -0.2422
 3913SOL     OW23200   1.716   2.396   3.417 -0.2629 -0.0827  0.3720
 3913SOL    HW123201   1.793   2.452   3.412 -0.8197  0.7655  1.3324
 3913SOL    HW223202   1.724   2.347   3.336 -0.1475  0.5209  0.0197
 3914SOL     OW23203   3.900   0.378   4.118 -0.4836  0.9465 -0.0251
 3914SOL    HW123204   3.964   0.449   4.122 -0.1546  0.7463 -2.0991
 3914SOL    HW223205   3.853   0.399   4.037 -1.7147 -1.7658 -0.0170
 3915SOL     OW23206   2.621   2.610   9.692 -0.5805  0.2392  0.1034
 3915SOL    HW123207   2.583   2.577   9.610  0.1761 -1.4848  0.4411
 3915SOL    HW223208   2.543   2.621   9.748 -0.4283  3.0710 -0.2683
 3916SOL     OW23209   4.252   4.205  15.485 -0.1420 -0.4053 -0.0577
 3916SOL    HW123210   4.325   4.230  15.428 -1.2510 -1.3478 -1.9050
 3916SOL    HW223211   4.304   4.188  15.563 -1.4305  2.1086  1.3396
 3917SOL     OW23212   4.473   1.910   1.815  0.3867  0.7092 -0.2286
 3917SOL    HW123213   4.397   1.934   1.869  1.5068 -0.0283  1.6908
 3917SOL    HW223214   4.533   1.874   1.881 -0.9827 -1.8586 -0.3907
 3918SOL     OW23215   2.602   3.189   8.811  0.2379 -0.8521 -0.3540
 3918SOL    HW123216   2.667   3.218   8.748 -1.6696  2.0276 -0.9977
 3918SOL    HW223217   2.549   3.266   8.834 -0.2494 -1.1983 -0.3135
 3919SOL     OW23218   0.240   3.213   0.251  0.3354 -0.6046  0.0845
 3919SOL    HW123219   0.176   3.281   0.268  0.9790 -0.4735  2.0142
 3919SOL    HW223220   0.305   3.245   0.314 -1.3515 -0.7471  1.8942
 3920SOL     OW23221   4.146   0.503   7.019 -0.6085  0.5506  0.1157
 3920SOL    HW123222   4.217   0.509   7.084 -0.0683  0.1346 -0.4378
 3920SOL    HW223223   4.151   0.416   6.979  3.2033  1.0826 -0.5539
 3921SOL     OW23224   2.251   0.049  13.085  0.3466  0.5105  0.6492
 3921SOL    HW123225   2.203   0.020  13.007 -1.9882 -0.4085  2.4143
 3921SOL    HW223226   2.303   4.695  13.098 -1.8795 -1.2823 -1.1831
 3922SOL     OW23227   2.196   0.824   6.054  0.4673  0.4288  0.2738
 3922SOL    HW123228   2.253   0.888   6.011 -1.3803 -0.2259 -3.1510
 3922SOL    HW223229   2.117   0.866   6.089 -1.7862 -0.6949 -3.4287
 3923SOL     OW23230   4.189   1.201   7.978  0.7078  0.0743  0.4885
 3923SOL    HW123231   4.184   1.183   8.072  0.8823  1.9472  0.8461
 3923SOL    HW223232   4.277   1.239   7.985  0.7408  0.2725 -0.9446
 3924SOL     OW23233   4.627   1.313   5.093  0.2038 -0.5485  0.5410
 3924SOL    HW123234   4.567   1.254   5.046 -2.9195  1.7444  1.6525
 3924SOL    HW223235   4.687   1.332   5.021 -1.4493 -0.0639 -0.7020
 3925SOL     OW23236   0.821   0.241  12.149 -0.0750 -0.1832 -0.3821
 3925SOL    HW123237   0.755   0.203  12.090 -1.5677  1.1806  0.4195
 3925SOL    HW223238   0.767   0.306  12.193  1.4428  1.2384 -0.6259
 3926SOL     OW23239   1.111   4.382   4.977 -0.1162 -0.7935  0.2518
 3926SOL    HW123240   1.048   4.444   5.014  1.5035  0.0280  1.6268
 3926SOL    HW223241   1.137   4.443   4.909  0.0908  0.6344  1.6142
 3927SOL     OW23242   1.522   0.233   6.391 -0.6751  0.0707 -0.5096
 3927SOL    HW123243   1.456   0.186   6.443 -1.3816  2.3773  0.6576
 3927SOL    HW223244   1.555   0.167   6.331  0.4012 -0.6608  0.8843
 3928SOL     OW23245   0.872   0.676   2.432  0.3092 -0.4814  0.1588
 3928SOL    HW123246   0.907   0.699   2.346 -0.8369  4.3703  0.9998
 3928SOL    HW223247   0.921   0.595   2.449  0.3307  0.0389  2.4636
 3929SOL     OW23248   4.511   4.310  12.656  0.1470 -0.0102  0.0590
 3929SOL    HW123249   4.589   4.288  12.706 -1.7504 -1.9213  2.1956
 3929SOL    HW223250   4.538   4.388  12.608 -0.3637  1.1386  1.6418
 3930SOL     OW23251   1.016   0.542   1.494 -0.6628  0.0859  0.0689
 3930SOL    HW123252   1.104   0.578   1.501  0.3100 -1.9868 -1.8763
 3930SOL    HW223253   1.007   0.529   1.400  1.2491  3.1446 -0.5397
 3931SOL     OW23254   1.840   0.266   7.944  0.6472  0.6328  1.1119
 3931SOL    HW123255   1.796   0.271   8.029 -0.2441 -1.0231  0.7303
 3931SOL    HW223256   1.860   0.359   7.927 -0.2877  0.6301  0.0705
 3932SOL     OW23257   2.227   3.821   4.301 -0.7023 -0.2230 -0.0022
 3932SOL    HW123258   2.210   3.901   4.251  0.5296  0.0410  0.0107
 3932SOL    HW223259   2.252   3.855   4.386  0.6561 -0.6433 -0.2350
 3933SOL     OW23260   1.662   0.390  15.670 -0.0802 -0.8396  0.0769
 3933SOL    HW123261   1.622   0.329  15.608  1.0158 -0.1992 -1.2563
 3933SOL    HW223262   1.676   0.462  15.608 -0.9830 -0.7235  0.0114
 3934SOL     OW23263   3.650   1.527  12.838  0.5514  0.1919 -0.3677
 3934SOL    HW123264   3.715   1.569  12.894  0.7879  0.5959 -0.9474
 3934SOL    HW223265   3.663   1.434  12.857  0.6652  0.2019 -0.3956
 3935SOL     OW23266   2.670   2.802   5.806  0.4402  0.3321  0.2258
 3935SOL    HW123267   2.619   2.721   5.802 -0.5377  1.0431 -1.6595
 3935SOL    HW223268   2.740   2.782   5.744  1.3457 -1.5511  1.8668
 3936SOL     OW23269   4.629   4.177   8.812  0.2869  0.0900 -0.0245
 3936SOL    HW123270   4.613   4.270   8.796  0.5619 -0.0140 -0.8991
 3936SOL    HW223271   4.536   4.154   8.808 -0.4422  2.9718 -0.0850
 3937SOL     OW23272   1.941   2.112   4.319 -0.4561 -0.2211  0.6725
 3937SOL    HW123273   1.854   2.074   4.322 -1.0121  0.9477 -0.9755
 3937SOL    HW223274   1.979   2.047   4.378 -1.0811  0.2360  1.5757
 3938SOL     OW23275   1.700   4.473   5.493  0.2781  0.1852  0.1330
 3938SOL    HW123276   1.777   4.482   5.550  0.6222 -1.1656 -0.1153
 3938SOL    HW223277   1.711   4.529   5.415 -2.9501 -0.4787 -0.7925
 3939SOL     OW23278   1.831   0.049   3.068 -0.8336  0.3946  0.0510
 3939SOL    HW123279   1.739   0.023   3.060 -0.1624 -1.3889 -1.7971
 3939SOL    HW223280   1.846   0.057   2.974 -1.8804 -1.6294 -0.2770
 3940SOL     OW23281   3.164   1.884  16.402 -0.2668 -0.2362 -0.2893
 3940SOL    HW123282   3.134   1.952  16.462  2.9299  0.3755  0.6678
 3940SOL    HW223283   3.122   1.804  16.434  2.8722 -2.3155 -1.3274
 3941SOL     OW23284   1.491   0.325   2.862 -0.2959  0.2840 -0.3424
 3941SOL    HW123285   1.561   0.389   2.871  0.8979 -0.9931 -0.6677
 3941SOL    HW223286   1.449   0.326   2.948  0.9181 -0.8828  0.2644
 3942SOL     OW23287   3.276   3.223   8.227 -0.1615 -0.8241 -0.1506
 3942SOL    HW123288   3.192   3.204   8.185 -0.4108 -0.4881  0.1908
 3942SOL    HW223289   3.341   3.194   8.164  1.0771  3.1794 -0.7435
 3943SOL     OW23290   4.381   3.923   8.738  0.3476 -0.3256  0.2201
 3943SOL    HW123291   4.374   3.829   8.756 -1.4440 -0.8390 -3.1255
 3943SOL    HW223292   4.309   3.963   8.787  0.6754  2.5795 -1.6406
 3944SOL     OW23293   0.626   0.233   6.992 -0.0172 -0.0017  0.8273
 3944SOL    HW123294   0.627   0.142   6.961 -0.5297  0.3493 -0.2079
 3944SOL    HW223295   0.701   0.219   7.050  0.3704 -1.7222 -0.0729
 3945SOL     OW23296   3.335   3.900   8.638 -0.1617  0.3601 -0.1840
 3945SOL    HW123297   3.253   3.851   8.632  0.3022 -0.2991 -1.1978
 3945SOL    HW223298   3.392   3.848   8.580 -0.6934  0.1961 -0.5577
 3946SOL     OW23299   2.144   4.391   2.170 -0.2035  0.4794  0.0156
 3946SOL    HW123300   2.065   4.434   2.136 -1.2012  1.0989  3.1312
 3946SOL    HW223301   2.187   4.473   2.193  1.3930 -0.2732 -0.3369
 3947SOL     OW23302   4.440   0.771   4.260 -0.0065  0.3342  0.1009
 3947SOL    HW123303   4.390   0.840   4.303 -0.8641  0.0676 -0.4549
 3947SOL    HW223304   4.456   0.799   4.170  0.6834  0.4143  0.2493
 3948SOL     OW23305   4.443   4.053  12.567  0.1744  0.0718 -0.2602
 3948SOL    HW123306   4.446   4.101  12.484  1.0947 -0.2111 -0.3870
 3948SOL    HW223307   4.454   4.132  12.618 -2.3514  1.3112 -1.6348
 3949SOL     OW23308   1.617   1.059   8.447 -0.3314 -0.1770 -0.1919
 3949SOL    HW123309   1.684   1.020   8.503 -1.5794  1.4952  2.4878
 3949SOL    HW223310   1.656   1.142   8.419  1.3314 -0.6949  0.6206
 3950SOL     OW23311   3.171   0.291   2.125  0.3981 -0.2124 -0.4502
 3950SOL    HW123312   3.187   0.205   2.087 -2.1997 -0.2200 -1.5268
 3950SOL    HW223313   3.092   0.282   2.177  1.0995  0.7433  0.7905
 3951SOL     OW23314   0.892   2.034   5.086 -0.4205 -0.0797  0.3506
 3951SOL    HW123315   0.897   2.129   5.097 -1.6546  0.0303 -0.0280
 3951SOL    HW223316   0.831   2.011   5.157 -0.1783  0.1357  0.6271
 3952SOL     OW23317   3.395   0.724   6.916  0.1802  0.7871 -0.7831
 3952SOL    HW123318   3.376   0.802   6.967 -2.2615 -0.2461 -0.0878
 3952SOL    HW223319   3.486   0.744   6.897  0.8439 -1.3825  0.1107
 3953SOL     OW23320   3.683   3.789   0.818  0.4606 -0.0637 -0.1636
 3953SOL    HW123321   3.609   3.850   0.816  0.7508  0.2720 -0.4342
 3953SOL    HW223322   3.645   3.704   0.795 -0.8119 -0.1352  2.1673
 3954SOL     OW23323   0.190   0.159  14.547  0.1227 -0.5788 -0.6803
 3954SOL    HW123324   0.241   0.204  14.614 -0.2155 -1.0354 -0.1214
 3954SOL    HW223325   0.214   0.069  14.566  0.2152 -0.8507 -2.0541
 3955SOL     OW23326   1.635   4.216   4.487 -0.2758  0.2045  0.2493
 3955SOL    HW123327   1.729   4.213   4.471 -0.3997 -4.4383  0.5784
 3955SOL    HW223328   1.609   4.271   4.561 -1.7012 -1.1558  0.7743
 3956SOL     OW23329   2.738   0.046   4.622  0.4994  0.1771 -0.1910
 3956SOL    HW123330   2.675   0.021   4.691 -0.3103  0.4950 -0.8159
 3956SOL    HW223331   2.695   4.715   4.558  1.7563 -0.1693 -0.7308
 3957SOL     OW23332   1.467   2.173   3.381 -0.3305  0.8351  0.2190
 3957SOL    HW123333   1.539   2.147   3.324 -2.1762 -0.7777 -1.3593
 3957SOL    HW223334   1.460   2.263   3.349 -1.3946  0.5543 -0.3207
 3958SOL     OW23335   0.444   0.567   9.472 -0.0261 -0.0703  0.4269
 3958SOL    HW123336   0.374   0.516   9.512  0.6488 -1.9771 -0.8176
 3958SOL    HW223337   0.406   0.652   9.452  0.9338  0.4738  0.9133
 3959SOL     OW23338   4.227   4.330   6.571 -0.4313 -0.0525  0.1208
 3959SOL    HW123339   4.168   4.392   6.528 -1.1207 -1.2090 -0.6267
 3959SOL    HW223340   4.206   4.346   6.663  2.6296  3.5471  0.1683
 3960SOL     OW23341   4.599   0.255  16.004 -0.0005 -0.1792  0.1857
 3960SOL    HW123342   4.566   0.344  16.010 -1.5350 -0.9407  3.3988
 3960SOL    HW223343   4.522   0.206  15.975 -0.7241  0.8831  0.3119
 3961SOL     OW23344   1.261   2.264   6.342  0.2538  0.1486 -0.3378
 3961SOL    HW123345   1.259   2.297   6.253  2.4785 -0.8511 -0.7514
 3961SOL    HW223346   1.354   2.280   6.357  0.7979 -0.0558 -3.5044
 3962SOL     OW23347   2.195   0.922   3.963 -0.0486  0.0154 -0.2339
 3962SOL    HW123348   2.230   0.923   4.052  0.8900 -1.0168 -0.5826
 3962SOL    HW223349   2.264   0.972   3.918 -0.4185 -0.6229 -1.5315
 3963SOL     OW23350   2.767   3.040  15.036 -0.2484  0.0127  0.1176
 3963SOL    HW123351   2.820   3.082  15.103 -0.9446  1.4004 -0.2007
 3963SOL    HW223352   2.682   3.040  15.081  0.7720 -0.0240  2.0216
 3964SOL     OW23353   3.112   4.286  17.155  0.0668 -0.2713 -0.5659
 3964SOL    HW123354   3.185   4.341  17.128 -0.7558  1.8371  1.5266
 3964SOL    HW223355   3.071   4.347  17.216  1.7051  1.4043 -1.1549
 3965SOL     OW23356   1.826   4.620  16.530 -0.0226  0.2160  0.3209
 3965SOL    HW123357   1.807   4.637  16.438  0.0950 -0.6879  0.1379
 3965SOL    HW223358   1.920   4.603  16.522 -0.4354 -1.7067 -0.3825
 3966SOL     OW23359   2.593   2.744   2.126 -0.0761 -0.0069 -0.0232
 3966SOL    HW123360   2.633   2.673   2.075  0.3656 -1.2091  1.9896
 3966SOL    HW223361   2.528   2.765   2.059  1.0576 -0.9857 -1.4280
 3967SOL     OW23362   1.845   2.528   6.686  0.8985 -0.0379 -0.6187
 3967SOL    HW123363   1.864   2.469   6.758  0.7771 -0.0348 -0.5835
 3967SOL    HW223364   1.938   2.533   6.666  1.1271 -2.7792 -0.2731
 3968SOL     OW23365   3.826   3.323  13.780  0.5081  0.0240 -0.1155
 3968SOL    HW123366   3.802   3.399  13.833 -2.7161 -0.5961 -0.6676
 3968SOL    HW223367   3.789   3.252  13.834  0.2006  0.8891  0.8125
 3969SOL     OW23368   1.447   2.996   8.436  0.4473 -0.0514  0.4537
 3969SOL    HW123369   1.353   2.990   8.419  0.4951 -2.5696  1.1556
 3969SOL    HW223370   1.457   2.906   8.467 -1.2589 -0.3112  0.2774
 3970SOL     OW23371   1.842   3.845   2.305  0.2171 -0.5769  0.1528
 3970SOL    HW123372   1.816   3.923   2.354  1.1191 -0.5115  0.5409
 3970SOL    HW223373   1.839   3.877   2.215  0.3937  1.6817  0.9432
 3971SOL     OW23374   2.752   3.838   3.085  0.4118 -0.3257 -0.2163
 3971SOL    HW123375   2.714   3.898   3.149  1.1803 -3.1914  2.9525
 3971SOL    HW223376   2.783   3.772   3.147  0.2817 -2.3050 -2.2884
 3972SOL     OW23377   3.109   0.159   8.454 -0.2484  0.5824  0.3123
 3972SOL    HW123378   3.188   0.213   8.460  1.2749 -1.5998 -0.2468
 3972SOL    HW223379   3.140   0.074   8.487 -0.0363  0.7051  0.4305
 3973SOL     OW23380   0.990   4.724  13.526  0.9337  0.4233 -0.4715
 3973SOL    HW123381   0.993   0.006  13.622  0.7136  2.5627 -0.6309
 3973SOL    HW223382   1.077   4.685  13.517  1.1228  1.4091 -2.9061
 3974SOL     OW23383   0.284   1.941   2.076  0.1419  0.0111 -0.2271
 3974SOL    HW123384   0.299   1.853   2.110 -3.3610 -0.5719 -0.1714
 3974SOL    HW223385   0.371   1.965   2.044  0.3341 -2.6187 -1.6595
 3975SOL     OW23386   2.334   0.138   0.705 -0.1643  0.0091  0.2036
 3975SOL    HW123387   2.392   0.064   0.685  0.1443  0.2830  0.0718
 3975SOL    HW223388   2.373   0.169   0.787  1.2181  0.1562 -0.5013
 3976SOL     OW23389   4.504   2.742   7.455 -0.6731 -0.0285 -0.3683
 3976SOL    HW123390   4.448   2.774   7.384 -0.4846  1.9027  0.3468
 3976SOL    HW223391   4.528   2.826   7.493  0.5800  0.7331 -2.8375
 3977SOL     OW23392   3.381   3.863   2.197  0.1016 -0.3909  0.2699
 3977SOL    HW123393   3.388   3.771   2.172  0.7221  0.1622 -1.5550
 3977SOL    HW223394   3.383   3.858   2.293  2.3189  1.1861  0.3212
 3978SOL     OW23395   4.583   3.358   0.167  0.6683 -0.3605 -0.1808
 3978SOL    HW123396   4.502   3.342   0.119 -0.2216  0.9082  0.9249
 3978SOL    HW223397   4.565   3.440   0.211  0.2361 -0.1978 -0.6594
 3979SOL     OW23398   3.588   1.691   4.581 -0.3516  0.4007 -0.0571
 3979SOL    HW123399   3.556   1.713   4.494 -2.1946 -1.4477  0.1468
 3979SOL    HW223400   3.545   1.756   4.637 -2.3006  0.3414 -1.4718
 3980SOL     OW23401   3.668   2.985   3.930 -0.2200 -0.5136 -0.3285
 3980SOL    HW123402   3.605   3.057   3.937 -0.6023 -1.1546  2.5396
 3980SOL    HW223403   3.685   2.968   4.022 -2.3450 -0.3308  0.1108
 3981SOL     OW23404   3.931   3.129   5.394  0.1073 -0.0235 -0.5534
 3981SOL    HW123405   3.894   3.216   5.410 -2.1351 -1.2675  0.9708
 3981SOL    HW223406   4.019   3.157   5.367 -0.1151 -0.5725 -1.8447
 3982SOL     OW23407   0.758   0.280   8.887  0.4016 -0.3007  0.0821
 3982SOL    HW123408   0.730   0.192   8.863  0.4637  0.2494 -1.9818
 3982SOL    HW223409   0.685   0.339   8.867 -0.9702 -2.4904 -1.3268
 3983SOL     OW23410   2.255   2.549  10.833 -0.1301  0.3614 -0.4748
 3983SOL    HW123411   2.283   2.535  10.923 -0.9877  2.2376  0.0841
 3983SOL    HW223412   2.216   2.635  10.845  0.5806  0.5340  0.5858
 3984SOL     OW23413   4.320   2.050  12.455 -0.5399  0.3903 -0.2874
 3984SOL    HW123414   4.405   2.051  12.499 -0.3314  2.5375 -0.7662
 3984SOL    HW223415   4.264   2.102  12.512  0.6650  1.9441 -0.5272
 3985SOL     OW23416   1.681   3.261   3.628 -0.2541 -0.3732  0.5751
 3985SOL    HW123417   1.628   3.340   3.642  0.8845  0.5393 -0.3096
 3985SOL    HW223418   1.639   3.225   3.550  0.8499 -0.6114  0.0916
 3986SOL     OW23419   1.084   1.559   7.752 -0.7519  0.3224 -0.0016
 3986SOL    HW123420   1.016   1.495   7.729 -0.7386 -0.2252  1.5511
 3986SOL    HW223421   1.087   1.590   7.842 -0.9099 -0.6762  0.3423
 3987SOL     OW23422   3.041   0.230   7.965 -0.4944  0.0782 -0.2048
 3987SOL    HW123423   3.072   0.200   7.879  0.2591 -1.8274  0.7549
 3987SOL    HW223424   3.021   0.148   8.008 -2.9631  1.7852  1.8981
 3988SOL     OW23425   2.977   3.313   1.227 -0.5320  0.3113  0.2192
 3988SOL    HW123426   3.027   3.265   1.161 -3.4865 -1.4816 -0.6969
 3988SOL    HW223427   3.034   3.296   1.302  1.7447 -1.6435 -1.9136
 3989SOL     OW23428   2.207   4.724   7.364 -0.4682  0.2270  0.4251
 3989SOL    HW123429   2.230   0.083   7.402 -1.4432  0.7396 -0.1350
 3989SOL    HW223430   2.141   4.688   7.423 -0.0643 -0.1490  0.6503
 3990SOL     OW23431   3.036   3.484  17.421  0.1971  0.3669 -0.1988
 3990SOL    HW123432   3.033   3.451  17.511  0.4563  0.3074 -0.2116
 3990SOL    HW223433   2.943   3.470  17.402  0.5096 -1.1393 -0.6435
 3991SOL     OW23434   2.906   4.475   0.334  0.3709  0.2640 -0.1453
 3991SOL    HW123435   2.842   4.545   0.324  1.7398  1.4472 -0.5104
 3991SOL    HW223436   2.935   4.497   0.422 -0.5326  0.4940  0.0914
 3992SOL     OW23437   0.353   2.656   6.355 -0.0208 -0.3643  0.3562
 3992SOL    HW123438   0.321   2.646   6.266 -0.9454 -1.1189  0.7730
 3992SOL    HW223439   0.307   2.732   6.391  0.5519 -0.1740  0.6959
 3993SOL     OW23440   3.016   1.104  10.353 -0.4842  0.1209 -0.4231
 3993SOL    HW123441   2.979   1.068  10.434  2.1533  2.6805  1.9132
 3993SOL    HW223442   3.108   1.091  10.373  0.2055  2.7469 -1.9584
 3994SOL     OW23443   2.536   1.586   4.305 -0.1960 -0.2509 -0.2125
 3994SOL    HW123444   2.463   1.557   4.250 -2.1453  1.7968  1.2777
 3994SOL    HW223445   2.489   1.645   4.364 -0.3799 -0.9206  0.3161
 3995SOL     OW23446   3.289   1.384   1.301 -0.6612  0.0107 -0.3252
 3995SOL    HW123447   3.226   1.314   1.318  0.3685 -1.0590 -0.8827
 3995SOL    HW223448   3.350   1.376   1.374 -2.2954  0.3916  1.0887
 3996SOL     OW23449   2.176   2.749   6.962  0.5499 -0.6972  0.3724
 3996SOL    HW123450   2.188   2.666   7.008 -4.4470 -1.7392 -0.2409
 3996SOL    HW223451   2.262   2.788   6.977  0.5415 -0.4148 -0.2938
 3997SOL     OW23452   0.297   1.700   2.213  0.0544 -0.0223 -0.2968
 3997SOL    HW123453   0.281   1.656   2.297  3.0202 -1.0427 -0.2653
 3997SOL    HW223454   0.367   1.656   2.164  0.8487 -0.7949  1.5192
 3998SOL     OW23455   2.790   3.180  15.684 -0.0046 -0.1208 -0.3522
 3998SOL    HW123456   2.856   3.188  15.754 -0.7545  1.4671  0.1745
 3998SOL    HW223457   2.707   3.214  15.717 -0.1663 -1.2833  0.4433
 3999SOL     OW23458   2.015   3.675  11.146  0.3666  0.2031 -0.1785
 3999SOL    HW123459   2.037   3.681  11.053  0.4533 -0.2568 -0.1888
 3999SOL    HW223460   2.020   3.580  11.157  0.7187  0.5603  2.7652
 4000SOL     OW23461   1.270   2.968   5.703  0.8605 -0.2725  0.6010
 4000SOL    HW123462   1.232   2.881   5.718 -1.1035  0.2912 -1.0265
 4000SOL    HW223463   1.206   3.015   5.648  0.0352 -0.8811  1.0365
 4001SOL     OW23464   4.100   3.244  17.696  0.0327  0.9906 -0.5472
 4001SOL    HW123465   4.058   3.302  17.632  2.5057  1.0956 -2.1012
 4001SOL    HW223466   4.070   3.275   0.079  1.1982 -0.7214  0.4792
 4002SOL     OW23467   3.510   2.248  13.850 -0.4842 -1.1049 -0.2981
 4002SOL    HW123468   3.592   2.244  13.899 -1.0814 -1.9705  0.6462
 4002SOL    HW223469   3.545   2.251  13.761  1.0809 -1.1784  0.3147
 4003SOL     OW23470   1.831   3.267   2.376  0.4965  1.0585  0.6405
 4003SOL    HW123471   1.749   3.265   2.426  1.6135  2.7221  2.5355
 4003SOL    HW223472   1.878   3.344   2.409  1.9218  1.7633 -3.0543
 4004SOL     OW23473   0.109   3.784   0.294  0.0255  0.0358 -0.0316
 4004SOL    HW123474   0.171   3.853   0.318 -1.4560  1.0334  0.9283
 4004SOL    HW223475   0.161   3.735   0.231  0.8864 -1.6016  1.9518
 4005SOL     OW23476   2.313   1.364   3.963  0.1567  0.0100 -0.5800
 4005SOL    HW123477   2.360   1.441   3.996  1.7110 -1.2511  0.1550
 4005SOL    HW223478   2.248   1.408   3.910 -0.0085  0.0193 -0.3696
 4006SOL     OW23479   2.310   3.220   3.302  0.4968 -0.3813  0.3899
 4006SOL    HW123480   2.354   3.136   3.293  0.7002 -0.0019 -1.9935
 4006SOL    HW223481   2.237   3.204   3.242 -0.2960  4.3269  0.0720
 4007SOL     OW23482   1.357   3.662   2.373  0.5667  0.7717 -0.3183
 4007SOL    HW123483   1.316   3.714   2.304 -1.4114 -1.7009 -1.0068
 4007SOL    HW223484   1.382   3.735   2.429  0.3471 -1.0836  2.1823
 4008SOL     OW23485   2.409   3.662   5.471 -0.0301 -0.1136 -0.0278
 4008SOL    HW123486   2.464   3.721   5.523 -0.1724 -0.9460  1.0766
 4008SOL    HW223487   2.372   3.725   5.409  0.1051 -1.6110 -1.6357
 4009SOL     OW23488   1.023   0.993   3.545  0.0698  0.4585  0.5575
 4009SOL    HW123489   0.964   0.934   3.498  0.1117 -0.2816  1.4592
 4009SOL    HW223490   0.989   0.978   3.633 -1.0807 -0.3491 -0.0228
 4010SOL     OW23491   2.913   3.298   7.158  0.0371  0.4588  0.1818
 4010SOL    HW123492   2.851   3.366   7.132 -0.1416  0.5167  0.7758
 4010SOL    HW223493   2.843   3.237   7.177  0.0599 -0.4962 -2.7519
 4011SOL     OW23494   0.885   4.332   3.202  0.0149  0.3971 -0.1606
 4011SOL    HW123495   0.924   4.418   3.187  0.1903  0.3462 -0.0004
 4011SOL    HW223496   0.895   4.302   3.112  0.8482 -0.5590  0.2514
 4012SOL     OW23497   2.328   2.920   5.139  0.0580  0.3825  0.0052
 4012SOL    HW123498   2.304   3.004   5.180 -1.3767 -0.4832  0.9330
 4012SOL    HW223499   2.263   2.857   5.169  2.3341 -1.5236  0.9212
 4013SOL     OW23500   2.900   1.733   5.393 -0.3925 -0.3748 -0.6010
 4013SOL    HW123501   2.813   1.728   5.353 -0.9278  0.4280  0.4672
 4013SOL    HW223502   2.895   1.671   5.466  2.4230 -0.6652 -0.6410
 4014SOL     OW23503   0.099   1.768   6.868 -0.4317 -0.8778 -0.4802
 4014SOL    HW123504   0.110   1.758   6.962 -1.0188  0.4015 -0.2801
 4014SOL    HW223505   0.110   1.678   6.837 -1.1366 -1.4696  1.0281
 4015SOL     OW23506   0.435   3.385   3.542 -0.1724 -0.3752  0.1421
 4015SOL    HW123507   0.478   3.336   3.472  0.6418  0.8261 -0.1922
 4015SOL    HW223508   0.367   3.425   3.489  0.5324  1.6093  0.7390
 4016SOL     OW23509   4.377   2.323   6.769  0.4846 -0.4276  0.0241
 4016SOL    HW123510   4.453   2.343   6.714 -0.0752  3.0137  0.5015
 4016SOL    HW223511   4.316   2.394   6.748  1.8644  0.6994 -0.2106
 4017SOL     OW23512   2.583   1.419   2.942  0.0330 -0.0342 -0.3833
 4017SOL    HW123513   2.617   1.355   3.005 -3.2493 -2.6056 -1.2269
 4017SOL    HW223514   2.665   1.452   2.905  0.4480  0.7775  1.2578
 4018SOL     OW23515   3.501   2.614   3.049  0.0808 -0.9740 -0.4561
 4018SOL    HW123516   3.480   2.707   3.057  2.1774 -0.7969  3.3963
 4018SOL    HW223517   3.427   2.584   2.997  0.0742  0.3401 -1.2090
 4019SOL     OW23518   2.637   0.294   6.936 -0.0567 -0.1391 -0.1237
 4019SOL    HW123519   2.686   0.214   6.954 -1.7323 -1.0984  0.1412
 4019SOL    HW223520   2.671   0.339   7.014  0.8364  0.2153 -0.7044
 4020SOL     OW23521   0.367   1.727  14.487 -0.1647  0.0038 -0.2933
 4020SOL    HW123522   0.425   1.675  14.431 -0.5940  0.9790 -1.6459
 4020SOL    HW223523   0.418   1.808  14.486 -1.4948  0.8617  1.8385
 4021SOL     OW23524   3.606   0.581   7.655 -0.2656 -0.3084 -0.3142
 4021SOL    HW123525   3.645   0.584   7.742  1.2242 -0.4045 -0.9783
 4021SOL    HW223526   3.514   0.584   7.681 -0.3762 -1.4420 -0.5489
 4022SOL     OW23527   4.702   0.239   6.687  0.1260  0.1275 -0.0731
 4022SOL    HW123528   4.640   0.285   6.743 -1.2741 -0.3451 -1.2347
 4022SOL    HW223529   0.044   0.306   6.675 -0.0615  0.4872  0.8797
 4023SOL     OW23530   0.320   1.965  14.142  0.7072 -0.7441 -0.4152
 4023SOL    HW123531   0.236   1.936  14.177  0.2054  2.6010  1.1138
 4023SOL    HW223532   0.307   1.952  14.048 -0.0300 -1.5063 -0.2124
 4024SOL     OW23533   4.620   3.264   2.927 -0.3631 -0.0011  0.0988
 4024SOL    HW123534   4.638   3.350   2.965  0.0434  0.2464 -0.6427
 4024SOL    HW223535   4.540   3.239   2.973 -0.6811  1.8991  0.5532
 4025SOL     OW23536   0.873   4.369   4.349  0.6739 -0.0836 -0.0704
 4025SOL    HW123537   0.875   4.286   4.397 -1.2750 -0.5497 -0.7828
 4025SOL    HW223538   0.780   4.382   4.327  0.5455 -1.1616 -0.1301
 4026SOL     OW23539   2.906   0.967  14.139 -0.4159  0.0367  0.1754
 4026SOL    HW123540   2.847   1.030  14.098  2.1884  0.7645 -2.4437
 4026SOL    HW223541   2.939   1.017  14.214  1.8835 -1.6084  0.2284
 4027SOL     OW23542   3.036   2.352   2.027  0.0626  0.2799  0.4167
 4027SOL    HW123543   3.010   2.363   1.935  0.5401  0.9230  0.3594
 4027SOL    HW223544   2.952   2.352   2.072  0.3993 -3.0207  1.0977
 4028SOL     OW23545   1.787   4.715   4.562  0.6829  0.1796 -0.2568
 4028SOL    HW123546   1.839   0.041   4.624  1.2209  1.7313 -2.0176
 4028SOL    HW223547   1.698   0.020   4.582  1.2013  1.0256  0.7255
 4029SOL     OW23548   0.210   3.588   6.278  0.5213  0.0310  0.2832
 4029SOL    HW123549   0.270   3.646   6.230  1.6680 -1.1976  0.2151
 4029SOL    HW223550   0.259   3.586   6.360 -0.9388  1.1644  1.1818
 4030SOL     OW23551   0.087   2.576   1.795 -0.2590 -0.4649 -0.6678
 4030SOL    HW123552   0.177   2.568   1.828 -0.0841 -0.5436 -1.1649
 4030SOL    HW223553   0.066   2.661   1.835 -1.4954  0.4268 -3.1999
 4031SOL     OW23554   0.491   2.628   0.492  0.3148  0.0902 -0.2104
 4031SOL    HW123555   0.400   2.612   0.517  0.7950 -0.7384  1.0261
 4031SOL    HW223556   0.546   2.563   0.536 -1.2236 -1.8015 -1.0572
 4032SOL     OW23557   1.708   1.805  17.296  0.1542 -0.0005  0.5441
 4032SOL    HW123558   1.713   1.800  17.200  0.1326 -3.9490  0.7662
 4032SOL    HW223559   1.783   1.751  17.321 -0.2311 -0.7946 -0.0046
 4033SOL     OW23560   1.674   0.945   5.954  0.5015 -0.5973 -0.2206
 4033SOL    HW123561   1.580   0.963   5.959  0.5211 -0.2851 -1.0113
 4033SOL    HW223562   1.702   0.971   6.042 -0.1873 -0.7257  0.0401
 4034SOL     OW23563   1.064   0.565  15.529  0.3187 -0.0676 -0.0970
 4034SOL    HW123564   1.158   0.555  15.545  0.1545 -1.1054  0.2068
 4034SOL    HW223565   1.058   0.505  15.454 -2.4718  0.4892 -0.3234
 4035SOL     OW23566   4.249   0.468   9.230 -0.3050  0.1575  0.5458
 4035SOL    HW123567   4.295   0.509   9.157 -0.1846  0.5082  0.8205
 4035SOL    HW223568   4.293   0.505   9.306  1.7182  1.8880 -1.4690
 4036SOL     OW23569   1.052   1.106  12.182  0.6730 -0.6536  0.1762
 4036SOL    HW123570   0.985   1.167  12.214  0.7011  0.2292 -1.4383
 4036SOL    HW223571   1.020   1.063  12.103 -2.1264  0.8872  0.4738
 4037SOL     OW23572   0.534   3.694   0.287  0.1128  0.1835 -0.1565
 4037SOL    HW123573   0.466   3.722   0.347  1.4191 -0.3205  1.5808
 4037SOL    HW223574   0.597   3.651   0.346 -1.2288  1.4705  2.2339
 4038SOL     OW23575   1.472   3.279   1.504 -0.3117 -0.2390 -0.3298
 4038SOL    HW123576   1.491   3.193   1.542 -0.0433  0.2687  0.6998
 4038SOL    HW223577   1.456   3.331   1.583  2.3341 -2.7557  1.9247
 4039SOL     OW23578   4.138   1.825   1.075  0.0738  0.5505 -0.3668
 4039SOL    HW123579   4.089   1.751   1.110  0.3170  0.0170 -1.1610
 4039SOL    HW223580   4.179   1.871   1.149  2.6519 -0.9770 -0.8557
 4040SOL     OW23581   1.083   3.487   6.525 -0.3824 -0.4082 -0.7030
 4040SOL    HW123582   1.149   3.461   6.460 -1.2300 -0.1996 -1.6485
 4040SOL    HW223583   1.047   3.570   6.493  2.0673  1.1041  0.3831
 4041SOL     OW23584   0.713   4.084   8.322 -0.3886 -0.1153  0.2344
 4041SOL    HW123585   0.663   4.028   8.263 -0.5519  1.6598 -1.3432
 4041SOL    HW223586   0.686   4.172   8.295 -3.3426 -1.7584 -2.1333
 4042SOL     OW23587   0.487   2.812   7.757  0.1212  0.5482  0.2300
 4042SOL    HW123588   0.570   2.805   7.709 -0.3853  2.2183 -0.8730
 4042SOL    HW223589   0.497   2.899   7.794 -0.0559  0.6566  0.0196
 4043SOL     OW23590   3.326   4.342   7.171 -0.4830  0.6098 -0.0367
 4043SOL    HW123591   3.300   4.272   7.111 -1.7026  0.6710  0.4231
 4043SOL    HW223592   3.263   4.404   7.133 -0.0352 -0.0685 -1.9156
 4044SOL     OW23593   3.269   0.963   8.518  0.2342 -0.2471 -0.0678
 4044SOL    HW123594   3.255   1.043   8.468 -2.1119  0.9458  2.5725
 4044SOL    HW223595   3.354   0.938   8.481  1.4970  2.5213  0.9584
 4045SOL     OW23596   2.973   1.155   9.460 -0.2639 -0.4826  0.2184
 4045SOL    HW123597   2.887   1.113   9.463 -0.1893 -0.6373  0.2258
 4045SOL    HW223598   2.985   1.180   9.552  0.0959  0.8986 -0.2142
 4046SOL     OW23599   1.739   1.244   2.213 -0.7513 -0.0829 -0.3282
 4046SOL    HW123600   1.663   1.271   2.162 -2.5051 -2.8602  0.8251
 4046SOL    HW223601   1.702   1.177   2.271  1.0623  1.9721  3.2332
 4047SOL     OW23602   3.031   3.767   8.807 -0.0191  0.0575 -0.0158
 4047SOL    HW123603   3.050   3.735   8.719  2.2189  0.0880  0.4499
 4047SOL    HW223604   3.100   3.833   8.817 -0.2384 -0.0536  2.2004
 4048SOL     OW23605   2.160   0.605   1.319 -0.8248  0.4226  0.9310
 4048SOL    HW123606   2.096   0.556   1.267 -1.4649  0.6029  1.5470
 4048SOL    HW223607   2.155   0.561   1.404  0.2962  1.0064  1.2913
 4049SOL     OW23608   1.665   0.641   3.953 -0.5777  0.1808 -0.5808
 4049SOL    HW123609   1.610   0.574   3.994 -2.1055  1.5963 -0.2925
 4049SOL    HW223610   1.644   0.716   4.009 -0.0850 -1.0155  1.2307
 4050SOL     OW23611   4.592   3.681   6.419 -0.3296  0.7184  0.2341
 4050SOL    HW123612   4.665   3.733   6.453 -0.5712  2.4267 -1.8661
 4050SOL    HW223613   4.528   3.749   6.403 -1.3967 -0.5163 -0.7341
 4051SOL     OW23614   4.294   3.024   5.041 -0.2529  0.4583 -0.1500
 4051SOL    HW123615   4.364   3.026   4.976  1.2264 -2.7010  1.3601
 4051SOL    HW223616   4.326   3.105   5.081 -0.5214 -1.1044  3.2016
 4052SOL     OW23617   3.283   1.308   5.197  0.9693 -0.2094 -0.2008
 4052SOL    HW123618   3.255   1.248   5.265 -4.1443  1.0078 -1.2333
 4052SOL    HW223619   3.311   1.246   5.129  0.0792 -0.8645  0.0335
 4053SOL     OW23620   3.419   0.008  12.510 -0.1402  0.8769 -0.1952
 4053SOL    HW123621   3.486   0.035  12.448 -0.4058 -1.8752 -1.6746
 4053SOL    HW223622   3.427   4.639  12.495  0.4392  0.9035 -0.0373
 4054SOL     OW23623   4.262   1.001  10.707 -0.4905  0.3560  0.0686
 4054SOL    HW123624   4.313   0.939  10.653 -0.1972 -0.4157  1.2228
 4054SOL    HW223625   4.175   0.966  10.687 -1.0366  1.5455  0.4344
 4055SOL     OW23626   3.290   3.086  13.236  0.1853  0.2098 -0.2943
 4055SOL    HW123627   3.312   3.167  13.191  0.8213  0.7949  1.0849
 4055SOL    HW223628   3.369   3.038  13.211 -1.1395 -1.2611 -1.6465
 4056SOL     OW23629   4.292   3.275  16.928 -0.1486  0.0011  0.0731
 4056SOL    HW123630   4.370   3.289  16.982 -0.0315 -1.2515  0.2324
 4056SOL    HW223631   4.315   3.188  16.894  0.1257  0.6982 -1.5260
 4057SOL     OW23632   1.217   3.527  10.183  0.2066  0.1435 -0.0477
 4057SOL    HW123633   1.196   3.591  10.251 -1.0345  0.7179 -0.9746
 4057SOL    HW223634   1.263   3.584  10.122 -3.6262  0.0816 -2.9606
 4058SOL     OW23635   2.824   2.849   4.852 -0.1511 -0.1455 -0.1554
 4058SOL    HW123636   2.793   2.803   4.774 -3.0584 -0.4985  1.2032
 4058SOL    HW223637   2.755   2.820   4.912 -1.3201  0.0679 -1.3725
 4059SOL     OW23638   3.419   0.091   0.768 -0.3609 -0.4807 -0.4242
 4059SOL    HW123639   3.332   0.084   0.807  0.0723 -0.0844  0.6282
 4059SOL    HW223640   3.481   0.101   0.841  0.3610 -0.3717 -1.0608
 4060SOL     OW23641   4.484   4.530  11.116 -0.1102  0.4291  0.3275
 4060SOL    HW123642   4.503   4.624  11.114  1.9044 -0.0410 -2.5353
 4060SOL    HW223643   4.475   4.508  11.023 -0.6503 -1.1195  0.7592
 4061SOL     OW23644   3.128   1.233   6.437 -0.0286 -0.3140  0.3278
 4061SOL    HW123645   3.185   1.307   6.455 -0.6222 -0.2705  2.0501
 4061SOL    HW223646   3.040   1.266   6.423  1.9978  3.3973 -3.8747
 4062SOL     OW23647   3.069   1.120   4.259  1.0482  0.2661 -0.1428
 4062SOL    HW123648   3.091   1.207   4.291  1.3347  1.1582 -2.7862
 4062SOL    HW223649   3.024   1.138   4.176 -0.2695 -1.2848  0.2111
 4063SOL     OW23650   2.278   2.690   9.415 -0.7622 -0.1489 -0.8885
 4063SOL    HW123651   2.250   2.767   9.366  0.0483  1.5078  1.2654
 4063SOL    HW223652   2.238   2.699   9.501  0.2512 -0.4793 -0.3930
 4064SOL     OW23653   1.629   2.055   7.940 -0.5161 -0.3157 -0.7733
 4064SOL    HW123654   1.621   2.084   8.031  0.0122 -0.4643 -0.6777
 4064SOL    HW223655   1.555   2.104   7.905  0.1289 -0.9175 -2.9795
 4065SOL     OW23656   0.589   0.546   3.855 -0.3379  0.6094 -0.1151
 4065SOL    HW123657   0.532   0.565   3.929 -1.9367 -0.7734 -0.9897
 4065SOL    HW223658   0.527   0.494   3.803 -0.9925  1.0018  0.2812
 4066SOL     OW23659   0.763   3.536   1.819  0.6664 -0.7545 -0.7026
 4066SOL    HW123660   0.812   3.459   1.792  1.3696 -0.2531 -0.8592
 4066SOL    HW223661   0.744   3.521   1.912  1.8900 -2.0412 -0.6648
 4067SOL     OW23662   4.691   4.699   7.755 -0.1697 -0.4373 -0.3258
 4067SOL    HW123663   4.663   4.704   7.664  0.8373  1.1947 -0.5431
 4067SOL    HW223664   4.615   0.007   7.804  1.1815 -1.0494  2.1904
 4068SOL     OW23665   4.684   1.686   0.367  0.6905 -0.4043  0.3605
 4068SOL    HW123666   4.681   1.610   0.310 -0.6522  0.6431 -0.9656
 4068SOL    HW223667   0.015   1.655   0.438  0.6586  0.7015  0.8764
 4069SOL     OW23668   3.177   0.520   0.181  0.5950 -0.2044 -0.2188
 4069SOL    HW123669   3.133   0.508   0.097  2.0110  1.8073 -1.2722
 4069SOL    HW223670   3.195   0.614   0.193  3.5739 -1.0607  2.0055
 4070SOL     OW23671   0.597   2.747   2.940 -0.4348  0.0111  0.0754
 4070SOL    HW123672   0.639   2.818   2.988 -2.6177 -0.2868  2.4157
 4070SOL    HW223673   0.637   2.672   2.984 -2.3843 -0.3352  1.2542
 4071SOL     OW23674   0.365   1.465   4.698  0.1854 -0.0529  0.5286
 4071SOL    HW123675   0.449   1.459   4.744 -0.0484 -2.8336  0.5890
 4071SOL    HW223676   0.393   1.409   4.625 -2.2558 -1.2943  0.5464
 4072SOL     OW23677   3.765   2.050  11.103  0.3400 -0.7566  0.0173
 4072SOL    HW123678   3.772   2.140  11.071 -3.1183 -0.7047 -0.6158
 4072SOL    HW223679   3.857   2.022  11.108  0.7941  0.7863  0.1821
 4073SOL     OW23680   1.123   0.997   1.042 -0.6763 -0.1498  0.0660
 4073SOL    HW123681   1.119   1.091   1.026  1.6930 -0.2125 -0.8798
 4073SOL    HW223682   1.218   0.992   1.045 -0.7083 -0.9701 -0.2935
 4074SOL     OW23683   4.289   0.088  12.737 -0.2907  0.7888 -0.0999
 4074SOL    HW123684   4.351   0.132  12.679  0.3066  0.9816  0.6785
 4074SOL    HW223685   4.235   0.045  12.670 -2.2698  2.3166  0.5098
 4075SOL     OW23686   2.370   2.691   6.331 -0.2088  0.4015 -0.7406
 4075SOL    HW123687   2.313   2.704   6.407  0.5077  0.2125 -0.1829
 4075SOL    HW223688   2.392   2.598   6.322 -0.4766  0.2383  0.2914
 4076SOL     OW23689   0.195   1.854   3.054 -0.5930  0.1904  0.1789
 4076SOL    HW123690   0.125   1.904   3.097  0.7218  2.0415  0.1571
 4076SOL    HW223691   0.266   1.918   3.052  0.8752 -1.4286  0.3164
 4077SOL     OW23692   4.478   4.381   5.302 -0.0746  0.4674 -0.3238
 4077SOL    HW123693   4.510   4.438   5.371  1.2285 -1.3005  0.5451
 4077SOL    HW223694   4.563   4.340   5.288  0.2119  0.8114  0.3870
 4078SOL     OW23695   3.051   2.556   3.178 -0.2602 -0.2183  0.0921
 4078SOL    HW123696   2.977   2.498   3.200  1.3278 -1.9657  0.8819
 4078SOL    HW223697   3.016   2.642   3.200 -4.2477 -1.5040 -1.2569
 4079SOL     OW23698   0.651   3.769  15.761 -0.0065 -0.8993 -0.1229
 4079SOL    HW123699   0.708   3.812  15.697  1.4996 -0.8322  1.2682
 4079SOL    HW223700   0.569   3.817  15.747 -0.0473 -0.7578  0.6269
 4080SOL     OW23701   2.186   4.516   2.532  0.2486 -0.0606 -0.0766
 4080SOL    HW123702   2.141   4.593   2.497  1.4473  0.0574 -1.3555
 4080SOL    HW223703   2.208   4.539   2.622  1.2336  0.0621 -0.3448
 4081SOL     OW23704   3.517   1.503   2.562  0.3937 -0.0379 -0.5673
 4081SOL    HW123705   3.473   1.422   2.588 -1.1395 -0.3102 -4.0343
 4081SOL    HW223706   3.471   1.519   2.480 -2.4377 -1.5117  0.7482
 4082SOL     OW23707   4.066   4.021   5.290 -0.1632  0.6384 -0.4133
 4082SOL    HW123708   4.138   4.082   5.309  0.3882 -0.2836  0.4114
 4082SOL    HW223709   3.994   4.079   5.266 -0.9957 -0.4430 -0.4884
 4083SOL     OW23710   2.405   2.986   3.500  0.0971  0.0782 -0.5877
 4083SOL    HW123711   2.391   3.077   3.526 -0.0478  0.0735 -0.6484
 4083SOL    HW223712   2.478   2.990   3.438  0.3102 -1.1541 -0.4175
 4084SOL     OW23713   0.952   2.920   4.867 -0.5430  0.4464  0.2051
 4084SOL    HW123714   1.040   2.896   4.895 -0.5536 -0.9564 -0.9745
 4084SOL    HW223715   0.905   2.838   4.878  1.1541 -0.0836  3.3637
 4085SOL     OW23716   4.440   4.319   2.309 -0.7449  0.3275 -0.1747
 4085SOL    HW123717   4.387   4.239   2.309 -2.5419  1.5044 -0.2262
 4085SOL    HW223718   4.526   4.277   2.310 -0.4440  0.8629 -3.3774
 4086SOL     OW23719   1.223   0.854   6.819  0.2513 -0.3410 -0.0136
 4086SOL    HW123720   1.266   0.832   6.902  0.7446 -0.8132 -0.3978
 4086SOL    HW223721   1.249   0.945   6.809 -0.2634 -0.4041 -1.7764
 4087SOL     OW23722   0.987   3.910   8.907 -0.3761 -0.0634  0.2006
 4087SOL    HW123723   1.007   3.963   8.830 -0.5516 -0.0082  0.1931
 4087SOL    HW223724   1.075   3.900   8.942 -0.8741 -1.4010  1.0632
 4088SOL     OW23725   0.129   0.076   7.309 -0.1340 -0.4515  0.2450
 4088SOL    HW123726   0.073   0.031   7.372 -0.8059 -0.2777 -0.2266
 4088SOL    HW223727   0.215   0.060   7.347 -1.2325  0.5509  3.1922
 4089SOL     OW23728   0.060   1.122  11.555  0.4539 -0.1408 -0.1545
 4089SOL    HW123729   0.126   1.191  11.567 -0.3020  0.5488  0.0056
 4089SOL    HW223730   0.112   1.054  11.513  2.0636  0.6381  0.5674
 4090SOL     OW23731   3.201   1.643  15.619 -0.3849 -0.3493 -0.1864
 4090SOL    HW123732   3.229   1.732  15.599 -0.3655 -0.1037  0.8915
 4090SOL    HW223733   3.145   1.663  15.694  1.3632 -1.7859  1.5018
 4091SOL     OW23734   3.665   2.772   1.452  0.3321 -0.3113  0.0700
 4091SOL    HW123735   3.709   2.724   1.382  0.6108 -0.3184  0.2498
 4091SOL    HW223736   3.671   2.712   1.527  0.1567  0.6619  0.8625
 4092SOL     OW23737   0.118   4.586  11.594  0.0285  0.0874  0.3102
 4092SOL    HW123738   0.059   4.543  11.532 -0.4354  2.0761 -0.6244
 4092SOL    HW223739   0.183   4.518  11.606  0.2357 -0.1360 -2.1723
 4093SOL     OW23740   0.933   0.459   2.230 -0.6668 -0.0766  0.5843
 4093SOL    HW123741   0.927   0.554   2.220  1.0451  0.1812  1.8229
 4093SOL    HW223742   0.863   0.428   2.173 -0.0388 -1.7078  0.7032
 4094SOL     OW23743   2.601   4.457   6.963 -0.0819 -0.3814  0.1967
 4094SOL    HW123744   2.688   4.433   6.931 -0.7434 -1.6989 -0.5964
 4094SOL    HW223745   2.546   4.382   6.940  0.7141 -0.3572 -1.7584
 4095SOL     OW23746   4.303   2.586   7.260 -0.7699  0.0406 -0.7958
 4095SOL    HW123747   4.271   2.516   7.317 -1.2292  0.8496 -0.0580
 4095SOL    HW223748   4.360   2.539   7.199  2.1368  1.1246  1.0970
 4096SOL     OW23749   4.590   4.375   4.995 -0.5121  0.1094 -0.1755
 4096SOL    HW123750   4.644   4.440   5.039 -2.9252  0.7913  1.7436
 4096SOL    HW223751   4.648   4.299   5.008  1.3841  1.5710 -0.1211
 4097SOL     OW23752   2.327   3.198   1.956 -0.1940 -0.1328 -0.4337
 4097SOL    HW123753   2.309   3.119   2.006 -0.4568 -0.1635 -0.5730
 4097SOL    HW223754   2.375   3.247   2.022  0.2317 -0.6925 -0.3331
 4098SOL     OW23755   3.264   0.450   3.408  0.6592  0.4936  0.4092
 4098SOL    HW123756   3.278   0.366   3.365  0.0769  0.0584  1.0705
 4098SOL    HW223757   3.168   0.451   3.417  0.4375 -0.0050 -1.8694
 4099SOL     OW23758   3.333   0.054  15.866 -0.0024  0.0626  0.3857
 4099SOL    HW123759   3.319   0.147  15.882  1.6508  0.2228  0.9583
 4099SOL    HW223760   3.241   0.029  15.855  0.2109 -0.3356 -0.5297
 4100SOL     OW23761   4.424   3.790   5.947  0.2147  0.3803  0.0068
 4100SOL    HW123762   4.395   3.723   5.885 -1.1970  1.4018 -0.4463
 4100SOL    HW223763   4.342   3.837   5.961 -0.2702 -0.1176 -1.1245
 4101SOL     OW23764   0.317   0.366   7.056 -0.3978 -0.3596  0.3823
 4101SOL    HW123765   0.397   0.320   7.031 -1.5571 -1.5521 -1.1356
 4101SOL    HW223766   0.251   0.316   7.007 -0.3793 -2.1884  2.1945
 4102SOL     OW23767   1.076   1.416   5.003 -0.1173 -0.1664 -0.6808
 4102SOL    HW123768   1.044   1.456   5.084 -0.3217 -1.2525 -0.2256
 4102SOL    HW223769   1.146   1.473   4.970 -1.2893  0.8938 -1.3524
 4103SOL     OW23770   0.789   4.293   0.210 -0.0878  0.1768  0.0232
 4103SOL    HW123771   0.758   4.265   0.124  0.3160  0.1881 -0.1281
 4103SOL    HW223772   0.791   4.388   0.199  1.7472  0.3917  2.1411
 4104SOL     OW23773   2.757   3.800   8.862  0.4930 -0.4911  0.1413
 4104SOL    HW123774   2.733   3.853   8.786 -1.6705 -0.8573  0.5626
 4104SOL    HW223775   2.852   3.798   8.849 -0.0454  1.0029 -3.8265
 4105SOL     OW23776   1.555   3.449   0.771  0.1887 -0.9843 -0.0690
 4105SOL    HW123777   1.469   3.434   0.732  0.5750 -1.4533 -0.7347
 4105SOL    HW223778   1.569   3.369   0.820 -0.3863 -0.7503  0.4786
 4106SOL     OW23779   1.537   2.339   6.359 -0.2656  0.0675 -0.1589
 4106SOL    HW123780   1.555   2.286   6.281 -0.2845  0.5568 -0.5003
 4106SOL    HW223781   1.593   2.412   6.332  2.3449 -2.5610 -1.8032
 4107SOL     OW23782   1.671   0.217   1.294  0.5961  0.4176  0.0223
 4107SOL    HW123783   1.746   0.242   1.349  1.9421 -1.9669 -0.7304
 4107SOL    HW223784   1.701   0.221   1.203 -0.2431  0.6831 -0.2404
 4108SOL     OW23785   3.961   4.263   5.117 -0.2468  0.0636  0.5478
 4108SOL    HW123786   4.048   4.270   5.078  0.5179  0.4154  2.3212
 4108SOL    HW223787   3.968   4.313   5.198  0.9896 -1.4720  1.3952
 4109SOL     OW23788   4.528   4.226  12.376  0.6938 -0.3368 -0.2012
 4109SOL    HW123789   4.526   4.270  12.292  1.8664 -0.9504 -0.5546
 4109SOL    HW223790   4.536   4.304  12.431 -1.4736 -0.6786  0.6228
 4110SOL     OW23791   0.844   1.104   8.497 -0.8083 -0.2661  0.0455
 4110SOL    HW123792   0.851   1.116   8.592 -2.0538  2.4117 -0.1968
 4110SOL    HW223793   0.925   1.143   8.464  0.0360 -3.2377 -1.3708
 4111SOL     OW23794   4.217   1.124   6.852  0.2857 -0.3353  0.0803
 4111SOL    HW123795   4.259   1.154   6.933 -0.7572  1.0604  0.1058
 4111SOL    HW223796   4.298   1.121   6.802  1.7518  1.3002  2.3183
 4112SOL     OW23797   0.358   3.346   4.629 -0.2021  0.2017  0.3311
 4112SOL    HW123798   0.319   3.346   4.542 -0.9227 -1.7949  0.6617
 4112SOL    HW223799   0.294   3.384   4.690 -1.1270 -0.4122 -0.2623
 4113SOL     OW23800   4.338   3.238   6.657  0.5938 -0.1345  0.3205
 4113SOL    HW123801   4.292   3.312   6.695  0.4388 -0.1917  0.2418
 4113SOL    HW223802   4.257   3.190   6.639  0.4347  0.2463  0.0229
 4114SOL     OW23803   1.101   4.393   4.128  0.2239 -0.9592  0.1832
 4114SOL    HW123804   1.054   4.314   4.102 -1.4603  0.7068 -1.8879
 4114SOL    HW223805   1.104   4.388   4.224  1.5464 -3.5683 -0.0050
 4115SOL     OW23806   2.593   2.597   8.391 -0.2790 -0.3820 -0.2862
 4115SOL    HW123807   2.516   2.618   8.443  0.6511 -1.0131  1.3566
 4115SOL    HW223808   2.640   2.547   8.458 -1.0980 -0.6067  0.1106
 4116SOL     OW23809   4.108   4.659   8.470  0.1614  0.2992  0.2298
 4116SOL    HW123810   4.082   4.710   8.393  2.5368  1.0516 -0.0660
 4116SOL    HW223811   4.170   4.598   8.429 -1.3469 -1.3834  0.4216
 4117SOL     OW23812   3.024   2.599   6.379 -0.0451  0.2728  0.1145
 4117SOL    HW123813   2.971   2.553   6.443 -1.2603  0.9168 -0.4214
 4117SOL    HW223814   3.051   2.673   6.433  0.0884 -0.2942  0.8209
 4118SOL     OW23815   2.415   4.390   2.800  0.4962  0.2549 -0.3883
 4118SOL    HW123816   2.421   4.437   2.883 -2.6710  2.3651 -1.3894
 4118SOL    HW223817   2.331   4.345   2.806  0.3447  0.5674 -0.1912
 4119SOL     OW23818   1.958   1.828   1.172  0.4338  0.0028 -0.1056
 4119SOL    HW123819   2.019   1.861   1.238  1.0121 -0.0453 -0.6069
 4119SOL    HW223820   1.950   1.906   1.117  1.8516 -1.2448 -2.0714
 4120SOL     OW23821   4.002   2.192  15.399 -0.1046 -0.3888 -0.3033
 4120SOL    HW123822   3.933   2.200  15.466  3.3425 -1.9005  3.4484
 4120SOL    HW223823   4.050   2.275  15.410  1.4575 -1.6897  2.8899
 4121SOL     OW23824   4.534   1.304   9.855  0.2032  0.2698  0.1804
 4121SOL    HW123825   4.466   1.264   9.910  0.2596 -1.3242 -0.9003
 4121SOL    HW223826   4.569   1.377   9.907  1.1235 -1.3358  1.8071
 4122SOL     OW23827   4.081   1.751   8.125 -0.4737 -0.0680  0.0976
 4122SOL    HW123828   4.169   1.746   8.087 -0.5368  1.7128 -0.3065
 4122SOL    HW223829   4.025   1.764   8.047  0.0579 -1.6546 -0.5416
 4123SOL     OW23830   4.599   3.997   6.025  0.1162  0.3744  0.1270
 4123SOL    HW123831   4.602   4.022   5.932 -0.3227 -0.5794 -0.1419
 4123SOL    HW223832   4.549   3.917   6.009  0.8399  0.0530 -0.5288
 4124SOL     OW23833   4.417   1.836   3.592  0.0426 -0.5319 -0.5045
 4124SOL    HW123834   4.511   1.821   3.598 -0.4509 -2.4864  2.0484
 4124SOL    HW223835   4.415   1.927   3.564  1.9608 -0.3226  0.0056
 4125SOL     OW23836   1.651   0.535  11.007  0.0233  0.4016 -0.1523
 4125SOL    HW123837   1.610   0.477  10.943 -1.3837  1.8403 -0.5670
 4125SOL    HW223838   1.672   0.612  10.954  0.8694  0.1066 -0.2428
 4126SOL     OW23839   2.849   3.791   8.191  0.6722  0.1406 -0.1747
 4126SOL    HW123840   2.839   3.763   8.100  2.1311 -2.0029  0.3200
 4126SOL    HW223841   2.762   3.824   8.216  1.1979 -0.7761  2.9076
 4127SOL     OW23842   0.580   2.859   1.008 -0.1974 -0.0700 -0.3820
 4127SOL    HW123843   0.596   2.877   1.101 -1.6252  0.9860 -0.3506
 4127SOL    HW223844   0.552   2.768   1.020  0.0534 -0.0455  0.4154
 4128SOL     OW23845   2.585   3.408   3.420  0.1663 -0.1663 -0.0754
 4128SOL    HW123846   2.664   3.368   3.457  0.7885  1.6293  0.5459
 4128SOL    HW223847   2.513   3.345   3.418 -0.2879  0.4593 -2.6552
 4129SOL     OW23848   3.200   2.194   6.019 -0.4391  0.3623 -0.0086
 4129SOL    HW123849   3.209   2.243   6.101  1.1596 -1.9222  1.1978
 4129SOL    HW223850   3.231   2.257   5.955 -0.2345  1.1758  0.8966
 4130SOL     OW23851   2.358   3.054   2.962 -0.3314  0.2447 -0.3223
 4130SOL    HW123852   2.281   3.110   2.951  0.1390  1.2354  1.6038
 4130SOL    HW223853   2.337   3.009   3.043 -3.0825 -0.4006 -1.3926
 4131SOL     OW23854   2.463   0.010   6.176  0.2841  0.3530  0.1312
 4131SOL    HW123855   2.484   0.101   6.200  1.0083  0.5814 -1.4083
 4131SOL    HW223856   2.368   0.016   6.176  0.4273  2.4179 -2.6649
 4132SOL     OW23857   3.261   2.453  12.248  0.2218 -0.0931 -0.4922
 4132SOL    HW123858   3.198   2.523  12.231  0.2792  0.0765  0.0056
 4132SOL    HW223859   3.243   2.406  12.166 -1.4256  1.0999 -0.8039
 4133SOL     OW23860   2.242   2.684   5.540 -0.4008 -0.0478 -0.2721
 4133SOL    HW123861   2.201   2.769   5.529 -2.3021 -1.0351 -0.8334
 4133SOL    HW223862   2.272   2.686   5.631  0.5820  0.2893 -0.6023
 4134SOL     OW23863   1.274   3.164   8.685 -0.0233 -0.0361  0.2975
 4134SOL    HW123864   1.312   3.138   8.769  0.5121 -0.0612  0.0492
 4134SOL    HW223865   1.301   3.098   8.621 -1.2456  0.4692 -0.7444
 4135SOL     OW23866   0.747   0.295  17.317 -0.1585 -0.2499  0.1625
 4135SOL    HW123867   0.814   0.356  17.287 -1.4218  0.3714 -1.4305
 4135SOL    HW223868   0.682   0.313  17.248 -2.4053 -1.5072  1.9489
 4136SOL     OW23869   3.405   1.247  11.008  0.1240  0.9340 -0.1188
 4136SOL    HW123870   3.463   1.322  11.002  1.2731  0.1910  1.8961
 4136SOL    HW223871   3.331   1.297  10.972  0.7014  1.8095 -0.0872
 4137SOL     OW23872   4.291   2.079   8.759  0.1979  0.0175 -0.3973
 4137SOL    HW123873   4.249   2.086   8.845  0.1090  2.5296 -0.6629
 4137SOL    HW223874   4.229   2.023   8.712  1.3955 -2.3720  0.8373
 4138SOL     OW23875   3.887   4.146   0.335 -0.6106  0.2138  0.3151
 4138SOL    HW123876   3.936   4.204   0.393  1.0576 -0.0488 -0.8363
 4138SOL    HW223877   3.872   4.203   0.260  0.9947  0.5063  0.2183
 4139SOL     OW23878   4.330   3.664   5.718  0.3035 -0.5183  0.3778
 4139SOL    HW123879   4.394   3.634   5.654 -0.5365 -0.6832 -0.3895
 4139SOL    HW223880   4.257   3.604   5.702 -1.3777  1.8486 -0.7372
 4140SOL     OW23881   1.699   0.971   7.387 -0.4066 -0.3458 -0.1005
 4140SOL    HW123882   1.743   0.957   7.302  2.3035 -0.6610  1.3514
 4140SOL    HW223883   1.747   0.916   7.448  0.8664 -0.7322 -1.4452
 4141SOL     OW23884   3.813   1.014   1.814  0.4229  0.3814 -0.2011
 4141SOL    HW123885   3.896   0.967   1.801  0.9826  1.6580 -1.2486
 4141SOL    HW223886   3.785   1.022   1.722 -2.4168  2.9037  0.9080
 4142SOL     OW23887   1.603   4.144   9.063  0.7635  0.1517 -0.4314
 4142SOL    HW123888   1.521   4.102   9.090  1.1059 -0.1240  0.2164
 4142SOL    HW223889   1.580   4.211   9.000 -0.2314  0.3542  0.1438
 4143SOL     OW23890   1.999   2.705   6.251  0.6086  0.1214  0.0440
 4143SOL    HW123891   2.025   2.701   6.159  1.3596  0.0272  0.2590
 4143SOL    HW223892   2.044   2.626   6.282  1.1509  0.4063 -0.0087
 4144SOL     OW23893   4.024   0.995  11.547 -0.3023 -0.6599 -0.1577
 4144SOL    HW123894   4.116   0.982  11.570  0.2488  1.1610 -1.3110
 4144SOL    HW223895   3.981   0.968  11.628  1.3098  0.9034  1.2254
 4145SOL     OW23896   3.358   0.185   1.692  0.4421  0.1584 -0.5760
 4145SOL    HW123897   3.451   0.200   1.675  0.2269  1.6556 -0.4661
 4145SOL    HW223898   3.347   0.118   1.625 -3.1425 -0.4903  0.6905
 4146SOL     OW23899   1.722   1.012  10.048  0.4870  0.4749 -0.5413
 4146SOL    HW123900   1.799   1.052  10.007  0.9600 -1.3916 -1.4895
 4146SOL    HW223901   1.768   0.946  10.099  0.1929  0.0183 -0.8625
 4147SOL     OW23902   4.157   3.340  15.097 -0.0328  0.9387  0.1201
 4147SOL    HW123903   4.175   3.313  15.007  1.9142  1.5489  0.3313
 4147SOL    HW223904   4.119   3.262  15.138 -0.7307  2.0833  1.6323
 4148SOL     OW23905   0.154   0.872   2.158  0.3465 -0.3989 -0.0891
 4148SOL    HW123906   0.151   0.921   2.240 -0.0319 -1.6756  0.6485
 4148SOL    HW223907   0.226   0.917   2.112 -0.8766  0.8086 -0.8470
 4149SOL     OW23908   1.916   0.461  16.316  0.0464 -0.4425 -0.1233
 4149SOL    HW123909   1.847   0.495  16.259  2.1906  0.1125 -2.3486
 4149SOL    HW223910   1.861   0.409  16.375 -0.0784 -0.3033 -0.1163
 4150SOL     OW23911   1.448   1.631   1.152 -0.3022 -0.4840  0.2021
 4150SOL    HW123912   1.431   1.712   1.104 -1.2472 -1.1804 -0.6230
 4150SOL    HW223913   1.536   1.649   1.184  0.2830 -0.5424 -1.3759
 4151SOL     OW23914   0.028   3.647   8.828 -0.4674 -0.1717  0.6723
 4151SOL    HW123915   0.085   3.596   8.886  2.1882  2.5271  0.4573
 4151SOL    HW223916   0.043   3.733   8.869  0.5829 -0.3577  0.6815
 4152SOL     OW23917   3.775   3.640  15.848  0.6729  0.1158  0.0986
 4152SOL    HW123918   3.692   3.676  15.880  0.8273 -2.0141  2.9325
 4152SOL    HW223919   3.747   3.578  15.780 -0.4662  1.0389 -0.2672
 4153SOL     OW23920   2.939   4.137   2.969 -0.1232  0.1160  0.3011
 4153SOL    HW123921   2.964   4.180   2.888  1.3449  1.2870  1.3719
 4153SOL    HW223922   2.849   4.168   2.977  0.1588  1.0007 -0.0462
 4154SOL     OW23923   0.877   3.044   2.839  0.2842 -0.0757 -0.0360
 4154SOL    HW123924   0.922   3.128   2.827 -0.6026  0.6370  1.6392
 4154SOL    HW223925   0.900   3.001   2.756 -1.4774 -0.8529 -0.1131
 4155SOL     OW23926   1.455   1.991   9.531  0.1420 -0.2594 -0.2911
 4155SOL    HW123927   1.460   1.958   9.621 -0.0902  0.4967 -0.0015
 4155SOL    HW223928   1.494   1.913   9.493 -0.4903 -0.6760 -0.0856
 4156SOL     OW23929   1.045   1.130  11.837 -0.5765  0.0496 -0.0850
 4156SOL    HW123930   1.114   1.070  11.809  0.2645 -0.1478  2.4526
 4156SOL    HW223931   0.988   1.069  11.884 -1.2818  1.0131  0.3015
 4157SOL     OW23932   2.291   0.079   5.633  0.4609 -0.0864  0.1799
 4157SOL    HW123933   2.285   0.001   5.687 -2.8948 -0.0980 -0.1866
 4157SOL    HW223934   2.212   0.117   5.672 -1.8397 -3.0514 -1.6312
 4158SOL     OW23935   1.330   4.027   1.881  0.1371 -0.5989  0.3068
 4158SOL    HW123936   1.259   4.087   1.860  0.8166  0.1268  0.0756
 4158SOL    HW223937   1.411   4.061   1.843 -0.2392 -2.2391 -1.9390
 4159SOL     OW23938   2.525   3.874   4.352 -0.3099 -0.3549 -0.1335
 4159SOL    HW123939   2.589   3.807   4.328  2.2144  1.7860  0.5849
 4159SOL    HW223940   2.572   3.957   4.341  0.7997 -1.0953 -1.0764
 4160SOL     OW23941   3.283   3.615   4.304  0.3979 -0.0088  0.4555
 4160SOL    HW123942   3.227   3.575   4.371 -1.7118  1.0095 -0.6817
 4160SOL    HW223943   3.369   3.608   4.344  0.0740 -1.5758  0.8735
 4161SOL     OW23944   1.710   1.152  11.422 -0.1415 -0.0693 -0.4317
 4161SOL    HW123945   1.791   1.149  11.372 -0.2888 -0.2314 -0.6650
 4161SOL    HW223946   1.656   1.108  11.355 -0.1694  0.2619 -0.6275
 4162SOL     OW23947   4.094   1.778   6.060 -0.0113 -0.0828 -0.1446
 4162SOL    HW123948   4.177   1.745   6.026  0.1306 -1.4364  1.5110
 4162SOL    HW223949   4.127   1.862   6.092  2.4282 -1.5949  1.3242
 4163SOL     OW23950   4.033   1.622  10.892 -0.1797  0.5630 -0.2171
 4163SOL    HW123951   4.118   1.642  10.853 -0.8654 -0.5172 -2.2164
 4163SOL    HW223952   4.063   1.633  10.983  2.7865 -1.2978 -0.9534
 4164SOL     OW23953   3.855   0.884   7.057  0.1755  0.1844  0.3291
 4164SOL    HW123954   3.909   0.958   7.086  0.6030 -0.4707  1.2113
 4164SOL    HW223955   3.925   0.823   7.033  0.4377  0.4619  0.3845
 4165SOL     OW23956   3.920   3.922   0.761 -0.1859  0.0303  0.2399
 4165SOL    HW123957   3.842   3.869   0.778  1.6940 -2.9535 -0.5714
 4165SOL    HW223958   3.922   3.950   0.669 -0.9727  0.5048  0.3690
 4166SOL     OW23959   0.843   0.687   6.063  0.0501  0.7861  0.0863
 4166SOL    HW123960   0.783   0.671   6.136  0.9920  0.1690  0.7423
 4166SOL    HW223961   0.786   0.717   5.993  2.0457  0.5717 -1.6416
 4167SOL     OW23962   0.897   1.638   4.135  0.0429 -0.2428  0.1616
 4167SOL    HW123963   0.847   1.561   4.111  1.0673 -0.7942 -0.1836
 4167SOL    HW223964   0.881   1.693   4.058 -1.2706  2.2564  2.2013
 4168SOL     OW23965   2.993   3.980   5.818 -0.4571  0.0818  0.2610
 4168SOL    HW123966   2.923   3.927   5.856  0.7553 -1.3669  0.4621
 4168SOL    HW223967   2.978   4.071   5.845  1.0072 -0.0887  1.6881
 4169SOL     OW23968   3.217   1.075   3.451  0.0419 -0.1341 -0.4340
 4169SOL    HW123969   3.307   1.103   3.465  0.1478 -0.3966 -0.5995
 4169SOL    HW223970   3.193   1.063   3.543 -0.6753 -0.9721 -0.7230
 4170SOL     OW23971   1.294   1.522  14.596 -0.3009  0.2833 -0.1975
 4170SOL    HW123972   1.295   1.435  14.637 -0.1269 -0.9468 -2.8502
 4170SOL    HW223973   1.278   1.580  14.671  0.2889  0.1467  0.0352
 4171SOL     OW23974   4.319   0.092   4.451  0.2298  0.3958  0.6454
 4171SOL    HW123975   4.238   0.075   4.499  1.0234  0.8592  2.1273
 4171SOL    HW223976   4.322   0.019   4.388  0.3585  2.2101 -1.4313
 4172SOL     OW23977   3.071   0.029  15.933 -0.5631  0.5028  0.0257
 4172SOL    HW123978   3.099   4.669  15.965 -0.0078  0.8806  0.5425
 4172SOL    HW223979   2.981   4.725  15.917  0.9163 -1.7107 -4.2724
 4173SOL     OW23980   2.754   1.405  10.189  1.1962  0.0114 -0.1817
 4173SOL    HW123981   2.671   1.448  10.210 -0.6113 -2.4945 -2.1063
 4173SOL    HW223982   2.728   1.398  10.097  0.4441 -0.0854  0.0398
 4174SOL     OW23983   4.520   3.171  17.647  0.3465 -0.2706 -0.5509
 4174SOL    HW123984   4.425   3.160  17.659  0.6256 -0.6510  1.3033
 4174SOL    HW223985   4.557   3.132   0.025 -1.6593 -0.4066  0.3127
 4175SOL     OW23986   0.275   2.988  17.442  0.0197 -0.0301 -1.0645
 4175SOL    HW123987   0.211   3.019  17.506  0.2411  0.8016 -1.2512
 4175SOL    HW223988   0.269   2.893  17.454  0.2668  0.3142  1.8087
 4176SOL     OW23989   0.681   4.648   3.441  0.1665 -0.4513  0.2072
 4176SOL    HW123990   0.752   4.585   3.456 -0.5272 -1.3296 -0.2254
 4176SOL    HW223991   0.663   4.645   3.347 -0.6860  0.8390  0.3283
 4177SOL     OW23992   1.866   1.533   4.762 -0.0681 -0.3933 -0.3443
 4177SOL    HW123993   1.842   1.512   4.852 -2.9572  1.2933 -0.7162
 4177SOL    HW223994   1.915   1.455   4.738 -1.2305 -1.7909  1.8412
 4178SOL     OW23995   0.303   1.079   6.494  0.0973 -0.1633  0.2833
 4178SOL    HW123996   0.280   1.065   6.586 -0.5101  0.1852  0.1835
 4178SOL    HW223997   0.340   0.995   6.467 -0.5737  0.7861 -3.6896
 4179SOL     OW23998   3.514   0.414   8.098 -0.4319  0.0065 -0.5986
 4179SOL    HW123999   3.502   0.500   8.138  0.0146 -0.8045  1.2628
 4179SOL    HW224000   3.421   0.388   8.098 -0.5643  0.4906 -0.2692
 4180SOL     OW24001   2.094   0.208   6.690 -0.2249  0.3451 -0.2722
 4180SOL    HW124002   2.023   0.242   6.745 -0.8716 -1.0389 -0.2424
 4180SOL    HW224003   2.145   0.147   6.744 -3.5799 -1.3799  0.9721
 4181SOL     OW24004   4.146   3.539   4.607  0.1363 -0.0093  0.0703
 4181SOL    HW124005   4.190   3.473   4.662  0.6263  1.3858  1.3545
 4181SOL    HW224006   4.187   3.619   4.641 -0.8216  0.7175 -0.4997
 4182SOL     OW24007   1.253   0.769   8.403  0.0447 -0.6083  0.2255
 4182SOL    HW124008   1.222   0.854   8.434  1.0104 -0.3206  0.4059
 4182SOL    HW224009   1.321   0.749   8.467  1.7909 -0.7876 -1.6966
 4183SOL     OW24010   1.192   0.691   8.002 -0.4342 -0.7259 -0.1562
 4183SOL    HW124011   1.131   0.643   7.946 -0.1174 -0.6948 -0.5248
 4183SOL    HW224012   1.162   0.781   7.992 -2.1915 -1.3128 -0.2310
 4184SOL     OW24013   2.467   1.429   1.396 -0.1940  0.5738 -0.0702
 4184SOL    HW124014   2.393   1.465   1.444 -0.9670 -0.7444 -0.2668
 4184SOL    HW224015   2.426   1.348   1.365  0.9520  0.1673 -0.5394
 4185SOL     OW24016   2.740   0.532  10.652 -0.2362 -0.0398 -0.2112
 4185SOL    HW124017   2.790   0.583  10.588 -0.9257  1.3654  0.3770
 4185SOL    HW224018   2.668   0.592  10.673 -0.2755  0.6456 -2.2671
 4186SOL     OW24019   1.961   1.951  14.478  0.4827  0.7910  0.4283
 4186SOL    HW124020   1.916   2.010  14.417 -0.2987 -1.3245 -1.0518
 4186SOL    HW224021   2.024   1.911  14.419 -0.4799 -2.6609  1.7535
 4187SOL     OW24022   0.989   2.911   2.432  0.2334  0.1724  0.1127
 4187SOL    HW124023   1.022   2.884   2.347 -0.8356  0.7492 -0.4753
 4187SOL    HW224024   0.921   2.967   2.395  0.4618  0.1619 -0.3251
 4188SOL     OW24025   1.116   2.416   7.682  0.6157  0.1884  0.1652
 4188SOL    HW124026   1.138   2.398   7.591 -1.3581 -0.0037 -0.2727
 4188SOL    HW224027   1.192   2.468   7.708  0.3493  0.3231  0.6703
 4189SOL     OW24028   0.754   1.400   3.011  0.2361  0.0750 -0.0693
 4189SOL    HW124029   0.726   1.341   3.080  3.4921 -0.1481  1.0532
 4189SOL    HW224030   0.839   1.368   2.980 -0.6444 -0.9149 -1.4828
 4190SOL     OW24031   1.206   2.725   5.384  0.2027  0.1251 -0.0919
 4190SOL    HW124032   1.119   2.710   5.420  0.6795  2.2719  1.9850
 4190SOL    HW224033   1.209   2.821   5.387  0.7512  0.1537 -1.3862
 4191SOL     OW24034   3.329   4.024   4.389  0.2733 -0.0610  0.4201
 4191SOL    HW124035   3.275   4.100   4.410 -0.2965 -0.3356 -0.0313
 4191SOL    HW224036   3.332   3.993   4.479  1.9093  0.0655  0.4039
 4192SOL     OW24037   1.249   3.865   2.170  0.6529  0.9572 -0.7252
 4192SOL    HW124038   1.333   3.910   2.160  1.1465 -0.2761 -2.2057
 4192SOL    HW224039   1.220   3.872   2.079 -0.0964  0.2569 -0.5387
 4193SOL     OW24040   4.629   3.435   7.578  0.1425 -0.2354  0.3266
 4193SOL    HW124041   4.646   3.419   7.485 -0.0127  0.7219  0.1320
 4193SOL    HW224042   4.554   3.492   7.561  0.5927  0.2170 -0.1478
 4194SOL     OW24043   3.795   1.349  16.621  0.2561  0.7088 -0.2658
 4194SOL    HW124044   3.724   1.286  16.607  0.1904  1.1644 -1.9546
 4194SOL    HW224045   3.750   1.433  16.620  0.5695  0.8890  0.5546
 4195SOL     OW24046   2.868   4.577   9.933  0.3064 -0.0302  0.4835
 4195SOL    HW124047   2.955   4.615   9.918 -0.5548  0.7265 -2.6569
 4195SOL    HW224048   2.884   4.505   9.993 -1.4932 -2.6492 -2.1670
 4196SOL     OW24049   2.913   3.862   4.167 -0.8262  0.8514  0.1360
 4196SOL    HW124050   2.876   3.923   4.104 -0.2048  1.2974  0.2017
 4196SOL    HW224051   2.962   3.802   4.112 -2.2908  0.2996 -0.5611
 4197SOL     OW24052   0.556   2.035   4.924 -0.7006  0.3760  0.1613
 4197SOL    HW124053   0.645   2.003   4.908 -0.4379  0.5919  1.1872
 4197SOL    HW224054   0.582   2.127   4.923 -1.0739  0.4685 -1.4484
 4198SOL     OW24055   1.303   0.079   2.705  0.3418 -0.1858  0.5785
 4198SOL    HW124056   1.313   0.047   2.616 -0.1879  0.2070  0.3769
 4198SOL    HW224057   1.355   0.158   2.691 -0.0193 -0.3740 -1.7941
 4199SOL     OW24058   0.760   2.762   0.799 -0.1849 -0.1684 -0.1555
 4199SOL    HW124059   0.717   2.829   0.746  1.4094  0.5811 -0.4780
 4199SOL    HW224060   0.708   2.762   0.880  1.1574  1.3597  0.7175
 4200SOL     OW24061   3.316   0.741  12.743 -0.4361  0.4571  0.4183
 4200SOL    HW124062   3.411   0.743  12.757 -0.8565  1.4085  3.2565
 4200SOL    HW224063   3.293   0.649  12.743  1.9540 -0.1265 -1.6500
 4201SOL     OW24064   0.906   4.487   2.093  0.6345  0.4265  0.3988
 4201SOL    HW124065   0.901   4.573   2.051 -1.4604 -0.4582 -1.1107
 4201SOL    HW224066   0.999   4.462   2.093  0.0994 -1.5165  0.4543
 4202SOL     OW24067   2.143   1.096  11.151 -0.5561 -0.5633 -0.3728
 4202SOL    HW124068   2.158   1.032  11.221  1.9187 -0.1398 -0.5204
 4202SOL    HW224069   2.219   1.151  11.168 -0.0981 -0.6284 -2.2640
 4203SOL     OW24070   1.967   2.599  10.520 -0.0512 -0.5853  0.4134
 4203SOL    HW124071   1.955   2.580  10.427 -3.3029  0.8206  0.5703
 4203SOL    HW224072   2.050   2.648  10.522 -0.7945  0.7284 -1.0686
 4204SOL     OW24073   2.160   0.329  13.604  0.1924  0.1211 -0.2924
 4204SOL    HW124074   2.196   0.417  13.615 -2.6229  1.1887  0.4308
 4204SOL    HW224075   2.079   0.331  13.656 -0.7319  1.3622 -1.7844
 4205SOL     OW24076   3.297   0.214   7.084  0.3812 -0.0751 -0.4619
 4205SOL    HW124077   3.363   0.165   7.035  1.5608  0.3925  0.6774
 4205SOL    HW224078   3.325   0.305   7.078  0.6492 -0.2308 -1.7101
 4206SOL     OW24079   0.470   3.839   4.707 -0.0502  0.3914 -0.7175
 4206SOL    HW124080   0.450   3.903   4.639 -0.4669  1.3876  0.3437
 4206SOL    HW224081   0.381   3.806   4.721  0.0619 -0.6445 -2.5298
 4207SOL     OW24082   2.061   3.292   1.753  0.0475 -0.2618 -0.9468
 4207SOL    HW124083   2.156   3.286   1.754  0.0082 -0.9020  1.8834
 4207SOL    HW224084   2.049   3.292   1.849  0.8919 -0.0647 -0.8475
 4208SOL     OW24085   0.714   2.381   7.987  0.5411  0.5370  0.0609
 4208SOL    HW124086   0.626   2.363   7.954  0.5923  1.8722 -0.8014
 4208SOL    HW224087   0.700   2.417   8.075 -0.8827 -2.0157  0.8677
 4209SOL     OW24088   3.154   4.702   7.290 -0.1002 -0.2889 -0.2239
 4209SOL    HW124089   3.120   4.705   7.380  1.7412 -2.2569  0.5558
 4209SOL    HW224090   3.237   0.022   7.305  0.3350 -0.7241 -1.3590
 4210SOL     OW24091   3.517   0.073   4.241  0.2237  0.1753  0.2842
 4210SOL    HW124092   3.563   0.112   4.315 -0.8547  1.6785  0.1635
 4210SOL    HW224093   3.434   0.120   4.249 -0.6776 -1.7296  2.1899
 4211SOL     OW24094   0.055   3.016   7.697 -0.1550 -0.3470 -0.1338
 4211SOL    HW124095   0.134   3.021   7.644  1.1178 -1.2293  1.6853
 4211SOL    HW224096   0.095   3.042   7.779 -0.0454 -0.8301 -0.0332
 4212SOL     OW24097   3.841   4.517  15.641  0.2874 -0.0389 -0.2226
 4212SOL    HW124098   3.815   4.482  15.556  0.4574 -1.4061  0.2829
 4212SOL    HW224099   3.922   4.467  15.648  0.5067  0.1879 -1.1229
 4213SOL     OW24100   3.197   4.381   0.369 -0.1461  0.3568 -0.1002
 4213SOL    HW124101   3.168   4.453   0.425 -0.3202 -0.9931  1.5567
 4213SOL    HW224102   3.136   4.312   0.395  3.1536 -3.0902 -1.3665
 4214SOL     OW24103   0.436   1.619  10.100 -0.0290  0.1183 -0.0679
 4214SOL    HW124104   0.401   1.565  10.029 -0.1858 -0.7383  0.6617
 4214SOL    HW224105   0.487   1.549  10.140 -0.4574 -0.7825 -1.0821
 4215SOL     OW24106   2.727   3.257   1.300 -0.5477  0.1327  0.3771
 4215SOL    HW124107   2.816   3.279   1.273 -1.7680  2.0398 -2.1484
 4215SOL    HW224108   2.716   3.171   1.259 -0.3000  0.2020  0.1678
 4216SOL     OW24109   0.476   1.255   2.921  0.2347  0.0480  0.0531
 4216SOL    HW124110   0.528   1.324   2.961 -1.4846  0.5257  1.4409
 4216SOL    HW224111   0.391   1.276   2.959 -0.2353 -0.8798 -0.4667
 4217SOL     OW24112   3.678   4.693   6.672 -0.3267  0.4084  0.1653
 4217SOL    HW124113   3.671   0.053   6.715  1.1802  0.6527 -0.0535
 4217SOL    HW224114   3.689   4.720   6.580 -1.0964  0.6927  0.1613
 4218SOL     OW24115   3.230   1.559   9.331 -0.3765  0.3340  0.0496
 4218SOL    HW124116   3.202   1.573   9.421  0.3919  1.0249  0.1723
 4218SOL    HW224117   3.196   1.635   9.284  0.1358  0.5204 -0.0086
 4219SOL     OW24118   3.158   2.824   0.979 -0.5414  0.3257  0.3472
 4219SOL    HW124119   3.218   2.888   0.940 -2.1482  2.2758  1.0769
 4219SOL    HW224120   3.221   2.752   0.979 -1.9931 -0.9101 -2.4198
 4220SOL     OW24121   4.070   0.801   2.125  0.2098 -0.3049  0.0099
 4220SOL    HW124122   4.045   0.761   2.042 -1.5341  0.0185  0.3781
 4220SOL    HW224123   4.110   0.879   2.089  1.7352 -0.4973  1.3154
 4221SOL     OW24124   0.330   0.057   5.001 -0.0897  0.6797  0.3687
 4221SOL    HW124125   0.335   0.016   5.088 -1.3272  1.3095  0.7417
 4221SOL    HW224126   0.394   4.724   4.960 -2.3626 -0.8544 -1.0334
 4222SOL     OW24127   0.606   1.186   1.778 -0.2748 -0.6363 -0.3270
 4222SOL    HW124128   0.674   1.124   1.806 -0.1921 -0.9228 -1.1422
 4222SOL    HW224129   0.546   1.129   1.730 -0.8582  0.7249 -1.1987
 4223SOL     OW24130   1.479   2.142  16.115  0.0672 -0.2347  0.6660
 4223SOL    HW124131   1.548   2.189  16.162  2.7822 -3.2692 -0.2956
 4223SOL    HW224132   1.432   2.210  16.067  2.3099 -0.1218 -1.3359
 4224SOL     OW24133   4.110   3.489   7.721 -0.5282  0.2960  0.4145
 4224SOL    HW124134   4.101   3.466   7.814 -0.3857 -0.8341  0.1492
 4224SOL    HW224135   4.064   3.572   7.717 -2.1066 -0.5696  0.5335
 4225SOL     OW24136   4.378   3.613   2.679 -0.5507  0.2532  0.0844
 4225SOL    HW124137   4.350   3.623   2.588 -1.1297 -0.3353  0.1963
 4225SOL    HW224138   4.293   3.599   2.722 -1.2605  1.3895 -0.9386
 4226SOL     OW24139   1.160   0.061  13.315 -0.3103 -0.3687  0.1548
 4226SOL    HW124140   1.155   0.089  13.224  0.1678 -0.3508  0.1356
 4226SOL    HW224141   1.215   4.709  13.303  0.5837  0.3535 -0.3515
 4227SOL     OW24142   0.356   4.508   7.157 -0.1281  0.1482 -0.1517
 4227SOL    HW124143   0.285   4.472   7.102 -0.1153  0.7219 -0.5432
 4227SOL    HW224144   0.315   4.532   7.240 -0.2562  0.8018 -0.4072
 4228SOL     OW24145   3.573   3.689  12.424  0.1746  0.3669  0.5967
 4228SOL    HW124146   3.620   3.675  12.506  0.0997 -2.5818  0.1374
 4228SOL    HW224147   3.504   3.627  12.447 -0.1143  0.5756  0.2954
 4229SOL     OW24148   1.170   3.169   5.108  0.1771 -0.3251 -0.3721
 4229SOL    HW124149   1.190   3.258   5.137  0.2111  0.6084 -3.3129
 4229SOL    HW224150   1.085   3.190   5.068  1.7195  2.0965 -2.2929
 4230SOL     OW24151   2.358   0.921   9.012 -0.3942  0.2534 -0.0042
 4230SOL    HW124152   2.417   0.963   8.950  0.7877 -1.4609 -0.0277
 4230SOL    HW224153   2.278   0.974   9.005 -0.5076 -0.0814 -1.2362
 4231SOL     OW24154   2.986   2.445  11.611  0.6459  0.5140  0.5569
 4231SOL    HW124155   2.964   2.423  11.702 -1.5142 -0.8308 -0.2826
 4231SOL    HW224156   2.936   2.525  11.598  1.6448  0.6510 -2.2520
 4232SOL     OW24157   0.934   0.612  10.391  0.3619 -0.0273 -0.1781
 4232SOL    HW124158   0.895   0.678  10.333 -1.8727 -0.2055  1.1268
 4232SOL    HW224159   0.957   0.667  10.466 -0.5558 -0.6075  0.5271
 4233SOL     OW24160   3.607   1.175  15.185 -0.0977 -0.0325 -0.5744
 4233SOL    HW124161   3.543   1.245  15.201 -0.7441 -1.0418  1.2417
 4233SOL    HW224162   3.560   1.092  15.188 -3.1162  1.6608 -0.3082
 4234SOL     OW24163   1.992   4.537   5.776 -0.2107  0.2432 -1.2665
 4234SOL    HW124164   2.056   4.547   5.846 -0.1894  0.2437 -1.2860
 4234SOL    HW224165   1.908   4.554   5.818 -0.9284  0.5714 -2.7987
 4235SOL     OW24166   4.720   2.599  16.117 -0.3559  0.4498  0.3112
 4235SOL    HW124167   4.634   2.562  16.096  0.7336 -3.2330  2.2926
 4235SOL    HW224168   4.720   2.662  16.045  0.8125 -1.7925 -1.6745
 4236SOL     OW24169   0.369   2.502   6.093 -0.5571  0.6516  0.2871
 4236SOL    HW124170   0.311   2.471   6.024  0.1192 -0.8206  0.3717
 4236SOL    HW224171   0.404   2.421   6.131  0.8482  0.4403 -1.4327
 4237SOL     OW24172   2.900   2.309  17.199  0.5205 -0.6078 -0.7569
 4237SOL    HW124173   2.921   2.226  17.242  0.7655  0.9783  2.2143
 4237SOL    HW224174   2.822   2.276  17.153 -0.1994  2.5370 -1.7721
 4238SOL     OW24175   2.991   4.465   3.190 -0.3177  0.0314 -0.0624
 4238SOL    HW124176   2.979   4.478   3.284 -1.5218 -2.3007  0.1174
 4238SOL    HW224177   3.004   4.370   3.191  0.9086  0.2150  0.5028
 4239SOL     OW24178   0.617   0.593  10.809  0.3634  0.1421  0.4565
 4239SOL    HW124179   0.663   0.633  10.883  1.9494  1.5529 -1.2899
 4239SOL    HW224180   0.536   0.569  10.854 -0.2269  1.0413 -0.1131
 4240SOL     OW24181   2.410   0.854   0.334 -0.2850  0.0086 -0.4961
 4240SOL    HW124182   2.459   0.796   0.393  0.8462  1.8533  0.3830
 4240SOL    HW224183   2.377   0.907   0.407  2.3013  0.2979  0.4667
 4241SOL     OW24184   3.827   3.817   8.536 -0.0682 -0.4759  0.1147
 4241SOL    HW124185   3.827   3.741   8.593 -1.3745  2.0302  3.4362
 4241SOL    HW224186   3.803   3.882   8.602 -0.3828  1.1626 -1.6082
 4242SOL     OW24187   0.530   1.564  14.359 -0.4559 -0.6155  0.5251
 4242SOL    HW124188   0.521   1.469  14.350  0.6860 -0.5008 -2.0222
 4242SOL    HW224189   0.619   1.568  14.324 -1.3533  0.4236 -1.6875
 4243SOL     OW24190   3.840   2.557   8.186 -0.0057 -0.7342  0.2555
 4243SOL    HW124191   3.823   2.523   8.274 -0.2800 -0.0626  0.4588
 4243SOL    HW224192   3.868   2.472   8.152  0.5429 -0.5166  0.1689
 4244SOL     OW24193   0.898   1.433   9.481 -0.3140  0.0949  0.2656
 4244SOL    HW124194   0.896   1.515   9.431  1.9557  0.0099  0.0317
 4244SOL    HW224195   0.992   1.423   9.496 -0.4848 -0.0782  1.2540
 4245SOL     OW24196   0.904   3.444   6.803 -0.4488  0.8465  0.3360
 4245SOL    HW124197   0.961   3.441   6.726  0.6248  1.0063  1.1365
 4245SOL    HW224198   0.892   3.537   6.825  0.4654  0.7507  1.2295
 4246SOL     OW24199   0.633   0.721   9.036  0.4639 -0.1440  0.3969
 4246SOL    HW124200   0.551   0.747   9.078 -0.1932  1.0718 -1.6003
 4246SOL    HW224201   0.683   0.800   9.056  0.5142  0.2559 -1.3215
 4247SOL     OW24202   1.243   4.692   5.602  0.2674 -0.2121 -0.1844
 4247SOL    HW124203   1.278   0.019   5.674  1.1040  0.7363 -1.2912
 4247SOL    HW224204   1.291   4.609   5.604  1.2695  0.3405 -1.6110
 4248SOL     OW24205   1.561   1.101   9.322  0.0293 -0.3876  0.3202
 4248SOL    HW124206   1.529   1.015   9.295 -0.9401  0.3883 -1.0062
 4248SOL    HW224207   1.604   1.082   9.405  0.8999  0.7457  0.1204
 4249SOL     OW24208   0.875   0.164   7.853 -0.4896 -0.1738 -0.2843
 4249SOL    HW124209   0.963   0.126   7.850  0.3227  1.7764 -1.1625
 4249SOL    HW224210   0.823   0.098   7.899  0.9061  0.8044  2.6354
 4250SOL     OW24211   3.625   2.885   6.125 -0.7459 -0.0332 -0.5696
 4250SOL    HW124212   3.533   2.873   6.100 -0.5136 -1.7335 -0.5581
 4250SOL    HW224213   3.663   2.798   6.132 -0.8782  0.1328  2.5381
 4251SOL     OW24214   3.694   3.141   6.988  0.3388  0.2536  0.2145
 4251SOL    HW124215   3.768   3.200   6.984 -0.2144  0.8921 -0.7849
 4251SOL    HW224216   3.688   3.132   7.083 -0.8451 -1.8252 -0.0600
 4252SOL     OW24217   3.160   1.032   6.646 -0.3739  0.4942 -0.3402
 4252SOL    HW124218   3.111   0.961   6.603 -1.5546 -0.1117  1.9935
 4252SOL    HW224219   3.171   1.093   6.574 -1.3446 -0.5263 -1.3646
 4253SOL     OW24220   0.367   3.926   9.573 -0.3295 -0.3435  0.2761
 4253SOL    HW124221   0.326   3.987   9.512  0.2174 -2.4010 -2.1270
 4253SOL    HW224222   0.429   3.979   9.625 -1.0538  0.5257  0.2655
 4254SOL     OW24223   2.511   3.693   4.806  0.1532 -0.1088  0.0213
 4254SOL    HW124224   2.595   3.728   4.836 -0.4097 -1.5200  3.3320
 4254SOL    HW224225   2.482   3.765   4.750  0.2637  0.7130  0.9965
 4255SOL     OW24226   3.908   2.412  11.420  0.7631  0.0187  0.0010
 4255SOL    HW124227   3.892   2.478  11.352 -1.3355  0.0485  0.5229
 4255SOL    HW224228   3.896   2.469  11.496  1.0574  0.4492 -0.2745
 4256SOL     OW24229   4.468   2.583   1.735 -0.0958  0.0821  0.1727
 4256SOL    HW124230   4.519   2.646   1.786  0.7245  0.1940 -0.8090
 4256SOL    HW224231   4.430   2.641   1.669 -0.7579  1.5871  1.8613
 4257SOL     OW24232   3.716   2.054   4.648 -0.1018  0.1397  0.1360
 4257SOL    HW124233   3.735   2.088   4.561 -0.4404  2.4005  0.9563
 4257SOL    HW224234   3.636   2.012   4.615  0.8206 -1.3236 -0.2670
 4258SOL     OW24235   2.293   0.747  16.773 -0.4155  0.4313 -0.2610
 4258SOL    HW124236   2.256   0.831  16.801 -3.0989 -0.7145 -0.3572
 4258SOL    HW224237   2.224   0.681  16.776 -0.9652  1.0807  1.8023
 4259SOL     OW24238   4.188   2.781   5.019  0.5673  0.2587 -0.1208
 4259SOL    HW124239   4.096   2.781   4.992 -0.2192 -0.3981  2.5688
 4259SOL    HW224240   4.210   2.873   5.029  0.5273  0.4400 -1.6306
 4260SOL     OW24241   4.095   4.240   3.973 -0.3690 -0.6909 -0.0635
 4260SOL    HW124242   4.107   4.230   4.067  3.0029  2.5412 -0.1755
 4260SOL    HW224243   4.087   4.147   3.953  1.3760 -0.8483 -0.0116
 4261SOL     OW24244   3.998   3.719   4.844  0.5214  0.0345 -0.0522
 4261SOL    HW124245   3.942   3.797   4.850  1.7639  0.8720  0.6822
 4261SOL    HW224246   4.009   3.727   4.749 -0.6208  2.5889  0.0184
 4262SOL     OW24247   3.133   0.691   5.255  0.3299  0.4775 -0.2107
 4262SOL    HW124248   3.179   0.758   5.204 -0.6407  0.9470 -0.4653
 4262SOL    HW224249   3.060   0.745   5.282 -1.1089 -1.5184 -0.1200
 4263SOL     OW24250   2.678   4.021  12.339  0.2485 -0.0322  0.4455
 4263SOL    HW124251   2.698   3.931  12.366  2.3681  0.0469 -0.8295
 4263SOL    HW224252   2.767   4.049  12.319 -0.1452  1.4994  0.8857
 4264SOL     OW24253   1.103   3.328   9.633  0.2200  0.0202 -0.1978
 4264SOL    HW124254   1.053   3.279   9.567  1.3871 -0.7177 -0.5408
 4264SOL    HW224255   1.051   3.309   9.712  1.5900  0.2777  0.7608
 4265SOL     OW24256   4.561   1.480   0.535 -0.3704  0.2329 -0.0733
 4265SOL    HW124257   4.534   1.479   0.443 -0.4017  0.8019 -0.0730
 4265SOL    HW224258   4.586   1.388   0.535 -2.2056 -0.2496  3.7537
 4266SOL     OW24259   3.392   3.314   5.629 -0.5711 -0.1636 -0.0788
 4266SOL    HW124260   3.307   3.349   5.656  0.7936  3.4965 -0.4983
 4266SOL    HW224261   3.455   3.359   5.687 -1.3133 -1.3566  1.6473
 4267SOL     OW24262   0.408   3.765   3.327 -0.5387 -0.4996 -0.2427
 4267SOL    HW124263   0.390   3.846   3.280  0.2760  0.2065  0.6614
 4267SOL    HW224264   0.502   3.773   3.345 -0.7647 -0.2572  0.8812
 4268SOL     OW24265   2.651   1.538  10.521 -0.1548  0.6497  1.1486
 4268SOL    HW124266   2.613   1.594  10.589 -1.0388  1.3792  0.0615
 4268SOL    HW224267   2.689   1.603  10.462  0.9141 -1.1939 -0.1792
 4269SOL     OW24268   3.285   3.985   2.853 -0.5410 -0.3220 -0.2387
 4269SOL    HW124269   3.220   3.972   2.785  1.0060  0.3171 -1.8351
 4269SOL    HW224270   3.354   4.038   2.813  1.1385 -2.5736 -0.2904
 4270SOL     OW24271   2.945   3.120  15.219 -0.0763  0.6534 -0.4031
 4270SOL    HW124272   3.028   3.098  15.260 -0.1389  1.5004  0.1881
 4270SOL    HW224273   2.900   3.176  15.283 -0.1758 -0.6287  0.6355
 4271SOL     OW24274   0.493   1.774   3.975  0.0981  0.1984  0.4243
 4271SOL    HW124275   0.574   1.741   3.936 -0.9053  1.1047 -2.4892
 4271SOL    HW224276   0.515   1.794   4.066  1.1643 -1.2897  0.4892
 4272SOL     OW24277   3.886   4.316   1.070  0.5210 -0.5181  0.3940
 4272SOL    HW124278   3.823   4.320   0.999 -0.1788  0.5661  1.0736
 4272SOL    HW224279   3.951   4.272   1.016 -0.0857 -0.1910 -0.5949
 4273SOL     OW24280   1.532   2.543   9.051  0.2199  0.2012  0.2085
 4273SOL    HW124281   1.546   2.517   8.960  0.5004  0.0725  0.2872
 4273SOL    HW224282   1.624   2.555   9.073  0.4118  1.2066 -1.1536
 4274SOL     OW24283   4.472   0.648   5.858 -0.0979 -0.5443  0.2901
 4274SOL    HW124284   4.495   0.583   5.793  1.6414 -0.5351  0.8849
 4274SOL    HW224285   4.415   0.599   5.918 -0.6406  1.1143  1.1494
 4275SOL     OW24286   2.786   2.170   4.506 -0.6782  0.3402 -0.5176
 4275SOL    HW124287   2.723   2.109   4.467 -1.4772 -1.0971  3.0474
 4275SOL    HW224288   2.861   2.116   4.531 -0.9548  1.5800  2.9892
 4276SOL     OW24289   2.273   1.740   7.177 -0.1516  0.7385  0.4874
 4276SOL    HW124290   2.210   1.746   7.248  1.2528 -1.6081  1.9226
 4276SOL    HW224291   2.347   1.757   7.236  1.5978 -3.6351 -0.4402
 4277SOL     OW24292   4.387   2.702   1.499 -0.5263  0.3522  0.1225
 4277SOL    HW124293   4.311   2.689   1.442  0.3142 -0.1241 -0.9083
 4277SOL    HW224294   4.409   2.793   1.479 -1.3960  0.6674  0.5745
 4278SOL     OW24295   3.588   0.250  17.166  0.7381 -0.3401 -0.5538
 4278SOL    HW124296   3.557   0.296  17.088  0.2956 -0.3722 -0.3942
 4278SOL    HW224297   3.539   0.168  17.165  0.7875 -0.4000  2.0709
 4279SOL     OW24298   2.360   4.450   3.066  0.2617  0.1423  0.0685
 4279SOL    HW124299   2.307   4.390   3.118  0.1132  0.2349  0.0228
 4279SOL    HW224300   2.329   4.525   3.117 -1.2790  0.8344 -1.8755
 4280SOL     OW24301   0.163   1.256   8.087  0.2126 -0.0296 -0.3169
 4280SOL    HW124302   0.244   1.304   8.103  0.4528 -0.4094 -0.3950
 4280SOL    HW224303   0.140   1.229   8.176  1.1444 -0.3366 -0.1708
 4281SOL     OW24304   1.496   3.487  14.560  0.2251  0.0963  0.1865
 4281SOL    HW124305   1.479   3.517  14.649  1.1172  0.5044  0.2285
 4281SOL    HW224306   1.586   3.519  14.553  0.2191 -0.1389 -0.9122
 4282SOL     OW24307   3.322   0.261  12.979 -1.2804 -0.0494 -0.2266
 4282SOL    HW124308   3.364   0.346  12.988 -2.3003  0.4778 -0.4479
 4282SOL    HW224309   3.345   0.234  12.890 -0.0795  1.4715 -0.3611
 4283SOL     OW24310   3.504   1.025  10.542 -0.1292 -0.1956  0.2833
 4283SOL    HW124311   3.592   1.053  10.521  0.2684 -1.5728  0.1001
 4283SOL    HW224312   3.496   1.045  10.635  0.3300  0.9382  0.0737
 4284SOL     OW24313   2.824   3.256  15.423 -0.1654 -0.5803  0.3169
 4284SOL    HW124314   2.730   3.267  15.413  0.2210  0.4327 -2.3515
 4284SOL    HW224315   2.835   3.231  15.514 -1.3374 -1.1999  0.2811
 4285SOL     OW24316   0.851   0.881   5.018  0.5466  0.5148  0.3861
 4285SOL    HW124317   0.765   0.889   5.058  1.0510  0.7564  1.4213
 4285SOL    HW224318   0.824   0.881   4.926  0.3443 -2.1682  0.4722
 4286SOL     OW24319   3.336   2.715   5.426 -0.2326  0.2730 -0.8200
 4286SOL    HW124320   3.384   2.768   5.490 -1.0996  0.0971 -0.0206
 4286SOL    HW224321   3.246   2.711   5.458 -0.1172 -3.5336 -0.9570
 4287SOL     OW24322   1.439   3.441   2.251 -0.2445 -0.1520 -0.1888
 4287SOL    HW124323   1.422   3.518   2.306 -1.8506  0.7842 -1.9829
 4287SOL    HW224324   1.352   3.446   2.212 -0.4925  2.7886  0.7271
 4288SOL     OW24325   1.252   0.976  11.787 -0.2463 -0.0008 -0.3883
 4288SOL    HW124326   1.289   0.890  11.768  2.6906  1.3464 -0.6363
 4288SOL    HW224327   1.322   1.041  11.784  0.5360 -0.6260  3.8152
 4289SOL     OW24328   3.126   1.393   3.690 -0.2423  0.3143 -0.2635
 4289SOL    HW124329   3.098   1.388   3.599  0.2703  2.3416 -0.5355
 4289SOL    HW224330   3.060   1.451   3.730  1.0887  0.4396  1.7475
 4290SOL     OW24331   2.150   4.386   5.122  0.0824  0.1138  0.2601
 4290SOL    HW124332   2.157   4.293   5.100 -0.8665  0.3572 -1.0146
 4290SOL    HW224333   2.243   4.407   5.116  0.6450 -2.5431 -0.5288
 4291SOL     OW24334   0.466   0.839   9.246  0.5436  0.1542 -0.4770
 4291SOL    HW124335   0.400   0.849   9.315  2.0099  0.9783  0.7962
 4291SOL    HW224336   0.523   0.914   9.260 -0.4597  0.3514  2.6301
 4292SOL     OW24337   0.527   3.596   3.705  0.3466  0.3879  0.0103
 4292SOL    HW124338   0.471   3.536   3.656  1.8760 -2.0887  1.2581
 4292SOL    HW224339   0.607   3.581   3.654  0.7203 -0.7200  0.9290
 4293SOL     OW24340   3.427   1.484   1.998  0.4788  0.7579 -0.1111
 4293SOL    HW124341   3.397   1.423   1.931 -0.7227 -0.8462  1.8670
 4293SOL    HW224342   3.445   1.421   2.068  0.0390 -0.6304 -1.2530
 4294SOL     OW24343   3.185   2.845  16.627  1.3617  0.0371  0.0804
 4294SOL    HW124344   3.274   2.837  16.592 -0.0725 -3.6457 -2.8271
 4294SOL    HW224345   3.135   2.890  16.559  4.3252 -0.0571 -2.1719
 4295SOL     OW24346   2.683   2.510   1.871 -0.4714 -0.1495 -0.6518
 4295SOL    HW124347   2.615   2.496   1.805 -1.7515  0.7334  0.4766
 4295SOL    HW224348   2.693   2.605   1.871 -0.7873 -0.1125  0.4447
 4296SOL     OW24349   2.377   3.869   7.230 -0.0390  0.3819 -0.3987
 4296SOL    HW124350   2.414   3.909   7.151 -0.4569  0.2507 -0.6591
 4296SOL    HW224351   2.445   3.806   7.253  0.1774  0.7253 -0.0965
 4297SOL     OW24352   4.482   0.237   2.530 -0.2832  0.3447  0.2406
 4297SOL    HW124353   4.529   0.186   2.596 -0.2876 -0.9891 -0.7963
 4297SOL    HW224354   4.554   0.280   2.484 -1.5703 -0.0465 -2.1298
 4298SOL     OW24355   4.274   1.793   4.383 -0.0359 -0.6491  0.1963
 4298SOL    HW124356   4.356   1.798   4.432  1.1293  0.2280 -1.8687
 4298SOL    HW224357   4.219   1.766   4.457 -0.5531  0.7708  0.3343
 4299SOL     OW24358   1.582   4.576   8.911  0.4114 -0.3127  0.1672
 4299SOL    HW124359   1.631   4.644   8.956  1.1493 -1.1918  0.7013
 4299SOL    HW224360   1.491   4.606   8.911 -0.2551 -2.2690  2.5044
 4300SOL     OW24361   4.205   1.579   8.360  0.1957  0.2175  0.0860
 4300SOL    HW124362   4.268   1.652   8.358  1.8303 -1.2019  0.3606
 4300SOL    HW224363   4.158   1.598   8.278  0.4710 -1.1410 -0.3777
 4301SOL     OW24364   1.421   2.520   6.998 -0.5912  0.8890 -0.2179
 4301SOL    HW124365   1.367   2.443   7.010 -0.6905  0.7720 -1.4318
 4301SOL    HW224366   1.470   2.493   6.920  0.4481 -2.1333  1.4923
 4302SOL     OW24367   0.398   2.186   2.389  0.0796 -0.1682  0.2803
 4302SOL    HW124368   0.387   2.130   2.466  1.4540 -2.3175 -1.0792
 4302SOL    HW224369   0.483   2.149   2.364  0.5312  0.1697  1.3308
 4303SOL     OW24370   3.106   2.192   9.273 -0.3258  0.4243  0.6865
 4303SOL    HW124371   3.055   2.254   9.221  0.1013  0.7166  0.6213
 4303SOL    HW224372   3.055   2.197   9.354 -0.5751  1.2005  0.4821
 4304SOL     OW24373   0.645   0.995   3.439 -0.1877 -0.1160  0.4749
 4304SOL    HW124374   0.712   0.929   3.459 -1.8706 -1.9600  0.1081
 4304SOL    HW224375   0.568   0.938   3.427  0.3414 -0.8156  0.3732
 4305SOL     OW24376   4.416   4.520   3.834  0.5926  0.2883  0.0415
 4305SOL    HW124377   4.435   4.522   3.928  1.7523 -0.8443 -0.1736
 4305SOL    HW224378   4.504   4.527   3.797  0.6102  1.8346  0.3785
 4306SOL     OW24379   2.604   3.081  16.358  0.1122  0.1436  0.0140
 4306SOL    HW124380   2.562   2.995  16.360  0.1766  0.1116 -0.0083
 4306SOL    HW224381   2.544   3.147  16.323  0.8631  0.4721 -0.6669
 4307SOL     OW24382   4.393   1.922   5.071  0.2287  0.2553 -1.1510
 4307SOL    HW124383   4.328   1.853   5.059  0.8182 -0.4499 -0.2068
 4307SOL    HW224384   4.467   1.891   5.019  1.4388 -0.3127  0.8973
 4308SOL     OW24385   1.274   1.669  17.625 -0.5108  0.1792  0.6909
 4308SOL    HW124386   1.179   1.657  17.618 -0.5389 -0.1663  1.6962
 4308SOL    HW224387   1.291   1.660   0.016  1.4628 -0.6963  0.2523
 4309SOL     OW24388   3.423   1.869   9.869  0.1521 -0.1807 -0.0238
 4309SOL    HW124389   3.450   1.801   9.807 -1.3612 -0.5687 -0.2406
 4309SOL    HW224390   3.386   1.935   9.811  0.5553 -0.4084 -0.5447
 4310SOL     OW24391   3.683   3.065   2.902  0.2710  0.0544  0.0347
 4310SOL    HW124392   3.721   3.129   2.963 -0.2024  0.5338 -0.1683
 4310SOL    HW224393   3.629   3.009   2.958  3.5540  0.1078  3.2433
 4311SOL     OW24394   0.468   4.590   3.930  0.3578  0.1151  0.4087
 4311SOL    HW124395   0.561   4.608   3.947  0.9693 -4.6519  2.1665
 4311SOL    HW224396   0.415   4.617   4.005 -0.0530  0.3225  0.0402
 4312SOL     OW24397   2.455   4.597  15.604  0.3751  0.1685  0.4713
 4312SOL    HW124398   2.385   4.551  15.558  2.9434 -0.8434 -2.3724
 4312SOL    HW224399   2.467   4.674  15.549  2.6120  0.3167  1.1903
 4313SOL     OW24400   4.497   1.909   9.208 -0.9246  0.7353  0.1811
 4313SOL    HW124401   4.507   1.907   9.112 -1.3891  0.3298  0.1419
 4313SOL    HW224402   4.586   1.917   9.244 -0.5182  0.1889 -0.6822
 4314SOL     OW24403   3.173   0.589  13.003 -0.2122  0.2584  0.4061
 4314SOL    HW124404   3.264   0.560  12.997  0.2691  1.7964  0.2148
 4314SOL    HW224405   3.134   0.505  12.979 -0.2334  0.5731 -0.6333
 4315SOL     OW24406   4.407   3.099   7.017  0.3262  0.2406  0.0424
 4315SOL    HW124407   4.456   3.128   7.094 -1.4377  1.2956  0.7738
 4315SOL    HW224408   4.333   3.159   7.014  0.8079  0.8524  0.3128
 4316SOL     OW24409   3.653   1.929  10.840 -0.4580 -0.1452 -0.4487
 4316SOL    HW124410   3.579   1.989  10.837 -0.6542 -0.3666  0.1474
 4316SOL    HW224411   3.716   1.974  10.783 -1.4282  1.2406 -0.4263
 4317SOL     OW24412   0.069   0.558   1.735  0.1019 -0.1202  0.2706
 4317SOL    HW124413   0.147   0.564   1.679 -0.8858  2.5447 -0.7839
 4317SOL    HW224414   0.058   0.463   1.742  0.9121 -0.2458 -0.0819
 4318SOL     OW24415   1.106   0.180   4.996 -0.3910 -0.0889 -0.3009
 4318SOL    HW124416   1.108   0.183   5.092 -1.7936  1.3957 -0.3269
 4318SOL    HW224417   1.103   0.274   4.979 -0.4753  0.3484  2.1388
 4319SOL     OW24418   0.972   3.892   6.212 -0.5476  0.7987 -0.0023
 4319SOL    HW124419   0.906   3.901   6.143 -0.0861 -0.1753 -0.5637
 4319SOL    HW224420   1.031   3.958   6.176  1.6402  0.3121  2.7051
 4320SOL     OW24421   0.079   4.532   1.474 -0.4570 -0.6120 -0.0652
 4320SOL    HW124422   0.049   4.467   1.411  0.2137  1.5893 -2.6554
 4320SOL    HW224423   0.159   4.573   1.441 -1.1517  0.1722 -0.7829
 4321SOL     OW24424   3.247   3.728   6.294  0.3538 -0.4702 -0.3641
 4321SOL    HW124425   3.176   3.683   6.339 -0.6599 -0.2698 -1.7662
 4321SOL    HW224426   3.201   3.790   6.237  1.5895  0.7958  0.0128
 4322SOL     OW24427   4.588   3.083   0.222  0.3492 -0.1911 -0.1730
 4322SOL    HW124428   4.579   3.178   0.209 -1.2626 -0.2664  0.4589
 4322SOL    HW224429   4.622   3.081   0.311  0.0390 -0.7372 -0.0659
 4323SOL     OW24430   1.051   0.456   3.380 -0.2146 -0.1228 -0.1902
 4323SOL    HW124431   1.004   0.499   3.309 -0.0179  0.0746 -0.2010
 4323SOL    HW224432   0.999   0.376   3.394 -0.2984  0.2887  1.8029
 4324SOL     OW24433   1.832   0.913   8.221  0.0307  0.4142  0.1157
 4324SOL    HW124434   1.744   0.879   8.205  0.0577  0.4951 -0.2071
 4324SOL    HW224435   1.853   0.881   8.309  2.6461 -1.2460 -1.1204
 4325SOL     OW24436   2.190   2.634   2.232  0.0960 -0.1066 -0.2868
 4325SOL    HW124437   2.221   2.547   2.208 -1.7905 -0.8526 -0.0415
 4325SOL    HW224438   2.147   2.660   2.150 -1.0854 -2.2370 -0.3329
 4326SOL     OW24439   3.157   1.707  10.026 -0.2514 -0.1634  0.3621
 4326SOL    HW124440   3.118   1.739   9.945  0.2056  0.0634  0.2366
 4326SOL    HW224441   3.072   1.686  10.066 -0.4062 -0.8945 -0.3363
 4327SOL     OW24442   1.678   1.779   7.508  0.3501 -0.4144  0.3528
 4327SOL    HW124443   1.766   1.754   7.536  0.9562  1.0544 -0.2569
 4327SOL    HW224444   1.639   1.694   7.489  1.1031 -0.8184  0.5904
 4328SOL     OW24445   3.622   2.275   7.284 -0.8921 -0.5433  0.4086
 4328SOL    HW124446   3.560   2.244   7.349 -2.1354  1.1382  0.0413
 4328SOL    HW224447   3.629   2.366   7.313  0.2392 -0.3094 -0.5889
 4329SOL     OW24448   1.917   1.894   6.212  0.0540 -0.4864 -0.4002
 4329SOL    HW124449   1.852   1.950   6.256  0.6571 -0.8338  0.9271
 4329SOL    HW224450   1.897   1.817   6.265 -2.5932 -0.9444 -2.0362
 4330SOL     OW24451   0.630   3.470  11.540  0.0123 -0.5153 -0.1551
 4330SOL    HW124452   0.622   3.527  11.464  0.5838 -0.9018 -0.5070
 4330SOL    HW224453   0.722   3.488  11.560 -0.2439  1.1902 -0.5787
 4331SOL     OW24454   1.140   1.685  16.573 -0.3985 -0.2142 -0.0186
 4331SOL    HW124455   1.109   1.727  16.493 -1.8892  1.9646  1.6831
 4331SOL    HW224456   1.203   1.623  16.539 -2.5026 -2.1868 -0.3206
 4332SOL     OW24457   3.928   4.409   1.794 -0.2994  0.4215  0.4032
 4332SOL    HW124458   3.984   4.331   1.796 -0.2063  0.5319  2.0620
 4332SOL    HW224459   3.968   4.449   1.871 -1.3944  1.4671  0.4290
 4333SOL     OW24460   2.819   3.583   7.285  0.3257  0.1754  0.1857
 4333SOL    HW124461   2.767   3.555   7.361 -1.0201 -2.0029 -1.5319
 4333SOL    HW224462   2.766   3.553   7.212  1.8038 -0.0940 -0.7734
 4334SOL     OW24463   2.700   4.677   8.982 -0.3837 -0.1991 -0.7158
 4334SOL    HW124464   2.739   4.654   9.066 -0.1123 -1.6002 -1.2144
 4334SOL    HW224465   2.758   4.632   8.920  2.6255  2.1737  0.3429
 4335SOL     OW24466   1.974   4.015   1.081 -0.1522 -0.6340 -0.3739
 4335SOL    HW124467   1.955   4.057   0.997  2.8465  0.0181 -0.7201
 4335SOL    HW224468   1.886   4.006   1.117  0.5923 -0.6006  1.4224
 4336SOL     OW24469   2.385   1.092  16.764  0.6315  0.6519  0.0392
 4336SOL    HW124470   2.439   1.017  16.790 -0.7054  0.1035  1.2847
 4336SOL    HW224471   2.301   1.056  16.793  0.5112  1.7424  1.0346
 4337SOL     OW24472   1.837   2.707   1.973  0.3459  0.5416 -0.1142
 4337SOL    HW124473   1.930   2.726   1.978 -0.1126  2.3271  1.7022
 4337SOL    HW224474   1.798   2.794   1.979 -1.9093 -0.4368 -0.1923
 4338SOL     OW24475   3.787   0.660   4.438 -0.1581  0.0097  0.7758
 4338SOL    HW124476   3.810   0.714   4.514 -0.7604 -1.1091  1.7644
 4338SOL    HW224477   3.771   0.578   4.484 -2.4986 -0.3310 -0.6911
 4339SOL     OW24478   1.805   4.407   7.926  0.0808 -0.8249  0.6453
 4339SOL    HW124479   1.760   4.353   7.861 -1.7732  1.0276  0.3825
 4339SOL    HW224480   1.899   4.392   7.916  0.0318 -0.1038 -0.8051
 4340SOL     OW24481   2.560   3.520   5.241 -0.3461 -0.2008  0.2380
 4340SOL    HW124482   2.527   3.534   5.330 -1.2113 -1.1526  0.0757
 4340SOL    HW224483   2.478   3.499   5.195  0.6265 -1.6342 -0.8623
 4341SOL     OW24484   3.231   3.632   3.831  0.1632 -0.3954 -0.7706
 4341SOL    HW124485   3.226   3.728   3.835  0.8096 -0.3679 -0.5877
 4341SOL    HW224486   3.194   3.606   3.915  0.6379  2.6584  0.3823
 4342SOL     OW24487   3.467   2.103   8.027 -0.3797 -0.8469 -0.4644
 4342SOL    HW124488   3.480   2.177   7.969  0.7369 -1.0386 -0.4588
 4342SOL    HW224489   3.420   2.043   7.969 -1.3146 -1.3527  0.8088
 4343SOL     OW24490   0.846   3.141   4.414 -0.4059  0.2578  0.5273
 4343SOL    HW124491   0.919   3.089   4.446 -0.1032 -0.2435 -0.9740
 4343SOL    HW224492   0.878   3.231   4.407  1.2818 -0.2946  1.1463
 4344SOL     OW24493   1.356   1.980   7.533 -0.0219  0.8257 -0.0627
 4344SOL    HW124494   1.278   2.003   7.583 -0.4036  2.3905 -1.3879
 4344SOL    HW224495   1.326   1.968   7.442 -0.5733 -1.0405  0.3531
 4345SOL     OW24496   3.921   1.016   4.017  0.2361 -0.2206 -0.3006
 4345SOL    HW124497   3.935   0.975   4.103 -0.7764 -0.1077 -0.0801
 4345SOL    HW224498   3.830   1.044   4.021  0.7684  1.7657 -2.1735
 4346SOL     OW24499   1.701   4.485   2.216 -0.1517 -0.1709  0.2762
 4346SOL    HW124500   1.701   4.503   2.310 -2.1614  1.1385  0.0244
 4346SOL    HW224501   1.609   4.488   2.189  0.2871  1.2074 -1.0137
 4347SOL     OW24502   0.975   3.937   0.994 -0.1850 -0.2702 -0.0553
 4347SOL    HW124503   0.993   3.844   1.007  0.9319  0.3185  2.6503
 4347SOL    HW224504   0.933   3.943   0.908  0.1865  1.2200 -0.1377
 4348SOL     OW24505   2.716   0.175   1.564  0.2166  0.1919  0.2231
 4348SOL    HW124506   2.721   0.261   1.522  3.4155 -1.3300 -2.5239
 4348SOL    HW224507   2.800   0.142   1.530  0.8045  3.1713 -1.2533
 4349SOL     OW24508   2.665   1.176   3.325  0.1656  0.5871 -0.2164
 4349SOL    HW124509   2.760   1.166   3.331  0.0941 -0.7969 -1.2266
 4349SOL    HW224510   2.634   1.089   3.350  1.3809  0.0244 -0.6704
 4350SOL     OW24511   0.814   4.401   1.036 -0.6576  0.1522 -0.5138
 4350SOL    HW124512   0.874   4.465   0.998  0.2355  0.5241  1.5312
 4350SOL    HW224513   0.871   4.336   1.076  0.4299  0.5626 -1.3724
 4351SOL     OW24514   2.312   4.692   4.182  0.2585 -0.2913  0.0689
 4351SOL    HW124515   2.307   0.045   4.237  0.6839 -0.5760  0.4997
 4351SOL    HW224516   2.238   4.635   4.201 -1.0714  0.9642 -1.3175
 4352SOL     OW24517   3.115   1.029   9.865  0.7202 -0.6322 -0.2089
 4352SOL    HW124518   3.031   1.037   9.820  0.9716 -1.9973 -0.9259
 4352SOL    HW224519   3.078   0.998   9.948 -0.3659  1.0349 -0.0737
 4353SOL     OW24520   3.579   4.266   4.458 -0.8172  0.3342  0.1111
 4353SOL    HW124521   3.519   4.245   4.387  0.2430  0.6747 -0.8827
 4353SOL    HW224522   3.585   4.361   4.449  0.0186  0.2540 -0.1104
 4354SOL     OW24523   2.591   2.307  14.095  0.1999  0.4793  0.0631
 4354SOL    HW124524   2.577   2.377  14.032  0.4526  0.4006 -0.0812
 4354SOL    HW224525   2.537   2.343  14.165  2.8951  3.2110  0.7386
 4355SOL     OW24526   1.591   1.473   9.266 -0.1150 -0.6507 -0.5187
 4355SOL    HW124527   1.604   1.532   9.340 -2.2974 -0.2332 -0.4878
 4355SOL    HW224528   1.680   1.438   9.271  0.3983  0.7556  0.2722
 4356SOL     OW24529   3.022   2.652   5.407  0.0384  0.2226 -0.5348
 4356SOL    HW124530   3.084   2.696   5.348  0.6105  0.5363  0.2898
 4356SOL    HW224531   2.944   2.700   5.380 -0.0255  1.3828  1.6844
 4357SOL     OW24532   1.725   1.283   1.015 -0.1660  0.3461 -0.1276
 4357SOL    HW124533   1.797   1.261   1.074  0.2531 -1.9635 -1.4874
 4357SOL    HW224534   1.706   1.366   1.059 -1.3951 -0.8192  1.5161
 4358SOL     OW24535   2.157   2.928   4.288  0.2580  0.2976 -0.5095
 4358SOL    HW124536   2.082   2.880   4.251 -0.3374  0.4838  0.4581
 4358SOL    HW224537   2.213   2.853   4.306  2.4950  1.8632 -1.0149
 4359SOL     OW24538   0.114   4.410   7.330  0.2240  0.0396 -0.2492
 4359SOL    HW124539   0.022   4.385   7.329 -0.2281  1.5361  2.5004
 4359SOL    HW224540   0.123   4.457   7.247 -0.4353  2.7743  1.2146
 4360SOL     OW24541   1.150   4.067   3.550  0.2918 -0.4850 -0.6319
 4360SOL    HW124542   1.056   4.080   3.540  0.4922  1.5277  0.2405
 4360SOL    HW224543   1.176   4.155   3.522 -0.3067  0.0212  0.4204
 4361SOL     OW24544   1.571   2.794   8.118 -0.3547 -0.6952  0.0946
 4361SOL    HW124545   1.520   2.731   8.169 -1.4061 -0.2485 -0.3931
 4361SOL    HW224546   1.507   2.801   8.046 -1.8699 -1.6738  1.3499
 4362SOL     OW24547   3.882   0.081   6.852  0.0815 -0.0802 -0.3067
 4362SOL    HW124548   3.950   0.015   6.862  1.3672  1.1969 -0.5647
 4362SOL    HW224549   3.935   0.158   6.833  0.6326  0.3640  3.0360
 4363SOL     OW24550   4.504   1.172   7.577  0.3515 -0.0072 -0.0647
 4363SOL    HW124551   4.470   1.084   7.563  0.0389  0.0065  0.6052
 4363SOL    HW224552   4.597   1.156   7.560 -0.2178 -2.0726 -1.2347
 4364SOL     OW24553   2.424   2.736   1.911  0.0465 -0.1686  0.0929
 4364SOL    HW124554   2.427   2.640   1.917  1.3813 -0.2081 -1.1843
 4364SOL    HW224555   2.408   2.762   1.820  0.0043  2.4101  0.8550
 4365SOL     OW24556   2.351   3.284   3.601  0.4586 -0.0635  0.2488
 4365SOL    HW124557   2.297   3.345   3.550 -1.7317 -0.5505  1.9589
 4365SOL    HW224558   2.345   3.337   3.680 -0.0526  2.2892 -1.3523
 4366SOL     OW24559   1.664   2.421   4.903 -0.3113 -0.1279  0.0186
 4366SOL    HW124560   1.600   2.474   4.856  0.6503 -0.4765 -1.7220
 4366SOL    HW224561   1.619   2.424   4.987 -1.6050 -3.4933 -0.5547
 4367SOL     OW24562   0.386   0.520  10.913  0.0056 -0.2808  0.3905
 4367SOL    HW124563   0.387   0.443  10.970  0.7631 -0.2820  0.3729
 4367SOL    HW224564   0.342   0.482  10.836 -0.2073  0.9511 -0.0978
 4368SOL     OW24565   3.900   3.835   9.068  0.2977  0.1444 -0.2008
 4368SOL    HW124566   3.894   3.841   9.163  2.4552 -0.2334 -0.0417
 4368SOL    HW224567   3.879   3.741   9.066 -0.4121  0.3213 -1.2490
 4369SOL     OW24568   1.198   3.692   4.306 -0.0619 -0.2698 -0.1198
 4369SOL    HW124569   1.124   3.698   4.367  0.5381  1.6199  0.4111
 4369SOL    HW224570   1.248   3.625   4.352  1.1021 -0.2578 -1.3804
 4370SOL     OW24571   1.721   0.422   1.704  0.2192  0.4994 -0.6676
 4370SOL    HW124572   1.789   0.437   1.638  1.8853 -0.9675  0.7136
 4370SOL    HW224573   1.754   0.459   1.786  0.8914  0.1512 -0.7774
 4371SOL     OW24574   3.349   1.838   6.364 -1.1258  0.4977  0.1860
 4371SOL    HW124575   3.442   1.817   6.357 -1.5144 -1.4444  0.9993
 4371SOL    HW224576   3.336   1.802   6.452  1.3362  1.3364  0.8929
 4372SOL     OW24577   3.751   0.677   1.659 -0.2905  0.3031 -0.1661
 4372SOL    HW124578   3.752   0.682   1.564  3.5966 -1.8219 -0.2201
 4372SOL    HW224579   3.791   0.592   1.678  1.2905  1.3422  1.2088
 4373SOL     OW24580   4.360   4.455  14.080  0.0216  0.1234 -0.0233
 4373SOL    HW124581   4.453   4.431  14.078  0.1843  0.9597 -2.5481
 4373SOL    HW224582   4.346   4.427  14.171  0.5665 -1.2214 -0.3475
 4374SOL     OW24583   1.192   4.405   4.659  0.7094  0.5932  0.0046
 4374SOL    HW124584   1.113   4.352   4.646  0.1451  1.0073  1.7412
 4374SOL    HW224585   1.254   4.333   4.646 -1.1789 -0.5967 -2.4602
 4375SOL     OW24586   3.300   0.869   3.286 -0.0329  0.5810 -0.1782
 4375SOL    HW124587   3.269   0.922   3.359 -1.1742 -0.4658  0.0882
 4375SOL    HW224588   3.395   0.883   3.291  0.3029 -2.0342  1.3553
 4376SOL     OW24589   1.673   4.493   1.806 -0.4962 -0.3257  0.1561
 4376SOL    HW124590   1.635   4.557   1.865  0.7134 -1.4941  2.2089
 4376SOL    HW224591   1.760   4.524   1.781 -1.0422 -0.1228 -1.4947
 4377SOL     OW24592   1.343   2.587   7.643 -0.2617 -0.0977 -0.5311
 4377SOL    HW124593   1.383   2.533   7.711 -1.3097 -0.7599 -0.4312
 4377SOL    HW224594   1.391   2.669   7.650  1.9297 -1.3362 -0.9016
 4378SOL     OW24595   1.899   0.107   4.355  0.5138  0.2607  0.0533
 4378SOL    HW124596   1.948   0.034   4.316  2.1317  1.1836  0.3763
 4378SOL    HW224597   1.877   0.070   4.441  1.0038  0.9187  0.4512
 4379SOL     OW24598   2.779   2.642   2.519  0.1098  0.0525 -0.2353
 4379SOL    HW124599   2.755   2.698   2.592  1.2673  0.9743 -0.5646
 4379SOL    HW224600   2.800   2.699   2.446  0.6679 -1.5234 -1.3188
 4380SOL     OW24601   0.523   0.630   1.805  0.2926  0.0107 -0.0869
 4380SOL    HW124602   0.452   0.670   1.754  1.3140  2.4013  0.3556
 4380SOL    HW224603   0.597   0.659   1.752  0.4465 -0.6885 -0.2560
 4381SOL     OW24604   0.961   4.581   3.122 -0.0106  0.0278  0.6669
 4381SOL    HW124605   0.993   4.670   3.139 -1.4760  0.2342  2.2898
 4381SOL    HW224606   1.044   4.538   3.104 -1.2269 -2.2632  0.5363
 4382SOL     OW24607   0.189   0.378   8.831  0.3453 -0.3881 -0.3342
 4382SOL    HW124608   0.146   0.421   8.757  1.9860 -0.6023 -1.4143
 4382SOL    HW224609   0.151   0.290   8.831 -0.2857 -0.1069 -2.5996
 4383SOL     OW24610   0.233   1.290   4.147 -0.1135 -0.6487 -0.6431
 4383SOL    HW124611   0.149   1.317   4.182  0.4537  1.2764 -0.7563
 4383SOL    HW224612   0.279   1.372   4.126  0.7209 -0.9363  0.0665
 4384SOL     OW24613   0.443   2.063   8.041 -0.1776 -0.2012 -0.1173
 4384SOL    HW124614   0.489   2.045   8.123 -1.0109 -3.5874 -0.4029
 4384SOL    HW224615   0.362   2.105   8.069  0.1425 -2.0339  3.6003
 4385SOL     OW24616   0.252   2.987   2.994  0.6004  0.1040 -0.9934
 4385SOL    HW124617   0.249   3.070   3.043  0.8405  0.3058 -1.3249
 4385SOL    HW224618   0.321   3.001   2.930  0.7062 -1.0590 -1.1238
 4386SOL     OW24619   1.214   0.664   4.923  0.1293 -0.0584  0.0435
 4386SOL    HW124620   1.275   0.593   4.942 -0.6367 -0.5199  0.7837
 4386SOL    HW224621   1.277   0.733   4.900 -1.3522  1.2307 -0.1563
 4387SOL     OW24622   1.320   3.480   9.301  0.1228 -0.8540 -0.2454
 4387SOL    HW124623   1.291   3.521   9.383  0.8136 -0.1801 -0.3405
 4387SOL    HW224624   1.286   3.391   9.314 -0.8963 -0.7867 -2.5118
 4388SOL     OW24625   3.939   3.195   8.160 -0.5852 -0.4130 -0.1598
 4388SOL    HW124626   3.920   3.259   8.091  1.3555 -1.1568 -1.4042
 4388SOL    HW224627   3.898   3.118   8.120  0.8931 -1.2020 -0.1533
 4389SOL     OW24628   2.815   4.163   9.412  0.1045 -0.1249  0.3428
 4389SOL    HW124629   2.880   4.150   9.482  1.3874  1.8630 -0.4614
 4389SOL    HW224630   2.765   4.082   9.419 -2.5246  1.4657  0.0338
 4390SOL     OW24631   3.081   2.289   4.989 -0.2239 -0.0428 -0.7324
 4390SOL    HW124632   3.092   2.211   5.044  0.6477 -0.7492 -1.8784
 4390SOL    HW224633   3.171   2.323   4.993 -0.4853  0.4157  1.1692
 4391SOL     OW24634   0.944   2.099   7.857 -0.0566 -0.3704 -0.2721
 4391SOL    HW124635   0.985   2.036   7.797  0.2939 -1.6622  1.3365
 4391SOL    HW224636   0.864   2.057   7.887  1.3993 -0.7881  2.9676
 4392SOL     OW24637   4.525   0.971   7.904 -0.3097 -0.1921  0.4816
 4392SOL    HW124638   4.532   0.910   7.831 -2.2401  1.2368 -0.8884
 4392SOL    HW224639   4.571   1.048   7.870  1.2439 -0.8223  1.1657
 4393SOL     OW24640   3.329   4.031   7.778 -0.0660 -0.2097  0.1464
 4393SOL    HW124641   3.397   4.045   7.843  0.2429 -1.3707  0.0661
 4393SOL    HW224642   3.293   3.947   7.804 -1.9051  0.6186  0.2431
 4394SOL     OW24643   1.685   4.495   8.602 -0.3248  0.3063 -0.1978
 4394SOL    HW124644   1.726   4.473   8.518  1.3302 -2.4372  1.3014
 4394SOL    HW224645   1.692   4.590   8.612 -1.5424  0.5708 -1.9509
 4395SOL     OW24646   1.134   2.942  10.626 -0.0045 -0.2889 -0.3891
 4395SOL    HW124647   1.046   2.916  10.652  0.2606 -0.5207  0.2810
 4395SOL    HW224648   1.184   2.861  10.636  0.8822  0.2545 -0.3494
 4396SOL     OW24649   1.987   3.725   8.059  0.0814  0.0380 -0.2575
 4396SOL    HW124650   2.040   3.680   8.125 -0.3947 -0.0238  0.0864
 4396SOL    HW224651   1.897   3.709   8.088 -0.7599  1.3695 -2.1091
 4397SOL     OW24652   3.317   0.596   1.727  0.1228 -0.0592  0.8342
 4397SOL    HW124653   3.402   0.560   1.751  0.7289 -0.1434 -1.4018
 4397SOL    HW224654   3.256   0.562   1.793 -0.1705  3.1389  2.2159
 4398SOL     OW24655   2.784   3.662   3.967  0.1975  0.5744 -0.3231
 4398SOL    HW124656   2.789   3.687   4.059 -1.8934  1.5282 -0.4726
 4398SOL    HW224657   2.819   3.573   3.978  2.3947  1.4941  0.0953
 4399SOL     OW24658   2.633   3.537   6.284  0.0745 -0.3337 -0.5976
 4399SOL    HW124659   2.689   3.491   6.346 -1.0020 -1.4475 -0.4664
 4399SOL    HW224660   2.570   3.578   6.343 -0.7916 -1.1437 -0.9539
 4400SOL     OW24661   2.660   0.223   5.045 -0.0482  0.2617  0.2903
 4400SOL    HW124662   2.672   0.250   5.136  1.1980 -0.7472  0.4149
 4400SOL    HW224663   2.746   0.186   5.025 -0.3083  0.1441 -0.5986
 4401SOL     OW24664   2.229   1.210   7.851  0.2837 -0.8855 -0.1321
 4401SOL    HW124665   2.201   1.238   7.938 -1.1948 -2.7274 -0.0273
 4401SOL    HW224666   2.251   1.117   7.863 -1.6507 -1.3073  0.0646
 4402SOL     OW24667   3.731   3.728  14.109  0.2486 -1.1541  0.0575
 4402SOL    HW124668   3.753   3.762  14.196 -0.2053  1.8957 -1.0138
 4402SOL    HW224669   3.642   3.698  14.126 -0.2590 -0.0284 -0.6039
 4403SOL     OW24670   4.232   2.300  11.136 -0.0462  0.6794 -0.0099
 4403SOL    HW124671   4.236   2.254  11.053  0.6110 -0.0581  0.4304
 4403SOL    HW224672   4.319   2.339  11.142  0.6518 -1.0167  0.7169
 4404SOL     OW24673   3.568   2.010  13.034  0.3019  0.3814 -0.3552
 4404SOL    HW124674   3.508   1.947  13.074  1.6326 -2.0448 -2.1951
 4404SOL    HW224675   3.654   1.977  13.063 -0.1374 -1.4861 -1.1653
 4405SOL     OW24676   3.489   1.759   6.826  0.5871 -0.0009 -0.0336
 4405SOL    HW124677   3.464   1.742   6.735 -1.2755 -0.4082  0.5442
 4405SOL    HW224678   3.455   1.846   6.847  0.1138 -0.3196  0.5233
 4406SOL     OW24679   0.083   0.654   5.556  0.0173  0.2140 -0.0442
 4406SOL    HW124680   4.721   0.690   5.573  0.6987  0.7150  2.4132
 4406SOL    HW224681   0.078   0.599   5.478 -0.5966  0.8961 -0.4780
 4407SOL     OW24682   4.489   0.810  14.696  0.5673 -0.1625 -0.4050
 4407SOL    HW124683   4.511   0.839  14.784  1.0305  0.1626 -0.6291
 4407SOL    HW224684   4.404   0.767  14.708  0.4911  0.4983  1.3855
 4408SOL     OW24685   1.638   3.639   0.962 -0.1555 -0.2635  0.4109
 4408SOL    HW124686   1.604   3.582   0.893  0.2882 -1.6246  1.3177
 4408SOL    HW224687   1.610   3.726   0.933  1.2536  0.2387  0.5546
 4409SOL     OW24688   0.938   4.285   5.386 -0.4509  0.2487 -0.6896
 4409SOL    HW124689   0.958   4.200   5.346  1.4415 -0.1746  1.1353
 4409SOL    HW224690   0.986   4.277   5.468 -1.5861 -2.6522 -0.3037
 4410SOL     OW24691   1.958   1.771   4.738  0.1166 -0.0467 -0.3145
 4410SOL    HW124692   2.045   1.746   4.770  0.3593 -0.7767 -1.5476
 4410SOL    HW224693   1.907   1.694   4.761  0.8656 -1.0575 -2.0262
 4411SOL     OW24694   3.506   0.867  13.078 -0.1928 -0.1740 -0.2449
 4411SOL    HW124695   3.576   0.848  13.016  0.6854  1.7895  0.1543
 4411SOL    HW224696   3.513   0.790  13.134  1.3408 -0.1955 -0.4683
 4412SOL     OW24697   2.160   2.513   7.099  0.5967  0.1498 -0.0118
 4412SOL    HW124698   2.200   2.503   7.185  0.2770  3.9317  0.5718
 4412SOL    HW224699   2.067   2.523   7.114  0.5582  0.8740 -0.6911
 4413SOL     OW24700   3.673   1.950   4.299  0.3333 -0.2820  0.0219
 4413SOL    HW124701   3.769   1.948   4.295  0.2619 -1.2070 -1.3224
 4413SOL    HW224702   3.661   2.016   4.231 -1.2279 -1.1041 -0.5094
 4414SOL     OW24703   2.151   1.509  15.342 -0.3456 -0.7400 -0.3615
 4414SOL    HW124704   2.095   1.535  15.269  1.8008  1.0022 -1.4057
 4414SOL    HW224705   2.198   1.433  15.308  0.2643  0.1018 -1.3981
 4415SOL     OW24706   2.988   3.373   8.803  0.4253 -0.2310  0.2205
 4415SOL    HW124707   2.969   3.438   8.870  0.3198  1.7553 -1.7772
 4415SOL    HW224708   3.026   3.300   8.853  0.2892 -0.3623  0.1317
 4416SOL     OW24709   1.578   0.688  14.576  0.0022 -0.2152 -0.4837
 4416SOL    HW124710   1.614   0.680  14.487 -0.0363  1.7825 -0.6682
 4416SOL    HW224711   1.585   0.596  14.601 -0.8185 -0.7558 -2.1891
 4417SOL     OW24712   0.889   4.537   5.499  0.0446  0.0657 -0.3936
 4417SOL    HW124713   0.797   4.524   5.524 -0.8689  1.0291 -3.2886
 4417SOL    HW224714   0.905   4.450   5.462  0.1284  1.0275 -2.5918
 4418SOL     OW24715   2.551   2.912  11.716  0.7840  0.5374 -0.0302
 4418SOL    HW124716   2.565   3.001  11.749 -1.8604  0.0607  2.3532
 4418SOL    HW224717   2.577   2.857  11.790 -0.2646  0.8555  0.5658
 4419SOL     OW24718   3.926   0.851   9.035 -0.1196 -0.2574 -0.2609
 4419SOL    HW124719   3.880   0.906   9.099  2.1920  1.3109  0.0547
 4419SOL    HW224720   3.950   0.776   9.088 -0.2473 -0.9827 -1.2424
 4420SOL     OW24721   3.791   0.224   9.769 -0.2218  0.0485  0.4835
 4420SOL    HW124722   3.721   0.187   9.715 -0.6711 -1.3536  2.0327
 4420SOL    HW224723   3.865   0.220   9.707 -0.0357  1.2279  0.6425
 4421SOL     OW24724   1.106   0.323   3.905  0.1411 -0.3430 -0.1882
 4421SOL    HW124725   1.170   0.394   3.896 -0.2507 -0.0239 -0.4342
 4421SOL    HW224726   1.028   0.373   3.881  1.3790  1.5415 -0.2976
 4422SOL     OW24727   2.104   0.145   7.762 -0.2378 -0.2338 -0.3045
 4422SOL    HW124728   2.122   0.052   7.774 -1.3393 -0.1944  1.5377
 4422SOL    HW224729   2.011   0.150   7.742  0.0240 -0.0587 -1.5145
 4423SOL     OW24730   1.131   4.440   5.833  0.5220  0.3283 -0.0642
 4423SOL    HW124731   1.080   4.447   5.752 -1.9812  1.8489  1.6287
 4423SOL    HW224732   1.073   4.480   5.898  0.5852  1.2560 -0.5764
 4424SOL     OW24733   4.678   2.336  14.842  0.0726  0.3069 -0.1951
 4424SOL    HW124734   4.707   2.423  14.817  0.6176  0.8764  2.3957
 4424SOL    HW224735   0.031   2.304  14.887  0.5724  0.5892 -0.8530
 4425SOL     OW24736   3.494   1.143   5.029  0.1442  0.1943 -0.1905
 4425SOL    HW124737   3.530   1.075   5.086 -1.7712  0.6820  1.6288
 4425SOL    HW224738   3.564   1.166   4.968 -0.0303  0.1709 -0.3995
 4426SOL     OW24739   0.755   0.394   5.731 -0.1579 -0.7746 -0.5273
 4426SOL    HW124740   0.682   0.453   5.748 -0.6695 -1.1305 -1.4715
 4426SOL    HW224741   0.827   0.456   5.717 -0.5443 -0.2992 -0.4179
 4427SOL     OW24742   2.268   2.929  11.663  0.9321 -0.4670 -0.2206
 4427SOL    HW124743   2.358   2.896  11.667  1.6390  1.4990  0.2474
 4427SOL    HW224744   2.222   2.886  11.734 -0.9017  0.1986 -0.9916
 4428SOL     OW24745   0.990   0.585  12.257  0.8327 -0.2458 -0.0618
 4428SOL    HW124746   1.084   0.580  12.239  1.2580  0.3157  2.0339
 4428SOL    HW224747   0.962   0.567  12.167 -1.4593 -3.8695  1.4151
 4429SOL     OW24748   1.207   0.370   9.405 -0.1749  0.6487  0.1907
 4429SOL    HW124749   1.204   0.279   9.435  1.9560  0.0847 -1.3017
 4429SOL    HW224750   1.120   0.399   9.433  0.2831  1.4939  0.7380
 4430SOL     OW24751   4.556   3.799   8.578 -0.0947 -0.2986  0.1297
 4430SOL    HW124752   4.650   3.812   8.568  0.1903 -0.3036  2.9624
 4430SOL    HW224753   4.524   3.865   8.639 -0.2454 -0.1707 -0.0889
 4431SOL     OW24754   3.407   4.061   8.052 -0.0111 -0.2184 -0.3580
 4431SOL    HW124755   3.501   4.071   8.035  0.2067 -0.3055  0.8447
 4431SOL    HW224756   3.405   3.987   8.111  1.2891 -0.4543 -0.6131
 4432SOL     OW24757   1.684   3.772   9.944  0.8771 -0.1187 -0.1066
 4432SOL    HW124758   1.751   3.705   9.933  2.1121  0.9292  1.1775
 4432SOL    HW224759   1.705   3.779  10.037  0.8805 -1.6841  0.0164
 4433SOL     OW24760   2.387   2.492   6.705  0.6621 -0.4506 -0.0595
 4433SOL    HW124761   2.437   2.412   6.721  1.6142  0.1095 -0.2908
 4433SOL    HW224762   2.456   2.548   6.670  1.2792 -0.1828  1.6074
 4434SOL     OW24763   0.949   1.959  11.464 -0.0474 -0.1313  0.8452
 4434SOL    HW124764   1.019   1.896  11.443 -0.9362 -1.1747  0.9789
 4434SOL    HW224765   0.886   1.890  11.484 -1.7958  1.4175  0.6491
 4435SOL     OW24766   0.906   4.461   8.348 -0.2754 -0.1731 -0.1674
 4435SOL    HW124767   0.971   4.391   8.353 -1.7766 -1.4782  0.8610
 4435SOL    HW224768   0.883   4.476   8.440 -1.5052  1.4599 -0.7214
 4436SOL     OW24769   0.484   4.228  13.926  0.1888  0.4353  0.1694
 4436SOL    HW124770   0.515   4.161  13.987 -0.4735  0.3400  0.4065
 4436SOL    HW224771   0.447   4.289  13.990 -0.2953 -0.3190  0.6134
 4437SOL     OW24772   2.981   0.954   8.265  0.3348  0.3163  0.1114
 4437SOL    HW124773   3.030   0.896   8.207  1.0033  2.4538 -1.4588
 4437SOL    HW224774   2.980   1.034   8.212  0.0935  0.6489  0.6245
 4438SOL     OW24775   4.198   1.966  11.425 -0.1124 -0.1783  0.0581
 4438SOL    HW124776   4.260   1.994  11.493  1.1371 -1.8073 -0.4121
 4438SOL    HW224777   4.254   1.903  11.380 -1.0080  0.1128 -1.4549
 4439SOL     OW24778   2.461   4.519   4.317  0.0899 -0.9449  0.1708
 4439SOL    HW124779   2.389   4.478   4.364  0.4356 -0.6646  0.9513
 4439SOL    HW224780   2.422   4.598   4.281  1.8082  0.3511  1.1638
 4440SOL     OW24781   3.188   2.310   4.677 -0.1227 -0.1047 -0.5344
 4440SOL    HW124782   3.169   2.269   4.761 -1.0247  1.8349  0.2006
 4440SOL    HW224783   3.118   2.371   4.656  0.5253  0.6803 -0.3877
 4441SOL     OW24784   0.196   0.099   8.251  0.2246 -0.1774 -0.2053
 4441SOL    HW124785   0.152   0.185   8.251 -0.4355 -0.5152 -0.2792
 4441SOL    HW224786   0.138   0.057   8.188  0.7682 -0.7004 -0.3491
 4442SOL     OW24787   1.828   1.151   5.777  0.4155  0.0279  0.1195
 4442SOL    HW124788   1.761   1.092   5.811  0.7783 -0.6686 -0.3708
 4442SOL    HW224789   1.834   1.202   5.858  0.1790  1.9609 -1.0650
 4443SOL     OW24790   1.937   2.664  10.009  0.6450 -0.6037  0.0625
 4443SOL    HW124791   2.015   2.628  10.051  0.9145 -0.2620 -0.1404
 4443SOL    HW224792   1.882   2.586  10.011  0.0197 -0.1526  0.4650
 4444SOL     OW24793   2.506   2.321   3.291  0.5533 -0.3612 -0.4071
 4444SOL    HW124794   2.519   2.325   3.196 -0.1126 -0.5269 -0.5093
 4444SOL    HW224795   2.564   2.248   3.314  0.5988  1.3321  4.7440
 4445SOL     OW24796   0.078   0.987   8.709 -0.3085 -0.1767 -0.2448
 4445SOL    HW124797   0.050   0.902   8.674 -1.9511  0.4043 -0.3851
 4445SOL    HW224798   0.121   1.015   8.628  0.1863 -2.0873 -0.6384
 4446SOL     OW24799   0.328   3.977   0.245  0.3166 -0.1972  0.5894
 4446SOL    HW124800   0.360   3.893   0.213  0.4480 -0.1525  0.6020
 4446SOL    HW224801   0.380   4.036   0.190  0.8297  0.2863  1.5885
 4447SOL     OW24802   3.427   0.036  17.170 -0.2473 -0.3046  0.0581
 4447SOL    HW124803   3.409   4.720  17.254 -1.5188 -1.4473 -0.7915
 4447SOL    HW224804   3.366   0.001  17.106 -1.6523  0.0586  1.2082
 4448SOL     OW24805   0.320   0.786   5.487  0.5178 -0.4379 -0.2192
 4448SOL    HW124806   0.235   0.755   5.518  1.0117 -1.9580 -0.4076
 4448SOL    HW224807   0.330   0.869   5.535 -0.9694  0.6596 -1.7763
 4449SOL     OW24808   1.271   3.292   6.693 -0.3364 -0.0786 -0.0360
 4449SOL    HW124809   1.236   3.219   6.744  0.2873  1.3618  2.4535
 4449SOL    HW224810   1.301   3.237   6.621  1.7331  0.1682  0.6519
 4450SOL     OW24811   2.104   3.572   1.220 -0.2180  0.0677  0.6242
 4450SOL    HW124812   2.149   3.559   1.136 -2.2041 -0.0244 -0.4236
 4450SOL    HW224813   2.021   3.538   1.185  0.1565 -0.8272  0.6079
 4451SOL     OW24814   4.242   1.746   4.068 -0.1191  0.3501 -0.3997
 4451SOL    HW124815   4.263   1.834   4.036  0.7179  0.0847 -0.5763
 4451SOL    HW224816   4.328   1.705   4.061  0.5302  1.3825  1.5740
 4452SOL     OW24817   0.786   1.559  16.371 -0.1449 -0.1419  0.0660
 4452SOL    HW124818   0.714   1.515  16.325 -1.3149  2.4053 -0.5545
 4452SOL    HW224819   0.857   1.533  16.313  0.1119 -0.6370  0.5958
 4453SOL     OW24820   3.465   4.309   2.359 -0.0864 -0.4566 -0.0687
 4453SOL    HW124821   3.406   4.284   2.288 -0.5856  0.5280  0.0066
 4453SOL    HW224822   3.458   4.237   2.422 -0.4193 -0.2856  0.0880
 4454SOL     OW24823   0.868   0.435   2.836  0.1669  0.7864 -0.2877
 4454SOL    HW124824   0.785   0.443   2.790 -0.7578  1.5424  1.4902
 4454SOL    HW224825   0.901   0.524   2.837  1.1610  0.3989  1.1354
 4455SOL     OW24826   0.878   2.307   5.117  0.1808  0.3652  0.4465
 4455SOL    HW124827   0.787   2.331   5.102  0.6471  0.2341 -2.4925
 4455SOL    HW224828   0.898   2.354   5.199  0.8680  1.1449 -0.1653
 4456SOL     OW24829   3.719   1.512   7.210 -0.1059 -0.0901  0.1061
 4456SOL    HW124830   3.714   1.585   7.148  2.4964  0.5610  0.6521
 4456SOL    HW224831   3.704   1.554   7.295 -0.9444 -0.8977  0.3548
 4457SOL     OW24832   2.588   0.342   4.229  0.7949  0.2837  0.0193
 4457SOL    HW124833   2.579   0.357   4.323  1.1494 -1.8115  0.3709
 4457SOL    HW224834   2.656   0.405   4.204  0.6867  1.0009  1.5672
 4458SOL     OW24835   4.215   4.366   5.013 -0.4666 -0.2830 -0.3089
 4458SOL    HW124836   4.309   4.350   5.014 -0.4918 -0.4989 -0.9884
 4458SOL    HW224837   4.212   4.437   5.077 -2.0960 -0.1845 -0.4710
 4459SOL     OW24838   2.239   1.975   5.041  0.5287 -0.0440 -0.3323
 4459SOL    HW124839   2.266   2.047   4.984 -1.4742 -0.3363 -1.6175
 4459SOL    HW224840   2.279   1.901   4.996  0.5035 -0.9141  1.0584
 4460SOL     OW24841   3.869   0.047  16.794  0.4299  0.7829  0.1387
 4460SOL    HW124842   3.939   0.011  16.849  0.0574  0.4349  0.3855
 4460SOL    HW224843   3.794   0.033  16.851 -0.0674  0.4433 -0.5976
 4461SOL     OW24844   1.277   0.437   3.055  0.4344 -0.1487 -0.0374
 4461SOL    HW124845   1.236   0.440   2.969 -1.4065  0.0374  0.8520
 4461SOL    HW224846   1.196   0.410   3.099 -0.8230  1.1551 -1.5565
 4462SOL     OW24847   3.523   1.447   4.523  0.4994  0.3080  0.7327
 4462SOL    HW124848   3.549   1.401   4.603 -1.4608 -0.1541  1.0944
 4462SOL    HW224849   3.546   1.538   4.544  1.2871  0.0249  1.1065
 4463SOL     OW24850   4.607   2.495   2.104  0.3400 -0.6358  0.0916
 4463SOL    HW124851   4.672   2.560   2.079  1.5688 -1.6774  0.6058
 4463SOL    HW224852   4.660   2.419   2.126 -1.6666 -1.9396  0.4939
 4464SOL     OW24853   1.495   0.139  11.147  0.3006  0.1608 -0.7512
 4464SOL    HW124854   1.505   0.195  11.071  0.8225 -0.2718 -0.9998
 4464SOL    HW224855   1.406   0.168  11.168  0.5413  0.7156 -0.5020
 4465SOL     OW24856   2.175   0.639   2.208  0.6787  0.0574 -0.4463
 4465SOL    HW124857   2.215   0.726   2.200  0.6441  0.1871  0.8021
 4465SOL    HW224858   2.119   0.656   2.284  0.5286  0.7138 -0.7096
 4466SOL     OW24859   1.460   4.037  10.151  0.1914  0.0482  0.5357
 4466SOL    HW124860   1.446   3.952  10.191 -2.0352 -0.4467 -1.2671
 4466SOL    HW224861   1.448   4.019  10.057 -0.7126 -0.8634  0.8271
 4467SOL     OW24862   0.698   2.672   2.200 -0.0958  0.0066 -0.2741
 4467SOL    HW124863   0.674   2.581   2.187  0.7928 -0.3051  0.2621
 4467SOL    HW224864   0.793   2.666   2.204 -0.2458 -0.2028  2.9995
 4468SOL     OW24865   3.864   3.882   6.457  0.7764  0.0067 -0.5260
 4468SOL    HW124866   3.789   3.875   6.397  2.0778 -0.5942 -2.0583
 4468SOL    HW224867   3.826   3.946   6.517  0.4690  0.3130 -1.0414
 4469SOL     OW24868   2.460   1.323  15.200 -0.0390  0.1568  0.2326
 4469SOL    HW124869   2.442   1.343  15.108  0.3157 -0.7704 -0.0379
 4469SOL    HW224870   2.385   1.367  15.239  1.1703  1.7570  0.7398
 4470SOL     OW24871   3.916   1.720   7.906 -0.1505  0.0126  0.2789
 4470SOL    HW124872   3.855   1.647   7.905 -1.0792  0.7874 -0.1573
 4470SOL    HW224873   3.856   1.794   7.895 -1.6424 -0.9587  2.1358
 4471SOL     OW24874   2.685   2.987   5.532 -0.2329 -0.2801 -0.0419
 4471SOL    HW124875   2.778   2.990   5.551  0.1947 -0.5295 -2.0276
 4471SOL    HW224876   2.654   2.898   5.545  0.0867 -0.7536 -2.5646
 4472SOL     OW24877   4.004   4.656   5.083  0.0590  0.0738  0.0471
 4472SOL    HW124878   4.014   4.630   4.991 -0.1682 -2.0820  0.6466
 4472SOL    HW224879   4.090   4.636   5.120  0.5347  1.4093 -0.3338
 4473SOL     OW24880   0.761   0.630   1.632 -0.3376  0.0817  0.2098
 4473SOL    HW124881   0.778   0.567   1.702  0.3382  1.6876  1.4870
 4473SOL    HW224882   0.795   0.581   1.557  1.4895 -1.0722  1.7862
 4474SOL     OW24883   1.755   4.355   8.368  0.1341  0.4343 -0.7801
 4474SOL    HW124884   1.721   4.338   8.280  0.4763  0.6355 -0.9501
 4474SOL    HW224885   1.771   4.265   8.397 -3.7938 -0.0099 -0.0049
 4475SOL     OW24886   3.743   0.706   1.384 -0.4300 -0.2123 -0.2235
 4475SOL    HW124887   3.774   0.726   1.296 -0.5741 -1.7506 -0.6366
 4475SOL    HW224888   3.696   0.623   1.376  0.7525 -0.9496  0.4147
 4476SOL     OW24889   0.909   1.467  15.580 -0.2578  0.6653  0.6253
 4476SOL    HW124890   0.850   1.432  15.514 -0.7399  0.8974  0.9336
 4476SOL    HW224891   0.938   1.385  15.619 -1.2883  0.4248  0.8994
 4477SOL     OW24892   1.296   1.500   7.455 -0.0827 -0.3694  0.0356
 4477SOL    HW124893   1.249   1.455   7.524 -0.8320 -0.9813 -0.8823
 4477SOL    HW224894   1.320   1.562   7.524 -0.5557 -0.2767  0.1179
 4478SOL     OW24895   3.035   2.399   1.341  0.2898 -0.6292  0.4931
 4478SOL    HW124896   3.092   2.449   1.282 -0.6399 -1.1754 -0.8716
 4478SOL    HW224897   2.971   2.366   1.278 -0.3068  1.2542  0.1117
 4479SOL     OW24898   0.483   0.229   4.793 -0.4065  0.0777  0.4062
 4479SOL    HW124899   0.498   0.210   4.701 -1.1554  0.2300  0.2479
 4479SOL    HW224900   0.493   0.139   4.824 -0.0267 -0.5218 -1.4714
 4480SOL     OW24901   3.973   0.907  17.142 -0.0776  0.5686  0.4942
 4480SOL    HW124902   4.055   0.863  17.118  0.1292  0.4246  1.4386
 4480SOL    HW224903   4.017   0.973  17.195 -0.0371  0.6979  0.2979
 4481SOL     OW24904   0.012   0.940  14.709 -0.6465  0.6790  0.0795
 4481SOL    HW124905   0.071   0.867  14.696  0.3171  1.1193  1.9190
 4481SOL    HW224906   4.653   0.894  14.716  0.8999 -1.7858  2.5743
 4482SOL     OW24907   3.527   2.343   5.401  0.2509 -0.0893  0.0266
 4482SOL    HW124908   3.455   2.303   5.449  1.5155 -0.0913  1.9459
 4482SOL    HW224909   3.597   2.296   5.447 -0.6864  0.3009  1.8821
 4483SOL     OW24910   1.899   1.933   3.333 -0.2020 -0.2689  0.8847
 4483SOL    HW124911   1.952   1.904   3.259 -0.0411 -1.3174  1.4122
 4483SOL    HW224912   1.809   1.916   3.303  0.3049 -1.2369 -0.1055
 4484SOL     OW24913   1.557   0.974  15.868  0.2914  0.2094  0.6867
 4484SOL    HW124914   1.469   0.964  15.831  0.1368 -1.6536  1.5140
 4484SOL    HW224915   1.586   1.064  15.854  0.8282 -0.0315  0.2765
 4485SOL     OW24916   1.757   3.384  12.992 -0.0569 -0.7086 -0.5056
 4485SOL    HW124917   1.682   3.426  12.951  0.2870  0.3126 -0.1034
 4485SOL    HW224918   1.814   3.460  13.005 -1.9117  0.7317 -0.7829
 4486SOL     OW24919   4.353   0.344  10.124  0.0171 -0.0918  0.0850
 4486SOL    HW124920   4.417   0.273  10.129  0.5763  0.2209 -2.5264
 4486SOL    HW224921   4.284   0.332  10.190  0.5338  1.6383  0.9360
 4487SOL     OW24922   1.425   4.319   8.941 -1.0020  0.4332  0.4809
 4487SOL    HW124923   1.402   4.342   9.031 -1.7842 -0.5717  0.5248
 4487SOL    HW224924   1.416   4.402   8.892  0.4377  0.5134  0.3300
 4488SOL     OW24925   0.294   0.672   2.952 -0.1365  0.1940  1.0313
 4488SOL    HW124926   0.257   0.589   2.982  0.3053 -0.4790 -0.3103
 4488SOL    HW224927   0.375   0.650   2.907 -1.9596 -0.3890 -1.9907
 4489SOL     OW24928   1.543   3.991   4.137  0.4679  0.3884 -0.2097
 4489SOL    HW124929   1.447   3.994   4.140  0.4316 -0.2894 -0.8504
 4489SOL    HW224930   1.560   3.958   4.225  2.6293 -0.0693 -0.8177
 4490SOL     OW24931   0.121   1.000   9.209  0.3398  0.3417  0.7133
 4490SOL    HW124932   0.150   1.020   9.298 -0.2640 -0.8595  1.1791
 4490SOL    HW224933   0.193   1.043   9.164  0.7113  0.4833  1.4444
 4491SOL     OW24934   0.930   3.169   4.995  0.6366 -0.2985 -0.2139
 4491SOL    HW124935   0.929   3.080   4.960  1.2163 -0.2149 -0.4461
 4491SOL    HW224936   0.948   3.216   4.914 -0.3816 -2.6077 -1.7794
 4492SOL     OW24937   2.959   0.890  11.005  0.0801 -0.3067  0.1053
 4492SOL    HW124938   2.940   0.981  11.026  1.4641  0.0701 -0.3332
 4492SOL    HW224939   2.905   0.880  10.927  0.0234 -0.8568  0.2152
 4493SOL     OW24940   0.543   4.062   7.377 -0.3728  0.5805  0.7785
 4493SOL    HW124941   0.561   4.115   7.299  2.0928  0.2310  1.1249
 4493SOL    HW224942   0.455   4.097   7.390 -0.5799  0.9824 -1.6115
 4494SOL     OW24943   3.414   3.671   2.503  0.3766 -0.3906  0.5828
 4494SOL    HW124944   3.369   3.756   2.505 -1.1397 -1.1794  0.6844
 4494SOL    HW224945   3.356   3.616   2.450 -0.7852  1.2586  0.1257
 4495SOL     OW24946   4.587   0.341  11.010  0.1361  0.4783 -0.0075
 4495SOL    HW124947   4.565   0.295  11.091 -1.8263  1.5086  0.0419
 4495SOL    HW224948   4.666   0.309  10.967 -0.5162  1.7190 -2.1723
 4496SOL     OW24949   4.257   0.004  10.164  0.4071  0.4439 -0.6422
 4496SOL    HW124950   4.247   4.639  10.133  1.2144  0.8670 -2.1665
 4496SOL    HW224951   4.331   0.051  10.124  0.7874  0.7774  0.4599
 4497SOL     OW24952   2.137   4.122   4.920  0.5412  0.3853  0.0398
 4497SOL    HW124953   2.080   4.104   4.994  0.4327 -0.4337 -0.2489
 4497SOL    HW224954   2.076   4.126   4.846  1.6079  0.4284 -0.8569
 4498SOL     OW24955   0.604   2.158   4.550  0.8287 -0.2333 -0.3206
 4498SOL    HW124956   0.612   2.148   4.455  0.7750  0.5091 -0.4044
 4498SOL    HW224957   0.665   2.090   4.578 -0.7361 -1.8620 -0.8123
 4499SOL     OW24958   3.208   1.672   1.384  0.2742  0.3769  0.6941
 4499SOL    HW124959   3.125   1.629   1.364  1.4386 -1.5320 -0.0127
 4499SOL    HW224960   3.270   1.600   1.389  1.5915  1.5298  0.9345
 4500SOL     OW24961   2.057   1.753   8.335  0.0649 -0.2626 -0.1844
 4500SOL    HW124962   2.129   1.763   8.272  0.3570  1.4754  0.4083
 4500SOL    HW224963   2.106   1.776   8.414 -0.6138  1.5613 -0.2801
 4501SOL     OW24964   1.394   0.944   3.891 -0.0289  0.0055  0.3774
 4501SOL    HW124965   1.395   0.907   3.803 -0.5616  0.6987  0.0827
 4501SOL    HW224966   1.404   1.038   3.875 -2.2647 -0.1382 -1.8896
 4502SOL     OW24967   3.330   4.258  17.365  0.2825  0.3167  0.3751
 4502SOL    HW124968   3.337   4.343  17.322 -2.3445  1.1007  1.5518
 4502SOL    HW224969   3.245   4.274  17.405 -0.5389  1.9353 -2.0185
 4503SOL     OW24970   4.251   2.866  17.303 -0.6446 -0.4936  0.1200
 4503SOL    HW124971   4.328   2.824  17.266  0.1315  0.9520  0.1035
 4503SOL    HW224972   4.255   2.950  17.257  1.1052 -1.5184 -1.5430
 4504SOL     OW24973   2.363   2.630   8.545 -0.9559  0.6662 -0.0225
 4504SOL    HW124974   2.339   2.696   8.609 -1.2298 -1.3698  1.9866
 4504SOL    HW224975   2.280   2.618   8.499 -0.9379 -1.0368  0.3800
 4505SOL     OW24976   1.461   3.623   3.402  0.1792  0.0805 -0.0262
 4505SOL    HW124977   1.550   3.629   3.368  0.0970  0.2164 -0.2151
 4505SOL    HW224978   1.433   3.711   3.427 -1.1830 -0.4579  0.3618
 4506SOL     OW24979   4.512   3.466   4.687 -0.1844  0.1747  0.6896
 4506SOL    HW124980   4.533   3.418   4.607 -0.4883 -0.6551  1.1088
 4506SOL    HW224981   4.548   3.554   4.675 -1.8055  0.9271  1.4188
 4507SOL     OW24982   1.937   3.043  11.290 -0.1612  0.2055  0.0969
 4507SOL    HW124983   2.029   3.033  11.314 -0.1790  1.2536  0.6047
 4507SOL    HW224984   1.908   3.134  11.281  0.0227  0.3492  0.9861
 4508SOL     OW24985   3.206   4.123  16.387 -0.0251  0.2403  0.5222
 4508SOL    HW124986   3.268   4.050  16.395 -0.0042 -0.3212 -4.8365
 4508SOL    HW224987   3.258   4.189  16.433  1.3726  0.9022 -2.0234
 4509SOL     OW24988   3.065   2.361   2.832 -0.0603 -0.3596  0.3440
 4509SOL    HW124989   3.097   2.306   2.761 -0.7431  0.5147 -0.6336
 4509SOL    HW224990   3.022   2.431   2.784 -0.7083 -0.1943  1.1683
 4510SOL     OW24991   2.662   4.504   3.292 -0.2261  0.2047  0.0736
 4510SOL    HW124992   2.629   4.454   3.218  1.9667 -0.5190 -0.4012
 4510SOL    HW224993   2.713   4.573   3.251  1.4304 -2.1862 -1.8434
 4511SOL     OW24994   0.759   1.293  16.111 -0.0052  0.6779  0.2573
 4511SOL    HW124995   0.725   1.226  16.052  0.8706 -0.3093  0.8616
 4511SOL    HW224996   0.702   1.293  16.188  4.3399 -0.6891  3.4910
 4512SOL     OW24997   3.510   2.833   6.635 -0.1428 -0.2631 -0.0915
 4512SOL    HW124998   3.517   2.754   6.689 -0.2441  0.1900  0.5843
 4512SOL    HW224999   3.578   2.881   6.680  0.3054 -0.7018 -0.2975
 4513SOL     OW25000   2.029   1.291   3.654 -0.4852  0.2021 -0.5355
 4513SOL    HW125001   2.053   1.219   3.712  1.8100  2.1767  0.9990
 4513SOL    HW225002   2.093   1.288   3.583 -1.4184 -0.9383 -1.3167
 4514SOL     OW25003   3.926   2.705   3.863  0.3029 -0.5389  0.1475
 4514SOL    HW125004   3.902   2.625   3.909  1.1868 -1.8106 -1.6224
 4514SOL    HW225005   3.985   2.754   3.920 -1.1050 -0.9233  1.9081
 4515SOL     OW25006   3.614   2.689   2.790  0.7144  0.3921  0.5085
 4515SOL    HW125007   3.522   2.680   2.765  1.2630 -2.1835 -0.5444
 4515SOL    HW225008   3.599   2.722   2.878  3.0443  1.4294  0.5243
 4516SOL     OW25009   3.621   1.831   8.151  0.0824  1.0139  0.1286
 4516SOL    HW125010   3.594   1.835   8.059 -1.2706 -1.7190  0.3992
 4516SOL    HW225011   3.654   1.919   8.164  0.2675  1.0754 -0.7408
 4517SOL     OW25012   1.285   3.571   2.039 -0.1568  0.3458 -0.5118
 4517SOL    HW125013   1.206   3.602   2.085  0.7398  1.6879  0.1284
 4517SOL    HW225014   1.284   3.618   1.956  1.4865  1.8027  0.2949
 4518SOL     OW25015   1.942   4.226   9.010  0.1125 -0.1136 -0.2906
 4518SOL    HW125016   1.872   4.198   8.951  1.2873 -0.5695 -1.4758
 4518SOL    HW225017   1.894   4.304   9.037  2.1447  1.0623 -0.0418
 4519SOL     OW25018   0.831   1.492   2.267 -0.0604  0.0278 -0.2255
 4519SOL    HW125019   0.802   1.468   2.179 -2.3557 -1.3264  0.9027
 4519SOL    HW225020   0.858   1.581   2.244  2.7138 -0.4833  1.0759
 4520SOL     OW25021   3.880   0.477  16.467  0.2274 -0.0175 -0.3231
 4520SOL    HW125022   3.884   0.383  16.485 -0.9509  0.0558  0.3384
 4520SOL    HW225023   3.969   0.512  16.463 -0.1540  0.6550 -2.9194
 4521SOL     OW25024   4.135   4.548  11.655  0.1581 -0.2356 -0.6245
 4521SOL    HW125025   4.113   4.456  11.646  0.1621 -0.3447  0.4589
 4521SOL    HW225026   4.090   4.586  11.580 -3.3988  1.5123  2.4079
 4522SOL     OW25027   2.267   3.088   7.011 -0.4255 -0.5693  0.2649
 4522SOL    HW125028   2.243   3.079   6.919  0.5971 -0.1054 -0.0503
 4522SOL    HW225029   2.194   3.057   7.064  0.0774 -1.5921  0.3551
 4523SOL     OW25030   3.655   0.032  11.025 -0.1096 -0.2057  0.0764
 4523SOL    HW125031   3.718   0.092  11.063  0.6807 -1.1286  0.2131
 4523SOL    HW225032   3.630   4.706  11.102  0.3039  0.0275  0.3648
 4524SOL     OW25033   3.480   1.356   2.850  0.6312 -0.1707  0.4307
 4524SOL    HW125034   3.527   1.439   2.851  1.1056 -0.4463  2.4830
 4524SOL    HW225035   3.404   1.393   2.894  0.6251 -0.3333  0.5593
 4525SOL     OW25036   3.789   4.453   6.963 -0.5494 -0.3185 -0.5340
 4525SOL    HW125037   3.705   4.410   6.979 -0.8204  0.1404 -0.7086
 4525SOL    HW225038   3.760   4.542   6.986 -2.0393 -1.0709  0.5269
 4526SOL     OW25039   1.995   3.110   8.118  0.1709 -0.2676  0.3126
 4526SOL    HW125040   2.023   3.150   8.201 -1.1177  0.1606  0.5526
 4526SOL    HW225041   1.916   3.060   8.139 -0.9674  0.8285 -1.3422
 4527SOL     OW25042   0.607   0.817   0.127 -0.1619  0.6090  0.4089
 4527SOL    HW125043   0.607   0.883   0.057  1.5888  0.2884  0.1075
 4527SOL    HW225044   0.692   0.833   0.167 -0.5766  1.0546  1.0926
 4528SOL     OW25045   2.437   0.763   2.223  0.5522  0.0717  0.0291
 4528SOL    HW125046   2.485   0.693   2.268  1.3978  0.3370 -0.4784
 4528SOL    HW225047   2.506   0.779   2.159 -0.4259  2.3410 -0.4471
 4529SOL     OW25048   3.123   3.505   5.576 -0.0748  0.0814 -0.1263
 4529SOL    HW125049   3.165   3.488   5.492 -0.1861  1.0663 -0.3794
 4529SOL    HW225050   3.068   3.579   5.551 -0.2288  0.4396  1.2907
 4530SOL     OW25051   1.514   2.323  15.845  0.3537  0.0875  0.0981
 4530SOL    HW125052   1.455   2.347  15.773  0.4524  0.8633  0.2767
 4530SOL    HW225053   1.462   2.342  15.923  0.4620  2.1912 -0.3526
 4531SOL     OW25054   2.795   3.209   9.474 -0.1204  0.0122  0.5258
 4531SOL    HW125055   2.737   3.270   9.428 -2.4865 -1.7516  1.2169
 4531SOL    HW225056   2.851   3.178   9.402 -1.0104 -0.4221  0.0276
 4532SOL     OW25057   0.636   3.099   9.904 -0.1274 -0.1958  0.2428
 4532SOL    HW125058   0.628   3.074   9.813 -0.2980 -0.7387  0.4069
 4532SOL    HW225059   0.702   3.036   9.931  0.8647  0.2944 -1.0469
 4533SOL     OW25060   1.532   0.496   6.236 -0.1425 -0.6056 -0.2904
 4533SOL    HW125061   1.603   0.500   6.172 -0.7383  3.0263 -0.7505
 4533SOL    HW225062   1.542   0.409   6.274  3.5158 -0.2834 -0.5615
 4534SOL     OW25063   1.819   3.226   3.121 -0.1565  0.4323  0.7394
 4534SOL    HW125064   1.807   3.158   3.188 -1.9186  1.3705  1.3634
 4534SOL    HW225065   1.743   3.280   3.139  0.1764  1.0893  0.1468
 4535SOL     OW25066   3.371   0.790   3.832  0.4525 -0.6870 -0.2631
 4535SOL    HW125067   3.397   0.793   3.924 -1.4276 -0.1376  0.2556
 4535SOL    HW225068   3.453   0.784   3.784  0.9357  0.7397  0.3850
 4536SOL     OW25069   3.146   2.009   1.223 -0.2927 -0.3652 -0.4590
 4536SOL    HW125070   3.219   1.949   1.208 -2.4696 -2.9000 -1.0082
 4536SOL    HW225071   3.073   1.962   1.182 -1.0841 -1.0334  1.6923
 4537SOL     OW25072   4.517   1.759  11.138  0.5281 -0.7708 -0.8092
 4537SOL    HW125073   4.541   1.838  11.089  0.2906 -0.7806 -0.9377
 4537SOL    HW225074   4.460   1.794  11.207  0.9958 -1.1301 -0.2398
 4538SOL     OW25075   3.966   4.404  14.831 -0.6391  0.0061 -0.4706
 4538SOL    HW125076   3.997   4.478  14.779  0.9657 -0.9136 -0.8217
 4538SOL    HW225077   4.047   4.367  14.867  0.1146 -1.1329 -3.3617
 4539SOL     OW25078   3.661   0.372   8.916 -0.3827 -0.4838 -0.2178
 4539SOL    HW125079   3.750   0.337   8.919 -0.0264  0.2740 -2.2124
 4539SOL    HW225080   3.675   0.432   8.989  1.8450 -0.7495 -0.4342
 4540SOL     OW25081   1.834   3.958   4.522  0.2633 -0.3021  0.5187
 4540SOL    HW125082   1.868   4.039   4.562  1.1473 -0.8876  0.9442
 4540SOL    HW225083   1.911   3.904   4.506  0.7675  0.2618  1.0539
 4541SOL     OW25084   2.981   3.654   7.712 -0.3941  0.3457  0.7245
 4541SOL    HW125085   3.067   3.646   7.671 -0.1760  0.0496  1.2389
 4541SOL    HW225086   2.977   3.567   7.750  0.9992 -0.8461 -1.9152
 4542SOL     OW25087   0.291   2.891   7.011 -0.4507  0.0415 -0.0867
 4542SOL    HW125088   0.225   2.939   7.062 -0.8998 -1.4446  0.7237
 4542SOL    HW225089   0.361   2.907   7.074  0.0192  1.7441 -1.0504
 4543SOL     OW25090   2.993   3.568  17.161 -0.8767 -0.1846 -0.5908
 4543SOL    HW125091   3.015   3.562  17.254 -1.7437  1.3176 -0.2858
 4543SOL    HW225092   2.909   3.524  17.172 -1.5744  1.6270  1.2912
 4544SOL     OW25093   2.167   1.738  11.050 -0.4366 -0.1589 -0.2096
 4544SOL    HW125094   2.156   1.833  11.040 -3.7677 -0.8627 -3.3540
 4544SOL    HW225095   2.226   1.724  10.975  0.3529 -1.6209  0.6756
 4545SOL     OW25096   1.480   2.003   6.207 -0.4526 -0.6661  0.6134
 4545SOL    HW125097   1.464   1.909   6.200  0.9566 -0.6673 -2.1538
 4545SOL    HW225098   1.553   2.015   6.268  0.9458 -1.3099 -0.9262
 4546SOL     OW25099   2.517   0.394   4.475 -0.6227  0.2528  0.0005
 4546SOL    HW125100   2.550   0.370   4.562  2.0419 -0.2940 -1.1577
 4546SOL    HW225101   2.430   0.354   4.484 -1.3959  1.7175 -0.9428
 4547SOL     OW25102   2.064   4.263   1.702 -0.5199 -0.1439  0.5029
 4547SOL    HW125103   2.108   4.182   1.673 -0.4257 -0.2418  0.9226
 4547SOL    HW225104   2.138   4.321   1.717  0.2208 -0.6503 -1.1159
 4548SOL     OW25105   4.108   0.419   5.729  0.2231 -0.4095  0.0110
 4548SOL    HW125106   4.062   0.340   5.699  3.6438 -1.6928 -1.9158
 4548SOL    HW225107   4.045   0.487   5.707 -0.8589 -0.7395  2.0997
 4549SOL     OW25108   4.388   2.432   5.385  0.0393  0.4016  0.1823
 4549SOL    HW125109   4.397   2.410   5.478  3.2531 -0.7983 -0.4241
 4549SOL    HW225110   4.298   2.403   5.373 -0.6632  1.7294  2.0962
 4550SOL     OW25111   1.074   4.618  16.588 -0.6111  0.3160  0.8311
 4550SOL    HW125112   1.063   4.705  16.625 -0.5026  0.3834  0.7057
 4550SOL    HW225113   1.022   4.568  16.650 -1.1356  0.2847  0.3672
 4551SOL     OW25114   2.282   0.680  16.272 -0.3284  0.1805  0.0369
 4551SOL    HW125115   2.282   0.721  16.359 -2.0961 -0.1405  0.1921
 4551SOL    HW225116   2.257   0.754  16.216 -1.4459 -0.5266 -0.3935
 4552SOL     OW25117   4.700   2.664   3.035 -0.1745 -0.1279 -0.3666
 4552SOL    HW125118   4.665   2.593   2.982  3.3699 -1.4871 -0.8807
 4552SOL    HW225119   0.006   2.722   2.965 -0.6774  1.2767  0.5745
 4553SOL     OW25120   0.425   4.600  15.251  0.2890 -0.4124  0.4560
 4553SOL    HW125121   0.492   4.553  15.202  0.2926  0.8540 -0.7469
 4553SOL    HW225122   0.369   4.613  15.175 -0.7601 -2.2453  0.9119
 4554SOL     OW25123   2.837   0.674   7.943  0.1198  0.1268 -0.1229
 4554SOL    HW125124   2.879   0.613   7.883 -1.2806  1.0260 -1.9949
 4554SOL    HW225125   2.919   0.716   7.968 -0.0132  0.1373  0.3020
 4555SOL     OW25126   3.313   3.561   3.259  0.1686 -0.2449 -0.9633
 4555SOL    HW125127   3.293   3.525   3.173  0.6612 -0.1924 -1.1050
 4555SOL    HW225128   3.276   3.649   3.250  1.0891  0.1452 -1.0037
 4556SOL     OW25129   2.212   1.075   1.046 -0.0626  0.2622  0.7381
 4556SOL    HW125130   2.216   1.125   0.964 -0.6187 -0.1270  0.4717
 4556SOL    HW225131   2.117   1.077   1.056 -0.2825  1.2507 -1.4282
 4557SOL     OW25132   1.747   0.126  12.505 -0.0791  0.5254 -0.4830
 4557SOL    HW125133   1.657   0.158  12.511  0.4060  1.0996  3.5069
 4557SOL    HW225134   1.764   0.133  12.411 -0.8599 -2.2071 -0.8398
 4558SOL     OW25135   0.469   2.417  12.853  0.9780  0.2386 -0.1445
 4558SOL    HW125136   0.472   2.400  12.948  1.4795  0.5802 -0.0993
 4558SOL    HW225137   0.388   2.467  12.846  0.0683 -1.7867 -4.1721
 4559SOL     OW25138   2.269   0.203  10.099 -0.1114 -0.2030 -0.0078
 4559SOL    HW125139   2.322   0.235  10.172  3.5535 -1.7008 -1.9997
 4559SOL    HW225140   2.240   0.278  10.047  0.8096 -0.2087 -0.5384
 4560SOL     OW25141   0.951   1.001   5.980  0.4001  0.0585  0.1944
 4560SOL    HW125142   0.979   0.984   6.069 -0.5626 -3.0141 -0.1129
 4560SOL    HW225143   0.902   1.081   6.001  3.4313  1.5869  1.4906
 4561SOL     OW25144   3.842   3.976   4.771 -0.5082  0.1142  0.3673
 4561SOL    HW125145   3.774   3.998   4.707  0.6622  2.2217 -0.1456
 4561SOL    HW225146   3.825   4.053   4.827  1.7868  0.8852 -0.0149
 4562SOL     OW25147   3.645   3.634  12.157 -0.1676 -0.5734 -0.6675
 4562SOL    HW125148   3.648   3.538  12.164 -2.5374 -0.5463  0.7637
 4562SOL    HW225149   3.598   3.657  12.237  1.2441 -1.1771  0.3479
 4563SOL     OW25150   4.494   0.551   2.482 -0.0252 -0.7393  0.3742
 4563SOL    HW125151   4.448   0.517   2.558  3.0553 -0.7227  2.2721
 4563SOL    HW225152   4.569   0.491   2.484  0.4684 -0.2371 -2.1518
 4564SOL     OW25153   3.478   2.572   0.777  0.4233 -0.1423  0.1565
 4564SOL    HW125154   3.549   2.635   0.784 -1.3525  1.6590  2.0192
 4564SOL    HW225155   3.491   2.536   0.689 -0.8855  0.9952 -0.5102
 4565SOL     OW25156   2.088   1.761  17.497  0.1589 -0.3828 -0.1719
 4565SOL    HW125157   2.062   1.767  17.405 -0.2981  1.0708  0.0606
 4565SOL    HW225158   2.145   1.686  17.481 -0.2768 -0.1432 -2.8436
 4566SOL     OW25159   0.531   2.359  17.408  0.2247 -0.4091 -0.0110
 4566SOL    HW125160   0.552   2.430  17.468 -2.9883  0.3243  0.2275
 4566SOL    HW225161   0.460   2.400  17.358  0.7656 -1.0875 -1.3492
 4567SOL     OW25162   1.172   4.537   6.517 -0.1646 -0.2981 -0.0669
 4567SOL    HW125163   1.096   4.490   6.550 -1.4152 -0.1247 -2.6677
 4567SOL    HW225164   1.178   4.506   6.426 -0.0652 -0.5751  0.0341
 4568SOL     OW25165   0.146   2.240   9.063 -0.0685 -0.4491 -0.0281
 4568SOL    HW125166   0.194   2.289   9.129  0.3732 -0.8793 -0.0299
 4568SOL    HW225167   0.135   2.305   8.993  1.9880 -0.4244 -0.3199
 4569SOL     OW25168   3.976   2.880   0.316  0.7762 -0.4753 -0.1686
 4569SOL    HW125169   3.989   2.930   0.396  0.2047 -2.8469  1.4236
 4569SOL    HW225170   4.036   2.910   0.248  0.5219  0.8001  0.1769
 4570SOL     OW25171   1.452   1.479   8.547 -0.5186  0.2589  0.3219
 4570SOL    HW125172   1.459   1.457   8.640 -0.8963  1.6069  0.6666
 4570SOL    HW225173   1.509   1.555   8.538 -0.8166  0.5503  0.9535
 4571SOL     OW25174   1.007   0.435   1.201 -0.1132 -0.0997  0.1949
 4571SOL    HW125175   1.076   0.435   1.134 -1.0809  0.8449 -0.7964
 4571SOL    HW225176   0.931   0.466   1.153  1.1011  0.8662 -1.1042
 4572SOL     OW25177   0.849   1.794   3.912  0.4016 -0.6004 -0.3101
 4572SOL    HW125178   0.831   1.731   3.841 -0.1241 -0.8839  0.0782
 4572SOL    HW225179   0.923   1.845   3.879 -1.0417  1.9443  0.4133
 4573SOL     OW25180   4.082   1.724   2.214  0.5756 -0.1389 -0.5210
 4573SOL    HW125181   4.170   1.700   2.243  0.5979 -1.3690 -1.6330
 4573SOL    HW225182   4.093   1.757   2.125 -1.8413  0.4662 -0.6013
 4574SOL     OW25183   4.499   1.694   5.919 -0.1242 -0.0508  0.0760
 4574SOL    HW125184   4.463   1.681   5.832 -0.8079 -0.3877  0.4089
 4574SOL    HW225185   4.492   1.789   5.929  0.8601 -0.3131  3.1500
 4575SOL     OW25186   2.955   4.001   3.624 -0.2627  0.1390  0.3547
 4575SOL    HW125187   2.979   3.988   3.716  0.5044  0.9434  0.2700
 4575SOL    HW225188   2.894   4.074   3.632  0.4338  0.6206  1.2273
 4576SOL     OW25189   2.204   4.058   8.124 -0.5033  0.0995  0.3981
 4576SOL    HW125190   2.188   3.964   8.126  1.0098 -0.1968 -1.4053
 4576SOL    HW225191   2.300   4.062   8.128 -0.5444  1.6777  0.0388
 4577SOL     OW25192   2.221   3.592   4.548  0.0646  0.7850  0.1014
 4577SOL    HW125193   2.179   3.671   4.514  0.1540  0.7693 -0.0456
 4577SOL    HW225194   2.146   3.555   4.594 -0.9019 -0.6926 -2.6964
 4578SOL     OW25195   2.117   1.490   3.800  0.2072 -0.1133 -0.0143
 4578SOL    HW125196   2.076   1.418   3.754 -1.6451  1.9140 -1.5567
 4578SOL    HW225197   2.040   1.545   3.815  2.7627  2.8643  2.2830
 4579SOL     OW25198   0.609   2.646   6.124 -0.0952 -0.0469  0.3897
 4579SOL    HW125199   0.540   2.613   6.066 -0.1153  1.3527 -0.3809
 4579SOL    HW225200   0.561   2.671   6.203  1.3549 -1.1162  1.6022
 4580SOL     OW25201   3.385   2.500   4.715  0.8272 -0.2050 -0.3398
 4580SOL    HW125202   3.328   2.424   4.699  2.8329 -1.7939  0.0008
 4580SOL    HW225203   3.325   2.570   4.691 -0.4132 -1.5675 -1.2864
 4581SOL     OW25204   4.216   1.895   5.808  1.0539  0.1930  0.0828
 4581SOL    HW125205   4.307   1.925   5.815  1.2012  0.0222 -1.0633
 4581SOL    HW225206   4.216   1.856   5.720 -0.1180 -0.4146  0.3584
 4582SOL     OW25207   0.527   2.609   1.048  0.2928 -0.3106 -0.4100
 4582SOL    HW125208   0.616   2.598   1.083  0.6542  2.5027 -0.4370
 4582SOL    HW225209   0.536   2.564   0.964  0.9540 -0.9139 -0.0169
 4583SOL     OW25210   3.567   2.113   6.590 -0.3996  0.6152 -0.1175
 4583SOL    HW125211   3.596   2.034   6.635  0.7217  1.7579  1.1796
 4583SOL    HW225212   3.604   2.099   6.502 -0.2716  0.5454 -0.0523
 4584SOL     OW25213   4.418   4.419   6.837  0.0189  0.4144  0.2897
 4584SOL    HW125214   4.471   4.498   6.823  1.4116 -0.1504  2.3325
 4584SOL    HW225215   4.460   4.368   6.907 -1.6548 -1.4019 -0.0411
 4585SOL     OW25216   2.726   1.416   3.408 -0.0552  0.2091  0.0590
 4585SOL    HW125217   2.717   1.455   3.321 -0.1298  0.2604  0.0898
 4585SOL    HW225218   2.690   1.328   3.397 -0.7497  0.5035 -0.0295
 4586SOL     OW25219   1.054   2.532  16.095 -0.5557  0.0844  0.1456
 4586SOL    HW125220   1.100   2.616  16.103 -0.8183  0.4602 -2.3999
 4586SOL    HW225221   0.963   2.556  16.113 -0.9589 -0.8547 -0.6904
 4587SOL     OW25222   1.598   1.279   3.139  0.1735 -0.0785 -0.1804
 4587SOL    HW125223   1.569   1.189   3.153 -1.0655  0.0298 -2.1240
 4587SOL    HW225224   1.667   1.291   3.204 -1.0680 -1.2345  1.3454
 4588SOL     OW25225   0.033   4.252   3.271  0.4024 -0.5880 -0.1563
 4588SOL    HW125226   0.034   4.190   3.343 -1.5830  2.3071  2.3537
 4588SOL    HW225227   0.035   4.192   3.197  0.3226 -0.4161 -0.2995
 4589SOL     OW25228   2.925   3.858   7.277 -0.5176  0.3818  0.0700
 4589SOL    HW125229   2.896   3.774   7.312 -1.2349 -0.1678 -1.8640
 4589SOL    HW225230   3.018   3.844   7.259 -0.6677 -3.0127  1.9983
 4590SOL     OW25231   2.281   3.842   1.073 -0.2111 -0.3394 -0.5186
 4590SOL    HW125232   2.260   3.749   1.062 -0.9656 -0.5606  2.8755
 4590SOL    HW225233   2.374   3.841   1.047  0.1153 -0.6748  0.6858
 4591SOL     OW25234   3.031   1.227   5.588  0.2718 -0.4867 -0.0964
 4591SOL    HW125235   3.011   1.287   5.660 -2.2726 -1.9791  0.4654
 4591SOL    HW225236   3.006   1.281   5.514 -3.6360  0.2983  1.7993
 4592SOL     OW25237   3.926   0.825  10.941  0.1295  0.0807  0.1520
 4592SOL    HW125238   3.967   0.866  11.017  0.0733 -0.7311  0.6165
 4592SOL    HW225239   3.931   0.731  10.955 -0.3343 -0.0522 -0.5829
 4593SOL     OW25240   1.754   4.693  15.193 -0.3711  0.2266 -0.0933
 4593SOL    HW125241   1.738   4.607  15.232 -0.5201 -0.7397 -2.2763
 4593SOL    HW225242   1.845   4.704  15.220 -0.4361  0.7697 -0.0985
 4594SOL     OW25243   2.219   3.028  11.402  0.3763  0.0626 -0.6045
 4594SOL    HW125244   2.309   3.042  11.373  0.2628  1.3210 -0.3614
 4594SOL    HW225245   2.231   3.010  11.496  0.5254 -1.1171 -0.8446
 4595SOL     OW25246   1.017   2.986   4.548 -0.0797  0.4490 -0.2201
 4595SOL    HW125247   1.078   2.938   4.491  1.4798 -0.4341  2.1702
 4595SOL    HW225248   1.025   2.932   4.627 -1.3853 -1.0448 -1.0932
 4596SOL     OW25249   2.407   1.379   9.924  0.2965 -0.0204  0.0208
 4596SOL    HW125250   2.492   1.337   9.933  1.0047  1.3351 -0.3548
 4596SOL    HW225251   2.426   1.423   9.841 -0.2407 -0.4016 -0.3058
 4597SOL     OW25252   0.350   4.312   9.440 -0.1866  0.2006  0.4312
 4597SOL    HW125253   0.325   4.340   9.352  0.0498  1.4673  0.7627
 4597SOL    HW225254   0.325   4.220   9.433  0.6486  0.1748 -2.2344
 4598SOL     OW25255   0.622   1.456   4.810  0.4681 -0.4052  0.2993
 4598SOL    HW125256   0.647   1.519   4.877 -2.3317 -0.6777  1.6338
 4598SOL    HW225257   0.691   1.471   4.746  1.0546 -2.1637  0.5131
 4599SOL     OW25258   1.025   1.862   6.818 -0.0928  0.2367 -0.0601
 4599SOL    HW125259   0.985   1.900   6.897  1.4909 -0.6438  1.1549
 4599SOL    HW225260   1.109   1.833   6.852 -0.2873 -0.0296  0.2021
 4600SOL     OW25261   1.086   1.322   9.196  0.0842 -0.1761 -0.0893
 4600SOL    HW125262   1.179   1.300   9.208 -0.1580 -1.9054 -1.3076
 4600SOL    HW225263   1.085   1.405   9.149  1.1042  0.4287  0.9496
 4601SOL     OW25264   1.230   0.103  11.859  0.3188 -0.7263  0.4253
 4601SOL    HW125265   1.313   0.103  11.906 -0.2878 -0.6237  1.4849
 4601SOL    HW225266   1.182   0.168  11.910 -1.5606  0.1045 -2.4060
 4602SOL     OW25267   1.116   1.699  15.099 -0.0191 -0.2111 -0.0782
 4602SOL    HW125268   1.082   1.648  15.173 -1.8161  1.5399  0.3127
 4602SOL    HW225269   1.203   1.662  15.087  0.5499  1.2057 -0.2338
 4603SOL     OW25270   4.376   3.371   3.454 -0.2711 -0.1229  0.8468
 4603SOL    HW125271   4.428   3.443   3.419  0.8971 -1.8099 -0.8584
 4603SOL    HW225272   4.386   3.302   3.389 -0.4332 -1.5686  2.3561
 4604SOL     OW25273   1.092   1.890   0.424 -0.5566  0.2334  0.1386
 4604SOL    HW125274   1.179   1.863   0.452 -0.0100  1.0732 -0.7446
 4604SOL    HW225275   1.067   1.821   0.363 -0.4625 -2.2187  2.9075
 4605SOL     OW25276   0.813   0.245   6.156  0.6058 -0.3137  0.1654
 4605SOL    HW125277   0.830   0.226   6.064  1.6657  0.1152  0.2666
 4605SOL    HW225278   0.897   0.250   6.202  1.0065  0.6505 -0.6767
 4606SOL     OW25279   1.012   2.114   4.457 -0.0646  0.2943  0.1279
 4606SOL    HW125280   1.069   2.188   4.436 -0.6666  0.3928 -1.1709
 4606SOL    HW225281   1.078   2.045   4.458 -2.7913 -2.3336 -0.0174
 4607SOL     OW25282   0.750   1.539   6.789 -0.6482 -0.3445  0.4967
 4607SOL    HW125283   0.801   1.529   6.708  2.3393  2.1811  2.0786
 4607SOL    HW225284   0.780   1.467   6.844 -1.1009  0.1011  1.3132
 4608SOL     OW25285   3.144   2.410  16.541 -0.0836  0.2643  0.2453
 4608SOL    HW125286   3.138   2.452  16.456  0.3908 -2.9282 -1.3817
 4608SOL    HW225287   3.236   2.383  16.545  0.3232  1.5339 -0.6197
 4609SOL     OW25288   4.174   2.517   9.426  0.0400  0.3348 -0.2254
 4609SOL    HW125289   4.149   2.432   9.463  0.2630  1.3942  2.3229
 4609SOL    HW225290   4.199   2.561   9.507  1.6002 -1.1668  0.1034
 4610SOL     OW25291   3.819   3.073  10.863 -0.4980 -0.5232  0.4122
 4610SOL    HW125292   3.807   2.980  10.848  1.5133 -1.0508  2.1523
 4610SOL    HW225293   3.730   3.095  10.890 -0.5391 -1.2039  0.8187
 4611SOL     OW25294   0.035   1.460   5.484  0.7360 -0.2277  0.0356
 4611SOL    HW125295   0.012   1.470   5.577 -0.5649  1.2883 -0.4574
 4611SOL    HW225296   0.034   1.549   5.449 -1.3784  0.1143  0.9368
 4612SOL     OW25297   1.143   2.662  14.081 -0.0143 -0.0295  0.6835
 4612SOL    HW125298   1.167   2.736  14.026 -0.1183 -0.3894  0.1590
 4612SOL    HW225299   1.126   2.586  14.026 -1.0824 -1.4930  3.0087
 4613SOL     OW25300   1.097   0.234  15.045  0.1573 -0.3467 -0.3768
 4613SOL    HW125301   1.009   0.224  15.010 -0.0363  0.5468 -0.1461
 4613SOL    HW225302   1.115   0.144  15.073 -0.8877 -0.4568 -0.0651
 4614SOL     OW25303   0.220   4.642   7.706 -0.3800 -0.4409  0.3373
 4614SOL    HW125304   0.133   4.664   7.742  0.6761  3.3096  0.6135
 4614SOL    HW225305   0.262   0.002   7.718 -1.2478  0.2443 -1.4971
 4615SOL     OW25306   0.296   2.594  11.154 -0.8641  0.3512  0.5284
 4615SOL    HW125307   0.391   2.600  11.143 -0.9108  1.5156  0.7284
 4615SOL    HW225308   0.269   2.551  11.073  0.5953  0.5342 -0.0549
 4616SOL     OW25309   4.129   3.964   9.245  0.1287  0.1471 -0.3625
 4616SOL    HW125310   4.154   3.888   9.193  0.1976  0.2770 -0.5191
 4616SOL    HW225311   4.191   3.971   9.318 -1.8426 -3.5558  1.6510
 4617SOL     OW25312   2.909   3.515   9.286  0.3765 -0.5670  0.1393
 4617SOL    HW125313   2.955   3.451   9.341 -0.8804 -0.9369  0.7591
 4617SOL    HW225314   2.978   3.580   9.278 -0.9743  0.9692  1.0422
 4618SOL     OW25315   3.068   3.181   6.957  0.0129  0.3704  0.2908
 4618SOL    HW125316   3.009   3.194   6.883  0.2590  1.0916  0.2236
 4618SOL    HW225317   3.022   3.218   7.033 -0.4489  2.2548 -0.9177
 4619SOL     OW25318   3.797   1.827   5.010 -0.9139 -0.1595 -0.0253
 4619SOL    HW125319   3.733   1.758   5.026 -0.3993 -0.7892 -0.6988
 4619SOL    HW225320   3.819   1.802   4.920 -0.0125  0.9195 -0.1007
 4620SOL     OW25321   2.085   4.176   8.350 -0.2155  0.1101 -0.5883
 4620SOL    HW125322   2.090   4.143   8.261  1.6450  1.3158 -0.9231
 4620SOL    HW225323   2.144   4.251   8.352  0.5543 -0.5048 -0.5412
 4621SOL     OW25324   1.082   2.957   3.921  0.2330 -0.0360  0.0935
 4621SOL    HW125325   1.091   3.003   3.837 -0.0860  0.1457  0.1571
 4621SOL    HW225326   1.134   3.017   3.975 -0.4340 -1.0824  1.8765
 4622SOL     OW25327   1.177   2.993   7.341  0.1457 -0.0691  0.3288
 4622SOL    HW125328   1.123   2.993   7.421 -0.6833 -1.0237 -0.2346
 4622SOL    HW225329   1.195   2.899   7.335  2.7111  0.4803 -0.5930
 4623SOL     OW25330   0.075   3.285  17.673  0.4805 -0.1371 -0.1145
 4623SOL    HW125331   0.118   3.360  17.633 -1.1026  2.0282  2.2137
 4623SOL    HW225332   0.066   3.315   0.062  0.5660 -0.3623 -0.0325
 4624SOL     OW25333   1.432   1.800   2.674  0.1956  0.5288  0.2701
 4624SOL    HW125334   1.487   1.732   2.634  0.8883  1.2605 -0.0072
 4624SOL    HW225335   1.383   1.832   2.598 -1.9439 -1.2845  0.8524
 4625SOL     OW25336   2.668   1.674   7.583  0.4069 -0.1046  0.0298
 4625SOL    HW125337   2.574   1.664   7.601  0.3541  0.2015 -0.0821
 4625SOL    HW225338   2.703   1.748   7.631  1.6260 -0.6328 -0.0527
 4626SOL     OW25339   0.071   2.982   4.733  0.2515 -0.0558 -0.1412
 4626SOL    HW125340   0.130   3.005   4.661  0.2580  1.0073  0.2119
 4626SOL    HW225341   0.025   2.911   4.688  0.4406  0.2535 -0.8154
 4627SOL     OW25342   2.136   1.467   2.263 -0.2834  0.0009  0.2995
 4627SOL    HW125343   2.168   1.504   2.181 -0.7078  0.4683  0.3425
 4627SOL    HW225344   2.153   1.545   2.315 -1.3496  0.0459  0.5858
 4628SOL     OW25345   4.680   4.336   2.764  0.1977 -0.5790 -0.0027
 4628SOL    HW125346   4.708   4.427   2.776 -3.4992  0.8700 -2.4769
 4628SOL    HW225347   0.032   4.305   2.717  0.6022 -0.3404  0.5015
 4629SOL     OW25348   1.395   1.650   7.212 -0.3258  0.2552  0.0625
 4629SOL    HW125349   1.338   1.625   7.140 -0.8366 -0.6625  0.7872
 4629SOL    HW225350   1.354   1.597   7.281 -0.3379  1.0223  0.6501
 4630SOL     OW25351   0.238   0.961   3.855  0.1155  0.4589 -0.2545
 4630SOL    HW125352   0.151   0.921   3.866  0.1994  0.2678 -0.2781
 4630SOL    HW225353   0.214   1.015   3.780  1.5453 -0.5154 -1.4112
 4631SOL     OW25354   1.767   0.031  15.494 -0.2148 -0.3793 -0.3168
 4631SOL    HW125355   1.720   4.674  15.508  0.5672 -0.8445 -0.4041
 4631SOL    HW225356   1.852   0.011  15.534  0.7012  0.9575 -1.6017
 4632SOL     OW25357   4.598   2.763  13.628  0.1186 -0.1043 -0.6449
 4632SOL    HW125358   4.625   2.793  13.715 -0.9957 -1.3026  0.1164
 4632SOL    HW225359   4.515   2.716  13.639 -0.9088  1.4189 -1.9466
 4633SOL     OW25360   0.439   0.127  13.450 -0.3846  0.5571  0.3009
 4633SOL    HW125361   0.451   0.032  13.449  1.3815  0.7928  0.5639
 4633SOL    HW225362   0.504   0.156  13.386 -1.9318  0.1850 -1.4813
 4634SOL     OW25363   3.929   1.648   1.147 -0.4020  0.0334  0.0730
 4634SOL    HW125364   3.857   1.624   1.205  0.0731 -0.9388  0.2488
 4634SOL    HW225365   3.886   1.658   1.062  1.1405  1.8207 -0.5090
 4635SOL     OW25366   0.847   4.434   1.311  0.2717  0.6329  1.0437
 4635SOL    HW125367   0.942   4.435   1.314  0.3276 -0.8160  0.0577
 4635SOL    HW225368   0.826   4.455   1.220  0.2613 -2.0688  0.4315
 4636SOL     OW25369   1.770   2.687   4.436  0.5937  0.1707  0.5680
 4636SOL    HW125370   1.821   2.707   4.514 -1.5337  0.7084  1.8435
 4636SOL    HW225371   1.722   2.605   4.452  1.8575 -0.9420 -1.3679
 4637SOL     OW25372   2.337   0.328  14.179  0.2173  0.5995 -0.4362
 4637SOL    HW125373   2.296   0.243  14.169  0.8144  0.2286  0.3158
 4637SOL    HW225374   2.275   0.378  14.126 -1.1889 -1.5578 -0.8184
 4638SOL     OW25375   0.243   2.056  14.501  0.1183  0.0832 -0.4840
 4638SOL    HW125376   0.154   2.080  14.476 -0.0714 -0.6325 -0.4800
 4638SOL    HW225377   0.224   1.983  14.559 -3.0220  2.1162  1.0289
 4639SOL     OW25378   1.791   1.256   7.932  0.3255  0.2005  0.3381
 4639SOL    HW125379   1.808   1.190   7.865  1.7673  1.9523 -1.0189
 4639SOL    HW225380   1.873   1.249   7.981  1.5779 -2.1627 -2.0548
 4640SOL     OW25381   0.651   2.038   3.644 -0.0564  0.0249 -0.3981
 4640SOL    HW125382   0.739   2.035   3.606 -0.6492 -0.0863 -1.7662
 4640SOL    HW225383   0.677   2.037   3.736 -2.0944 -1.8648  0.1405
 4641SOL     OW25384   1.357   2.715   3.247  0.4558  0.5984 -0.1246
 4641SOL    HW125385   1.424   2.710   3.315 -1.1800 -2.8121  1.2098
 4641SOL    HW225386   1.362   2.629   3.207 -2.1617  1.2153 -1.7892
 4642SOL     OW25387   0.594   4.284  17.120  0.1141 -0.4969  0.0846
 4642SOL    HW125388   0.627   4.348  17.183 -2.0411  0.1459  0.5434
 4642SOL    HW225389   0.663   4.221  17.144  0.8738  0.3544  0.1389
 4643SOL     OW25390   2.244   2.696   9.681 -0.3803  0.3290  0.2729
 4643SOL    HW125391   2.227   2.787   9.657  1.5945  0.9852  1.4363
 4643SOL    HW225392   2.306   2.704   9.753 -0.1553 -3.2939  0.5083
 4644SOL     OW25393   2.541   3.589   6.550 -0.3113  0.0593 -0.9628
 4644SOL    HW125394   2.501   3.656   6.606  0.6763  0.7367 -1.0730
 4644SOL    HW225395   2.495   3.512   6.584  1.1513 -0.8883 -1.1290
 4645SOL     OW25396   2.760   1.808  14.904 -0.5708  1.0267  0.0796
 4645SOL    HW125397   2.713   1.774  14.980  0.8807  1.0563  0.9895
 4645SOL    HW225398   2.818   1.734  14.882 -0.4729  0.4076  2.5028
 4646SOL     OW25399   1.466   0.064   8.041 -0.0014 -0.0622 -0.1150
 4646SOL    HW125400   1.485   0.147   8.084 -0.3759  0.6324 -1.2975
 4646SOL    HW225401   1.454   0.089   7.950  0.2634  0.3345 -0.0422
 4647SOL     OW25402   2.253   1.517   5.981  0.4742 -0.1912  0.1075
 4647SOL    HW125403   2.300   1.600   5.991  0.8464 -0.6780  2.3554
 4647SOL    HW225404   2.321   1.456   5.951 -1.2441 -3.2329  2.3520
 4648SOL     OW25405   3.998   3.865   6.790 -0.0887  0.1411 -0.0924
 4648SOL    HW125406   3.951   3.796   6.743  1.1270 -0.7041 -0.0715
 4648SOL    HW225407   4.078   3.816   6.808 -2.3102 -3.7426 -0.8422
 4649SOL     OW25408   1.512   1.389   6.847 -0.3892 -0.5476  0.3752
 4649SOL    HW125409   1.453   1.392   6.923 -1.5052  0.4781 -0.5276
 4649SOL    HW225410   1.519   1.479   6.815  0.9129 -0.1098  1.8590
 4650SOL     OW25411   1.578   0.665   7.209  0.0509 -0.4295  0.0705
 4650SOL    HW125412   1.654   0.608   7.215 -0.9842 -1.5934  1.8755
 4650SOL    HW225413   1.630   0.744   7.194  2.9793 -2.6385 -1.2078
 4651SOL     OW25414   0.804   1.281   7.451 -0.1878  0.1165  0.4480
 4651SOL    HW125415   0.738   1.308   7.387  0.1334 -1.0702 -0.3821
 4651SOL    HW225416   0.794   1.186   7.452  1.9764 -0.1271 -0.3923
 4652SOL     OW25417   1.005   3.720   4.490  0.2725 -0.0458 -0.1625
 4652SOL    HW125418   1.063   3.736   4.565 -0.6600  0.3550  0.4716
 4652SOL    HW225419   0.947   3.796   4.502  0.1587  0.0499 -1.3049
 4653SOL     OW25420   4.003   0.371   6.787  0.7904 -0.2326  0.4605
 4653SOL    HW125421   4.087   0.414   6.797 -0.1421  1.1689  2.2354
 4653SOL    HW225422   3.991   0.374   6.692  7.6872 -1.7960 -0.4183
 4654SOL     OW25423   2.444   4.436  10.695  0.0943 -0.2657 -1.0873
 4654SOL    HW125424   2.422   4.529  10.697 -0.4285 -0.4191  0.3831
 4654SOL    HW225425   2.426   4.407  10.606 -2.1887  0.4535 -0.8650
 4655SOL     OW25426   0.309   3.495   8.809 -0.1991 -0.2547  0.3121
 4655SOL    HW125427   0.311   3.436   8.734  0.2275 -0.8809  0.8237
 4655SOL    HW225428   0.402   3.515   8.802 -0.4062  0.1387 -1.4330
 4656SOL     OW25429   0.783   2.710   6.493 -0.8122  0.6627 -0.6833
 4656SOL    HW125430   0.707   2.653   6.482  1.1006 -2.5800  2.6076
 4656SOL    HW225431   0.853   2.644   6.495 -0.0892  1.4708  0.1088
 4657SOL     OW25432   1.627   3.381  14.207  0.1305 -0.4489  0.0862
 4657SOL    HW125433   1.641   3.338  14.291 -0.0875 -0.6437  0.0201
 4657SOL    HW225434   1.712   3.421  14.186  0.4382 -1.6395 -0.9631
 4658SOL     OW25435   0.200   1.091   6.749  0.1757  0.0868 -0.2838
 4658SOL    HW125436   0.169   1.177   6.777 -0.9783 -0.2548 -0.4807
 4658SOL    HW225437   0.231   1.057   6.833  0.3039  1.1866  0.1082
 4659SOL     OW25438   2.363   1.924   6.975  0.5607  0.5729 -0.0645
 4659SOL    HW125439   2.320   1.896   6.894 -1.7465 -1.5436  1.8625
 4659SOL    HW225440   2.300   1.903   7.044 -0.3818  2.5533 -0.3083
 4660SOL     OW25441   4.024   3.823   8.113  0.4617 -0.0101  0.0641
 4660SOL    HW125442   3.959   3.891   8.127  0.2792 -0.3185  0.7135
 4660SOL    HW225443   3.977   3.752   8.156  0.5983  0.3754  0.8608
 4661SOL     OW25444   4.650   0.335   4.247  0.3223  0.1407  0.1782
 4661SOL    HW125445   4.559   0.307   4.243  0.2931  0.0404  1.4741
 4661SOL    HW225446   4.651   0.428   4.223 -0.9574  0.3543  0.9479
 4662SOL     OW25447   4.039   4.237   0.532  0.0489  0.1986 -0.4150
 4662SOL    HW125448   4.076   4.159   0.573  1.1119  0.8125 -0.2190
 4662SOL    HW225449   3.987   4.278   0.601 -1.1617 -0.1076 -1.1539
 4663SOL     OW25450   4.197   2.367   7.721  0.3494  0.3828 -0.0783
 4663SOL    HW125451   4.113   2.354   7.677  1.2031 -0.1154 -1.5938
 4663SOL    HW225452   4.175   2.440   7.778  0.1879  0.2391  0.0423
 4664SOL     OW25453   4.519   0.150  12.565  0.3774  0.5957 -0.5353
 4664SOL    HW125454   4.585   0.081  12.550  0.0493 -0.5107  3.0003
 4664SOL    HW225455   4.555   0.197  12.640  0.7798  0.7918 -0.8519
 4665SOL     OW25456   3.346   4.445  11.797  0.1939 -0.0338  0.0567
 4665SOL    HW125457   3.438   4.420  11.790  0.1494  0.0983 -1.0845
 4665SOL    HW225458   3.321   4.423  11.887 -0.5694  3.4372  0.7010
 4666SOL     OW25459   0.172   1.012   5.585 -0.0347 -0.1512 -0.3353
 4666SOL    HW125460   0.176   1.028   5.679 -0.2502  0.3374 -0.4107
 4666SOL    HW225461   0.082   0.988   5.563 -0.6107  1.6761  0.0483
 4667SOL     OW25462   3.468   3.792   6.474 -0.3096 -0.0161 -0.5311
 4667SOL    HW125463   3.393   3.773   6.417 -0.8134  1.3668 -0.3352
 4667SOL    HW225464   3.504   3.704   6.476 -1.0898 -0.3444 -0.8764
 4668SOL     OW25465   0.336   3.474  15.333 -0.0305 -0.4786  0.2939
 4668SOL    HW125466   0.319   3.429  15.250  0.8851 -0.0995 -0.1030
 4668SOL    HW225467   0.259   3.464  15.388  0.3276  1.2905  1.1041
 4669SOL     OW25468   3.240   0.694   4.585 -0.1402  0.4366 -0.3307
 4669SOL    HW125469   3.303   0.678   4.515  0.6962 -0.8884  0.7242
 4669SOL    HW225470   3.232   0.789   4.587  0.8674  0.4618  1.8119
 4670SOL     OW25471   1.854   2.046   7.753  0.3844 -0.1505  0.2820
 4670SOL    HW125472   1.881   2.129   7.713 -1.1980 -0.2879 -1.1351
 4670SOL    HW225473   1.785   2.070   7.815 -1.2317 -2.5027 -0.5753
 4671SOL     OW25474   2.201   3.428   6.132  0.0895  0.1214 -0.3229
 4671SOL    HW125475   2.152   3.473   6.064  0.0600 -0.5257 -0.7320
 4671SOL    HW225476   2.242   3.497   6.183  0.2812  0.2941 -0.7132
 4672SOL     OW25477   3.634   1.398  11.317 -0.0894  0.2269  0.3003
 4672SOL    HW125478   3.594   1.445  11.390 -0.5788  0.3452 -0.0387
 4672SOL    HW225479   3.724   1.421  11.339 -0.2484  1.3134 -0.1518
 4673SOL     OW25480   1.110   3.324   1.737 -0.0118  0.6980  0.1563
 4673SOL    HW125481   1.078   3.367   1.658 -2.4449  0.1523  0.8316
 4673SOL    HW225482   1.201   3.351   1.734  0.7294 -1.6499  1.0545
 4674SOL     OW25483   3.469   2.448  13.504 -0.1415 -0.0098 -0.2374
 4674SOL    HW125484   3.406   2.426  13.436  0.0411  0.2583 -0.4926
 4674SOL    HW225485   3.425   2.512  13.561  0.2913 -1.7102  1.9881
 4675SOL     OW25486   3.167   0.485   4.253 -0.1613 -0.1323  0.6278
 4675SOL    HW125487   3.228   0.439   4.311  1.5320 -0.6284 -1.5757
 4675SOL    HW225488   3.159   0.421   4.182  0.0665  1.7283 -1.0763
 4676SOL     OW25489   3.098   1.709   1.688 -1.3285 -0.1144  0.5068
 4676SOL    HW125490   3.186   1.676   1.707 -0.8038  1.6402  1.1744
 4676SOL    HW225491   3.061   1.621   1.691  1.1662 -1.1529  1.2233
 4677SOL     OW25492   3.131   0.780  17.254 -0.0785  0.0795 -0.2877
 4677SOL    HW125493   3.155   0.807  17.343 -2.5180 -0.2910  0.4814
 4677SOL    HW225494   3.193   0.829  17.199  1.3084  1.0445  2.1201
 4678SOL     OW25495   0.227   0.262   5.619 -0.4607 -0.4361  0.0729
 4678SOL    HW125496   0.234   0.342   5.671  0.0296 -1.0481  0.9477
 4678SOL    HW225497   0.311   0.271   5.574 -0.3115  1.7122  0.7697
 4679SOL     OW25498   3.667   3.573   2.044 -0.9304 -0.2861  0.5614
 4679SOL    HW125499   3.572   3.568   2.058 -1.0077 -1.4219 -0.3326
 4679SOL    HW225500   3.673   3.669   2.040  1.9427 -0.5851 -2.2056
 4680SOL     OW25501   2.232   0.919  17.610  0.1565 -0.1395  0.7253
 4680SOL    HW125502   2.160   0.856  17.618 -0.5682  1.1321  4.3288
 4680SOL    HW225503   2.194   1.000  17.645 -1.5171 -0.5787 -0.0707
 4681SOL     OW25504   4.355   0.534   4.044 -0.6779  0.0724  0.8495
 4681SOL    HW125505   4.373   0.441   4.059 -2.2823 -0.7091 -2.2539
 4681SOL    HW225506   4.443   0.562   4.020 -0.4648 -1.2010  0.1438
 4682SOL     OW25507   1.972   4.066   3.981 -0.3515 -0.1131 -0.6265
 4682SOL    HW125508   1.896   4.119   4.005 -0.7926 -0.7020 -0.7323
 4682SOL    HW225509   2.032   4.093   4.051 -0.4992  0.1950 -0.6181
 4683SOL     OW25510   3.300   2.112  14.363 -0.2996  0.1479 -0.2122
 4683SOL    HW125511   3.343   2.085  14.445 -1.9142 -0.2493  0.5054
 4683SOL    HW225512   3.213   2.075  14.380  0.4168 -1.3903  0.0456
 4684SOL     OW25513   2.809   3.114   4.892 -0.0678 -0.0350 -0.1812
 4684SOL    HW125514   2.816   3.141   4.801 -1.5255  0.5467 -0.1133
 4684SOL    HW225515   2.816   3.018   4.893  1.4640  0.0588 -1.7653
 4685SOL     OW25516   2.661   3.183   7.220  0.0361  0.2387 -0.0170
 4685SOL    HW125517   2.575   3.225   7.215 -0.2448 -0.0808  2.5463
 4685SOL    HW225518   2.638   3.090   7.226 -0.3281  0.2972 -0.4793
 4686SOL     OW25519   2.083   1.238   1.470 -0.1763  0.2266 -0.0595
 4686SOL    HW125520   2.059   1.261   1.560 -4.4751 -2.3696 -0.5553
 4686SOL    HW225521   2.124   1.155   1.493 -0.5715  0.2877  0.8789
 4687SOL     OW25522   4.160   0.588   3.862  0.5759 -0.4880 -0.0663
 4687SOL    HW125523   4.164   0.512   3.804  0.8603 -0.6701  0.1901
 4687SOL    HW225524   4.220   0.566   3.934 -0.1961  0.3337  0.8356
 4688SOL     OW25525   0.948   1.472  13.486  0.0923 -0.3492 -0.0960
 4688SOL    HW125526   0.993   1.388  13.495 -0.3096 -0.4995  0.5337
 4688SOL    HW225527   0.863   1.438  13.457  0.3093  0.6957 -1.9650
 4689SOL     OW25528   1.544   4.152   3.702  0.3789 -0.2630 -0.3146
 4689SOL    HW125529   1.580   4.197   3.779  0.4503 -0.5031 -0.2084
 4689SOL    HW225530   1.610   4.083   3.691  0.3422  0.0049 -2.2116
 4690SOL     OW25531   4.020   3.869  10.079  0.9029 -0.3859  0.2284
 4690SOL    HW125532   4.092   3.926  10.106  0.3923 -0.1865  1.1521
 4690SOL    HW225533   3.984   3.840  10.163  0.3489  1.6180  0.6763
 4691SOL     OW25534   3.541   3.742   5.293 -0.5041  0.3048  0.8405
 4691SOL    HW125535   3.449   3.767   5.284 -0.4782 -0.0061 -0.2663
 4691SOL    HW225536   3.563   3.702   5.209  1.3545 -0.6826  1.8069
 4692SOL     OW25537   1.762   2.792   4.004  0.2697  0.2284  0.1406
 4692SOL    HW125538   1.764   2.885   4.026 -1.6352  0.5908 -1.2420
 4692SOL    HW225539   1.853   2.777   3.978  0.4857 -1.3027  1.7891
 4693SOL     OW25540   3.831   2.254   4.387  0.2240  0.6067 -0.0194
 4693SOL    HW125541   3.896   2.278   4.454 -0.4646 -0.8981  1.2020
 4693SOL    HW225542   3.882   2.183   4.348 -1.8031  0.2432 -2.0040
 4694SOL     OW25543   2.958   2.533  17.355 -0.0787  0.6765 -0.0297
 4694SOL    HW125544   3.027   2.518  17.419  0.3148  0.3038 -0.5466
 4694SOL    HW225545   2.929   2.449  17.321 -0.3913  0.6173  0.3760
 4695SOL     OW25546   1.657   0.658   4.303 -0.3183  0.3473 -0.0434
 4695SOL    HW125547   1.583   0.611   4.265 -0.0683 -0.4487  0.4523
 4695SOL    HW225548   1.620   0.745   4.314  0.0639  0.4664  0.2776
 4696SOL     OW25549   0.722   0.091  12.379  0.2768  0.6575 -0.2797
 4696SOL    HW125550   0.811   0.076  12.412 -0.6322 -1.5644  1.1469
 4696SOL    HW225551   0.735   0.153  12.307 -0.7102 -0.2504 -1.2223
 4697SOL     OW25552   0.365   1.155   3.390  0.7321 -0.1072  0.2921
 4697SOL    HW125553   0.421   1.219   3.434 -1.5119  1.6378  0.5862
 4697SOL    HW225554   0.315   1.208   3.328 -2.2218 -1.8578  1.1816
 4698SOL     OW25555   2.129   1.932   4.485 -0.1856 -0.1137  0.3261
 4698SOL    HW125556   2.167   1.991   4.550  0.9435  1.6140 -1.9400
 4698SOL    HW225557   2.067   1.876   4.532  1.2547 -0.6675  1.5530
 4699SOL     OW25558   2.607   3.863   6.295  0.6030  0.0276 -0.0368
 4699SOL    HW125559   2.651   3.947   6.284 -0.8599  0.5194 -2.1060
 4699SOL    HW225560   2.674   3.824   6.351  1.5694 -0.8530 -1.8033
 4700SOL     OW25561   1.802   1.184  11.703 -0.4593  0.3678  0.1161
 4700SOL    HW125562   1.709   1.195  11.723 -1.0910 -2.9677 -0.9430
 4700SOL    HW225563   1.793   1.169  11.609  2.1582 -0.0034 -0.0729
 4701SOL     OW25564   3.430   2.887  16.549 -0.3353 -0.1501  0.3390
 4701SOL    HW125565   3.499   2.937  16.505  0.7778 -0.4839  1.6837
 4701SOL    HW225566   3.452   2.800  16.518 -0.1952 -0.2785  0.7964
 4702SOL     OW25567   1.990   0.360   3.071  0.0909 -0.2872  0.1404
 4702SOL    HW125568   1.939   0.439   3.087 -0.4126 -0.2338 -1.6402
 4702SOL    HW225569   1.976   0.313   3.153  0.8845  1.5248  1.3017
 4703SOL     OW25570   3.953   4.274   3.238  0.0413  0.7637 -0.1046
 4703SOL    HW125571   3.938   4.336   3.309  2.4858  1.0405  0.1715
 4703SOL    HW225572   3.968   4.198   3.294  0.8103  0.6638 -0.4414
 4704SOL     OW25573   4.177   3.235   6.992 -0.1978  0.0722 -0.1119
 4704SOL    HW125574   4.207   3.325   6.980 -1.4454  0.5369  0.2586
 4704SOL    HW225575   4.085   3.238   6.964 -0.1497  1.3420 -0.1034
 4705SOL     OW25576   4.293   1.948   9.828  0.2713 -0.0321 -0.3692
 4705SOL    HW125577   4.250   1.866   9.852 -0.6184  0.8606  1.0528
 4705SOL    HW225578   4.341   1.966   9.909 -0.0802 -1.8011  0.2326
 4706SOL     OW25579   0.206   4.426   1.109 -0.5096  0.0324  0.0340
 4706SOL    HW125580   0.192   4.499   1.170  2.4371  0.6842 -0.0726
 4706SOL    HW225581   0.148   4.437   1.034 -1.0070  1.1347  0.5891
 4707SOL     OW25582   4.499   2.437   4.239  0.3922 -0.3102  0.0819
 4707SOL    HW125583   4.464   2.525   4.256  0.5056 -0.3907  0.7285
 4707SOL    HW225584   4.514   2.405   4.328  0.8023 -2.2231 -0.6696
 4708SOL     OW25585   2.399   0.785   5.084  0.3244 -0.1433  0.2174
 4708SOL    HW125586   2.429   0.693   5.084  0.6154 -0.0505  1.7422
 4708SOL    HW225587   2.482   0.827   5.063 -0.1938  1.1971  0.9101
 4709SOL     OW25588   2.796   4.626   9.248  0.5685 -0.0341  0.1551
 4709SOL    HW125589   2.763   4.579   9.325 -1.7918  1.5457  0.1046
 4709SOL    HW225590   2.774   4.712   9.284 -2.4632 -0.3496 -0.9253
 4710SOL     OW25591   4.403   4.136   6.162 -0.3518 -0.2722 -0.0645
 4710SOL    HW125592   4.471   4.113   6.099  1.1872  2.8303  0.4837
 4710SOL    HW225593   4.337   4.081   6.118 -0.0788 -0.3678 -0.3525
 4711SOL     OW25594   4.230   4.499   2.798 -0.4792  0.3290  0.0007
 4711SOL    HW125595   4.325   4.493   2.810 -0.7529 -1.1549  1.5155
 4711SOL    HW225596   4.228   4.573   2.738 -0.3294  0.7364  0.4911
 4712SOL     OW25597   0.338   1.285   6.978  0.1856  0.0532 -0.0308
 4712SOL    HW125598   0.375   1.332   7.053 -0.6011 -0.3127  0.5905
 4712SOL    HW225599   0.259   1.337   6.968  0.8305  0.5737 -2.3478
 4713SOL     OW25600   1.128   0.007  11.638 -0.0155 -0.5509  0.4185
 4713SOL    HW125601   1.145   4.639  11.647  0.4526 -0.4631  0.4363
 4713SOL    HW225602   1.170   0.053  11.710 -0.5258  0.0686  0.3298
 4714SOL     OW25603   0.691   3.985   9.251 -0.1110  0.5778  0.2416
 4714SOL    HW125604   0.624   4.053   9.242 -1.2290 -0.4387  0.8938
 4714SOL    HW225605   0.770   4.040   9.254 -0.1911  0.6551  0.9992
 4715SOL     OW25606   2.971   2.709   7.281  0.0453  0.5446  0.1498
 4715SOL    HW125607   3.061   2.723   7.252 -0.7569  1.0848 -2.1035
 4715SOL    HW225608   2.926   2.719   7.198 -1.0567 -2.2394  0.4254
 4716SOL     OW25609   3.539   4.628  16.024  0.2306  0.2418  0.0049
 4716SOL    HW125610   3.575   4.560  15.967  0.2182 -1.4295  2.0009
 4716SOL    HW225611   3.535   4.694  15.955 -1.1300  0.0258 -0.1282
 4717SOL     OW25612   3.527   4.481  15.175 -0.2476 -0.2149 -0.1703
 4717SOL    HW125613   3.453   4.446  15.126  1.0840  0.0937 -2.3857
 4717SOL    HW225614   3.588   4.485  15.102 -0.2955 -2.7855 -0.3591
 4718SOL     OW25615   1.035   2.507   5.764  0.5334 -0.7116  0.5702
 4718SOL    HW125616   0.953   2.482   5.808 -1.6368  1.0466 -2.4079
 4718SOL    HW225617   1.053   2.594   5.801  0.8786 -0.2963 -0.5548
 4719SOL     OW25618   3.102   0.874   3.102  0.1301 -0.3898 -0.0005
 4719SOL    HW125619   3.192   0.862   3.133 -0.3099 -1.1741  0.9719
 4719SOL    HW225620   3.055   0.820   3.165  0.2509  0.5933  0.9518
 4720SOL     OW25621   0.823   2.252   7.000 -0.4159  0.5348 -0.2161
 4720SOL    HW125622   0.807   2.304   6.922 -0.1114 -2.8637 -2.5163
 4720SOL    HW225623   0.749   2.191   6.993 -1.0141  1.7148 -4.0275
 4721SOL     OW25624   3.309   4.247   4.754  0.6608 -0.1615 -0.1639
 4721SOL    HW125625   3.387   4.296   4.781  2.2039 -0.9322 -3.2689
 4721SOL    HW225626   3.259   4.328   4.751 -1.3552 -1.4197 -0.4373
 4722SOL     OW25627   1.835   2.197   2.171 -0.3499  0.1757 -0.0542
 4722SOL    HW125628   1.844   2.220   2.264  1.6925  1.8051 -0.6493
 4722SOL    HW225629   1.866   2.273   2.123  0.6193 -0.0182  0.2527
 4723SOL     OW25630   1.560   4.374  11.050 -0.2756 -0.0965 -0.5156
 4723SOL    HW125631   1.643   4.391  11.006  1.0580 -0.0406  2.0386
 4723SOL    HW225632   1.525   4.463  11.048  0.8200  0.3341 -0.4958
 4724SOL     OW25633   3.825   4.158   8.301 -0.1614 -0.8070 -0.0607
 4724SOL    HW125634   3.886   4.087   8.319 -0.3250 -0.4642  1.8196
 4724SOL    HW225635   3.773   4.148   8.380 -0.1984  1.4014  0.1953
 4725SOL     OW25636   2.613   1.205   1.830 -0.6730  0.3115 -0.1395
 4725SOL    HW125637   2.603   1.132   1.891 -2.6487  1.1011  0.4628
 4725SOL    HW225638   2.706   1.192   1.808 -0.2270  1.2297  1.2375
 4726SOL     OW25639   3.942   0.414  10.719 -0.0716 -0.1074  0.3241
 4726SOL    HW125640   4.014   0.468  10.751 -0.5601  0.7019  0.0488
 4726SOL    HW225641   3.866   0.450  10.764 -0.8965 -1.6111  0.1109
 4727SOL     OW25642   1.272   3.269   7.271  0.5990  0.0030  0.0486
 4727SOL    HW125643   1.270   3.316   7.188  4.6328  0.8422  0.4388
 4727SOL    HW225644   1.217   3.192   7.254  0.6853 -0.1330  0.3903
 4728SOL     OW25645   1.387   2.797   4.903 -0.1133 -0.0496  0.0779
 4728SOL    HW125646   1.352   2.778   4.990  1.2223 -2.2277  0.1351
 4728SOL    HW225647   1.351   2.883   4.881  0.5145  0.5304  1.3298
 4729SOL     OW25648   2.808   1.029  10.552  0.1926  0.0813  0.0661
 4729SOL    HW125649   2.716   1.021  10.580  0.5100 -0.0253  1.0781
 4729SOL    HW225650   2.818   1.124  10.558 -0.1091  0.1190  0.0014
 4730SOL     OW25651   4.476   4.368  15.968 -0.6679 -0.0849  0.5144
 4730SOL    HW125652   4.522   4.348  16.050 -0.1193 -0.9930 -0.0159
 4730SOL    HW225653   4.493   4.462  15.968  0.1834 -0.2283  2.5100
 4731SOL     OW25654   2.800   0.396   7.527 -0.2844  0.0105  0.7027
 4731SOL    HW125655   2.714   0.432   7.545  0.0563  1.4186 -0.4805
 4731SOL    HW225656   2.813   0.346   7.607  0.9969 -0.2234  0.3652
 4732SOL     OW25657   3.096   0.265   8.963 -0.2473  0.3744  0.0863
 4732SOL    HW125658   3.097   0.171   8.982 -2.2214  0.4305  0.5193
 4732SOL    HW225659   3.191   0.272   8.954 -0.2234 -0.7835 -0.5267
 4733SOL     OW25660   4.272   0.033   8.839 -0.1372  0.0188  0.0999
 4733SOL    HW125661   4.263   0.091   8.764  1.8279  0.0318 -0.1253
 4733SOL    HW225662   4.206   0.068   8.899  0.3247  1.7854 -0.4487
 4734SOL     OW25663   3.602   3.883   2.029 -0.6578  0.4483 -0.4972
 4734SOL    HW125664   3.580   3.951   1.965  1.1475  2.0325  0.5825
 4734SOL    HW225665   3.526   3.878   2.088 -1.1755  3.4361 -0.8978
 4735SOL     OW25666   1.926   0.172   5.460 -0.1583  0.3778 -0.5374
 4735SOL    HW125667   1.876   0.253   5.448 -0.4622  0.2162 -0.3571
 4735SOL    HW225668   1.971   0.206   5.537  0.5399  1.9815 -1.6483
 4736SOL     OW25669   0.931   2.844   3.065 -0.1887  0.1139  0.5552
 4736SOL    HW125670   0.852   2.835   3.119 -2.0487 -0.2348 -2.2211
 4736SOL    HW225671   0.892   2.896   2.995  3.0867  1.9359  0.1296
 4737SOL     OW25672   0.010   4.066  11.114 -0.7926  0.5452 -0.5592
 4737SOL    HW125673   0.081   4.003  11.126 -0.3143  1.2660  0.4711
 4737SOL    HW225674   0.058   4.148  11.100  0.5761  0.0503  1.1355
 4738SOL     OW25675   3.956   3.590   8.224 -0.2139  0.1065  0.6106
 4738SOL    HW125676   3.927   3.561   8.310  2.0673  0.2496  1.4148
 4738SOL    HW225677   4.024   3.529   8.198  0.3244 -0.1966  2.7435
 4739SOL     OW25678   1.643   3.977   8.642 -0.5569  0.7093  0.5841
 4739SOL    HW125679   1.681   3.929   8.568  0.0513 -1.3903  2.2532
 4739SOL    HW225680   1.593   4.049   8.603  0.3977  0.4631 -1.1066
 4740SOL     OW25681   3.369   0.273   8.929  0.1728  0.2644  0.0183
 4740SOL    HW125682   3.459   0.303   8.941 -0.0648  1.1782 -0.4684
 4740SOL    HW225683   3.376   0.178   8.927  0.0421  0.2457  0.3875
 4741SOL     OW25684   2.970   3.278  17.084 -0.1422 -0.0468 -0.4549
 4741SOL    HW125685   2.917   3.233  17.150 -1.7804 -0.5019 -2.0834
 4741SOL    HW225686   3.045   3.318  17.127 -0.8715  0.8902 -0.0359
 4742SOL     OW25687   0.016   1.994   3.877 -0.1681 -0.5076 -0.2885
 4742SOL    HW125688   4.697   1.918   3.839  1.2566 -1.1336 -0.6772
 4742SOL    HW225689   0.046   1.954   3.959  0.2604 -0.5437 -0.4608
 4743SOL     OW25690   3.392   3.044   7.821 -0.3872 -0.3842  0.2045
 4743SOL    HW125691   3.381   2.982   7.893  1.9483 -0.3962  0.5331
 4743SOL    HW225692   3.396   2.991   7.741  0.4918 -1.3678  0.9008
 4744SOL     OW25693   1.917   1.731  12.790 -0.0057 -0.3499 -0.0316
 4744SOL    HW125694   1.938   1.697  12.877 -0.2633  0.6123  0.4060
 4744SOL    HW225695   1.934   1.822  12.813  0.9663 -0.4630 -0.2996
 4745SOL     OW25696   3.410   0.728   8.474 -0.2786  0.5163 -0.0649
 4745SOL    HW125697   3.410   0.674   8.553 -2.3503  0.5510 -0.0314
 4745SOL    HW225698   3.348   0.793   8.506  0.8889  1.2037  0.8181
 4746SOL     OW25699   4.084   2.145   8.328  0.3043 -0.5057  0.1552
 4746SOL    HW125700   4.112   2.194   8.251 -0.9391  0.4763  0.3414
 4746SOL    HW225701   4.145   2.071   8.326  0.3658 -0.4618  0.4080
 4747SOL     OW25702   4.130   2.283   0.236 -0.7977 -0.9615  0.0692
 4747SOL    HW125703   4.061   2.217   0.237 -0.0882 -1.7250 -1.2850
 4747SOL    HW225704   4.142   2.291   0.331 -0.2668  0.2661 -0.1078
 4748SOL     OW25705   1.537   3.089  16.456 -0.2866 -0.3051 -0.5589
 4748SOL    HW125706   1.617   3.114  16.502  0.2334 -0.7263 -1.2358
 4748SOL    HW225707   1.480   3.166  16.462  1.6971  1.1582 -0.0487
 4749SOL     OW25708   0.057   3.968   8.401 -0.0078 -0.7240 -0.5389
 4749SOL    HW125709   0.150   3.991   8.402 -0.8088  2.4622 -0.1703
 4749SOL    HW225710   0.067   3.889   8.454 -0.4274 -0.3129  0.1547
 4750SOL     OW25711   4.460   1.022  15.273  0.2448  0.2678 -0.5204
 4750SOL    HW125712   4.373   1.050  15.302  1.0056  1.7187  0.3872
 4750SOL    HW225713   4.434   0.932  15.255 -0.8604  0.6554 -0.8100
 4751SOL     OW25714   4.724   1.894  14.634 -0.2665 -0.2028 -0.4366
 4751SOL    HW125715   0.030   1.872  14.723  2.9328  1.7544 -1.0539
 4751SOL    HW225716   4.631   1.910  14.650  0.0914 -0.5177  1.9690
 4752SOL     OW25717   0.189   0.986   5.871 -0.0263 -0.0680 -0.4365
 4752SOL    HW125718   0.141   0.937   5.938  0.6159  0.0041  0.0782
 4752SOL    HW225719   0.238   1.048   5.925  0.3459 -1.5981  0.9698
 4753SOL     OW25720   4.221   3.963   7.643  0.7174 -0.6835 -0.3469
 4753SOL    HW125721   4.251   3.894   7.703 -1.8737 -0.6825  0.9587
 4753SOL    HW225722   4.159   4.016   7.693  3.1279  1.4345  0.3950
 4754SOL     OW25723   4.646   2.960   5.002  0.2051  0.5233  0.8992
 4754SOL    HW125724   0.007   2.945   4.962 -0.6781 -1.8566 -0.0879
 4754SOL    HW225725   4.624   3.031   4.942 -1.0098  1.1967  2.1518
 4755SOL     OW25726   1.157   1.340  16.957 -0.0908 -0.6453  0.3100
 4755SOL    HW125727   1.087   1.375  16.902  0.7722  1.2100  0.3676
 4755SOL    HW225728   1.179   1.260  16.910 -1.4056 -1.7712  1.6315
 4756SOL     OW25729   0.137   0.875   3.046 -0.1060 -0.1941  0.0488
 4756SOL    HW125730   0.191   0.816   2.993 -1.8647 -0.8129 -1.0564
 4756SOL    HW225731   0.102   0.810   3.105 -2.1302  0.5365 -0.3538
 4757SOL     OW25732   2.618   2.084   4.831  0.7315  0.4355  0.3487
 4757SOL    HW125733   2.708   2.114   4.819  1.7011 -1.9927  1.5249
 4757SOL    HW225734   2.567   2.165   4.825 -3.1344 -1.9688  0.6121
 4758SOL     OW25735   3.243   0.470   3.805  0.0377 -0.0108 -0.1619
 4758SOL    HW125736   3.301   0.500   3.874  0.4790 -0.3782 -0.3725
 4758SOL    HW225737   3.295   0.409   3.753  0.2832 -0.9596  1.1935
 4759SOL     OW25738   4.067   3.773   7.135  0.3697  0.1303  0.3717
 4759SOL    HW125739   4.148   3.736   7.170  0.4393  1.3439  1.4822
 4759SOL    HW225740   4.054   3.847   7.194 -3.4150 -1.1387  1.1171
 4760SOL     OW25741   3.830   1.351  12.576  0.7423 -0.1300  0.6511
 4760SOL    HW125742   3.923   1.336  12.594  1.3406  1.3771 -1.1520
 4760SOL    HW225743   3.794   1.316  12.658  1.1361 -1.7795  0.1323
 4761SOL     OW25744   4.569   3.388   3.766  0.1475 -0.0970 -0.0206
 4761SOL    HW125745   4.477   3.403   3.746  0.4063  0.4319 -0.8191
 4761SOL    HW225746   4.612   3.448   3.705 -4.0358  2.0669 -0.7720
 4762SOL     OW25747   4.099   0.876   6.740  0.1403 -0.4456 -0.3663
 4762SOL    HW125748   4.130   0.964   6.765 -0.7739 -0.1061 -0.4175
 4762SOL    HW225749   4.068   0.850   6.827 -0.8689 -1.7478 -1.1336
 4763SOL     OW25750   3.846   2.452   0.302 -0.1997 -0.6062  0.5338
 4763SOL    HW125751   3.751   2.454   0.290 -0.1514  1.3096  0.6151
 4763SOL    HW225752   3.856   2.357   0.315 -2.5787 -0.9836 -0.3337
 4764SOL     OW25753   2.191   0.739   3.443 -0.6336  0.6901  0.4128
 4764SOL    HW125754   2.222   0.774   3.526  0.0924 -1.1304  0.8811
 4764SOL    HW225755   2.252   0.667   3.429  1.0732  2.0089  1.0204
 4765SOL     OW25756   2.456   0.695  12.658  0.0699 -0.5061 -0.1158
 4765SOL    HW125757   2.383   0.718  12.601 -1.5838 -3.1711  0.9278
 4765SOL    HW225758   2.529   0.738  12.613 -0.0782 -0.3471 -0.2041
 4766SOL     OW25759   0.022   2.860   2.855  0.0330  0.4265 -0.2370
 4766SOL    HW125760   0.099   2.906   2.891  0.3232 -0.9996  0.9231
 4766SOL    HW225761   0.022   2.898   2.767 -1.1363  3.2287  0.9751
 4767SOL     OW25762   1.365   0.208  15.027  0.0895 -0.0624  0.5733
 4767SOL    HW125763   1.375   0.165  15.112  1.0306  0.2899  0.6518
 4767SOL    HW225764   1.286   0.257  15.047 -0.9186 -1.4467 -0.0196
 4768SOL     OW25765   2.175   4.498   4.567 -0.3013 -0.0552 -0.0439
 4768SOL    HW125766   2.192   4.495   4.661  0.0144 -0.2068 -0.1050
 4768SOL    HW225767   2.144   4.588   4.554 -1.8434 -0.0894  3.5461
 4769SOL     OW25768   4.525   3.046   2.539  0.4607  0.0148 -0.1981
 4769SOL    HW125769   4.484   3.110   2.597  0.2988 -0.4905  0.2487
 4769SOL    HW225770   4.602   3.099   2.518  0.6562  0.4790  1.7093
 4770SOL     OW25771   4.561   2.360   7.444 -0.0828 -0.3948  0.0986
 4770SOL    HW125772   4.548   2.426   7.512  1.9720 -0.1525  0.2647
 4770SOL    HW225773   4.588   2.416   7.371  2.4534 -1.3922  0.2613
 4771SOL     OW25774   2.513   2.904   4.184 -0.5931  0.7187 -0.2346
 4771SOL    HW125775   2.457   2.982   4.190 -1.7080 -0.1035  0.0548
 4771SOL    HW225776   2.453   2.840   4.224  0.3953 -1.0733 -1.6190
 4772SOL     OW25777   0.154   0.514  13.456  0.8651  0.4455  0.3204
 4772SOL    HW125778   0.164   0.554  13.369 -1.9865 -1.2947 -0.8176
 4772SOL    HW225779   0.061   0.530  13.474  0.4724 -0.9064 -0.4633
 4773SOL     OW25780   3.599   0.614   8.794  0.7103  0.7470  0.0716
 4773SOL    HW125781   3.606   0.677   8.865 -3.2511  1.5020 -0.2308
 4773SOL    HW225782   3.612   0.528   8.835 -0.9926  0.6584  0.4354
 4774SOL     OW25783   2.398   3.256  17.365 -0.1641  0.0521  0.1635
 4774SOL    HW125784   2.441   3.340  17.346 -1.7579  0.2369 -2.6436
 4774SOL    HW225785   2.466   3.189  17.356 -0.4040 -0.4052  1.6900
 4775SOL     OW25786   3.386   3.099  16.720  0.1111 -0.3841 -0.2045
 4775SOL    HW125787   3.387   3.024  16.661  2.4638  0.0646 -0.7186
 4775SOL    HW225788   3.358   3.063  16.804 -1.8178 -2.5990 -1.7863
 4776SOL     OW25789   0.389   1.027  17.592 -0.0909 -0.0793  0.0809
 4776SOL    HW125790   0.471   1.073  17.609  0.7961 -0.5842 -2.8086
 4776SOL    HW225791   0.388   1.005  17.499  1.2942 -0.4026  0.1370
 4777SOL     OW25792   0.077   1.817   8.758  0.4939  0.0728  0.1178
 4777SOL    HW125793   0.070   1.910   8.735 -0.6015 -0.3385 -1.1857
 4777SOL    HW225794   0.121   1.816   8.843  0.5783 -0.9375  0.0584
 4778SOL     OW25795   0.491   3.896  11.391  0.6575  0.4788 -0.2737
 4778SOL    HW125796   0.509   3.973  11.336 -2.8513  1.2761 -0.3527
 4778SOL    HW225797   0.545   3.823  11.363  0.4658  0.6045 -0.9807
 4779SOL     OW25798   0.398   2.408   8.816 -0.2295 -0.1914  0.3736
 4779SOL    HW125799   0.357   2.326   8.787  1.5839 -0.4621 -1.4437
 4779SOL    HW225800   0.467   2.365   8.867  0.9898  0.3543 -0.8185
 4780SOL     OW25801   3.697   0.659   9.377 -0.6051  0.1897  0.2375
 4780SOL    HW125802   3.659   0.605   9.446 -1.0892  1.0859  0.6625
 4780SOL    HW225803   3.789   0.656   9.403 -0.3310  1.7865 -0.5761
 4781SOL     OW25804   2.661   3.480   9.420 -0.5905  0.2957 -0.2235
 4781SOL    HW125805   2.737   3.506   9.368  1.0260 -0.5150  1.7771
 4781SOL    HW225806   2.588   3.526   9.377 -1.6203  1.1828  2.4985
 4782SOL     OW25807   1.899   0.378   4.034  0.0264  0.0002  0.2925
 4782SOL    HW125808   1.900   0.460   3.985  2.3161 -0.7243 -0.8882
 4782SOL    HW225809   1.955   0.313   3.992  2.5426  1.2826  1.6569
 4783SOL     OW25810   3.180   1.043   1.520  0.5627 -0.0910 -0.0760
 4783SOL    HW125811   3.179   0.983   1.446  1.0905  0.9476 -0.9196
 4783SOL    HW225812   3.274   1.060   1.526  0.5868 -1.1197  2.8144
 4784SOL     OW25813   1.037   1.929   5.901 -0.2152 -0.1483  0.0693
 4784SOL    HW125814   1.019   1.918   5.995  0.2945 -0.8548  0.0852
 4784SOL    HW225815   1.101   2.000   5.903  0.6442 -0.9360  0.3237
 4785SOL     OW25816   3.289   2.576   1.511 -0.5476 -0.3790 -0.1392
 4785SOL    HW125817   3.367   2.523   1.490 -0.8453 -0.9167  0.1033
 4785SOL    HW225818   3.326   2.649   1.561 -1.5967 -0.9700  1.4996
 4786SOL     OW25819   0.243   4.709   5.552 -0.1288  0.0414 -0.1759
 4786SOL    HW125820   0.288   4.648   5.610  0.2656  0.9083  0.4288
 4786SOL    HW225821   0.187   0.038   5.607 -0.2283 -1.4593  1.1915
 4787SOL     OW25822   1.760   0.255   8.219 -0.0664  0.1869 -0.5485
 4787SOL    HW125823   1.697   0.282   8.286  2.2604  0.4234  1.5893
 4787SOL    HW225824   1.848   0.261   8.257 -0.3881  2.4401 -0.1413
 4788SOL     OW25825   3.661   2.007   2.966 -0.2064 -0.1126  0.2400
 4788SOL    HW125826   3.678   2.074   3.033  0.3163 -0.0443  0.0389
 4788SOL    HW225827   3.661   1.923   3.012 -2.8545 -1.4549 -2.2381
 4789SOL     OW25828   1.207   4.035   9.414  0.1226  0.0833  0.2920
 4789SOL    HW125829   1.141   4.024   9.483  0.7457  0.9429  1.0183
 4789SOL    HW225830   1.234   3.944   9.404 -1.5955 -0.5198  1.0287
 4790SOL     OW25831   3.886   3.942   0.499  0.1638  0.3550 -0.3698
 4790SOL    HW125832   3.874   4.024   0.451 -4.8269  0.1086  0.4287
 4790SOL    HW225833   3.886   3.879   0.427 -0.1692  0.1153 -0.1557
 4791SOL     OW25834   0.843   0.574  13.547  0.3741 -0.6777 -0.1390
 4791SOL    HW125835   0.845   0.598  13.454  1.1579 -1.1615 -0.2480
 4791SOL    HW225836   0.757   0.533  13.553  0.9039 -1.5249  1.5673
 4792SOL     OW25837   3.766   1.819   3.687 -0.7807 -0.2106 -0.3630
 4792SOL    HW125838   3.699   1.774   3.738 -0.0424 -0.0935  0.7131
 4792SOL    HW225839   3.730   1.812   3.599  0.2267  2.5004 -0.9981
 4793SOL     OW25840   3.067   2.068  13.328  0.1126 -0.3670  0.4727
 4793SOL    HW125841   3.157   2.068  13.362  0.7926 -0.1740 -1.3258
 4793SOL    HW225842   3.081   2.071  13.233  0.1320 -1.9894  0.4178
 4794SOL     OW25843   3.546   2.453   7.744  0.6848  0.2840 -0.3772
 4794SOL    HW125844   3.583   2.366   7.728 -1.4592 -0.5783 -0.6695
 4794SOL    HW225845   3.545   2.448   7.840 -0.5773  1.2271 -0.3439
 4795SOL     OW25846   1.925   3.426   2.568  0.5435  0.2093  0.2534
 4795SOL    HW125847   1.905   3.519   2.581  1.5269  0.1363  2.3655
 4795SOL    HW225848   1.894   3.390   2.651  0.8292  0.8657  0.6483
 4796SOL     OW25849   2.362   2.406   1.174 -0.1424  0.0373  0.0028
 4796SOL    HW125850   2.289   2.388   1.234  1.5359 -1.5261  1.6228
 4796SOL    HW225851   2.414   2.461   1.233 -2.0951 -0.4053  2.1161
 4797SOL     OW25852   3.528   1.183   2.640  0.0419 -0.4778  0.2363
 4797SOL    HW125853   3.622   1.182   2.658 -0.2677  2.0288  1.8918
 4797SOL    HW225854   3.501   1.249   2.703 -0.1647 -0.2065 -0.1349
 4798SOL     OW25855   0.673   1.594   9.677 -0.4423  0.2733 -0.0997
 4798SOL    HW125856   0.746   1.545   9.716  0.2828  0.5889 -1.0501
 4798SOL    HW225857   0.724   1.641   9.610  0.4389 -0.7774 -0.1672
 4799SOL     OW25858   3.775   3.083   1.927  0.0123  0.0479  0.2057
 4799SOL    HW125859   3.742   3.117   1.844  1.3531  2.9195  0.8383
 4799SOL    HW225860   3.847   3.024   1.907 -0.7587 -1.2359  1.1811
 4800SOL     OW25861   3.028   1.111  12.957 -0.1624  0.1460 -0.8074
 4800SOL    HW125862   2.979   1.157  12.890 -0.6354  0.4215 -0.2746
 4800SOL    HW225863   3.038   1.028  12.911  1.3063 -0.0258 -0.1935
 4801SOL     OW25864   2.657   3.211   5.134  0.0816  0.2251  0.3402
 4801SOL    HW125865   2.586   3.269   5.106  0.6085  0.6398 -0.1498
 4801SOL    HW225866   2.716   3.217   5.058 -1.2579  0.6672 -0.6791
 4802SOL     OW25867   2.073   0.730   2.465  0.6286  0.2242  0.2686
 4802SOL    HW125868   2.118   0.783   2.530  0.1491  1.3695 -0.3356
 4802SOL    HW225869   2.034   0.661   2.518 -0.4508  1.0513  0.5360
 4803SOL     OW25870   2.704   3.241   8.531  0.0549 -0.0596 -0.2569
 4803SOL    HW125871   2.789   3.284   8.523  0.4596 -0.9368 -0.7019
 4803SOL    HW225872   2.702   3.181   8.457  2.0668  0.1293 -0.4749
 4804SOL     OW25873   2.139   4.571   2.812  0.1874 -0.2598 -0.3630
 4804SOL    HW125874   2.125   4.554   2.905  0.6647 -1.5610 -0.5313
 4804SOL    HW225875   2.055   4.537   2.782  0.4142 -0.9363 -0.2230
 4805SOL     OW25876   3.400   4.036   3.303 -0.1298  0.5190 -0.2381
 4805SOL    HW125877   3.445   3.979   3.364 -2.8890  0.1552  1.4589
 4805SOL    HW225878   3.326   4.072   3.352 -2.3696 -2.6914 -1.2647
 4806SOL     OW25879   3.525   0.462   2.148 -0.2849  0.6833 -0.7222
 4806SOL    HW125880   3.530   0.453   2.243  1.3418  0.0697 -0.8741
 4806SOL    HW225881   3.515   0.372   2.117  2.1804 -0.4456  1.7822
 4807SOL     OW25882   3.185   0.357   7.561  0.1283 -0.5805 -0.7823
 4807SOL    HW125883   3.252   0.309   7.513  3.1890  3.3162 -0.4409
 4807SOL    HW225884   3.140   0.394   7.486  2.5726 -0.9166 -2.4123
 4808SOL     OW25885   1.310   3.468   8.043  0.2680 -0.2398 -0.4118
 4808SOL    HW125886   1.403   3.447   8.056  0.3530 -0.4931 -1.3620
 4808SOL    HW225887   1.292   3.501   8.130  1.8369 -0.1935 -0.1038
 4809SOL     OW25888   3.685   1.836   6.590 -0.5816  0.2837  0.2744
 4809SOL    HW125889   3.738   1.765   6.624  0.6382  0.8829 -0.3555
 4809SOL    HW225890   3.638   1.787   6.522  1.2729 -0.2081 -0.6586
 4810SOL     OW25891   0.098   2.737  12.911 -0.6285  1.0791 -0.1635
 4810SOL    HW125892   0.156   2.810  12.932  0.8634 -0.3010  0.5277
 4810SOL    HW225893   0.015   2.749  12.956  0.2141 -1.5920  2.1465
 4811SOL     OW25894   2.715   1.148   9.149  0.8779  0.2150 -0.2227
 4811SOL    HW125895   2.645   1.210   9.168  0.7687  0.8125 -2.6554
 4811SOL    HW225896   2.785   1.212   9.134  1.4072 -0.3470 -0.1729
 4812SOL     OW25897   2.634   1.953   5.080  0.1686  0.6008 -0.0662
 4812SOL    HW125898   2.648   2.011   5.005 -2.8187  1.4077  0.0040
 4812SOL    HW225899   2.678   1.875   5.048  1.3596  1.2056  0.0786
 4813SOL     OW25900   3.716   1.582  13.985  0.0117  0.1291 -0.0402
 4813SOL    HW125901   3.701   1.661  13.933  1.3708 -0.0214 -0.6707
 4813SOL    HW225902   3.802   1.599  14.022 -0.0753  1.5023 -0.4767
 4814SOL     OW25903   1.916   4.589   7.003 -0.3413  0.9734 -0.2633
 4814SOL    HW125904   1.951   4.520   6.947 -1.6848  1.0529 -1.2143
 4814SOL    HW225905   1.919   4.551   7.090 -0.6291  4.3738  1.2375
 4815SOL     OW25906   3.067   0.694   5.840  0.1225  0.3765  0.4873
 4815SOL    HW125907   3.035   0.782   5.821 -0.1237  0.5523  1.7137
 4815SOL    HW225908   2.998   0.633   5.813  0.8083 -0.1477 -0.0723
 4816SOL     OW25909   4.565   3.879  14.438  0.9639  0.2397  0.3810
 4816SOL    HW125910   4.550   3.800  14.489 -1.9970  0.3875 -0.2414
 4816SOL    HW225911   4.651   3.902  14.474  0.8271  0.7512  0.3899
 4817SOL     OW25912   2.734   4.446   9.742  0.3285 -0.2391 -0.3434
 4817SOL    HW125913   2.773   4.511   9.800 -1.2010  0.4977 -0.1677
 4817SOL    HW225914   2.750   4.366   9.792  0.6126 -0.7504 -1.2503
 4818SOL     OW25915   1.106   2.888   4.315 -0.0765  0.5364  0.3172
 4818SOL    HW125916   1.074   2.806   4.277  3.0771 -0.9923  1.0252
 4818SOL    HW225917   1.068   2.952   4.255  0.5410 -1.7959 -2.5619
 4819SOL     OW25918   2.328   1.642  17.440 -0.1702  0.3200  0.3273
 4819SOL    HW125919   2.389   1.580  17.401  1.0073  1.2037  0.7805
 4819SOL    HW225920   2.377   1.664  17.519  0.5951  0.8250 -0.2864
 4820SOL     OW25921   0.363   3.747   0.493  0.1847 -0.2789 -0.4944
 4820SOL    HW125922   0.310   3.670   0.514  1.5846 -1.1651 -0.2056
 4820SOL    HW225923   0.296   3.811   0.516  1.3433  0.7702 -0.0255
 4821SOL     OW25924   2.481   0.863   0.039  0.0967 -0.4171  0.2375
 4821SOL    HW125925   2.401   0.892  17.698  1.2578 -1.6734 -2.7851
 4821SOL    HW225926   2.455   0.834   0.127  0.6426  0.2292  0.6123
 4822SOL     OW25927   1.731   4.283   3.851 -0.5548 -0.1738 -0.4423
 4822SOL    HW125928   1.674   4.356   3.876  0.8145  0.7656 -0.0583
 4822SOL    HW225929   1.741   4.253   3.942  2.4296  0.8328 -0.4625
 4823SOL     OW25930   2.621   0.645  11.088 -0.1305 -0.1075  0.4209
 4823SOL    HW125931   2.602   0.738  11.094 -0.6758 -0.2081  0.2219
 4823SOL    HW225932   2.608   0.645  10.993  0.2075  0.9061  0.3768
 4824SOL     OW25933   4.713   1.849   8.109  0.6549 -0.5087 -0.5590
 4824SOL    HW125934   0.014   1.896   8.188 -2.4792 -2.0033  1.3322
 4824SOL    HW225935   0.058   1.878   8.050  0.5781  0.0290 -0.3859
 4825SOL     OW25936   1.979   2.231   5.577  0.2972  0.8391 -0.1264
 4825SOL    HW125937   1.931   2.252   5.657  0.7669  0.7513  0.1776
 4825SOL    HW225938   1.931   2.285   5.514  0.6574 -0.7940 -1.7877
 4826SOL     OW25939   3.482   2.112  10.962 -0.9937 -0.1369  0.5009
 4826SOL    HW125940   3.394   2.149  10.971 -0.9655 -0.7101  3.1168
 4826SOL    HW225941   3.529   2.184  10.920 -2.0719 -0.7034 -1.6891
 4827SOL     OW25942   1.632   4.309   8.135 -0.4164 -0.4975  0.7277
 4827SOL    HW125943   1.699   4.321   8.067  0.5990 -0.5962  1.7141
 4827SOL    HW225944   1.599   4.399   8.144 -0.0094 -0.1712 -0.9287
 4828SOL     OW25945   4.360   0.673   2.800  0.2166  0.3050  0.2524
 4828SOL    HW125946   4.324   0.746   2.751 -0.0137  0.6090  0.8699
 4828SOL    HW225947   4.305   0.601   2.769  0.5920  0.9391 -1.9039
 4829SOL     OW25948   3.386   4.529   9.095 -0.8947 -0.1677  0.7128
 4829SOL    HW125949   3.408   4.525   9.188  1.0459 -1.1825  0.2041
 4829SOL    HW225950   3.309   4.475   9.113 -0.5816 -0.9619 -0.3377
 4830SOL     OW25951   0.347   0.579   8.201 -0.5163  0.6592 -0.5286
 4830SOL    HW125952   0.326   0.533   8.283 -2.0003 -1.4110 -2.0787
 4830SOL    HW225953   0.277   0.542   8.148  0.7987 -0.4660 -1.4661
 4831SOL     OW25954   3.202   1.646   4.700  0.6747  0.1901 -0.1326
 4831SOL    HW125955   3.124   1.601   4.666  1.0174 -0.5673  0.0857
 4831SOL    HW225956   3.255   1.570   4.723 -0.7002 -0.6912  0.1598
 4832SOL     OW25957   4.591   2.869   2.121  0.1601  0.3979  0.1366
 4832SOL    HW125958   4.514   2.847   2.172  1.5627 -0.2476  1.9776
 4832SOL    HW225959   4.631   2.941   2.170  0.3272  0.9175 -0.7589
 4833SOL     OW25960   0.844   4.570   8.608 -0.4660 -0.4879 -0.5861
 4833SOL    HW125961   0.918   4.630   8.607 -2.5505  2.1122  0.4531
 4833SOL    HW225962   0.834   4.579   8.703  0.6413 -0.2979 -0.4920
 4834SOL     OW25963   1.838   1.520   5.288 -0.2364  0.2009 -0.3355
 4834SOL    HW125964   1.787   1.476   5.356 -0.6989  0.9861 -0.1759
 4834SOL    HW225965   1.834   1.613   5.312 -2.7323  0.6956 -2.7728
 4835SOL     OW25966   2.310   2.212   1.888 -0.5341  0.4122  0.8008
 4835SOL    HW125967   2.394   2.168   1.902  0.0080  0.5154 -2.0512
 4835SOL    HW225968   2.257   2.142   1.848  1.0254 -1.1255  1.3991
 4836SOL     OW25969   1.963   1.001  16.459  0.5697  0.3770  0.2406
 4836SOL    HW125970   2.003   0.931  16.511  0.4097  0.5085  0.5406
 4836SOL    HW225971   1.943   0.947  16.382  1.2055  1.2037 -0.5006
 4837SOL     OW25972   0.372   2.164   6.597  0.0254  0.3049  0.1381
 4837SOL    HW125973   0.277   2.164   6.591  0.2209 -0.6438 -2.6233
 4837SOL    HW225974   0.378   2.260   6.595  3.1344  0.1129  0.0203
 4838SOL     OW25975   0.889   1.634   6.541  0.2228  0.2681  0.0616
 4838SOL    HW125976   0.916   1.645   6.450 -1.3839  0.9358 -0.3391
 4838SOL    HW225977   0.948   1.691   6.590  2.2260  0.0242 -2.0766
 4839SOL     OW25978   2.071   3.588   5.932 -0.0558 -0.4199 -0.7467
 4839SOL    HW125979   2.126   3.662   5.906 -0.1849 -0.7055 -1.8064
 4839SOL    HW225980   2.000   3.596   5.868  2.4676 -0.4992 -3.5602
 4840SOL     OW25981   2.317   0.897   8.647 -0.2791 -0.4162  0.0125
 4840SOL    HW125982   2.279   0.838   8.712 -1.6867  0.3796 -0.0744
 4840SOL    HW225983   2.319   0.969   8.710  2.1011  0.3905 -1.0096
 4841SOL     OW25984   2.357   1.718   4.468 -0.0693 -0.0026 -0.1617
 4841SOL    HW125985   2.264   1.718   4.444  0.6733  1.1199 -3.0827
 4841SOL    HW225986   2.366   1.809   4.497  0.1473 -0.3168  0.7621
 4842SOL     OW25987   2.479   1.911   3.186 -0.2858 -0.3652 -0.2991
 4842SOL    HW125988   2.452   1.848   3.251 -0.8170  0.1096 -0.0576
 4842SOL    HW225989   2.550   1.959   3.229 -0.2760 -0.5132 -0.1546
 4843SOL     OW25990   0.840   3.923  13.584 -0.1132  0.4549  0.5933
 4843SOL    HW125991   0.861   3.935  13.677 -0.4872  3.0999  0.3271
 4843SOL    HW225992   0.914   3.974  13.550 -2.0668  0.7368 -3.2089
 4844SOL     OW25993   0.130   3.153   7.929 -0.0261 -0.1216  0.2133
 4844SOL    HW125994   0.214   3.178   7.966 -0.5714 -0.3179  1.6004
 4844SOL    HW225995   0.103   3.072   7.973  0.7012 -0.5542 -0.1448
 4845SOL     OW25996   3.488   1.429   5.590  0.4171  1.0269 -0.3276
 4845SOL    HW125997   3.422   1.446   5.657  0.1823  0.4225 -0.4041
 4845SOL    HW225998   3.447   1.482   5.522 -1.4622  0.7152  0.5686
 4846SOL     OW25999   1.730   0.725  15.846  1.0558  0.0684 -0.3788
 4846SOL    HW126000   1.667   0.671  15.894 -0.1947 -1.1765 -3.4250
 4846SOL    HW226001   1.677   0.801  15.821  0.3387 -0.3831 -0.2596
 4847SOL     OW26002   0.034   2.104   0.494  0.1301 -0.0619 -0.2258
 4847SOL    HW126003   0.017   2.056   0.413  0.2209 -0.5713  0.0615
 4847SOL    HW226004   4.675   2.083   0.535 -0.4844  0.6130 -1.1424
 4848SOL     OW26005   3.140   1.982   0.092  0.4056  0.7268  0.1616
 4848SOL    HW126006   3.072   2.005   0.029 -2.5617 -2.6847  2.1049
 4848SOL    HW226007   3.087   2.003   0.169  2.0723 -0.1301  1.5440
 4849SOL     OW26008   0.026   0.737   4.350 -0.6561 -0.4063 -0.0392
 4849SOL    HW126009   0.052   0.820   4.389  0.5517  0.0929 -1.9006
 4849SOL    HW226010   4.655   0.736   4.349 -0.6980  4.0008 -0.5743
 4850SOL     OW26011   3.041   4.709   3.812 -0.0956  0.0089  0.1486
 4850SOL    HW126012   2.968   0.018   3.761 -0.8913 -0.3563  1.0675
 4850SOL    HW226013   3.063   4.629   3.765 -0.1630  1.2088 -1.9327
 4851SOL     OW26014   3.423   1.519   5.307  0.0018  0.3068  0.1810
 4851SOL    HW126015   3.449   1.582   5.240  1.9535 -0.9278 -0.2283
 4851SOL    HW226016   3.388   1.449   5.251  1.1605  1.4581 -1.9748
 4852SOL     OW26017   1.375   3.398   9.038 -0.3060  0.3263 -0.0395
 4852SOL    HW126018   1.303   3.440   8.990  1.0382  0.1967 -2.1700
 4852SOL    HW226019   1.334   3.372   9.121  2.3702 -0.0537  1.1642
 4853SOL     OW26020   2.832   4.232   9.866 -0.5569 -0.5161 -0.2715
 4853SOL    HW126021   2.828   4.191   9.952  0.8936 -1.2691 -0.5668
 4853SOL    HW226022   2.892   4.183   9.809 -0.5948 -0.7763 -0.0851
 4854SOL     OW26023   0.667   4.200   5.567  0.1573  0.4160  0.5519
 4854SOL    HW126024   0.722   4.146   5.510  1.5726  0.2131  2.1205
 4854SOL    HW226025   0.638   4.132   5.627 -0.3250  0.0103 -0.1463
 4855SOL     OW26026   1.289   1.099   2.694  0.1735 -0.2340 -0.0754
 4855SOL    HW126027   1.225   1.143   2.638 -0.9815 -1.5058  0.2435
 4855SOL    HW226028   1.360   1.163   2.691  1.3181 -1.4696  0.1351
 4856SOL     OW26029   1.202   4.611   2.114  0.2782  0.6765  0.5004
 4856SOL    HW126030   1.203   4.707   2.114  0.9312  0.6667 -0.0826
 4856SOL    HW226031   1.179   4.587   2.025 -0.8276  1.1634  0.6601
 4857SOL     OW26032   2.343   0.166   2.064 -0.3624  0.0820  0.3357
 4857SOL    HW126033   2.358   0.252   2.024  1.3748  0.4075  1.6868
 4857SOL    HW226034   2.250   0.173   2.087 -0.7080 -2.4241 -0.2949
 4858SOL     OW26035   4.490   1.409   1.548  0.5424  0.7411  0.0499
 4858SOL    HW126036   4.457   1.494   1.575 -0.3097  0.3477  0.2642
 4858SOL    HW226037   4.412   1.357   1.526 -0.2102  1.3527  1.2793
 4859SOL     OW26038   2.606   2.086   8.648 -0.8175  1.1077  0.3979
 4859SOL    HW126039   2.523   2.092   8.695 -1.0376  0.3953  0.1083
 4859SOL    HW226040   2.667   2.044   8.709 -1.3597  1.1591  0.9830
 4860SOL     OW26041   0.440   0.530  12.147 -0.5600  0.4104 -0.4314
 4860SOL    HW126042   0.443   0.474  12.070  2.7181  0.5785 -0.4070
 4860SOL    HW226043   0.451   0.610  12.096 -2.3729 -0.0938 -1.6392
 4861SOL     OW26044   1.797   0.805   7.889  0.0758 -0.2126 -1.2760
 4861SOL    HW126045   1.847   0.862   7.948  0.1997 -2.3640  0.7150
 4861SOL    HW226046   1.716   0.795   7.939 -0.4146  0.1163 -2.0048
 4862SOL     OW26047   4.267   3.808   4.646 -0.2859  0.5592  0.6059
 4862SOL    HW126048   4.250   3.871   4.715 -0.7293  0.8772  0.2083
 4862SOL    HW226049   4.354   3.825   4.610 -0.6059 -0.1733 -0.5199
 4863SOL     OW26050   4.487   0.644   6.229 -0.2588 -0.5879  0.1604
 4863SOL    HW126051   4.500   0.613   6.139 -3.7210 -1.6195  0.0316
 4863SOL    HW226052   4.391   0.647   6.230 -0.2235  1.0368 -1.1184
 4864SOL     OW26053   3.368   3.134   7.364  0.2933 -0.1445 -0.1234
 4864SOL    HW126054   3.441   3.117   7.305 -0.1357  0.4731 -0.8354
 4864SOL    HW226055   3.363   3.229   7.351 -2.2631 -0.1812  0.5568
 4865SOL     OW26056   4.125   1.330   4.939 -0.2441  0.2189  0.3258
 4865SOL    HW126057   4.089   1.261   4.995  0.0147 -0.3089 -0.1623
 4865SOL    HW226058   4.108   1.418   4.974 -0.5139 -0.0898  0.9785
 4866SOL     OW26059   4.283   1.605   6.193 -0.3967  0.0707 -0.0210
 4866SOL    HW126060   4.286   1.651   6.277  1.2596 -1.0661  0.5546
 4866SOL    HW226061   4.209   1.549   6.217  0.4343 -0.7783  0.5960
 4867SOL     OW26062   1.493   2.731   8.545 -0.5032  0.2466 -0.4993
 4867SOL    HW126063   1.584   2.737   8.574 -1.2461  0.3439  1.7774
 4867SOL    HW226064   1.494   2.642   8.511 -0.4897 -0.3413  1.0612
 4868SOL     OW26065   0.430   1.009   2.546 -0.2048  0.2013  0.0166
 4868SOL    HW126066   0.460   1.066   2.617  0.1813  0.8193 -0.6510
 4868SOL    HW226067   0.506   1.004   2.488  0.6908 -1.6923  1.3364
 4869SOL     OW26068   0.145   1.060   4.999  0.0290  0.3494  1.1400
 4869SOL    HW126069   0.110   1.142   5.036 -0.4699  0.8805 -0.5178
 4869SOL    HW226070   0.198   1.095   4.928 -0.4772 -0.2921  0.4565
 4870SOL     OW26071   1.928   3.465  12.148 -0.1214 -0.4951  0.1695
 4870SOL    HW126072   1.875   3.507  12.215  1.2397 -0.6052  1.3417
 4870SOL    HW226073   2.002   3.434  12.201 -0.3685  2.2296  2.1120
 4871SOL     OW26074   0.370   0.753   2.595  0.4995 -0.5600 -0.1856
 4871SOL    HW126075   0.458   0.727   2.570  0.6090 -0.5813  0.2135
 4871SOL    HW226076   0.378   0.841   2.559 -2.5664  0.3173  1.2273
 4872SOL     OW26077   0.973   3.016   7.144  0.4007  0.0611  0.5566
 4872SOL    HW126078   1.046   3.002   7.203  0.3729  0.3162  0.6512
 4872SOL    HW226079   0.983   3.105   7.110  0.0994  0.0483  0.4295
 4873SOL     OW26080   4.501   2.643   5.267  0.2505 -0.6236 -0.4773
 4873SOL    HW126081   4.462   2.574   5.321  0.2775  0.3602  0.8092
 4873SOL    HW226082   4.581   2.593   5.252 -0.0505 -0.8990 -1.1401
 4874SOL     OW26083   0.238   0.368   9.547  0.0169  0.0111  0.1619
 4874SOL    HW126084   0.282   0.408   9.621 -0.5058 -1.0873  1.0627
 4874SOL    HW226085   0.148   0.375   9.579 -0.2656 -0.0916 -0.6141
 4875SOL     OW26086   1.378   4.504  10.923 -0.2529  0.6006  0.3931
 4875SOL    HW126087   1.443   4.495  10.853 -1.3535  0.6191 -0.6352
 4875SOL    HW226088   1.345   4.413  10.923  0.0177  0.5058 -1.2297
 4876SOL     OW26089   2.364   1.959  10.799 -0.3775  0.9496 -0.3157
 4876SOL    HW126090   2.379   1.865  10.798 -0.1474  0.9879 -0.4670
 4876SOL    HW226091   2.427   1.985  10.732  0.8883 -1.0876  0.0942
 4877SOL     OW26092   0.652   4.721  13.324 -0.1073  0.0685  0.1642
 4877SOL    HW126093   0.689   4.676  13.400  0.4141  1.2813  0.6184
 4877SOL    HW226094   0.728   4.720  13.266 -2.5271 -0.8352 -2.9653
 4878SOL     OW26095   1.370   4.248   2.105 -0.2363  0.0844  0.6847
 4878SOL    HW126096   1.384   4.180   2.039 -1.1766  0.5172  0.0344
 4878SOL    HW226097   1.280   4.222   2.126 -0.1878 -0.8054 -0.1886
 4879SOL     OW26098   4.446   1.406   6.471  0.0706 -0.0597  0.2913
 4879SOL    HW126099   4.499   1.326   6.462 -1.5356 -1.0208 -0.6018
 4879SOL    HW226100   4.422   1.417   6.563  2.0383  0.6574  0.7305
 4880SOL     OW26101   0.175   4.494   1.773  0.4971  0.2899 -0.2747
 4880SOL    HW126102   0.264   4.511   1.740  0.3239  2.0251  0.1472
 4880SOL    HW226103   0.125   4.551   1.714  0.9695 -0.6711 -1.6113
 4881SOL     OW26104   4.659   4.093   6.614  0.1083 -0.2084  0.2866
 4881SOL    HW126105   4.580   4.060   6.573 -0.0644  0.8949 -0.2719
 4881SOL    HW226106   4.718   4.098   6.539 -0.3256 -3.3466 -0.2497
 4882SOL     OW26107   3.500   2.040   3.340  0.3724  0.0670 -0.4871
 4882SOL    HW126108   3.424   2.098   3.342  0.9974  0.8934 -0.6019
 4882SOL    HW226109   3.446   1.962   3.345  1.3492 -0.5271  0.8378
 4883SOL     OW26110   0.056   4.409   3.932  0.1246 -0.3731 -0.2564
 4883SOL    HW126111   0.070   4.490   3.980  1.3939 -1.6803  1.6020
 4883SOL    HW226112   0.138   4.388   3.886  0.0849 -0.0107 -0.4842
 4884SOL     OW26113   2.145   3.341   6.747 -0.3383 -0.1590 -0.0177
 4884SOL    HW126114   2.070   3.394   6.719 -1.1774 -0.3687  1.8123
 4884SOL    HW226115   2.091   3.265   6.768  1.4300 -1.7504 -1.2380
 4885SOL     OW26116   1.243   1.968   6.341  0.5831  0.5267  0.5535
 4885SOL    HW126117   1.267   2.022   6.417 -0.3458 -1.9273  2.6021
 4885SOL    HW226118   1.311   1.983   6.275 -1.9716  0.9665 -1.9708
 4886SOL     OW26119   3.310   3.620   4.709 -0.5644  0.3284 -0.1795
 4886SOL    HW126120   3.242   3.603   4.774  0.7983  1.2802  1.5044
 4886SOL    HW226121   3.249   3.630   4.636  1.6513 -1.6634 -2.2981
 4887SOL     OW26122   3.091   4.117   0.276 -0.2121 -0.2487 -0.2692
 4887SOL    HW126123   3.165   4.056   0.274 -1.2398 -1.4679 -0.4980
 4887SOL    HW226124   3.019   4.055   0.266 -0.3484 -0.2812  0.9702
 4888SOL     OW26125   4.609   2.283   5.478 -0.2699 -0.0934  0.4876
 4888SOL    HW126126   4.584   2.212   5.419  0.8432  0.1092 -0.2365
 4888SOL    HW226127   4.575   2.358   5.429  1.2664 -0.1616 -0.6848
 4889SOL     OW26128   2.263   1.069   5.254 -0.3637 -0.2840  0.8880
 4889SOL    HW126129   2.350   1.047   5.287  1.1855  0.5110 -2.6604
 4889SOL    HW226130   2.254   1.148   5.309  2.0866  1.8681 -1.8149
 4890SOL     OW26131   2.944   1.610   5.647  0.0640  0.9245 -0.1124
 4890SOL    HW126132   3.038   1.596   5.658 -0.3953 -1.7338  0.4611
 4890SOL    HW226133   2.938   1.692   5.697  1.8086 -0.1769  1.9160
 4891SOL     OW26134   1.623   2.482   1.014 -0.0046 -0.3274  0.0411
 4891SOL    HW126135   1.591   2.565   1.051 -3.3820 -0.7114 -1.9641
 4891SOL    HW226136   1.598   2.494   0.923 -0.4258 -0.2208  0.1696
 4892SOL     OW26137   2.288   0.044   6.837 -0.7354  0.1040 -0.0075
 4892SOL    HW126138   2.252   0.025   6.924  1.9157 -1.0017  0.8311
 4892SOL    HW226139   2.381   0.045   6.858 -0.4882  0.0215 -1.0914
 4893SOL     OW26140   2.738   4.338   4.956  0.0962  0.0008 -0.4629
 4893SOL    HW126141   2.704   4.427   4.956  2.5666  0.9011  1.8119
 4893SOL    HW226142   2.786   4.329   4.874  1.4487 -0.1169  0.3507
 4894SOL     OW26143   4.425   3.104   2.022  0.3344 -0.1014  0.0201
 4894SOL    HW126144   4.511   3.063   2.030  1.0460  1.5994  1.2147
 4894SOL    HW226145   4.410   3.117   1.928  2.4951  0.9541 -0.1865
 4895SOL     OW26146   2.996   3.405   2.930 -0.4866  0.8446  0.1432
 4895SOL    HW126147   2.906   3.376   2.940  0.6914 -3.0745 -0.4933
 4895SOL    HW226148   3.001   3.500   2.922 -0.9321  0.8826  0.3833
 4896SOL     OW26149   3.922   3.656  16.319 -0.4211  0.1048  0.0675
 4896SOL    HW126150   3.910   3.612  16.234 -1.5117  0.9761 -0.2210
 4896SOL    HW226151   3.840   3.699  16.341  0.4109  0.6291  2.1376
 4897SOL     OW26152   2.806   0.566   8.732 -0.2594 -0.0182 -0.0574
 4897SOL    HW126153   2.860   0.618   8.791 -0.5437 -0.7228  0.8201
 4897SOL    HW226154   2.843   0.478   8.737  0.2878  0.2158  0.0182
 4898SOL     OW26155   0.724   4.702   2.601 -0.0311  0.4032 -0.6088
 4898SOL    HW126156   0.777   4.705   2.522  1.1079  1.3766  0.1994
 4898SOL    HW226157   0.775   4.714   2.681 -0.4236 -0.9330 -0.1627
 4899SOL     OW26158   0.149   2.017   5.294 -0.0222 -0.4109 -0.1741
 4899SOL    HW126159   0.234   2.046   5.262 -0.4502 -0.0922 -1.0305
 4899SOL    HW226160   0.108   1.977   5.217 -1.2891  2.3624 -0.9238
 4900SOL     OW26161   3.504   1.670   2.798  0.0964  0.3370 -0.1935
 4900SOL    HW126162   3.582   1.723   2.813  0.0003  0.2680  0.5360
 4900SOL    HW226163   3.508   1.642   2.707 -0.5356 -1.4494  0.3299
 4901SOL     OW26164   3.398   2.771   1.655  0.1985  0.2740 -0.0778
 4901SOL    HW126165   3.359   2.850   1.693  1.0602  1.7560 -2.2998
 4901SOL    HW226166   3.473   2.749   1.710 -0.1685 -0.3266  0.1935
 4902SOL     OW26167   4.418   2.172   6.349  0.4799 -0.3597 -0.2481
 4902SOL    HW126168   4.485   2.161   6.417 -0.7708 -0.2065  1.0272
 4902SOL    HW226169   4.423   2.266   6.333  2.0086 -0.9318 -3.0432
 4903SOL     OW26170   0.659   2.158   8.640  0.0915  0.3010 -0.0087
 4903SOL    HW126171   0.596   2.220   8.606  0.5824  2.0162  2.1910
 4903SOL    HW226172   0.674   2.105   8.562  2.0077  2.8295 -1.3498
 4904SOL     OW26173   1.178   4.644   4.876 -0.1207  0.3807  0.4905
 4904SOL    HW126174   1.266   4.613   4.856  0.4652  1.0457  1.9711
 4904SOL    HW226175   1.206   4.705   4.945  0.1683  0.9608 -0.1366
 4905SOL     OW26176   3.067   2.759   3.452 -0.0296  0.5206 -0.6732
 4905SOL    HW126177   3.010   2.697   3.497  1.4349 -0.1499  0.2618
 4905SOL    HW226178   3.158   2.736   3.475 -0.3797  0.6153  0.7768
 4906SOL     OW26179   4.719   1.089   1.124 -0.2076 -0.6636  0.3304
 4906SOL    HW126180   0.060   1.156   1.110 -0.8622 -0.3101 -1.0907
 4906SOL    HW226181   4.667   1.131   1.193 -1.6149  0.0913 -1.2148
 4907SOL     OW26182   4.149   0.642  10.762 -0.0853  0.0162  0.1878
 4907SOL    HW126183   4.204   0.690  10.823 -0.5835  1.2489 -0.3365
 4907SOL    HW226184   4.109   0.714  10.714  0.6654 -0.2647 -0.8402
 4908SOL     OW26185   0.018   2.710  10.105  0.4368  0.1094 -0.4687
 4908SOL    HW126186   0.053   2.797  10.085 -1.2405  0.6417 -1.1065
 4908SOL    HW226187   0.093   2.654  10.086 -0.3041 -1.2714  0.7142
 4909SOL     OW26188   3.231   1.868  14.882  0.2934 -0.1833  0.2581
 4909SOL    HW126189   3.140   1.894  14.899  0.3724  0.7468 -0.7548
 4909SOL    HW226190   3.239   1.788  14.935 -0.6885 -0.1775  0.4305
 4910SOL     OW26191   4.297   1.203   7.100  0.1437 -0.1108 -0.3292
 4910SOL    HW126192   4.370   1.218   7.160 -1.0829  0.7182  0.9513
 4910SOL    HW226193   4.243   1.282   7.106 -0.8223 -0.7117 -1.0966
 4911SOL     OW26194   2.668   1.680   9.837 -0.0092  0.1256 -0.0756
 4911SOL    HW126195   2.674   1.774   9.857  0.2649  0.4799 -1.8720
 4911SOL    HW226196   2.622   1.650   9.916 -0.3592  1.6418  0.3020
 4912SOL     OW26197   4.106   4.413  15.593  0.4718  0.4614 -0.2555
 4912SOL    HW126198   4.140   4.498  15.566  1.8845  0.1361  0.4666
 4912SOL    HW226199   4.166   4.353  15.549  0.6949  0.0487  0.6046
 4913SOL     OW26200   2.291   4.001   0.779 -0.1399  0.5756  0.0648
 4913SOL    HW126201   2.294   3.906   0.767 -1.8586  0.0699  3.4714
 4913SOL    HW226202   2.311   4.015   0.872 -0.8192  0.3101  0.2466
 4914SOL     OW26203   4.477   2.488  11.140  0.1428 -0.2171  0.0805
 4914SOL    HW126204   4.544   2.550  11.171 -0.3325  0.7158 -0.7259
 4914SOL    HW226205   4.528   2.459  11.064  1.5068  0.1610  0.8502
 4915SOL     OW26206   0.331   0.358   3.928  0.4440 -0.2837 -0.2012
 4915SOL    HW126207   0.242   0.328   3.943  0.2505  0.5845  0.3823
 4915SOL    HW226208   0.338   0.393   3.839 -0.3829  2.1637  0.6878
 4916SOL     OW26209   3.978   2.980  12.203  0.3456 -0.6020 -0.1042
 4916SOL    HW126210   4.037   2.996  12.130  0.3956 -0.0756  0.0470
 4916SOL    HW226211   4.039   2.934  12.261  1.2880  0.7615 -0.0126
 4917SOL     OW26212   2.392   3.253  16.228  0.2420  0.2441 -0.1115
 4917SOL    HW126213   2.336   3.232  16.153  0.5968 -1.2615  0.0425
 4917SOL    HW226214   2.360   3.184  16.286 -1.5113  1.6328  0.6020
 4918SOL     OW26215   4.449   3.757   8.083 -0.0159  0.4346  1.0821
 4918SOL    HW126216   4.472   3.832   8.028  0.6506 -1.1627 -0.8503
 4918SOL    HW226217   4.451   3.804   8.166  1.1297 -0.9736  1.8367
 4919SOL     OW26218   2.346   3.603   6.307 -0.1189 -0.4352  0.4070
 4919SOL    HW126219   2.338   3.578   6.399 -0.5192 -1.0885  0.1981
 4919SOL    HW226220   2.296   3.684   6.311 -0.8295 -0.9384  1.5162
 4920SOL     OW26221   0.671   1.433   8.634 -0.6187  0.0522 -0.2267
 4920SOL    HW126222   0.765   1.450   8.630 -0.6016 -0.4466 -1.7046
 4920SOL    HW226223   0.636   1.519   8.611 -1.6684 -1.1215 -2.9380
 4921SOL     OW26224   4.497   2.172  15.368 -0.3413 -0.3095 -0.0553
 4921SOL    HW126225   4.494   2.102  15.433 -1.1805  1.2958  1.6542
 4921SOL    HW226226   4.440   2.235  15.412 -1.3424 -1.4858  0.3231
 4922SOL     OW26227   2.683   2.316   5.533  0.2431 -0.0295 -0.3068
 4922SOL    HW126228   2.759   2.356   5.575  0.5877  0.0361 -0.9885
 4922SOL    HW226229   2.691   2.328   5.438 -0.6609  0.6997 -0.2951
 4923SOL     OW26230   3.208   3.764  13.698 -0.1495  0.7074 -0.0077
 4923SOL    HW126231   3.257   3.688  13.729  1.2466  1.5563 -0.1189
 4923SOL    HW226232   3.156   3.778  13.778  2.1531  1.0192  1.4358
 4924SOL     OW26233   3.983   0.337   7.654 -0.0455  0.5889 -0.1267
 4924SOL    HW126234   3.968   0.256   7.605  1.4848 -0.0728  0.4928
 4924SOL    HW226235   3.988   0.303   7.744 -1.3037  0.6538 -0.0376
 4925SOL     OW26236   0.367   4.482   4.727  0.1273  0.0724 -0.2406
 4925SOL    HW126237   0.398   4.523   4.645  0.5374  0.7550  0.2525
 4925SOL    HW226238   0.370   4.390   4.700  1.1946  0.1636 -0.4412
 4926SOL     OW26239   2.679   2.366   4.361 -0.7816 -0.4387 -0.1078
 4926SOL    HW126240   2.715   2.333   4.279 -1.0816  0.9430 -0.8029
 4926SOL    HW226241   2.726   2.318   4.429  1.2024  2.7458  0.7690
 4927SOL     OW26242   2.172   2.971   9.840 -0.1356  0.1471  0.0564
 4927SOL    HW126243   2.240   2.959   9.774 -3.9073  1.3928 -4.0553
 4927SOL    HW226244   2.180   3.067   9.836 -2.6545  0.4361  1.6987
 4928SOL     OW26245   2.218   3.873   9.410 -0.5371 -0.3631 -0.0003
 4928SOL    HW126246   2.289   3.925   9.449  0.1651 -1.1873 -0.1645
 4928SOL    HW226247   2.138   3.904   9.452  1.0849  0.7655  2.2639
 4929SOL     OW26248   1.186   4.324   7.036 -0.1143 -0.2265 -0.2080
 4929SOL    HW126249   1.123   4.260   7.002 -0.1742  0.9119 -2.2431
 4929SOL    HW226250   1.269   4.294   7.001  0.5297  0.3172  0.8474
 4930SOL     OW26251   2.201   1.457   3.299  0.3199 -0.0313 -0.1851
 4930SOL    HW126252   2.219   1.495   3.213 -1.6074 -0.9353 -0.9725
 4930SOL    HW226253   2.279   1.402   3.310  1.1635  1.5244  1.5445
 4931SOL     OW26254   2.380   0.799   1.456 -0.1935  0.5036  0.1718
 4931SOL    HW126255   2.343   0.714   1.431  2.0619 -0.2801 -0.4654
 4931SOL    HW226256   2.326   0.852   1.398  0.2780 -0.2870 -0.9941
 4932SOL     OW26257   2.111   4.051   3.766  0.3962  0.4446  0.0334
 4932SOL    HW126258   2.039   4.047   3.829  0.0821 -1.8081 -0.4654
 4932SOL    HW226259   2.069   4.019   3.686  0.7456 -0.9370  0.4136
 4933SOL     OW26260   3.638   3.323  17.612 -0.0317 -1.0746 -0.1192
 4933SOL    HW126261   3.631   3.375  17.692 -1.0163  2.5457 -2.5856
 4933SOL    HW226262   3.674   3.237  17.636  0.1378 -1.6068 -2.2822
 4934SOL     OW26263   0.220   2.395   2.530  0.4833 -0.6691  0.5623
 4934SOL    HW126264   0.177   2.318   2.568 -0.5872  0.5985  1.9498
 4934SOL    HW226265   0.286   2.343   2.486  1.3497  1.0089 -0.1450
 4935SOL     OW26266   1.956   4.029  11.005  0.1147 -0.2353 -0.4995
 4935SOL    HW126267   2.037   4.047  10.958  0.5558  2.1990  1.1481
 4935SOL    HW226268   1.911   3.965  10.950 -3.2791  0.8130  1.0423
 4936SOL     OW26269   2.292   1.064   4.971  0.1213 -0.0010 -0.6200
 4936SOL    HW126270   2.206   1.094   5.000  0.6035 -0.6394  1.4550
 4936SOL    HW226271   2.324   1.040   5.058  1.7222  1.3655 -0.8374
 4937SOL     OW26272   1.664   3.127   5.716  0.0227 -0.5229  0.2063
 4937SOL    HW126273   1.680   3.172   5.799  2.0344 -1.4785  0.3539
 4937SOL    HW226274   1.615   3.191   5.664  1.1044  0.3162  0.1948
 4938SOL     OW26275   0.058   1.739   4.406 -0.5815  0.3621  0.0459
 4938SOL    HW126276   0.068   1.768   4.497  0.9550  1.2026 -0.3833
 4938SOL    HW226277   0.069   1.644   4.413  0.0472  0.3888 -0.5281
 4939SOL     OW26278   1.636   3.205   7.015 -0.0967 -0.1463 -0.6592
 4939SOL    HW126279   1.573   3.253   7.068 -0.3013  0.1554 -1.1730
 4939SOL    HW226280   1.710   3.258   7.043  2.0110 -2.9332 -0.9751
 4940SOL     OW26281   4.237   0.149   4.997  0.0870 -0.4157 -0.7950
 4940SOL    HW126282   4.330   0.135   4.978 -0.0008  0.6857 -2.0426
 4940SOL    HW226283   4.211   0.180   4.910 -2.3292  0.8179  0.3495
 4941SOL     OW26284   1.570   0.149  10.389 -1.1965  0.4873  0.4247
 4941SOL    HW126285   1.644   0.203  10.417 -1.0418 -0.2464  1.4177
 4941SOL    HW226286   1.539   0.213  10.325  1.2373  1.1960 -0.0490
 4942SOL     OW26287   3.905   2.716   6.677 -0.3297  0.2079 -0.0239
 4942SOL    HW126288   3.934   2.807   6.689 -1.0288  0.4909 -0.5067
 4942SOL    HW226289   3.882   2.704   6.769  3.0198  2.0027  1.0673
 4943SOL     OW26290   3.092   1.339   1.887 -0.0193  0.0540 -0.9517
 4943SOL    HW126291   3.165   1.331   1.826  0.0543  2.4568 -1.2150
 4943SOL    HW226292   3.053   1.252   1.884  0.9314 -0.3798 -0.7083
 4944SOL     OW26293   2.882   4.235   6.535 -0.1680  0.1473 -0.5274
 4944SOL    HW126294   2.870   4.258   6.443  2.1360 -1.2192 -1.1631
 4944SOL    HW226295   2.830   4.306   6.572 -0.0519  0.2526 -0.5668
 4945SOL     OW26296   2.323   2.881  12.161 -0.0008 -0.2695 -0.1002
 4945SOL    HW126297   2.353   2.792  12.141 -1.8073 -0.9477  0.2566
 4945SOL    HW226298   2.253   2.862  12.223 -0.2356  0.4280 -0.1465
 4946SOL     OW26299   1.674   0.071   9.730  0.2081 -0.4108  0.3656
 4946SOL    HW126300   1.705   0.081   9.820 -1.0794 -0.9353  0.8682
 4946SOL    HW226301   1.631   0.156   9.718 -0.0978 -1.0942 -3.2521
 4947SOL     OW26302   0.518   0.300   6.424  0.0602  0.0515 -0.1864
 4947SOL    HW126303   0.585   0.299   6.492 -0.1391  1.1053  0.0323
 4947SOL    HW226304   0.507   0.393   6.404 -0.1477 -0.2800 -1.6153
 4948SOL     OW26305   1.753   1.394   3.437  0.1534  0.0447  0.4926
 4948SOL    HW126306   1.725   1.331   3.503  0.7650 -0.3873  0.3359
 4948SOL    HW226307   1.803   1.336   3.379 -3.0151 -3.2095  1.0550
 4949SOL     OW26308   0.957   3.557  10.374 -0.0853  0.4614  0.2210
 4949SOL    HW126309   0.965   3.518  10.287 -0.5976 -0.6379  0.6580
 4949SOL    HW226310   1.044   3.585  10.403  0.3385  1.6336 -2.2508
 4950SOL     OW26311   2.354   4.036   7.790  0.6407 -0.2828  0.1166
 4950SOL    HW126312   2.413   3.961   7.792 -0.8013 -1.4047  0.0455
 4950SOL    HW226313   2.339   4.053   7.884 -3.6199  0.5882 -0.7367
 4951SOL     OW26314   4.560   4.074   2.764  0.0581  0.0832  0.1329
 4951SOL    HW126315   4.619   4.149   2.773 -2.3649  2.1742 -1.1882
 4951SOL    HW226316   4.472   4.111   2.771  0.4718  1.2609 -0.8371
 4952SOL     OW26317   0.765   2.205  14.324  0.2794 -0.1035 -0.4625
 4952SOL    HW126318   0.678   2.173  14.347  1.4493 -0.7119  3.0387
 4952SOL    HW226319   0.824   2.177  14.394  0.3102 -1.0515 -0.8727
 4953SOL     OW26320   1.753   2.833   8.931 -0.1693 -0.0113 -0.2679
 4953SOL    HW126321   1.661   2.829   8.958 -0.7481  2.1559 -1.9213
 4953SOL    HW226322   1.781   2.863   9.017  0.2164  0.8076 -0.6821
 4954SOL     OW26323   2.022   2.109   8.145 -0.1226  0.4966  0.0161
 4954SOL    HW126324   2.006   2.015   8.152 -0.6469  0.3664 -2.7302
 4954SOL    HW226325   2.070   2.137   8.223 -0.3497 -1.1852  0.7665
 4955SOL     OW26326   2.748   3.101  10.868 -0.6526 -0.3528  0.1365
 4955SOL    HW126327   2.736   3.020  10.918 -2.2096 -0.4502 -0.3999
 4955SOL    HW226328   2.775   3.162  10.937 -0.3973  0.1417 -0.4031
 4956SOL     OW26329   1.527   1.817   8.042 -0.2012  0.3799  0.3129
 4956SOL    HW126330   1.615   1.807   8.079  0.3500  0.6725 -0.9178
 4956SOL    HW226331   1.534   1.884   7.974 -0.7603  1.0800  0.9483
 4957SOL     OW26332   0.893   3.020   0.156 -0.0746  0.2236  0.3651
 4957SOL    HW126333   0.942   3.022   0.074 -1.7254 -0.2266 -0.6211
 4957SOL    HW226334   0.957   3.024   0.227  1.0393  1.6327 -0.7083
 4958SOL     OW26335   1.893   2.444  17.029 -0.0509  0.1649 -0.1993
 4958SOL    HW126336   1.853   2.397  17.102  1.2822  0.7141  0.9021
 4958SOL    HW226337   1.824   2.507  17.013  2.5166  3.1145  0.2372
 4959SOL     OW26338   2.367   3.317   7.757 -0.3478  0.0860  0.1389
 4959SOL    HW126339   2.364   3.309   7.853  0.6420  0.3467  0.1907
 4959SOL    HW226340   2.308   3.247   7.729 -0.1602 -0.3995  0.9683
 4960SOL     OW26341   1.370   3.010  17.377  0.1110  0.1546 -0.0170
 4960SOL    HW126342   1.460   3.013  17.408  0.1656 -1.9719 -0.0214
 4960SOL    HW226343   1.392   3.057  17.296  4.5627 -0.6273  0.7760
 4961SOL     OW26344   2.936   2.747   4.181  0.0577 -0.2204 -0.4528
 4961SOL    HW126345   2.877   2.801   4.129  1.0969  1.6364  0.3058
 4961SOL    HW226346   2.974   2.811   4.241  0.3225  0.3832 -1.2624
 4962SOL     OW26347   2.501   2.084   7.862 -0.2352 -0.1603 -0.3257
 4962SOL    HW126348   2.490   2.123   7.949 -0.6552  0.3044 -0.5894
 4962SOL    HW226349   2.548   2.002   7.875  0.7648  0.2939 -1.0287
 4963SOL     OW26350   3.726   2.795  15.904 -0.3350 -0.2858 -0.3142
 4963SOL    HW126351   3.707   2.746  15.984 -2.8151  0.0267 -0.7063
 4963SOL    HW226352   3.681   2.877  15.927  2.4239  0.9280  0.7335
 4964SOL     OW26353   3.513   1.005   1.261 -0.4894 -0.1763 -0.1550
 4964SOL    HW126354   3.564   0.930   1.231  0.2969  0.0841  0.5271
 4964SOL    HW226355   3.517   1.001   1.356 -0.9819  0.8329 -0.0973
 4965SOL     OW26356   3.833   2.396   3.422  0.6024 -0.1354  0.2048
 4965SOL    HW126357   3.766   2.340   3.461  2.5981 -3.0536 -0.4628
 4965SOL    HW226358   3.910   2.339   3.430  0.5175 -0.2143  0.4573
 4966SOL     OW26359   0.291   0.312  14.307  0.1258  0.3289 -0.0207
 4966SOL    HW126360   0.240   0.267  14.374 -1.8044  2.0869 -0.3306
 4966SOL    HW226361   0.268   0.404  14.320  1.3502  0.3626  1.9669
 4967SOL     OW26362   0.156   1.834  13.895 -0.6170 -0.0114 -0.0690
 4967SOL    HW126363   0.152   1.755  13.948  0.0160 -0.2136 -0.3113
 4967SOL    HW226364   0.154   1.794  13.808 -2.3777  0.0864 -0.0617
 4968SOL     OW26365   0.246   3.998   2.772 -0.0645  0.1525  0.2656
 4968SOL    HW126366   0.314   3.970   2.711  0.1374 -0.8674  0.9522
 4968SOL    HW226367   0.255   3.924   2.833 -0.2324  0.2753  0.4406
 4969SOL     OW26368   0.206   3.933  12.425 -0.2151  0.0820 -0.5042
 4969SOL    HW126369   0.238   4.018  12.454  1.4935 -0.8988  0.4847
 4969SOL    HW226370   0.217   3.889  12.509 -0.7500 -0.2081 -0.5861
 4970SOL     OW26371   1.477   3.882   2.776 -0.3059  0.3721 -0.2289
 4970SOL    HW126372   1.432   3.923   2.702  0.9297  0.4668 -0.9179
 4970SOL    HW226373   1.535   3.820   2.732 -2.7541 -2.0274 -0.1068
 4971SOL     OW26374   3.171   2.705  11.637 -0.5792 -0.1703  0.4920
 4971SOL    HW126375   3.112   2.630  11.644  1.4439 -1.7679  0.1809
 4971SOL    HW226376   3.179   2.740  11.726 -0.0927  0.7761  0.0807
 4972SOL     OW26377   1.772   3.402   7.146  0.1390  0.6161  0.6442
 4972SOL    HW126378   1.764   3.425   7.238 -0.3786 -0.9629  1.0052
 4972SOL    HW226379   1.858   3.432   7.117 -0.2105  0.0646 -1.0035
 4973SOL     OW26380   2.195   2.425   5.649 -0.7396 -0.5868  0.0842
 4973SOL    HW126381   2.119   2.375   5.622 -0.9826  0.0256 -0.3666
 4973SOL    HW226382   2.186   2.514   5.615  2.0942  0.2575  1.5143
 4974SOL     OW26383   1.155   3.667   3.101 -0.2680  0.0249 -0.8332
 4974SOL    HW126384   1.113   3.741   3.144  3.4705  0.8680  1.3270
 4974SOL    HW226385   1.070   3.626   3.084 -0.3770  0.8323 -2.2148
 4975SOL     OW26386   2.542   3.584  12.180 -0.0788 -0.1715  0.4818
 4975SOL    HW126387   2.500   3.550  12.260  0.2116 -2.5464 -0.3639
 4975SOL    HW226388   2.627   3.607  12.218  0.9100 -0.8123 -1.3533
 4976SOL     OW26389   4.666   0.058   8.959 -0.1417  0.0642 -0.0478
 4976SOL    HW126390   4.593   4.722   8.948 -0.5737  0.3632  1.1571
 4976SOL    HW226391   4.613   0.131   8.993 -0.3662 -0.6545  1.1533
 4977SOL     OW26392   2.575   1.661   1.263 -0.0719  0.3039  0.0190
 4977SOL    HW126393   2.565   1.694   1.353 -0.8135 -1.1586  0.4701
 4977SOL    HW226394   2.536   1.575   1.279 -0.6141  0.4782 -0.3797
 4978SOL     OW26395   2.673   4.298   3.437 -0.2690 -0.3421  0.5728
 4978SOL    HW126396   2.580   4.310   3.460 -0.9615 -0.5961 -2.0846
 4978SOL    HW226397   2.678   4.373   3.378  0.6647 -0.4666  0.4962
 4979SOL     OW26398   3.809   4.117   1.271 -0.2997 -0.0770  0.0584
 4979SOL    HW126399   3.893   4.098   1.228 -0.9039 -1.7636 -0.3919
 4979SOL    HW226400   3.746   4.110   1.199 -0.3823  0.5440  0.0719
 4980SOL     OW26401   0.911   2.316   4.071  0.0870  0.0434  0.1822
 4980SOL    HW126402   0.971   2.360   4.132 -0.8607 -1.2526  2.0292
 4980SOL    HW226403   0.960   2.236   4.054  0.1296 -0.5029  2.9049
 4981SOL     OW26404   4.131   0.824  11.299 -0.0980  0.0148 -0.2604
 4981SOL    HW126405   4.196   0.841  11.230 -0.9615 -0.4324 -1.1933
 4981SOL    HW226406   4.176   0.767  11.361 -0.3931  0.4796  0.3778
 4982SOL     OW26407   1.576   0.578  11.681  0.1868  0.1597 -0.1616
 4982SOL    HW126408   1.512   0.649  11.692  0.0593 -0.5997  4.0323
 4982SOL    HW226409   1.551   0.513  11.746 -1.8789  0.7054 -0.3979
 4983SOL     OW26410   1.771   2.799  10.176  0.4799 -0.3668  0.1501
 4983SOL    HW126411   1.838   2.786  10.110 -0.2716  1.2730 -0.9246
 4983SOL    HW226412   1.821   2.833  10.250  0.6997 -0.7571  0.1806
 4984SOL     OW26413   2.629   1.783   7.167 -0.3190  0.7978 -0.0988
 4984SOL    HW126414   2.580   1.830   7.234 -1.4016 -1.4450  0.7000
 4984SOL    HW226415   2.720   1.805   7.187 -0.7981  1.2902  1.5511
 4985SOL     OW26416   1.297   1.885   2.470  0.0315 -0.2022 -0.1804
 4985SOL    HW126417   1.317   1.966   2.423  2.1191 -0.5477  0.0857
 4985SOL    HW226418   1.259   1.831   2.401 -0.9049 -0.7092  0.7410
 4986SOL     OW26419   3.121   2.842   3.852 -0.9112 -0.0333 -0.4343
 4986SOL    HW126420   3.189   2.830   3.785 -0.0102  2.3939  0.0347
 4986SOL    HW226421   3.044   2.874   3.805 -0.3334 -0.3892 -1.6203
 4987SOL     OW26422   2.129   2.411   5.306 -0.0234  0.0269  0.7823
 4987SOL    HW126423   2.202   2.377   5.358 -1.4860 -2.4460  1.2473
 4987SOL    HW226424   2.161   2.498   5.285  1.9196 -1.1762 -1.2070
 4988SOL     OW26425   4.125   1.935   8.577 -0.0218 -0.3143 -0.0049
 4988SOL    HW126426   4.119   1.840   8.587  1.8067 -0.4260  0.0016
 4988SOL    HW226427   4.050   1.948   8.519  1.2852 -0.0384 -1.6304
 4989SOL     OW26428   2.732   1.204   3.653 -0.4557 -0.4254  0.5072
 4989SOL    HW126429   2.662   1.196   3.588  0.8403 -0.4380 -0.8801
 4989SOL    HW226430   2.712   1.288   3.695 -0.5877  0.0327 -0.4622
 4990SOL     OW26431   0.281   0.445  12.380  0.3776 -0.2848  0.5142
 4990SOL    HW126432   0.334   0.505  12.327  0.7594 -0.4157  0.7467
 4990SOL    HW226433   0.341   0.401  12.441  0.0539 -0.0164  1.0228
 4991SOL     OW26434   3.940   0.386  15.503 -0.0142  0.4605 -0.0334
 4991SOL    HW126435   3.886   0.413  15.577 -0.7804 -1.7166  0.2157
 4991SOL    HW226436   3.878   0.325  15.465 -0.5576 -0.5662  2.4718
 4992SOL     OW26437   2.460   0.062  15.394 -1.1742  0.2829  0.1027
 4992SOL    HW126438   2.458   0.121  15.470  1.5378  0.8540 -0.2887
 4992SOL    HW226439   2.380   0.088  15.348 -2.1675 -0.8345  1.1822
 4993SOL     OW26440   3.974   3.887   4.136 -0.3415 -0.0907 -0.0689
 4993SOL    HW126441   3.999   3.947   4.066 -0.1519 -1.5465 -1.2565
 4993SOL    HW226442   4.022   3.807   4.115 -2.4074 -1.6025  0.9876
 4994SOL     OW26443   3.527   4.605  12.115  0.3202 -0.2198  0.1270
 4994SOL    HW126444   3.496   4.640  12.032 -1.6316  0.7542  1.2711
 4994SOL    HW226445   3.459   4.539  12.126  1.0187 -1.3460 -2.3498
 4995SOL     OW26446   2.012   3.129   4.137  0.0829 -0.0795  0.7012
 4995SOL    HW126447   2.073   3.065   4.174 -0.9544 -2.4389 -1.6586
 4995SOL    HW226448   2.006   3.105   4.044 -0.1256  3.4757 -0.1962
 4996SOL     OW26449   3.922   1.649   7.458  0.4343  0.2706  0.5309
 4996SOL    HW126450   4.004   1.618   7.497  1.7326 -0.8591 -3.1285
 4996SOL    HW226451   3.954   1.690   7.378 -0.2694  2.0337  1.1328
 4997SOL     OW26452   1.393   3.376   1.762 -0.5797 -0.0407  0.1525
 4997SOL    HW126453   1.424   3.466   1.771  0.2246 -0.1308 -1.7978
 4997SOL    HW226454   1.424   3.343   1.846  2.5711 -1.1278 -1.4322
 4998SOL     OW26455   3.706   3.057   2.637 -0.4263 -0.4635  0.1659
 4998SOL    HW126456   3.683   3.074   2.728 -0.6635 -0.3023  0.0767
 4998SOL    HW226457   3.764   3.132   2.625  1.5705 -2.4389 -2.6120
 4999SOL     OW26458   4.576   2.499   3.864  0.2501 -0.1145 -0.4079
 4999SOL    HW126459   4.652   2.443   3.845  0.1808 -1.0600  2.0577
 4999SOL    HW226460   4.617   2.574   3.907 -1.7929  0.4405  0.5758
 5000SOL     OW26461   4.255   4.461   8.342 -0.2181  0.3494  0.5325
 5000SOL    HW126462   4.175   4.424   8.305  0.3161 -0.6883  0.4218
 5000SOL    HW226463   4.310   4.384   8.327  2.0359  1.3883  3.3518
 5001SOL     OW26464   1.697   1.976   3.916 -0.0605 -0.0431 -0.2182
 5001SOL    HW126465   1.792   1.965   3.908  0.2302  1.2534  1.5280
 5001SOL    HW226466   1.672   1.916   3.846  0.7794 -0.3846 -0.2314
 5002SOL     OW26467   0.487   3.144   4.757  0.2271 -0.0368  0.2355
 5002SOL    HW126468   0.573   3.180   4.778 -0.1472  0.2621  1.2721
 5002SOL    HW226469   0.450   3.226   4.724  1.4806 -0.4308 -2.1237
 5003SOL     OW26470   0.219   2.304   5.958  0.1876  0.0451  0.0408
 5003SOL    HW126471   0.182   2.244   6.023 -1.0698 -0.0012 -0.7180
 5003SOL    HW226472   0.195   2.259   5.877 -0.0105 -1.3988  0.9051
 5004SOL     OW26473   3.937   2.654   5.119 -0.5324 -0.0090 -0.4203
 5004SOL    HW126474   3.901   2.694   5.040  1.9820  1.1789 -0.9555
 5004SOL    HW226475   3.896   2.714   5.181  0.6213 -1.1132  1.4132
 5005SOL     OW26476   0.139   3.642  17.020  0.4892 -0.3001 -0.1849
 5005SOL    HW126477   0.231   3.633  16.998 -0.1322 -1.8218 -2.2457
 5005SOL    HW226478   0.120   3.555  17.057  1.4417  0.2763  1.6124
 5006SOL     OW26479   3.763   0.042   8.071  0.3361  0.5638  0.0294
 5006SOL    HW126480   3.768   0.032   8.166  0.1201  2.3051  0.2287
 5006SOL    HW226481   3.813   0.123   8.075  1.7665 -0.2114 -2.0342
 5007SOL     OW26482   1.451   2.215   0.163 -0.2484  0.6453  0.3534
 5007SOL    HW126483   1.371   2.262   0.186 -0.3191  0.0247  1.3960
 5007SOL    HW226484   1.410   2.149   0.108 -0.8730  1.0043  0.3910
 5008SOL     OW26485   1.004   2.376  10.500  0.3096  0.3762  0.8929
 5008SOL    HW126486   1.093   2.407  10.480  0.0401  0.2282 -0.5622
 5008SOL    HW226487   0.958   2.460  10.507 -0.1761  0.2129 -0.3091
 5009SOL     OW26488   3.616   0.732   6.244 -0.3136 -0.2257  0.5587
 5009SOL    HW126489   3.608   0.782   6.324 -0.2554  1.3944 -0.4429
 5009SOL    HW226490   3.698   0.684   6.258 -0.1427 -0.4842 -1.3180
 5010SOL     OW26491   3.523   0.292  12.249  0.3331 -0.0402  0.1628
 5010SOL    HW126492   3.550   0.204  12.272 -1.1829 -0.7241 -0.6558
 5010SOL    HW226493   3.430   0.290  12.275  0.3517 -3.4549 -0.0862
 5011SOL     OW26494   0.334   2.746   7.990 -0.4263  0.2086 -1.1543
 5011SOL    HW126495   0.260   2.785   7.943 -0.2562 -1.4591 -2.8210
 5011SOL    HW226496   0.387   2.733   7.911 -0.6540  0.4716 -1.3487
 5012SOL     OW26497   2.975   0.466  14.578 -0.0905 -0.0838  0.0824
 5012SOL    HW126498   2.921   0.423  14.513  1.1134 -1.5695  0.0754
 5012SOL    HW226499   3.013   0.533  14.521 -0.6742  0.5338  0.4085
 5013SOL     OW26500   4.174   2.682   1.338  0.2716 -0.0511 -0.9753
 5013SOL    HW126501   4.129   2.718   1.261  0.5737 -0.9426 -1.5708
 5013SOL    HW226502   4.108   2.689   1.407  1.7549 -0.4958  0.4849
 5014SOL     OW26503   1.503   0.345  10.237 -0.1162  0.1960 -0.1847
 5014SOL    HW126504   1.501   0.434  10.273  1.7632 -0.1495  0.8057
 5014SOL    HW226505   1.549   0.374  10.159  1.1198  0.1033  0.5052
 5015SOL     OW26506   2.769   2.686  16.979 -0.1246 -0.1329 -0.4666
 5015SOL    HW126507   2.864   2.696  16.965 -0.3537  1.0920 -1.2120
 5015SOL    HW226508   2.744   2.634  16.903  1.3674  1.8154 -2.3203
 5016SOL     OW26509   0.258   3.536   5.970  0.4915  0.0608  0.3158
 5016SOL    HW126510   0.236   3.472   5.902  1.2760  1.4303 -1.2130
 5016SOL    HW226511   0.274   3.479   6.046  0.2247  0.3396  0.5829
 5017SOL     OW26512   1.409   2.490  14.802  0.3495  0.9766  0.8058
 5017SOL    HW126513   1.419   2.487  14.897 -1.1600 -2.9432  0.8288
 5017SOL    HW226514   1.478   2.550  14.773  1.8944 -0.7483  0.8692
 5018SOL     OW26515   2.468   2.487   8.168  0.6426  0.7103  0.0411
 5018SOL    HW126516   2.512   2.505   8.251 -0.2967 -0.2268  0.7462
 5018SOL    HW226517   2.454   2.392   8.172  0.6788  0.6302 -1.7073
 5019SOL     OW26518   1.413   4.596   0.406  0.0859  0.4872 -0.3100
 5019SOL    HW126519   1.384   4.649   0.480 -0.6819  0.3231 -0.4998
 5019SOL    HW226520   1.453   4.664   0.352 -1.0446  1.7868  0.4901
 5020SOL     OW26521   0.478   3.373   3.958  0.6308  0.1641  0.4645
 5020SOL    HW126522   0.552   3.376   4.018  1.4189  1.1623 -0.5692
 5020SOL    HW226523   0.505   3.305   3.897  0.2401 -0.5207  1.0478
 5021SOL     OW26524   1.354   2.431  15.663  0.3678  0.0135  0.3596
 5021SOL    HW126525   1.278   2.457  15.715  1.7942  0.2562  2.2889
 5021SOL    HW226526   1.346   2.335  15.659  3.5975 -0.2748  0.9032
 5022SOL     OW26527   0.951   2.847   5.924  0.7066  0.0695  0.6072
 5022SOL    HW126528   0.915   2.759   5.927  1.9838 -0.5145 -0.9078
 5022SOL    HW226529   1.041   2.814   5.916  1.4375  1.9433  1.0211
 5023SOL     OW26530   0.237   0.804  12.071  0.2882 -0.6750  0.3904
 5023SOL    HW126531   0.330   0.784  12.058  0.5078  0.8628 -0.4719
 5023SOL    HW226532   0.197   0.736  12.124 -0.4486 -0.7665 -0.2717
 5024SOL     OW26533   1.077   0.505   2.512 -0.3896 -0.2213 -0.2174
 5024SOL    HW126534   1.121   0.451   2.446 -0.4564  1.3321 -1.5270
 5024SOL    HW226535   1.148   0.568   2.524  0.6365 -1.9577  2.8895
 5025SOL     OW26536   2.121   2.159   2.141  0.5259  0.1924  0.3992
 5025SOL    HW126537   2.026   2.167   2.149  0.5165  0.6943 -0.2407
 5025SOL    HW226538   2.128   2.065   2.157 -1.2433 -0.0049 -0.0449
 5026SOL     OW26539   0.596   1.539   2.852  0.3524  0.1114  0.0168
 5026SOL    HW126540   0.628   1.498   2.771 -1.0294 -0.2841 -0.3143
 5026SOL    HW226541   0.668   1.515   2.911  1.7742  2.8495 -0.6441
 5027SOL     OW26542   0.904   4.044   2.150  0.0496  0.4130 -0.4009
 5027SOL    HW126543   0.923   3.950   2.152 -2.2883 -0.1234 -2.5798
 5027SOL    HW226544   0.832   4.053   2.213  0.4471  1.3005 -0.0733
 5028SOL     OW26545   3.227   0.544   9.034  0.2106  0.0285 -0.4883
 5028SOL    HW126546   3.197   0.523   9.123  2.1112  1.7250  0.5382
 5028SOL    HW226547   3.223   0.457   8.994  0.5856 -1.5912  2.9823
 5029SOL     OW26548   1.265   0.637   6.181  0.0946  0.1366  0.3172
 5029SOL    HW126549   1.346   0.592   6.160 -0.5318 -0.4526 -0.8249
 5029SOL    HW226550   1.284   0.730   6.181 -3.5018  0.8947 -0.3382
 5030SOL     OW26551   2.821   0.727   1.050  0.7153  0.1739 -0.8171
 5030SOL    HW126552   2.815   0.799   0.986  2.6035 -0.0248 -1.2138
 5030SOL    HW226553   2.907   0.690   1.031 -0.8575 -3.1914 -1.3623
 5031SOL     OW26554   3.966   3.636   6.616  0.0422 -0.1550  0.0912
 5031SOL    HW126555   3.916   3.652   6.536  2.9460  0.3200 -1.6191
 5031SOL    HW226556   3.904   3.590   6.673 -1.1860  1.9601  0.4474
 5032SOL     OW26557   1.697   2.011   5.843  0.4189 -0.0340 -0.1509
 5032SOL    HW126558   1.680   1.929   5.890 -0.5758  1.1031  1.4572
 5032SOL    HW226559   1.730   2.066   5.914  1.8602 -1.9548  0.6893
 5033SOL     OW26560   3.325   1.302   5.887 -0.1124  0.0219 -0.1666
 5033SOL    HW126561   3.363   1.214   5.880  1.7978  0.8474 -0.3485
 5033SOL    HW226562   3.367   1.320   5.972 -0.2969 -0.8493  0.1064
 5034SOL     OW26563   3.691   0.659   7.904 -0.0752 -0.2908  0.4846
 5034SOL    HW126564   3.754   0.666   7.976 -1.5960 -1.0185  1.9016
 5034SOL    HW226565   3.648   0.578   7.934 -1.3027  0.2227  0.0652
 5035SOL     OW26566   3.431   3.191   1.553 -0.6186 -0.1327  0.6311
 5035SOL    HW126567   3.463   3.127   1.491 -0.7115  0.8436 -0.4165
 5035SOL    HW226568   3.470   3.270   1.515  0.3637 -0.9403 -0.0080
 5036SOL     OW26569   2.232   1.349  13.044 -0.1212 -0.4399 -0.2006
 5036SOL    HW126570   2.240   1.444  13.035 -2.3433  0.0722  3.2515
 5036SOL    HW226571   2.300   1.339  13.110  0.0261 -0.4607 -0.3555
 5037SOL     OW26572   0.753   2.823   3.933 -0.1588  0.0186 -0.7433
 5037SOL    HW126573   0.830   2.787   3.978  0.8315  0.3137 -2.2118
 5037SOL    HW226574   0.774   2.906   3.891 -1.0990 -0.0361 -1.3373
 5038SOL     OW26575   3.959   2.725   7.417  0.7758  0.1687  0.1986
 5038SOL    HW126576   4.041   2.711   7.465  1.2153  1.3990 -0.2058
 5038SOL    HW226577   3.939   2.806   7.462  1.1115  0.5438 -0.3291
 5039SOL     OW26578   3.752   0.998   2.876  0.2657 -0.6685  0.2545
 5039SOL    HW126579   3.843   0.972   2.894  0.4909 -0.1409 -0.1276
 5039SOL    HW226580   3.714   0.923   2.830 -0.3571 -0.5153  0.5242
 5040SOL     OW26581   2.029   1.023   2.785 -0.0845  0.1997  0.4326
 5040SOL    HW126582   1.968   1.063   2.846 -1.4841 -1.6631  0.2591
 5040SOL    HW226583   2.012   1.075   2.706  0.2888  1.8545  1.4588
 5041SOL     OW26584   0.211   0.973   1.264  0.6619  0.7240 -0.0728
 5041SOL    HW126585   0.258   1.053   1.238  0.3568  1.0370  0.3413
 5041SOL    HW226586   0.150   0.967   1.190  0.3069  0.8205  0.2101
 5042SOL     OW26587   3.029   0.077   5.506  0.3349 -0.4431 -0.4935
 5042SOL    HW126588   3.119   0.076   5.538  0.3863  1.8088 -0.5231
 5042SOL    HW226589   2.977   0.027   5.570 -0.5960  1.1819  0.0421
 5043SOL     OW26590   2.332   0.138   2.445 -0.3094 -0.0366  0.3791
 5043SOL    HW126591   2.399   0.098   2.390 -0.6175 -1.9098  1.3653
 5043SOL    HW226592   2.334   0.080   2.522 -0.0858  0.2321  0.5742
 5044SOL     OW26593   3.985   1.958   7.662 -0.4111  0.6083 -0.5640
 5044SOL    HW126594   4.067   1.926   7.626 -0.0052  2.3237 -1.1825
 5044SOL    HW226595   3.952   1.883   7.710  0.6359  1.3057  1.2342
 5045SOL     OW26596   2.239   0.717   8.863  0.3967  0.5391 -0.1086
 5045SOL    HW126597   2.307   0.650   8.862 -1.9521 -1.8611 -0.3671
 5045SOL    HW226598   2.281   0.763   8.936  1.8220  0.5724 -0.9731
 5046SOL     OW26599   3.507   3.554  10.746 -0.2598 -0.3183 -0.2929
 5046SOL    HW126600   3.536   3.463  10.757 -1.2761 -0.5049  0.7794
 5046SOL    HW226601   3.432   3.556  10.805 -0.5531  2.0664 -0.7317
 5047SOL     OW26602   2.289   3.003   6.533  0.4960  0.2832  0.2931
 5047SOL    HW126603   2.232   3.072   6.568  0.9537  0.4245  0.7450
 5047SOL    HW226604   2.272   3.014   6.439  1.1516  2.3317  0.4150
 5048SOL     OW26605   3.368   1.322   8.625  0.2150  0.6309  0.7909
 5048SOL    HW126606   3.305   1.356   8.688  1.1154  0.8995  1.5411
 5048SOL    HW226607   3.447   1.314   8.679  1.3308 -0.1544 -0.9574
 5049SOL     OW26608   0.373   0.225  10.983 -0.0555  0.1675  0.0360
 5049SOL    HW126609   0.334   0.230  11.071 -1.5287  3.7743 -0.8696
 5049SOL    HW226610   0.466   0.235  11.005 -0.3469  1.4623  0.7002
 5050SOL     OW26611   3.857   3.768   3.522 -0.2642 -0.3179  0.0093
 5050SOL    HW126612   3.813   3.710   3.460  0.0729 -0.3730 -0.1838
 5050SOL    HW226613   3.821   3.746   3.608  1.1868  1.4272  1.0843
 5051SOL     OW26614   3.518   2.264   2.535  0.4964 -0.1334 -0.2966
 5051SOL    HW126615   3.497   2.317   2.612 -1.5317  0.5099 -1.2906
 5051SOL    HW226616   3.510   2.175   2.570 -0.0533 -0.6177 -1.6583
 5052SOL     OW26617   3.009   4.211   4.247  0.0075  0.7126  0.1153
 5052SOL    HW126618   3.023   4.295   4.291  0.1947 -0.0622  1.5714
 5052SOL    HW226619   3.011   4.149   4.321  0.7886 -1.4802 -1.7356
 5053SOL     OW26620   2.101   2.140   6.934 -0.0862 -0.6118  0.7974
 5053SOL    HW126621   2.196   2.140   6.922 -0.2956  0.7594 -0.8847
 5053SOL    HW226622   2.092   2.063   6.990  1.3694 -2.2347 -1.2032
 5054SOL     OW26623   2.272   2.282  11.169 -0.1066 -0.5419 -0.0468
 5054SOL    HW126624   2.268   2.369  11.208 -0.4555 -0.7811  0.4437
 5054SOL    HW226625   2.218   2.299  11.092 -0.9430 -0.1233  0.6353
 5055SOL     OW26626   2.278   4.039   5.828  0.1623  0.7572  0.2846
 5055SOL    HW126627   2.244   4.125   5.805 -0.3963  0.2259 -0.9047
 5055SOL    HW226628   2.358   4.064   5.874  0.9902  0.6201 -1.0750
 5056SOL     OW26629   3.896   2.288   6.299  0.3184  0.1563 -0.3602
 5056SOL    HW126630   3.958   2.346   6.254  0.3903  0.0951 -0.3397
 5056SOL    HW226631   3.938   2.279   6.385 -0.0859 -0.7533 -0.2568
 5057SOL     OW26632   3.502   4.131  16.212  0.7273  0.0045 -0.2010
 5057SOL    HW126633   3.555   4.193  16.162 -2.3569  2.9466  0.1523
 5057SOL    HW226634   3.453   4.191  16.268  0.8664  0.0219 -0.0992
 5058SOL     OW26635   3.580   1.952   7.167  0.2850 -0.0706 -0.0425
 5058SOL    HW126636   3.489   1.981   7.171  0.1356 -0.4678 -0.5363
 5058SOL    HW226637   3.635   2.029   7.179  1.6235 -1.1441  0.6789
 5059SOL     OW26638   4.385   0.764   2.330  0.0836 -0.1671 -0.3734
 5059SOL    HW126639   4.400   0.732   2.241  2.3109 -1.2979  0.4310
 5059SOL    HW226640   4.422   0.692   2.381  2.2043 -0.1676 -1.9497
 5060SOL     OW26641   0.182   4.502   5.360 -0.1579  0.4735 -0.4911
 5060SOL    HW126642   0.236   4.526   5.285 -0.1649 -2.6083 -1.5217
 5060SOL    HW226643   0.187   4.573   5.424  0.4901 -0.8275  0.9207
 5061SOL     OW26644   3.002   2.828  16.829  0.3872 -0.1882  0.1179
 5061SOL    HW126645   3.073   2.809  16.768 -1.1324 -2.1917 -1.0364
 5061SOL    HW226646   2.944   2.886  16.781 -3.5022 -1.6962  2.9602
 5062SOL     OW26647   3.829   0.559   6.359 -0.1418 -0.2182  0.4661
 5062SOL    HW126648   3.852   0.483   6.413  0.1899 -0.2785  0.2406
 5062SOL    HW226649   3.905   0.618   6.359 -1.1297  1.0721  0.4136
 5063SOL     OW26650   2.254   3.774   5.877 -0.6466  0.2806  0.0714
 5063SOL    HW126651   2.233   3.867   5.867  0.5546  0.5329 -0.1493
 5063SOL    HW226652   2.323   3.770   5.944 -0.8604 -1.0502  0.2033
 5064SOL     OW26653   2.637   0.320  10.481 -0.7956 -0.4607 -0.5507
 5064SOL    HW126654   2.645   0.386  10.550 -0.0131 -1.8716  0.7185
 5064SOL    HW226655   2.715   0.267  10.496 -0.7128  0.1050  0.9993
 5065SOL     OW26656   1.862   1.622   3.791  0.2258  0.1298  0.1849
 5065SOL    HW126657   1.798   1.690   3.773 -3.2938 -3.2058  0.1641
 5065SOL    HW226658   1.876   1.587   3.703  0.9452 -0.7614  0.6482
 5066SOL     OW26659   1.647   1.850  11.429 -0.1537  0.0906 -0.7247
 5066SOL    HW126660   1.566   1.898  11.411 -0.5419 -1.4702 -3.1264
 5066SOL    HW226661   1.627   1.757  11.420 -2.7890  0.4160  1.8310
 5067SOL     OW26662   4.626   1.563   4.902  0.2944  0.5138  0.3834
 5067SOL    HW126663   4.628   1.537   4.995 -0.4224 -2.0529 -0.3043
 5067SOL    HW226664   4.582   1.648   4.906 -1.1853 -0.3268  2.0889
 5068SOL     OW26665   3.215   3.084   0.049 -0.3978 -0.0744 -0.2170
 5068SOL    HW126666   3.292   3.115   0.095 -0.7561  0.9546 -0.3103
 5068SOL    HW226667   3.245   3.003   0.007 -1.6184 -1.9772  2.6379
 5069SOL     OW26668   1.856   2.996   7.818 -0.8403  0.8035  0.3321
 5069SOL    HW126669   1.881   2.904   7.816  0.3019  1.0968  1.2037
 5069SOL    HW226670   1.828   3.006   7.909  1.7755  0.1703  1.2018
 5070SOL     OW26671   4.627   3.383  13.482 -0.2732 -0.3498 -0.2576
 5070SOL    HW126672   4.691   3.362  13.550  0.4834 -1.6287 -1.3714
 5070SOL    HW226673   4.549   3.357  13.529 -1.7730  3.1349 -0.7933
 5071SOL     OW26674   0.020   4.477   0.924  0.2256  0.8000  0.4172
 5071SOL    HW126675   4.680   4.409   0.937  0.7231 -0.0609 -1.6235
 5071SOL    HW226676   4.704   4.531   0.856 -2.4235  0.5326  1.8285
 5072SOL     OW26677   3.565   2.248   0.274 -0.3213  0.1228  0.0106
 5072SOL    HW126678   3.573   2.223   0.181 -1.4983  1.0241 -0.3379
 5072SOL    HW226679   3.553   2.343   0.271  1.0730  0.2748 -0.6693
 5073SOL     OW26680   1.263   1.005   0.571  0.1285 -0.0726  0.0193
 5073SOL    HW126681   1.174   0.968   0.574  0.6502 -1.2169  1.1316
 5073SOL    HW226682   1.317   0.929   0.551  0.5794  0.5242 -1.0305
 5074SOL     OW26683   3.217   3.301   7.554  0.4711  0.4728  0.0869
 5074SOL    HW126684   3.140   3.250   7.528  1.0516  0.1508 -0.9657
 5074SOL    HW226685   3.200   3.362   7.483  1.2118  0.4611 -0.0957
 5075SOL     OW26686   3.563   3.608   9.328  0.5672 -0.1377  0.3568
 5075SOL    HW126687   3.542   3.694   9.292 -1.7634 -0.9798 -0.3458
 5075SOL    HW226688   3.579   3.624   9.421 -2.3536  0.6446  0.7489
 5076SOL     OW26689   0.406   1.681  16.422 -0.1320  0.3868  0.8313
 5076SOL    HW126690   0.490   1.713  16.387 -0.7136  0.4909 -0.4634
 5076SOL    HW226691   0.354   1.761  16.429  0.0469  0.5271  0.5502
 5077SOL     OW26692   0.832   4.575   7.554 -0.2737  0.3508  0.2463
 5077SOL    HW126693   0.810   4.519   7.629 -0.7890  1.7500  1.1217
 5077SOL    HW226694   0.926   4.584   7.571 -0.2349  0.8642 -0.2635
 5078SOL     OW26695   4.007   3.396   8.443 -0.3758  0.4555 -0.3123
 5078SOL    HW126696   3.937   3.337   8.414  1.2937 -0.2750 -2.8512
 5078SOL    HW226697   4.011   3.372   8.536 -2.0696 -1.2560 -0.6658
 5079SOL     OW26698   0.147   3.061   8.575 -0.1036  0.4406  0.1882
 5079SOL    HW126699   0.158   3.038   8.667  0.3448  0.5634  0.1667
 5079SOL    HW226700   0.086   3.135   8.573 -1.0149 -0.3272 -0.2390
 5080SOL     OW26701   1.477   0.940   9.984  0.1299 -0.2621  0.0423
 5080SOL    HW126702   1.564   0.965  10.014  0.6236 -1.3004 -0.5420
 5080SOL    HW226703   1.427   1.006  10.034 -2.6924 -0.4717 -2.4885
 5081SOL     OW26704   3.604   1.596   4.977  0.1167  0.4215 -0.5239
 5081SOL    HW126705   3.588   1.633   5.064 -1.6000 -2.9732  0.5645
 5081SOL    HW226706   3.557   1.659   4.922 -1.7491 -0.2174  0.3399
 5082SOL     OW26707   0.641   3.072   9.651  0.0275  0.0200 -0.6572
 5082SOL    HW126708   0.681   3.028   9.576 -0.7351  1.1537 -1.7211
 5082SOL    HW226709   0.681   3.159   9.640  0.8099  0.2095  3.3666
 5083SOL     OW26710   3.485   0.745   9.778 -0.3672  0.5989 -0.5096
 5083SOL    HW126711   3.500   0.786   9.863 -1.6921  0.3031 -0.1339
 5083SOL    HW226712   3.519   0.657   9.791 -0.5995  0.3825 -1.4293
 5084SOL     OW26713   1.147   2.444  15.058  0.6779 -0.0078  0.3433
 5084SOL    HW126714   1.060   2.409  15.074  1.8188 -2.6669  0.6938
 5084SOL    HW226715   1.204   2.367  15.066 -0.0030 -0.6199 -0.7285
 5085SOL     OW26716   1.890   0.792   1.245 -0.2510 -0.0831 -0.7683
 5085SOL    HW126717   1.926   0.703   1.243  2.4245  0.9995 -0.6865
 5085SOL    HW226718   1.912   0.796   1.338 -0.5928 -2.0654 -0.5992
 5086SOL     OW26719   0.060   0.643   0.399 -0.2258  0.9136  0.4074
 5086SOL    HW126720   0.144   0.602   0.380  0.4211  0.8721  3.3065
 5086SOL    HW226721   0.027   0.596   0.476 -1.7109 -0.5002 -1.0883
 5087SOL     OW26722   0.301   1.345  14.465 -0.1112 -0.3454 -0.5087
 5087SOL    HW126723   0.393   1.319  14.462 -0.3677 -1.2754 -0.1389
 5087SOL    HW226724   0.300   1.404  14.541 -1.9541 -0.1139 -0.7098
 5088SOL     OW26725   1.635   1.759   3.722  0.3039 -0.3115  0.9486
 5088SOL    HW126726   1.603   1.830   3.666 -2.5530 -0.9771  1.7109
 5088SOL    HW226727   1.574   1.686   3.712  1.2758 -0.7680 -1.5057
 5089SOL     OW26728   2.951   0.035   8.180  0.1522 -0.0673 -0.4678
 5089SOL    HW126729   2.984   4.683   8.134  2.8773  0.2001  1.0496
 5089SOL    HW226730   3.021   0.050   8.244  1.6112 -0.3894 -1.9960
 5090SOL     OW26731   1.786   0.053  12.200  0.2840 -0.3658 -0.8844
 5090SOL    HW126732   1.746   0.087  12.120  0.6807  0.7911 -0.5854
 5090SOL    HW226733   1.839   4.712  12.155 -0.1219 -1.0410 -0.3765
 5091SOL     OW26734   3.273   1.085   7.070 -0.3573  0.0151 -0.3473
 5091SOL    HW126735   3.275   1.088   7.165  2.6681 -2.1471 -0.3578
 5091SOL    HW226736   3.179   1.076   7.058 -0.5377  0.2059  0.9696
 5092SOL     OW26737   0.122   4.098   8.704  0.0430  0.1576 -0.0352
 5092SOL    HW126738   0.029   4.121   8.702  0.1065  0.1380 -3.5813
 5092SOL    HW226739   0.112   4.085   8.799 -1.9116 -0.1230 -0.2858
 5093SOL     OW26740   0.184   1.665   7.372 -0.8183  0.1749 -0.0803
 5093SOL    HW126741   0.267   1.712   7.370 -0.0171 -1.3860 -3.0911
 5093SOL    HW226742   0.188   1.631   7.461 -1.6696 -0.6718 -0.3600
 5094SOL     OW26743   1.991   0.018  13.945  0.3858 -0.2023 -0.3437
 5094SOL    HW126744   1.976   4.658  13.903  1.0055 -1.7999  2.6707
 5094SOL    HW226745   1.913   0.073  13.932  1.0745  0.7412 -0.4398
 5095SOL     OW26746   3.973   3.974   4.390  0.3160 -0.2435 -0.0914
 5095SOL    HW126747   4.006   3.958   4.302 -1.0144  0.6208 -0.7380
 5095SOL    HW226748   3.889   4.019   4.378  0.5280  0.1428 -0.1028
 5096SOL     OW26749   1.710   1.292   7.580 -0.6152 -0.6519 -0.0918
 5096SOL    HW126750   1.720   1.219   7.641  0.1269  1.6549  2.5669
 5096SOL    HW226751   1.801   1.296   7.551  0.0627  0.7723  2.2608
 5097SOL     OW26752   3.801   3.436  10.899 -0.2055 -0.2666 -0.7944
 5097SOL    HW126753   3.726   3.388  10.864 -1.1512  0.9027 -0.3738
 5097SOL    HW226754   3.782   3.444  10.992  1.0053 -0.8385 -0.5046
 5098SOL     OW26755   3.688   1.580   6.085 -0.5715 -0.6173 -0.3511
 5098SOL    HW126756   3.632   1.536   6.020  0.8772  0.0765 -2.0382
 5098SOL    HW226757   3.764   1.536   6.048  0.1320  0.5565 -0.2729
 5099SOL     OW26758   2.581   3.499   2.197 -0.3365  0.0853  0.2697
 5099SOL    HW126759   2.492   3.527   2.177 -0.9113 -1.2179  1.0206
 5099SOL    HW226760   2.570   3.459   2.283  2.0982 -0.6895  0.2182
 5100SOL     OW26761   0.989   4.402   6.683  0.1799 -0.4182  0.5687
 5100SOL    HW126762   1.033   4.408   6.767 -0.5533 -1.0844  0.9981
 5100SOL    HW226763   0.957   4.312   6.676 -1.3177  0.2825 -1.7701
 5101SOL     OW26764   1.344   2.435   5.452 -0.0749  0.0203 -0.8898
 5101SOL    HW126765   1.314   2.405   5.366 -1.4805  1.8666 -1.0420
 5101SOL    HW226766   1.340   2.529   5.432  3.8577  0.2220 -0.8078
 5102SOL     OW26767   2.767   1.011   0.505  0.2586  0.2326  0.0431
 5102SOL    HW126768   2.839   0.958   0.539 -0.2162 -0.4016  0.0599
 5102SOL    HW226769   2.685   0.973   0.537  0.3005 -2.1555 -2.7358
 5103SOL     OW26770   2.531   2.562   5.937 -0.5018  0.2490  0.0109
 5103SOL    HW126771   2.551   2.553   6.030 -1.1060 -0.1447  0.1037
 5103SOL    HW226772   2.604   2.518   5.893 -1.4145 -0.2914 -0.9458
 5104SOL     OW26773   2.049   2.763  11.205 -0.0216  0.1574  0.4302
 5104SOL    HW126774   1.974   2.723  11.161  2.0366 -1.3592 -1.7479
 5104SOL    HW226775   2.051   2.853  11.172 -0.8088 -0.0381 -0.1445
 5105SOL     OW26776   3.132   0.670  10.812 -0.0540 -0.3392  0.0247
 5105SOL    HW126777   3.039   0.679  10.789 -0.4303 -0.5160  1.4952
 5105SOL    HW226778   3.138   0.575  10.811  1.3191 -0.2335 -1.8431
 5106SOL     OW26779   3.679   0.681   1.917  0.2963 -0.1105  0.1398
 5106SOL    HW126780   3.618   0.608   1.909 -0.7524  0.6502  1.3392
 5106SOL    HW226781   3.695   0.691   1.823 -0.6318  2.3011  0.2422
 5107SOL     OW26782   3.412   4.080   4.145  0.0229  0.1852  1.0148
 5107SOL    HW126783   3.370   4.068   4.230  2.5455  1.7218  2.5187
 5107SOL    HW226784   3.430   3.992   4.112  0.6221 -0.0648  2.0141
 5108SOL     OW26785   1.397   0.611  15.813  0.0388 -0.1024  0.0851
 5108SOL    HW126786   1.424   0.642  15.899 -3.0491  1.0837  0.6432
 5108SOL    HW226787   1.415   0.517  15.823 -1.9691 -0.5367 -0.3656
 5109SOL     OW26788   4.247   0.783  17.317 -0.1328 -0.1986 -0.0764
 5109SOL    HW126789   4.233   0.809  17.226  2.7414  2.6926  0.3388
 5109SOL    HW226790   4.245   0.688  17.305  1.0881  0.2636 -4.0636
 5110SOL     OW26791   3.363   2.229   6.770  0.6715  0.0884 -0.0787
 5110SOL    HW126792   3.432   2.210   6.706  0.7913  1.5535 -0.3930
 5110SOL    HW226793   3.328   2.309   6.731 -3.0845 -0.2087  2.7805
 5111SOL     OW26794   0.258   2.864  14.195  0.1080  0.0783 -0.3668
 5111SOL    HW126795   0.191   2.830  14.135 -1.0097  1.4409  0.1041
 5111SOL    HW226796   0.336   2.827  14.154 -0.9355 -0.4662 -1.8575
 5112SOL     OW26797   2.971   1.515   4.584 -0.4966  0.1160 -0.1932
 5112SOL    HW126798   2.918   1.585   4.547  1.0602  0.8559 -1.0223
 5112SOL    HW226799   2.910   1.498   4.656 -0.5307 -4.6579 -1.3707
 5113SOL     OW26800   3.351   1.958   1.507  0.1881 -0.1915  0.4507
 5113SOL    HW126801   3.403   1.956   1.587  0.2382  2.7218  0.4969
 5113SOL    HW226802   3.418   1.973   1.441  0.6191 -2.1730  0.4404
 5114SOL     OW26803   4.563   0.992   2.570  0.0536  0.3517 -0.1827
 5114SOL    HW126804   4.598   1.072   2.608 -3.3951  1.9401 -0.3970
 5114SOL    HW226805   4.647   0.949   2.553  0.4480  1.8159 -1.8607
 5115SOL     OW26806   4.479   3.254  12.429 -0.3534 -0.1177  0.1898
 5115SOL    HW126807   4.403   3.198  12.419  0.9979 -1.4830 -2.6166
 5115SOL    HW226808   4.534   3.223  12.357  1.1841  1.8347  0.5194
 5116SOL     OW26809   4.355   2.125   1.968  0.9279 -0.1896  0.1030
 5116SOL    HW126810   4.381   2.154   2.056  3.6629  1.2936 -1.1846
 5116SOL    HW226811   4.442   2.129   1.928  1.8515  1.4394  2.2299
 5117SOL     OW26812   1.157   4.602   3.399  0.0700 -0.3301  0.2561
 5117SOL    HW126813   1.222   4.655   3.446 -1.2939  2.9754 -1.6175
 5117SOL    HW226814   1.160   4.653   3.318  2.4182  0.6325  0.9403
 5118SOL     OW26815   0.945   4.152   1.146 -0.2641 -0.2891  0.4198
 5118SOL    HW126816   0.855   4.129   1.171 -0.1796 -1.6907 -0.5424
 5118SOL    HW226817   0.952   4.086   1.077  0.6545  0.1816  0.0677
 5119SOL     OW26818   2.121   0.866   3.208  0.3147  0.0528 -0.6430
 5119SOL    HW126819   2.116   0.847   3.302 -1.2808 -1.4787 -1.0438
 5119SOL    HW226820   2.172   0.947   3.203  0.4879  0.0746  1.3565
 5120SOL     OW26821   4.311   2.476  10.284  0.0868  0.0880 -0.5874
 5120SOL    HW126822   4.316   2.390  10.242 -2.6930  0.1969 -1.1612
 5120SOL    HW226823   4.370   2.532  10.235 -2.0834  1.1673 -1.9889
 5121SOL     OW26824   2.004   3.761   9.255 -0.2367 -0.2098  0.2570
 5121SOL    HW126825   1.942   3.733   9.188 -0.1156 -1.7809  0.7971
 5121SOL    HW226826   2.000   3.684   9.312 -1.5798  1.7978  2.9111
 5122SOL     OW26827   2.562   2.777   1.150  0.7533  0.3003 -0.3909
 5122SOL    HW126828   2.579   2.693   1.106 -1.5304  0.3492 -1.3854
 5122SOL    HW226829   2.548   2.747   1.241 -0.9733 -0.7481 -0.9859
 5123SOL     OW26830   1.077   3.267   0.046  0.0505 -0.4166  0.3761
 5123SOL    HW126831   0.991   3.298   0.074 -0.4336 -3.4275  2.2174
 5123SOL    HW226832   1.048   3.231  17.664 -0.0048 -1.6537  0.9278
 5124SOL     OW26833   2.215   0.730   6.828 -0.2859  0.1316  0.1977
 5124SOL    HW126834   2.220   0.645   6.870  1.4463  1.2219  2.1795
 5124SOL    HW226835   2.239   0.690   6.744  2.4767  0.1225  0.9862
 5125SOL     OW26836   1.725   1.957   4.352  1.0366 -0.5946  0.2165
 5125SOL    HW126837   1.662   1.989   4.288  0.3104 -1.1052  0.6873
 5125SOL    HW226838   1.673   1.894   4.401 -2.0423  0.5671 -1.6085
 5126SOL     OW26839   0.650   0.826   7.898  0.4208  0.6128 -0.2138
 5126SOL    HW126840   0.560   0.831   7.866  1.0517  2.0198 -1.7514
 5126SOL    HW226841   0.642   0.764   7.970 -0.3775  0.5047 -0.3945
 5127SOL     OW26842   4.244   2.367   3.585 -0.6582  0.4686  0.3019
 5127SOL    HW126843   4.291   2.427   3.643  0.3859  1.4049 -1.5089
 5127SOL    HW226844   4.268   2.402   3.499  0.3629 -2.6281 -0.6662
 5128SOL     OW26845   2.203   0.924  10.109  0.6945  0.3347 -0.1050
 5128SOL    HW126846   2.238   0.984  10.175 -3.0845  3.4966 -0.9648
 5128SOL    HW226847   2.133   0.980  10.076 -0.5751 -0.0722  1.8678
 5129SOL     OW26848   1.903   2.045   4.688 -0.6588 -0.6857 -0.7463
 5129SOL    HW126849   1.913   1.951   4.704  0.8415  0.1225  2.9546
 5129SOL    HW226850   1.830   2.066   4.746 -2.3972 -0.1610 -3.0801
 5130SOL     OW26851   3.028   3.210   1.679  0.5395  0.1680  0.1005
 5130SOL    HW126852   2.950   3.159   1.699  3.0187 -2.6193  2.6188
 5130SOL    HW226853   3.004   3.298   1.709 -0.1971 -0.6044  1.7671
 5131SOL     OW26854   0.519   0.627   6.112  0.3907 -0.4413  0.1506
 5131SOL    HW126855   0.550   0.677   6.037 -1.9820 -0.5017 -0.8445
 5131SOL    HW226856   0.497   0.540   6.077  1.3931 -0.9773  0.8579
 5132SOL     OW26857   1.057   0.333   1.877 -0.1082 -0.0044  0.2334
 5132SOL    HW126858   0.976   0.382   1.865  0.6639  1.0699 -0.5714
 5132SOL    HW226859   1.124   0.400   1.866  0.4299 -1.1500 -3.3660
 5133SOL     OW26860   4.145   1.395   2.331  0.7831  0.3893 -0.0306
 5133SOL    HW126861   4.172   1.345   2.408  0.9719  0.5058 -0.0224
 5133SOL    HW226862   4.142   1.480   2.376  1.1395 -0.2825  1.2500
 5134SOL     OW26863   4.568   1.845   8.536 -0.2016  0.3825 -0.1582
 5134SOL    HW126864   4.597   1.754   8.545  1.4517  1.1339  2.2465
 5134SOL    HW226865   4.629   1.876   8.603 -0.0005 -0.5821  0.1035
 5135SOL     OW26866   2.713   3.756   5.172 -0.4554 -0.4758 -0.3020
 5135SOL    HW126867   2.662   3.676   5.182  1.7151 -1.6025  1.9547
 5135SOL    HW226868   2.733   3.741   5.080  1.8275  1.9228 -0.2026
 5136SOL     OW26869   4.055   1.122   3.782 -0.3490  0.2096 -0.2494
 5136SOL    HW126870   3.975   1.156   3.743  0.4878  0.7064 -1.5279
 5136SOL    HW226871   4.018   1.076   3.858  2.2476 -1.6195 -0.0518
 5137SOL     OW26872   0.521   1.661  15.333 -0.2028  0.2634 -0.4852
 5137SOL    HW126873   0.500   1.681  15.425  0.5879 -0.1873 -0.2054
 5137SOL    HW226874   0.605   1.702  15.316 -0.9821  1.7756 -0.7146
 5138SOL     OW26875   3.075   0.347  14.261  0.2373 -0.4625 -0.0270
 5138SOL    HW126876   3.028   0.384  14.186  0.1267  0.9250  0.7122
 5138SOL    HW226877   3.078   0.428  14.312  0.1110 -1.0553  0.9225
 5139SOL     OW26878   0.519   1.253  15.603 -0.3035  0.4851  0.3455
 5139SOL    HW126879   0.581   1.203  15.656  0.6075 -0.7335 -1.8763
 5139SOL    HW226880   0.453   1.286  15.664  1.5740 -0.8005  3.0777
 5140SOL     OW26881   4.048   2.725   8.422 -0.2217  0.5464  0.2484
 5140SOL    HW126882   4.063   2.635   8.451  0.0404  0.2224 -0.9157
 5140SOL    HW226883   4.134   2.758   8.399  0.5754 -2.0955 -0.5067
 5141SOL     OW26884   0.485   0.954   3.171 -0.0041  0.1281 -0.3922
 5141SOL    HW126885   0.446   0.983   3.253  1.5200  0.4133  0.2221
 5141SOL    HW226886   0.410   0.908   3.132 -0.3836  0.9684 -0.6531
 5142SOL     OW26887   4.576   1.214  11.377  0.8467  0.1188  0.0175
 5142SOL    HW126888   4.591   1.154  11.303 -3.7371 -1.2617  0.2049
 5142SOL    HW226889   4.642   1.203  11.445 -1.2244  0.8729  2.1609
 5143SOL     OW26890   2.774   1.932   3.224 -0.0888  0.1010  0.6821
 5143SOL    HW126891   2.848   1.880   3.193 -0.6504 -1.1358  1.4244
 5143SOL    HW226892   2.777   1.907   3.317  0.6705  2.0177  1.1753
 5144SOL     OW26893   3.700   3.521   2.833  0.6947  0.3185  0.0129
 5144SOL    HW126894   3.649   3.551   2.758  1.2014  1.2800  0.0583
 5144SOL    HW226895   3.712   3.604   2.879  1.2164  0.6609 -0.7242
 5145SOL     OW26896   3.848   2.488   7.511  0.0870  0.2697 -0.8540
 5145SOL    HW126897   3.892   2.570   7.486  1.5537 -1.0052 -2.4240
 5145SOL    HW226898   3.903   2.427   7.463  0.0304 -0.8514  0.5144
 5146SOL     OW26899   2.959   0.868   5.598 -0.2882 -0.2906 -0.1238
 5146SOL    HW126900   2.944   0.783   5.557 -0.6129 -0.6618  0.7726
 5146SOL    HW226901   3.046   0.900   5.573  0.0749 -0.9224  0.3449
 5147SOL     OW26902   2.984   4.135   9.630  0.2737 -0.3483  0.3480
 5147SOL    HW126903   3.022   4.222   9.621 -0.5244 -0.1746 -1.1810
 5147SOL    HW226904   3.060   4.086   9.662  0.1909 -0.5363  0.2575
 5148SOL     OW26905   2.368   1.331   7.630 -0.1234 -0.5290  0.0779
 5148SOL    HW126906   2.349   1.271   7.558  0.3910 -0.5806 -0.0186
 5148SOL    HW226907   2.302   1.296   7.690 -1.6838  0.1167 -1.2479
 5149SOL     OW26908   1.172   2.421  13.929 -0.1152 -0.2751 -0.1545
 5149SOL    HW126909   1.123   2.363  13.870 -0.5863  0.5159 -0.5363
 5149SOL    HW226910   1.261   2.415  13.895 -0.2998  1.8144 -1.0077
 5150SOL     OW26911   1.698   0.152   9.987  0.1831 -0.3858  0.0318
 5150SOL    HW126912   1.656   0.235  10.012 -0.9969 -1.0329  0.2170
 5150SOL    HW226913   1.775   0.158  10.043  0.1379  0.9521 -0.0369
 5151SOL     OW26914   1.939   0.791   6.165  0.1963 -0.0954 -0.3872
 5151SOL    HW126915   1.940   0.727   6.237 -1.7274  0.4702  0.1525
 5151SOL    HW226916   1.967   0.868   6.216  2.7718 -0.1827 -1.6830
 5152SOL     OW26917   3.640   4.020   4.600  0.1476  0.3505 -0.6799
 5152SOL    HW126918   3.547   4.011   4.618 -0.2930  1.3938 -2.5191
 5152SOL    HW226919   3.639   4.100   4.548 -1.2639  0.5811 -0.2722
 5153SOL     OW26920   0.122   1.765  14.185  0.1076 -0.1992 -0.0210
 5153SOL    HW126921   0.044   1.784  14.132  1.3071  1.8540 -1.0349
 5153SOL    HW226922   0.087   1.711  14.255 -1.3108  1.1395  0.3084
 5154SOL     OW26923   1.105   1.641  13.042 -0.7173  0.0971  0.2963
 5154SOL    HW126924   1.055   1.608  12.968 -0.2868 -0.9276  0.4539
 5154SOL    HW226925   1.071   1.729  13.058  0.0113  0.3979  0.2104
 5155SOL     OW26926   1.045   0.965   9.228 -0.3474 -0.2024 -0.2211
 5155SOL    HW126927   0.994   0.917   9.163 -2.6782 -0.5001  1.8237
 5155SOL    HW226928   0.995   0.967   9.310  2.2670  1.3027  1.3401
 5156SOL     OW26929   1.692   1.637   8.545 -0.3316 -0.2417 -0.1214
 5156SOL    HW126930   1.719   1.552   8.579 -1.5854 -1.3748 -1.9515
 5156SOL    HW226931   1.679   1.684   8.627  1.8783 -0.3523  0.3042
 5157SOL     OW26932   3.774   4.039   0.984  0.0979  0.1730 -0.1117
 5157SOL    HW126933   3.805   4.007   0.900  0.6878 -0.8213  0.4880
 5157SOL    HW226934   3.692   4.079   0.955  0.4575  2.0139  1.3714
 5158SOL     OW26935   2.400   2.480   5.138  0.4283  0.1247  0.3410
 5158SOL    HW126936   2.337   2.543   5.172 -2.8227 -1.9311 -1.8682
 5158SOL    HW226937   2.438   2.537   5.071 -2.7311 -0.9065 -2.3532
 5159SOL     OW26938   2.787   2.558   9.925  0.2321  0.2755  0.2206
 5159SOL    HW126939   2.766   2.649   9.946  1.3735  0.9439 -1.5675
 5159SOL    HW226940   2.707   2.518   9.960  0.6734  0.5743  1.5638
 5160SOL     OW26941   3.164   3.031   5.602 -0.2688 -0.4157 -0.1465
 5160SOL    HW126942   3.075   3.038   5.635  0.3973 -0.4871  1.6702
 5160SOL    HW226943   3.175   2.936   5.597  2.7266 -0.1665  1.4774
 5161SOL     OW26944   2.422   3.622   4.254 -0.0579  0.0914 -0.8168
 5161SOL    HW126945   2.391   3.669   4.331 -1.6862  1.2684 -2.1919
 5161SOL    HW226946   2.386   3.685   4.192 -1.3527  0.5229  0.3775
 5162SOL     OW26947   4.646   3.098   2.270 -0.1788  0.1851 -0.0052
 5162SOL    HW126948   4.709   3.099   2.342  2.3766 -0.8278 -2.1838
 5162SOL    HW226949   4.667   3.184   2.235  2.8013 -0.8131 -0.7093
 5163SOL     OW26950   1.498   1.092   5.686 -0.4566  0.4178 -0.3253
 5163SOL    HW126951   1.500   1.039   5.766 -0.5930 -0.7725 -1.1171
 5163SOL    HW226952   1.585   1.084   5.647 -1.1345 -2.2009 -1.3171
 5164SOL     OW26953   4.386   0.747  15.930  0.2981  0.3417 -0.3116
 5164SOL    HW126954   4.313   0.804  15.953  0.3948  1.1337 -2.0116
 5164SOL    HW226955   4.434   0.795  15.863  0.3223 -0.2556 -0.7221
 5165SOL     OW26956   4.232   0.090  17.104 -0.5469  0.0757 -0.2099
 5165SOL    HW126957   4.313   0.127  17.140 -1.6246  1.7103  0.5531
 5165SOL    HW226958   4.175   0.101  17.179 -2.1631  0.8780 -1.5449
 5166SOL     OW26959   2.325   0.633   5.889 -0.2291  0.1264 -0.1610
 5166SOL    HW126960   2.321   0.659   5.797  1.1012 -1.4194 -0.6406
 5166SOL    HW226961   2.292   0.707   5.941 -1.2669 -0.9560  0.7440
 5167SOL     OW26962   2.251   3.765  14.999 -0.0092  0.4263 -0.3392
 5167SOL    HW126963   2.200   3.748  14.919  0.1895 -0.1504 -0.3461
 5167SOL    HW226964   2.261   3.677  15.034  1.1441 -0.4799 -2.9072
 5168SOL     OW26965   2.339   1.290   5.413  0.2184  0.1647 -0.0406
 5168SOL    HW126966   2.407   1.338   5.460  0.9388 -0.6755 -0.2279
 5168SOL    HW226967   2.305   1.364   5.363  0.3101 -1.4698 -2.5056
 5169SOL     OW26968   2.937   0.663   1.970  0.6114  0.5089  0.0619
 5169SOL    HW126969   2.993   0.617   1.908  1.0551 -0.7312  1.3861
 5169SOL    HW226970   2.870   0.594   1.972  0.6737  0.4744  0.8131
 5170SOL     OW26971   0.051   4.264   6.810 -0.1108  0.1017  0.0214
 5170SOL    HW126972   0.002   4.206   6.752  2.3332 -0.8642 -1.0643
 5170SOL    HW226973   0.128   4.261   6.753 -0.8257  0.7014 -0.9787
 5171SOL     OW26974   3.526   3.747   8.464 -0.3687 -0.2683  0.7234
 5171SOL    HW126975   3.471   3.763   8.387 -0.7011 -0.4972  0.9123
 5171SOL    HW226976   3.611   3.767   8.425 -0.2272 -1.1136  0.6010
 5172SOL     OW26977   4.179   1.637   1.622 -0.4054  0.1444 -0.5043
 5172SOL    HW126978   4.105   1.681   1.580 -1.2859  0.4423  1.3680
 5172SOL    HW226979   4.165   1.550   1.583  1.8080 -1.0326  1.3765
 5173SOL     OW26980   4.480   3.234   7.673 -0.0146 -0.1900 -0.3859
 5173SOL    HW126981   4.494   3.214   7.766 -0.3100 -0.2697 -0.3604
 5173SOL    HW226982   4.556   3.292   7.662 -1.4811  1.3315 -2.4884
 5174SOL     OW26983   2.363   4.054   2.785  0.6695 -0.1679  0.1743
 5174SOL    HW126984   2.345   4.097   2.869  1.2862 -1.2733  0.8719
 5174SOL    HW226985   2.419   3.983   2.815 -1.6885 -1.7854  0.7180
 5175SOL     OW26986   0.166   3.574   6.717  0.1128 -0.3504  0.2395
 5175SOL    HW126987   0.127   3.654   6.754  0.0977  0.3497 -1.2714
 5175SOL    HW226988   0.226   3.536   6.780  1.1189  0.4737 -0.2274
 5176SOL     OW26989   3.862   1.276   2.273  0.2103  0.2337 -0.8195
 5176SOL    HW126990   3.935   1.223   2.306  0.0043 -0.2865 -1.2108
 5176SOL    HW226991   3.894   1.364   2.292  2.1739 -0.6492 -0.0669
 5177SOL     OW26992   1.435   2.986   4.357 -0.3788 -0.3275 -0.5227
 5177SOL    HW126993   1.481   2.945   4.284  2.0209 -0.4746  1.0631
 5177SOL    HW226994   1.355   2.933   4.358 -1.3658  1.1897  0.1115
 5178SOL     OW26995   0.237   4.358   5.809 -0.1962 -0.2129 -0.0939
 5178SOL    HW126996   0.210   4.332   5.721  1.7640 -1.8623 -0.2098
 5178SOL    HW226997   0.265   4.448   5.797 -0.6282 -0.0429  0.2016
 5179SOL     OW26998   1.691   1.813  16.227  0.0334  0.0970 -0.0118
 5179SOL    HW126999   1.770   1.866  16.234  2.1715 -3.4099  2.7156
 5179SOL    HW227000   1.663   1.832  16.138 -2.0394 -1.2911  0.3352
 5180SOL     OW27001   0.274   3.318   8.553 -0.3730 -0.5153  0.3130
 5180SOL    HW127002   0.224   3.265   8.490  1.4880  0.3910 -1.9325
 5180SOL    HW227003   0.304   3.253   8.616  1.9398 -0.5096 -0.7995
 5181SOL     OW27004   2.712   3.616   1.136  0.8618  0.2488 -0.8268
 5181SOL    HW127005   2.701   3.540   1.079  4.6235 -0.8367 -0.1090
 5181SOL    HW227006   2.798   3.597   1.174  0.3697  1.2501  0.7848
 5182SOL     OW27007   0.020   1.628   2.173  0.0162  0.4080  0.4714
 5182SOL    HW127008   0.109   1.663   2.174  1.0227 -2.1653 -0.6318
 5182SOL    HW227009   4.724   1.647   2.264  0.6895 -0.9533  0.9040
 5183SOL     OW27010   1.767   3.169  17.007 -0.9346 -0.1984 -0.1622
 5183SOL    HW127011   1.750   3.082  16.972  1.3347 -0.0786 -1.5833
 5183SOL    HW227012   1.684   3.192  17.049 -0.8322 -1.3047  0.6417
 5184SOL     OW27013   2.691   0.807   5.736 -0.2514 -0.0471  0.0225
 5184SOL    HW127014   2.663   0.816   5.827 -0.9228  0.9761 -0.2835
 5184SOL    HW227015   2.721   0.897   5.726 -1.7652  0.3947 -0.4758
 5185SOL     OW27016   3.759   1.028  10.065 -0.7043  0.3520 -0.4299
 5185SOL    HW127017   3.849   1.060  10.060 -0.5591  0.0359  0.1380
 5185SOL    HW227018   3.715   1.113  10.060 -0.7089  0.1144 -3.8463
 5186SOL     OW27019   1.125   2.687   9.743  0.0882  0.2268 -0.0106
 5186SOL    HW127020   1.156   2.778   9.743 -1.5355  0.7827  2.3017
 5186SOL    HW227021   1.031   2.695   9.759 -0.0565 -2.7704  0.5951
 5187SOL     OW27022   3.792   4.671   9.865 -0.0255 -0.4064  0.0180
 5187SOL    HW127023   3.822   0.009   9.800  2.1173 -0.3802  1.0198
 5187SOL    HW227024   3.815   4.590   9.819  0.9893 -0.0249 -0.1443
 5188SOL     OW27025   1.416   1.185   6.209  0.3650  0.0395 -0.6040
 5188SOL    HW127026   1.369   1.203   6.290  0.8554 -2.2796  0.1987
 5188SOL    HW227027   1.364   1.239   6.149  0.9007  0.1270 -0.9962
 5189SOL     OW27028   3.051   3.930   2.384  0.0667 -0.1225 -0.5480
 5189SOL    HW127029   3.023   3.879   2.308 -4.4363  1.5556 -0.0487
 5189SOL    HW227030   3.009   4.016   2.372  0.4408  0.0651 -0.4981
 5190SOL     OW27031   4.532   2.028   6.149 -0.4014  0.0714 -0.4653
 5190SOL    HW127032   4.482   2.082   6.210  0.5842 -0.1580  0.5521
 5190SOL    HW227033   4.534   1.945   6.197  0.5208 -0.4559 -1.4218
 5191SOL     OW27034   1.535   1.307   7.296  0.0567 -0.1989  0.4884
 5191SOL    HW127035   1.586   1.259   7.362  0.5822 -1.7577 -1.0452
 5191SOL    HW227036   1.533   1.389   7.345 -2.6926  1.1180 -1.9178
 5192SOL     OW27037   1.206   4.386   0.300  0.0678  0.1267  0.0041
 5192SOL    HW127038   1.192   4.463   0.244  0.7349  0.0661 -0.2480
 5192SOL    HW227039   1.302   4.387   0.302  0.0648 -0.5876  0.2783
 5193SOL     OW27040   3.285   2.230  11.675 -0.2671  0.0172 -0.4962
 5193SOL    HW127041   3.335   2.302  11.637 -0.7197  0.3120 -0.5368
 5193SOL    HW227042   3.351   2.185  11.727 -1.4895 -0.2571  0.8209
 5194SOL     OW27043   0.519   2.100  14.389  0.3427  0.6319  0.2803
 5194SOL    HW127044   0.544   2.010  14.406  0.1516  0.3583 -0.8583
 5194SOL    HW227045   0.424   2.090  14.387  0.6111 -1.5739 -0.9241
 5195SOL     OW27046   1.889   0.666   6.726  0.3280 -0.1671 -0.2584
 5195SOL    HW127047   1.844   0.642   6.807  0.0746 -1.9509 -0.9326
 5195SOL    HW227048   1.958   0.712   6.774 -0.4135  0.6674  0.0008
 5196SOL     OW27049   1.378   3.891   3.474  0.2894  0.5252 -0.9897
 5196SOL    HW127050   1.329   3.878   3.393  0.4704 -0.0727 -1.0051
 5196SOL    HW227051   1.333   3.969   3.506 -2.2221 -2.1861  2.0951
 5197SOL     OW27052   2.979   0.928   2.508  0.3146  0.3966  0.3486
 5197SOL    HW127053   3.040   0.939   2.435 -0.4205  2.6555  0.0665
 5197SOL    HW227054   3.020   0.985   2.573  0.1140  1.2540 -0.2651
 5198SOL     OW27055   0.234   2.117   9.836 -0.0283  0.0005 -0.1403
 5198SOL    HW127056   0.313   2.097   9.887  0.0441 -0.3225 -0.3796
 5198SOL    HW227057   0.180   2.038   9.838 -0.1136  0.0874  0.7720
 5199SOL     OW27058   1.461   4.519   8.101 -0.4331 -0.7079  0.6031
 5199SOL    HW127059   1.448   4.608   8.068  0.6415 -1.0567 -0.7265
 5199SOL    HW227060   1.381   4.492   8.146 -0.9792 -1.5943 -0.8727
 5200SOL     OW27061   3.508   4.030   5.264  0.3484 -0.2128 -0.0227
 5200SOL    HW127062   3.546   3.970   5.328  1.7075 -0.9728 -1.5722
 5200SOL    HW227063   3.508   3.985   5.180 -0.9917  0.5578 -0.4330
 5201SOL     OW27064   3.183   2.299   8.053  0.7242  0.3789  0.3222
 5201SOL    HW127065   3.250   2.364   8.071  0.4152  0.4438  1.1996
 5201SOL    HW227066   3.183   2.267   8.143 -1.2710  0.7470  0.4678
 5202SOL     OW27067   2.152   0.613   2.885 -0.2695 -0.4709  0.5498
 5202SOL    HW127068   2.162   0.678   2.816 -3.4723 -0.7907 -0.2169
 5202SOL    HW227069   2.093   0.555   2.836 -2.2307  2.1217 -0.1629
 5203SOL     OW27070   2.405   3.368   8.880  0.1529  0.4831 -0.1471
 5203SOL    HW127071   2.450   3.453   8.888 -1.1294  1.0740  0.8037
 5203SOL    HW227072   2.314   3.394   8.895 -0.1727  1.3145 -3.6030
 5204SOL     OW27073   3.971   2.768   8.164 -0.0130 -0.2971 -0.0922
 5204SOL    HW127074   4.025   2.740   8.238  0.2760  0.3409 -0.0585
 5204SOL    HW227075   3.916   2.691   8.151 -2.8386  1.8793 -0.9856
 5205SOL     OW27076   2.039   1.543  10.664  0.5782  0.0000 -0.3293
 5205SOL    HW127077   1.990   1.462  10.650 -2.2885  1.8532 -1.1773
 5205SOL    HW227078   2.129   1.511  10.669 -0.0235 -1.5166  0.8802
 5206SOL     OW27079   1.651   2.436   0.035 -0.0260  0.2653 -0.2511
 5206SOL    HW127080   1.609   2.352   0.055 -0.9368  0.3502 -1.8311
 5206SOL    HW227081   1.634   2.500   0.104  0.9129 -0.3903  0.5884
 5207SOL     OW27082   4.091   0.354   9.417 -0.1036 -0.2279 -0.4016
 5207SOL    HW127083   4.143   0.398   9.349  0.5632 -0.7802 -0.2528
 5207SOL    HW227084   4.033   0.428   9.434  1.8835  1.3554 -0.5094
 5208SOL     OW27085   0.907   3.893  16.025  0.3481 -0.2884  0.1746
 5208SOL    HW127086   0.856   3.964  15.987 -1.4463 -1.6512  0.0109
 5208SOL    HW227087   0.913   3.912  16.118  1.7392  0.3948 -0.0669
 5209SOL     OW27088   4.485   1.213   7.294 -0.3444 -0.1528  0.1251
 5209SOL    HW127089   4.449   1.215   7.383 -0.1231  2.2618  0.1681
 5209SOL    HW227090   4.527   1.299   7.297 -0.3185 -0.2244  2.1805
 5210SOL     OW27091   4.506   3.776  11.805  0.3139 -0.4758  0.0634
 5210SOL    HW127092   4.426   3.724  11.801 -0.8396  1.4009 -0.6794
 5210SOL    HW227093   4.495   3.824  11.887 -3.9339 -1.7455  0.2571
 5211SOL     OW27094   4.406   4.668   4.702 -0.4250  0.6385 -0.5262
 5211SOL    HW127095   4.321   4.705   4.678  0.2943  2.1890 -0.6493
 5211SOL    HW227096   4.449   0.020   4.740 -1.4571  0.6083  0.7222
 5212SOL     OW27097   0.135   4.669   1.229  0.1658 -0.0028 -0.0283
 5212SOL    HW127098   0.153   4.714   1.147 -0.6741  0.2528 -0.0653
 5212SOL    HW227099   0.062   4.724   1.255 -0.9161 -0.5735 -1.8853
 5213SOL     OW27100   4.219   0.782   9.204 -0.1243 -0.4078 -0.0027
 5213SOL    HW127101   4.210   0.852   9.268  0.6159 -1.2298  0.9871
 5213SOL    HW227102   4.130   0.748   9.203  0.8856 -3.0868  0.2180
 5214SOL     OW27103   1.346   3.726   8.681 -0.0271 -0.5094  0.1487
 5214SOL    HW127104   1.277   3.779   8.641  0.6566  0.6430  0.4940
 5214SOL    HW227105   1.395   3.707   8.601  0.1912  2.1745 -0.3425
 5215SOL     OW27106   3.664   0.317   6.743 -0.1677  0.0160  0.7877
 5215SOL    HW127107   3.569   0.318   6.730 -0.2126  0.6194  1.1703
 5215SOL    HW227108   3.680   0.411   6.744  0.8322 -0.1484 -0.0799
 5216SOL     OW27109   1.013   2.659   7.207  0.0301 -0.5341 -0.4376
 5216SOL    HW127110   1.081   2.645   7.141  1.9256  1.3428  1.1383
 5216SOL    HW227111   1.064   2.676   7.286 -2.0575  1.4114  0.4970
 5217SOL     OW27112   3.343   4.332  14.828  0.2397  0.8391 -0.3427
 5217SOL    HW127113   3.366   4.418  14.792  1.0946  1.2018  1.0929
 5217SOL    HW227114   3.288   4.354  14.903 -0.6935 -0.7767 -0.5580
 5218SOL     OW27115   3.506   2.488   1.092  0.5281 -0.2650  0.0579
 5218SOL    HW127116   3.523   2.563   1.033 -0.0510 -1.9876 -2.3073
 5218SOL    HW227117   3.516   2.418   1.027  0.0254 -0.1205 -0.1704
 5219SOL     OW27118   4.662   0.862   5.944  0.0854 -0.4511  0.1437
 5219SOL    HW127119   4.597   0.799   5.913  0.5098 -0.6821 -0.2692
 5219SOL    HW227120   4.651   0.930   5.877 -0.7145 -1.4096 -0.7032
 5220SOL     OW27121   1.112   1.100   4.779  0.3050 -0.2182  0.0932
 5220SOL    HW127122   1.057   1.059   4.847 -0.7672  0.8170 -0.1448
 5220SOL    HW227123   1.058   1.081   4.702  0.2873  0.8062 -0.1373
 5221SOL     OW27124   1.569   0.592   9.168  0.1117  0.0437 -0.0557
 5221SOL    HW127125   1.664   0.585   9.162 -0.0176 -2.5354  0.8957
 5221SOL    HW227126   1.539   0.521   9.224  0.0131 -0.4379 -0.7152
 5222SOL     OW27127   1.430   2.914   2.319  0.3458  0.0634 -0.0375
 5222SOL    HW127128   1.437   2.819   2.310  0.0529 -0.0528  0.9407
 5222SOL    HW227129   1.358   2.924   2.381  1.1217  1.2811  0.6783
 5223SOL     OW27130   1.656   2.539   5.279 -0.2894  0.3964 -0.7025
 5223SOL    HW127131   1.582   2.569   5.227 -1.3558  0.9492  1.1462
 5223SOL    HW227132   1.626   2.449   5.282 -2.5853  1.1783 -0.1502
 5224SOL     OW27133   3.816   3.716   4.266  0.2509  0.3141  0.2323
 5224SOL    HW127134   3.895   3.664   4.283  1.0374  1.6634  0.7340
 5224SOL    HW227135   3.853   3.792   4.219  2.6577 -1.0310 -0.0783
 5225SOL     OW27136   2.172   2.827  12.417 -0.3553  0.0790  0.6722
 5225SOL    HW127137   2.077   2.838  12.424 -0.6603 -0.1907 -3.3119
 5225SOL    HW227138   2.180   2.740  12.457 -1.9594  1.1368  3.2983
 5226SOL     OW27139   2.222   4.396   8.577 -0.0582  0.7940 -0.0369
 5226SOL    HW127140   2.131   4.392   8.608 -0.0048  0.6262  0.0941
 5226SOL    HW227141   2.274   4.442   8.642 -2.2117 -0.0857  2.2951
 5227SOL     OW27142   2.687   3.027   1.492 -0.7662 -0.4017 -0.2974
 5227SOL    HW127143   2.689   2.935   1.468 -1.0522 -0.9314  1.7738
 5227SOL    HW227144   2.669   3.066   1.406 -0.7761 -2.8000 -1.3829
 5228SOL     OW27145   1.744   2.239   9.037 -0.0344  0.5357  0.4582
 5228SOL    HW127146   1.652   2.213   9.048 -0.0370  1.2346  2.0224
 5228SOL    HW227147   1.772   2.155   9.002  1.2701  0.2214  2.2820
 5229SOL     OW27148   0.535   3.090   7.383  0.2900 -0.2501  0.0963
 5229SOL    HW127149   0.495   3.175   7.402 -2.5828 -1.4193 -0.6463
 5229SOL    HW227150   0.569   3.085   7.294 -0.0467 -0.9615  0.0050
 5230SOL     OW27151   1.822   1.398   1.820 -0.7160  0.0950 -0.7152
 5230SOL    HW127152   1.796   1.444   1.740  0.3382  1.4212 -0.3049
 5230SOL    HW227153   1.768   1.320   1.806  0.1240 -0.8426  1.2303
 5231SOL     OW27154   0.166   0.168  13.525 -0.7830 -0.1445 -0.3674
 5231SOL    HW127155   0.261   0.158  13.532 -0.5695  1.6547 -0.8271
 5231SOL    HW227156   0.156   0.203  13.437 -1.8440 -0.5544 -0.4151
 5232SOL     OW27157   2.796   1.991   8.799 -0.4371  0.8602 -0.7736
 5232SOL    HW127158   2.889   1.993   8.825 -0.6385  1.2533 -0.0711
 5232SOL    HW227159   2.765   1.906   8.830  1.0191  0.7420  0.3913
 5233SOL     OW27160   1.349   3.473   3.114  0.4587  0.2405  0.2346
 5233SOL    HW127161   1.301   3.451   3.034  0.4702 -1.0891  0.5846
 5233SOL    HW227162   1.329   3.565   3.127 -1.8052 -0.5364  2.2770
 5234SOL     OW27163   0.922   4.618   4.448 -0.4152  0.4634 -0.0768
 5234SOL    HW127164   0.901   4.537   4.401 -0.1780 -0.8415  2.0958
 5234SOL    HW227165   1.018   4.612   4.451 -0.5265  0.7374  3.5854
 5235SOL     OW27166   3.339   2.215   9.428 -0.5954  0.6212 -0.2586
 5235SOL    HW127167   3.250   2.185   9.408  0.2038 -1.4726 -0.6258
 5235SOL    HW227168   3.395   2.138   9.436 -0.9305  0.2619 -1.3578
 5236SOL     OW27169   1.980   3.299   4.896 -0.6752  0.0702  0.1240
 5236SOL    HW127170   1.972   3.277   4.989  2.1119  0.1937  0.4183
 5236SOL    HW227171   1.923   3.238   4.850 -0.0792 -0.2462 -0.1877
 5237SOL     OW27172   1.272   1.046  13.661  0.6004 -0.5376  0.2274
 5237SOL    HW127173   1.260   1.113  13.594 -1.1762 -0.8227  0.2623
 5237SOL    HW227174   1.366   1.028  13.662  0.3350 -2.0053 -0.0193
 5238SOL     OW27175   2.132   2.810   7.526  0.0113  0.5257 -0.1303
 5238SOL    HW127176   2.042   2.778   7.518 -0.3631  1.5393 -0.0183
 5238SOL    HW227177   2.113   2.888   7.579 -0.0514  1.5619 -1.6601
 5239SOL     OW27178   3.994   3.380  17.468  0.0385  0.8884  0.0266
 5239SOL    HW127179   3.911   3.429  17.470 -0.0819  0.6977 -0.2320
 5239SOL    HW227180   3.982   3.325  17.391  0.7092  0.8226 -0.0221
 5240SOL     OW27181   2.728   4.165   2.409 -0.7936 -0.5730  0.5355
 5240SOL    HW127182   2.736   4.103   2.482 -0.3284 -0.9734  0.1365
 5240SOL    HW227183   2.645   4.209   2.429 -0.3352  0.1994  0.7416
 5241SOL     OW27184   1.885   3.572  10.201 -0.0783 -0.5607 -0.1418
 5241SOL    HW127185   1.849   3.495  10.244 -1.3585 -0.7142 -1.5033
 5241SOL    HW227186   1.816   3.637  10.217 -2.0072 -2.2001 -1.7756
 5242SOL     OW27187   3.397   0.224   7.470  0.3634  0.1006  0.9493
 5242SOL    HW127188   3.420   0.152   7.411 -1.0413  0.2011  0.2763
 5242SOL    HW227189   3.474   0.281   7.468  0.1558  0.3134 -1.0885
 5243SOL     OW27190   0.132   3.795   4.114  0.2395 -0.1587  0.2886
 5243SOL    HW127191   0.210   3.740   4.106  0.0558 -0.4355  0.4176
 5243SOL    HW227192   0.139   3.815   4.207 -0.0856  0.4528  0.1773
 5244SOL     OW27193   2.204   0.390   8.220 -0.1179 -0.4272  0.4470
 5244SOL    HW127194   2.225   0.334   8.145 -0.9740  1.5953 -1.2951
 5244SOL    HW227195   2.123   0.435   8.196  0.1945 -0.0242  0.1625
 5245SOL     OW27196   2.560   0.832   3.096 -0.0848  0.1830 -0.0472
 5245SOL    HW127197   2.478   0.793   3.129  1.2562 -0.6094  2.3220
 5245SOL    HW227198   2.628   0.772   3.126  1.7231  2.5005  0.4950
 5246SOL     OW27199   2.528   0.681   3.559 -0.6827 -0.0187  0.1846
 5246SOL    HW127200   2.588   0.645   3.624  0.6848 -0.4496 -1.3119
 5246SOL    HW227201   2.537   0.619   3.487 -1.7973  0.0978 -0.0529
 5247SOL     OW27202   1.049   4.208   2.660 -0.1130  0.0535  0.5758
 5247SOL    HW127203   1.071   4.246   2.575 -0.8406 -1.5719 -0.3392
 5247SOL    HW227204   0.967   4.161   2.643 -0.9023  1.4150  0.5598
 5248SOL     OW27205   2.703   4.610   5.092  0.0933 -0.8435 -0.2563
 5248SOL    HW127206   2.636   4.623   5.158  0.6854  2.1063 -0.2148
 5248SOL    HW227207   2.777   4.605   5.153 -0.0093  4.3782  0.2915
 5249SOL     OW27208   2.124   2.776  10.874  0.1547 -0.6277 -0.0586
 5249SOL    HW127209   2.077   2.828  10.809  3.2481  1.6677 -0.4471
 5249SOL    HW227210   2.136   2.839  10.944 -0.3789 -1.3293  0.6676
 5250SOL     OW27211   2.030   0.703  12.611  0.2841  0.3225  0.1862
 5250SOL    HW127212   2.068   0.744  12.689  0.1983  1.5949 -0.4456
 5250SOL    HW227213   2.080   0.742  12.540  2.0341  1.8316  2.2423
 5251SOL     OW27214   1.265   2.392  14.603  0.0983 -0.2165 -0.1758
 5251SOL    HW127215   1.196   2.459  14.603 -0.9624 -1.3117  0.6071
 5251SOL    HW227216   1.331   2.421  14.666  0.8730  1.3571 -1.7147
 5252SOL     OW27217   3.371   1.815   1.959 -0.1658 -0.2938 -0.1746
 5252SOL    HW127218   3.287   1.845   1.994 -0.2614  0.6388 -1.2040
 5252SOL    HW227219   3.417   1.794   2.040 -0.1914 -0.4624 -0.2047
 5253SOL     OW27220   4.556   4.309   5.830 -0.2965 -0.1889  0.7659
 5253SOL    HW127221   4.611   4.329   5.905 -1.1423  2.8233  0.5874
 5253SOL    HW227222   4.472   4.331   5.870 -0.6893  0.2283 -0.2792
 5254SOL     OW27223   2.849   3.323   6.123  0.3376 -0.2609 -0.4862
 5254SOL    HW127224   2.931   3.290   6.159  0.9726  1.0668 -0.7081
 5254SOL    HW227225   2.806   3.357   6.201 -0.5066 -1.2945 -0.4999
 5255SOL     OW27226   3.886   1.416   5.975 -0.2047  0.3560  0.0221
 5255SOL    HW127227   3.937   1.408   6.056  0.2133 -1.1671 -0.3914
 5255SOL    HW227228   3.958   1.442   5.919 -0.4984  0.0029 -0.5179
 5256SOL     OW27229   0.517   0.851   6.696 -0.0802  0.6272 -0.6746
 5256SOL    HW127230   0.604   0.888   6.709 -0.5615  1.0524  1.2568
 5256SOL    HW227231   0.455   0.907   6.743  0.3566  0.5300  0.0081
 5257SOL     OW27232   1.355   1.788   9.770 -0.1574 -0.0617  0.2571
 5257SOL    HW127233   1.443   1.819   9.794 -0.5978 -0.8949  2.9207
 5257SOL    HW227234   1.324   1.743   9.848 -4.5818  1.1614 -0.8160
 5258SOL     OW27235   3.375   3.533  17.680  0.5318 -0.0635 -0.0118
 5258SOL    HW127236   3.423   3.601  17.633  0.6086 -0.2488 -0.2006
 5258SOL    HW227237   3.437   3.520   0.051  0.5098 -0.1452 -0.0083
 5259SOL     OW27238   0.463   1.589   5.122  0.0334  0.0880  0.0359
 5259SOL    HW127239   0.410   1.599   5.201 -0.0968  1.0536 -0.1772
 5259SOL    HW227240   0.436   1.670   5.080  0.5000  0.0887 -0.2574
 5260SOL     OW27241   0.575   1.522   5.705  0.1091 -0.2941 -0.4148
 5260SOL    HW127242   0.579   1.615   5.685  0.0056 -0.1921  0.0459
 5260SOL    HW227243   0.612   1.498   5.620 -1.5729  0.5347 -1.3679
 5261SOL     OW27244   0.481   0.559   5.388 -0.2228  0.0370  0.5847
 5261SOL    HW127245   0.466   0.560   5.293  0.0892 -1.9706  0.5278
 5261SOL    HW227246   0.418   0.631   5.396 -2.0781 -1.6010  0.5145
 5262SOL     OW27247   0.872   4.502   4.681 -0.1492 -0.5888  0.3640
 5262SOL    HW127248   0.877   4.566   4.610 -3.6384 -2.4469 -1.5687
 5262SOL    HW227249   0.868   4.561   4.756 -2.4656 -0.2215 -0.0642
 5263SOL     OW27250   0.619   2.862   2.380 -0.9838  0.2332  0.0180
 5263SOL    HW127251   0.646   2.804   2.309  0.7290 -1.4886  2.0960
 5263SOL    HW227252   0.598   2.939   2.326  2.0385  0.8104 -0.3151
 5264SOL     OW27253   4.239   2.249   4.429  0.6920  0.1022 -0.3752
 5264SOL    HW127254   4.216   2.333   4.389  2.5689  0.9557  0.3494
 5264SOL    HW227255   4.329   2.258   4.460  0.7152 -0.1045 -0.3868
 5265SOL     OW27256   4.702   0.062   7.048 -0.5640 -0.2871 -0.4093
 5265SOL    HW127257   0.023   0.140   7.018  1.3676 -1.4690 -0.5235
 5265SOL    HW227258   0.051   0.019   7.091 -0.2383  1.3388  0.6509
 5266SOL     OW27259   2.667   0.344   1.769  0.1084 -0.5460  0.2354
 5266SOL    HW127260   2.682   0.266   1.715 -1.0570  0.7973 -2.0333
 5266SOL    HW227261   2.572   0.341   1.761 -0.0568  0.7324  1.9110
 5267SOL     OW27262   2.883   4.379   2.432  0.1985 -0.0778  0.6614
 5267SOL    HW127263   2.955   4.327   2.397  0.3580 -0.7986  2.0494
 5267SOL    HW227264   2.813   4.320   2.406  1.0457 -1.7454  2.1727
 5268SOL     OW27265   4.403   2.050  13.973 -0.0734 -0.1793 -0.2006
 5268SOL    HW127266   4.314   2.026  13.947  0.0302 -2.2233  1.3586
 5268SOL    HW227267   4.407   2.027  14.065  2.0961 -2.4369 -0.8418
 5269SOL     OW27268   4.139   0.628  11.807 -0.3271  0.5185  0.3134
 5269SOL    HW127269   4.044   0.643  11.802 -0.5179 -1.1804 -1.3176
 5269SOL    HW227270   4.163   0.653  11.718 -2.3942  0.1526 -0.3516
 5270SOL     OW27271   2.972   1.807   8.510  0.1634 -0.1468  0.7952
 5270SOL    HW127272   2.954   1.746   8.439 -0.2359 -0.9140  1.5447
 5270SOL    HW227273   2.895   1.863   8.508 -0.2350 -0.7535 -0.7117
 5271SOL     OW27274   2.225   3.680  15.527  0.0070 -0.1571 -0.0617
 5271SOL    HW127275   2.153   3.634  15.570  0.9287 -0.8461  0.7409
 5271SOL    HW227276   2.200   3.767  15.498 -1.3882 -0.7976 -0.7441
 5272SOL     OW27277   3.494   4.165   2.810 -0.1350 -0.0949  0.4388
 5272SOL    HW127278   3.527   4.255   2.810 -0.8914  0.1757 -2.2540
 5272SOL    HW227279   3.498   4.150   2.904  2.0549 -0.8572  0.2103
 5273SOL     OW27280   1.289   0.539   3.512 -0.0205  0.2658 -0.2209
 5273SOL    HW127281   1.321   0.585   3.434 -3.5477 -0.8198 -2.3262
 5273SOL    HW227282   1.201   0.519   3.479 -0.3548  0.6132  0.4576
 5274SOL     OW27283   1.118   3.819   8.437 -0.6207  0.0836  0.0384
 5274SOL    HW127284   1.070   3.901   8.427 -2.4369 -0.5449  3.4198
 5274SOL    HW227285   1.198   3.848   8.393 -0.3785  0.8740  0.9903
 5275SOL     OW27286   3.824   2.586   3.635 -0.1262  0.2132 -0.3042
 5275SOL    HW127287   3.872   2.505   3.653 -0.8632 -0.2902 -0.6035
 5275SOL    HW227288   3.854   2.642   3.706  1.0363  1.3512 -1.7000
 5276SOL     OW27289   1.672   2.225   5.465 -0.3453 -0.2097 -0.0726
 5276SOL    HW127290   1.747   2.211   5.407 -3.0386 -0.2391 -3.4988
 5276SOL    HW227291   1.601   2.180   5.420  0.9554 -1.0550 -1.2909
 5277SOL     OW27292   2.228   2.091   3.113  0.0155 -0.0656 -0.2090
 5277SOL    HW127293   2.250   2.184   3.115  1.0153 -0.3212  1.4289
 5277SOL    HW227294   2.296   2.062   3.053 -0.8318 -1.2553 -0.5901
 5278SOL     OW27295   2.229   3.819   1.990 -0.0533  0.0444 -0.1280
 5278SOL    HW127296   2.175   3.746   1.960  0.6514  0.7907 -3.2775
 5278SOL    HW227297   2.208   3.892   1.932  0.4058  0.2483 -0.0397
 5279SOL     OW27298   0.497   1.653   6.675  0.0852 -0.2141  0.0783
 5279SOL    HW127299   0.580   1.646   6.723 -1.0093 -0.7995  1.8993
 5279SOL    HW227300   0.484   1.748   6.677 -1.3992 -0.4643  1.9462
 5280SOL     OW27301   4.085   2.132   4.898  0.0197 -0.2438 -0.2774
 5280SOL    HW127302   4.061   2.201   4.960 -0.7025 -0.3783 -0.4095
 5280SOL    HW227303   4.074   2.051   4.948 -1.1690  1.4116  2.1042
 5281SOL     OW27304   0.032   1.846   1.889 -0.1873  0.3453  0.2516
 5281SOL    HW127305   0.127   1.830   1.893  0.0834  1.6856 -0.7107
 5281SOL    HW227306   0.016   1.765   1.840  2.1534 -0.0666  0.1718
 5282SOL     OW27307   2.943   0.151   2.272 -0.6068 -0.1328 -0.5386
 5282SOL    HW127308   3.026   0.117   2.305 -0.1233 -1.7712 -3.4843
 5282SOL    HW227309   2.891   0.174   2.349 -1.6610  1.7465 -1.8191
 5283SOL     OW27310   1.957   1.313  12.638  0.1028 -0.2526  0.8048
 5283SOL    HW127311   1.919   1.348  12.557  0.0415  0.6863  1.2371
 5283SOL    HW227312   2.044   1.354  12.636 -0.5547  1.0977 -0.2382
 5284SOL     OW27313   3.693   2.582  13.411  0.8323  0.2301  0.1614
 5284SOL    HW127314   3.757   2.578  13.483  0.8048 -0.2305  0.1581
 5284SOL    HW227315   3.613   2.537  13.435  1.5257 -0.1205  1.8405
 5285SOL     OW27316   4.200   4.202   4.216 -0.5315 -0.0304  0.0038
 5285SOL    HW127317   4.292   4.189   4.194  0.6399  1.8304  3.7039
 5285SOL    HW227318   4.204   4.226   4.309 -1.6244 -0.9115  0.2873
 5286SOL     OW27319   1.472   3.738   8.056 -0.2539  0.2575 -0.1618
 5286SOL    HW127320   1.398   3.699   8.009  0.5446 -1.2747 -0.1352
 5286SOL    HW227321   1.425   3.782   8.127  0.8232  0.4972  0.3984
 5287SOL     OW27322   4.276   4.516  12.401  0.2425  0.0437  0.1244
 5287SOL    HW127323   4.366   4.491  12.378  1.0375  1.4753  1.6010
 5287SOL    HW227324   4.245   4.556  12.320 -0.1257 -1.6268 -0.5600
 5288SOL     OW27325   1.983   0.018  13.200  0.1527  0.5961  0.5008
 5288SOL    HW127326   2.058   0.053  13.153  2.1222 -1.2349  2.3096
 5288SOL    HW227327   1.986   0.075  13.277 -1.0397  1.0315  0.2329
 5289SOL     OW27328   0.810   1.713   7.765  0.2655 -0.0269 -0.0581
 5289SOL    HW127329   0.872   1.707   7.838 -0.3691  0.6301  0.5368
 5289SOL    HW227330   0.732   1.714   7.820  0.6353 -0.4665  0.4753
 5290SOL     OW27331   0.457   2.574   3.318  0.3820  0.5768 -0.2977
 5290SOL    HW127332   0.383   2.602   3.264 -0.9200  0.5022  1.4210
 5290SOL    HW227333   0.416   2.511   3.377  0.9210 -1.8032 -2.5106
 5291SOL     OW27334   3.064   4.515   7.769 -0.1821  0.0347  0.4102
 5291SOL    HW127335   3.030   4.426   7.773 -0.6580  0.1588 -0.8433
 5291SOL    HW227336   3.030   4.556   7.689  1.1604  3.0339  1.3476
 5292SOL     OW27337   4.261   0.506   5.953 -0.1595 -0.1186 -0.0495
 5292SOL    HW127338   4.197   0.482   5.885 -1.5925 -1.2454  1.7067
 5292SOL    HW227339   4.285   0.425   5.997  0.4031  0.6699  1.1016
 5293SOL     OW27340   1.176   3.818   6.700 -0.8102 -0.7237 -0.0032
 5293SOL    HW127341   1.115   3.835   6.771 -0.0986  0.4190  0.3190
 5293SOL    HW227342   1.132   3.862   6.627  2.6142  1.9855 -0.4058
 5294SOL     OW27343   2.636   4.016  16.192 -0.2994  0.4730  0.1589
 5294SOL    HW127344   2.711   4.022  16.251 -0.3091  2.1409  0.0142
 5294SOL    HW227345   2.665   4.064  16.115  0.8510  2.3800  1.7722
 5295SOL     OW27346   0.693   1.666   5.236 -0.2731  0.1924 -0.3147
 5295SOL    HW127347   0.695   1.648   5.329  2.1801 -1.0059 -0.5895
 5295SOL    HW227348   0.611   1.623   5.212 -0.0711 -1.0095  1.1791
 5296SOL     OW27349   1.277   0.780   2.186  0.0938 -0.6747  0.4796
 5296SOL    HW127350   1.187   0.752   2.201 -0.2092 -0.1697 -0.4183
 5296SOL    HW227351   1.273   0.823   2.101 -0.2836  0.1490  0.9066
 5297SOL     OW27352   4.490   4.290   7.093  0.1912 -0.1951  0.2396
 5297SOL    HW127353   4.581   4.265   7.080 -0.0626 -2.8085  3.5604
 5297SOL    HW227354   4.447   4.206   7.081  1.6583 -0.9772  0.4796
 5298SOL     OW27355   4.688   1.844   3.612 -0.3455  0.7061  0.6153
 5298SOL    HW127356   4.714   1.900   3.539 -1.0652  0.4674  0.1759
 5298SOL    HW227357   0.039   1.847   3.670  0.2963  0.1028 -0.1867
 5299SOL     OW27358   1.488   3.771  11.654  0.1667  0.6755  0.0259
 5299SOL    HW127359   1.409   3.812  11.689  0.5092  1.5651 -0.2391
 5299SOL    HW227360   1.553   3.833  11.687 -0.9449  1.7155  0.2576
 5300SOL     OW27361   4.569   3.923  16.722  0.3825 -0.3938  0.5930
 5300SOL    HW127362   4.630   3.989  16.690 -0.9199  0.7353  0.4429
 5300SOL    HW227363   4.611   3.839  16.702  1.9551  0.3229  0.9117
 5301SOL     OW27364   2.195   1.001   6.583 -0.4631 -0.5667  0.2022
 5301SOL    HW127365   2.119   1.029   6.634 -0.9161  0.6336 -1.1349
 5301SOL    HW227366   2.251   0.976   6.657 -1.5407 -0.9371  0.8972
 5302SOL     OW27367   2.726   4.001   2.623  0.0736  0.1592 -0.0840
 5302SOL    HW127368   2.811   4.000   2.669 -0.9974  1.5714  1.9197
 5302SOL    HW227369   2.673   3.962   2.693 -0.3371  0.6572 -0.1170
 5303SOL     OW27370   1.647   1.422   3.888 -0.0052  0.2838 -0.4037
 5303SOL    HW127371   1.733   1.384   3.904  0.7483  2.1586  0.0202
 5303SOL    HW227372   1.661   1.441   3.796  0.6473  0.0773 -0.3448
 5304SOL     OW27373   2.256   4.099   1.583  0.1071  0.2756  0.2011
 5304SOL    HW127374   2.270   4.006   1.562  1.5611  0.0037  2.3326
 5304SOL    HW227375   2.298   4.116   1.667 -1.5522  2.2908  0.6079
 5305SOL     OW27376   3.809   2.746   0.555 -0.3845  0.3094 -0.0735
 5305SOL    HW127377   3.736   2.705   0.600  1.6111 -1.1862  1.7957
 5305SOL    HW227378   3.820   2.832   0.595 -1.6686 -0.0557  1.0554
 5306SOL     OW27379   3.751   3.632   6.277 -0.0105  0.2221  0.3618
 5306SOL    HW127380   3.776   3.549   6.235 -0.7073 -0.4106  1.2072
 5306SOL    HW227381   3.703   3.599   6.353 -1.1044  1.8235  0.3654
 5307SOL     OW27382   4.428   4.652  11.554  0.3586  0.0711  0.0946
 5307SOL    HW127383   4.442   4.560  11.578 -1.7109 -0.6573 -1.5348
 5307SOL    HW227384   4.333   4.647  11.549  0.3245 -1.4582  2.4490
 5308SOL     OW27385   0.903   2.685  10.412  0.3974 -0.2359 -0.5431
 5308SOL    HW127386   0.868   2.600  10.385  2.7481 -1.6086  0.7606
 5308SOL    HW227387   0.825   2.717  10.456  0.2115 -1.8005  0.2457
 5309SOL     OW27388   1.866   4.029   2.752  0.3995 -0.1492  0.1579
 5309SOL    HW127389   1.805   3.956   2.755  1.0883 -0.7028  0.6859
 5309SOL    HW227390   1.951   3.987   2.766  0.0221 -1.8638 -2.7452
 5310SOL     OW27391   3.137   1.083  14.877 -0.4994 -0.4227 -0.6315
 5310SOL    HW127392   3.224   1.114  14.902 -1.3937 -0.3358  2.3231
 5310SOL    HW227393   3.154   1.019  14.807 -0.4989 -1.5920  0.4460
 5311SOL     OW27394   2.232   3.893   2.246 -0.2247 -0.1438 -0.3368
 5311SOL    HW127395   2.307   3.949   2.227 -0.3200 -0.7396 -2.5312
 5311SOL    HW227396   2.201   3.886   2.156 -1.2096 -0.6015  0.0402
 5312SOL     OW27397   1.917   0.236   7.310 -0.1542  0.0894 -0.1100
 5312SOL    HW127398   1.880   0.148   7.319 -0.8798  0.3860 -0.1921
 5312SOL    HW227399   2.002   0.227   7.353  0.6850  0.3744 -1.7254
 5313SOL     OW27400   4.336   3.915   0.461  0.6628  0.5981  0.0243
 5313SOL    HW127401   4.279   3.899   0.386 -0.1977 -1.3636  1.1086
 5313SOL    HW227402   4.417   3.952   0.425 -0.3532  0.8538 -2.0185
 5314SOL     OW27403   3.816   3.170  17.061 -0.3877  0.4235 -0.6232
 5314SOL    HW127404   3.748   3.223  17.020 -0.7005  0.2272 -0.3460
 5314SOL    HW227405   3.882   3.188  16.994  1.7098 -0.9043  1.0740
 5315SOL     OW27406   1.523   1.650   3.977 -0.0698  0.2606 -0.2985
 5315SOL    HW127407   1.583   1.661   4.051 -0.6777 -0.6366  0.3369
 5315SOL    HW227408   1.572   1.595   3.916  1.6978  1.3982  0.1213
 5316SOL     OW27409   2.181   2.680  11.432  0.1914 -0.4430  0.1407
 5316SOL    HW127410   2.139   2.694  11.347 -0.7789 -1.4930  0.4462
 5316SOL    HW227411   2.196   2.771  11.454  0.8532 -0.3633 -0.6129
 5317SOL     OW27412   2.245   1.272   1.946 -0.0303  0.1471 -0.0208
 5317SOL    HW127413   2.327   1.262   1.994  0.8048  1.9370 -1.0588
 5317SOL    HW227414   2.283   1.301   1.862  0.5758 -1.4008 -0.2823
 5318SOL     OW27415   1.501   3.611   5.097  0.4561  0.1069 -0.3820
 5318SOL    HW127416   1.553   3.667   5.154  0.1534  0.2359 -0.2326
 5318SOL    HW227417   1.558   3.580   5.027  2.0050 -1.6227  1.6321
 5319SOL     OW27418   4.148   4.656  11.910 -0.2917 -0.1376 -0.8332
 5319SOL    HW127419   4.188   0.012  11.880  0.1043  0.8116  2.2860
 5319SOL    HW227420   4.128   4.620  11.823 -3.2353  3.3250 -1.5597
 5320SOL     OW27421   2.196   1.269  10.059 -0.2167  0.0569  0.5944
 5320SOL    HW127422   2.273   1.308  10.018  0.7676 -1.2409  1.1776
 5320SOL    HW227423   2.144   1.349  10.068 -2.6504 -1.6017  1.3341
 5321SOL     OW27424   0.927   3.065   8.566  0.3766 -0.2392 -0.1616
 5321SOL    HW127425   0.840   3.025   8.556 -0.2911  0.8476  1.2455
 5321SOL    HW227426   0.900   3.153   8.594 -1.9271 -1.0676  0.2905
 5322SOL     OW27427   0.610   2.240   8.944 -0.6351 -0.1602  0.2272
 5322SOL    HW127428   0.681   2.237   8.880  1.3701  0.8755  2.3946
 5322SOL    HW227429   0.565   2.160   8.916 -0.0314  0.7113 -3.2147
 5323SOL     OW27430   1.194   1.943   3.065 -0.2512  0.1775  0.3292
 5323SOL    HW127431   1.132   1.871   3.081 -0.9069  0.9410  1.1853
 5323SOL    HW227432   1.159   2.015   3.014 -1.5073 -0.5278  0.1915
 5324SOL     OW27433   1.673   3.009   6.544  0.2987 -0.0110  0.1494
 5324SOL    HW127434   1.696   2.979   6.456  2.9237 -0.3987  0.9904
 5324SOL    HW227435   1.690   2.930   6.594 -0.0801 -0.3969 -0.3355
 5325SOL     OW27436   3.852   2.666  15.698 -0.4223 -0.1849 -0.0686
 5325SOL    HW127437   3.824   2.738  15.755 -0.6130 -0.3695  0.0717
 5325SOL    HW227438   3.940   2.701  15.688 -1.5652  1.7616 -3.2923
 5326SOL     OW27439   0.017   2.626  11.170 -0.1113 -0.6626 -0.7904
 5326SOL    HW127440   0.106   2.605  11.198 -1.6063  0.9143  5.1609
 5326SOL    HW227441   0.028   2.624  11.075  1.7428  1.5179 -0.6387
 5327SOL     OW27442   4.053   3.406  10.524 -0.3490  0.4656  0.3686
 5327SOL    HW127443   4.134   3.434  10.566 -0.0577 -1.5845  1.1578
 5327SOL    HW227444   3.997   3.366  10.590  1.4038 -2.5345  0.0345
 5328SOL     OW27445   4.170   3.601   8.465 -0.3975 -0.1497  0.3175
 5328SOL    HW127446   4.099   3.553   8.424 -0.1484  0.8430 -1.2886
 5328SOL    HW227447   4.160   3.589   8.559  0.7800 -0.0257  0.4597
 5329SOL     OW27448   1.223   3.574   8.279 -1.0186 -0.6301  0.9648
 5329SOL    HW127449   1.224   3.533   8.366 -1.0487  1.2010  1.8400
 5329SOL    HW227450   1.136   3.614   8.274  0.2792  1.8371 -1.2180
 5330SOL     OW27451   2.851   1.329   4.166  0.0360 -0.0942  0.0179
 5330SOL    HW127452   2.855   1.299   4.256  0.0430 -1.1165 -0.3276
 5330SOL    HW227453   2.860   1.249   4.114 -0.9161 -1.0560  1.3494
 5331SOL     OW27454   3.489   1.174   3.440  0.4564 -0.3157  0.5750
 5331SOL    HW127455   3.509   1.249   3.496  0.6162 -2.0770  2.8936
 5331SOL    HW227456   3.578   1.137   3.441  0.2805 -0.7488  0.1168
 5332SOL     OW27457   0.159   2.116   2.624  0.2057 -0.0004  0.2047
 5332SOL    HW127458   0.079   2.076   2.590 -0.4950  2.7216 -1.2996
 5332SOL    HW227459   0.142   2.126   2.718  0.2454  0.7881  0.1234
 5333SOL     OW27460   1.182   4.088   6.070  0.3014 -0.2922  0.0319
 5333SOL    HW127461   1.227   4.129   6.144  1.0072  0.5022 -0.8329
 5333SOL    HW227462   1.097   4.131   6.073 -0.1078 -1.1168  0.2902
 5334SOL     OW27463   1.597   3.602  15.170 -0.2497 -0.9329 -0.0968
 5334SOL    HW127464   1.510   3.580  15.204 -2.3767  1.4924 -4.0923
 5334SOL    HW227465   1.654   3.613  15.246  0.3421 -1.4341 -0.4733
 5335SOL     OW27466   0.185   3.749   4.709 -0.5735 -0.0410 -0.3871
 5335SOL    HW127467   0.225   3.675   4.756 -0.8515  0.9710  1.4413
 5335SOL    HW227468   0.091   3.742   4.723 -0.3814  1.5986  1.7628
 5336SOL     OW27469   3.902   2.736  14.448  0.3678 -0.0394 -0.1034
 5336SOL    HW127470   3.905   2.805  14.381 -0.6438 -1.4476 -1.5911
 5336SOL    HW227471   3.941   2.661  14.402  2.0990  1.0390 -0.4157
 5337SOL     OW27472   2.435   0.512   8.606 -0.4241  0.1089 -0.8731
 5337SOL    HW127473   2.503   0.461   8.562 -2.2533 -1.5721 -1.7398
 5337SOL    HW227474   2.401   0.563   8.532  0.0766  3.4827  1.2008
 5338SOL     OW27475   1.082   1.910  14.942  0.1461 -0.2414 -0.4042
 5338SOL    HW127476   1.089   1.848  15.014  0.7709  1.2711  0.8221
 5338SOL    HW227477   1.156   1.882  14.887  0.8407 -0.7266  0.7647
 5339SOL     OW27478   0.518   4.292   6.893 -0.2557 -0.2908 -0.3452
 5339SOL    HW127479   0.457   4.360   6.864  2.0691  2.3152  0.8977
 5339SOL    HW227480   0.573   4.289   6.815  0.0223  1.0319 -0.1992
 5340SOL     OW27481   4.624   0.758  12.504 -0.0534 -0.9635 -0.7951
 5340SOL    HW127482   4.700   0.709  12.535  0.5088 -1.7386 -3.4023
 5340SOL    HW227483   4.675   0.829  12.465  1.1495 -0.7231  1.2359
 5341SOL     OW27484   2.763   2.206   6.590 -0.2894  0.4322  0.0143
 5341SOL    HW127485   2.671   2.195   6.615 -0.0353  0.2160  0.8743
 5341SOL    HW227486   2.747   2.263   6.515  0.2980  0.2541 -0.2492
 5342SOL     OW27487   1.893   1.562  12.120  0.0292  0.0278  0.1372
 5342SOL    HW127488   1.937   1.612  12.051 -1.5704  1.4958  0.1760
 5342SOL    HW227489   1.865   1.636  12.174 -0.9127 -0.3623  0.1799
 5343SOL     OW27490   2.705   3.179  10.167  0.1749  0.0030  0.3671
 5343SOL    HW127491   2.763   3.217  10.233 -0.5501  2.8637 -0.6420
 5343SOL    HW227492   2.755   3.200  10.087 -1.8362 -0.0426 -0.8886
 5344SOL     OW27493   3.471   1.308   0.444 -0.1886 -0.1255  0.2245
 5344SOL    HW127494   3.496   1.342   0.359  3.7900 -1.0798  0.9873
 5344SOL    HW227495   3.405   1.242   0.425  1.0670 -1.8215  1.6011
 5345SOL     OW27496   0.216   0.577  13.172  0.3345  0.4390 -0.0617
 5345SOL    HW127497   0.139   0.593  13.118  0.6072 -1.2761 -0.9857
 5345SOL    HW227498   0.250   0.491  13.147  3.1695  1.8858 -1.1908
 5346SOL     OW27499   2.755   0.411  11.156  0.3470  0.3043 -0.4689
 5346SOL    HW127500   2.766   0.377  11.067  0.7799 -0.2682 -0.1954
 5346SOL    HW227501   2.718   0.494  11.126 -0.6864 -0.0976 -0.3153
 5347SOL     OW27502   0.301   0.814   5.061  0.0773  0.0790  0.0898
 5347SOL    HW127503   0.214   0.785   5.087 -0.0948  1.9495  1.6041
 5347SOL    HW227504   0.279   0.904   5.038 -4.1978 -1.0454 -0.2366
 5348SOL     OW27505   1.197   0.370   2.270 -0.1824  0.3673  0.2887
 5348SOL    HW127506   1.259   0.430   2.229 -0.2727 -0.9602 -1.7503
 5348SOL    HW227507   1.117   0.415   2.242  0.2818  1.1264  0.1748
 5349SOL     OW27508   0.902   1.320   2.462  0.3310 -0.5113  0.2774
 5349SOL    HW127509   0.848   1.243   2.444 -0.3163 -0.1448  0.6584
 5349SOL    HW227510   0.881   1.380   2.391  0.6877 -1.3459 -0.5290
 5350SOL     OW27511   3.389   3.369   3.796  0.3133  0.2148  0.0343
 5350SOL    HW127512   3.353   3.456   3.777  2.1967  0.3444 -3.0301
 5350SOL    HW227513   3.324   3.315   3.752  0.9802 -0.8789  0.4110
 5351SOL     OW27514   1.967   0.081   6.347  0.3935 -0.7385  0.5860
 5351SOL    HW127515   1.940   0.137   6.419  0.9208  0.5703 -0.2498
 5351SOL    HW227516   1.938   4.718   6.372  2.3063 -1.3994  0.4312
 5352SOL     OW27517   3.488   2.232  12.068  0.0233 -0.4802 -0.2929
 5352SOL    HW127518   3.399   2.247  12.100  1.0346  2.5936  1.0610
 5352SOL    HW227519   3.472   2.172  11.995  1.0472 -0.7618 -0.2808
 5353SOL     OW27520   3.381   1.325  15.239  0.1141 -0.4457 -0.4641
 5353SOL    HW127521   3.328   1.356  15.313  1.6379  0.1759  0.3624
 5353SOL    HW227522   3.441   1.399  15.237 -0.7766  0.3376  1.2977
 5354SOL     OW27523   3.337   3.550   7.232  0.2067  0.5649 -0.4598
 5354SOL    HW127524   3.402   3.491   7.270  0.0818  0.8105  0.1208
 5354SOL    HW227525   3.253   3.508   7.252  1.4270 -1.1839  0.9715
 5355SOL     OW27526   1.082   0.552   5.987  1.0053  0.0336  0.2248
 5355SOL    HW127527   1.011   0.613   6.005  1.3943  0.6508 -0.3436
 5355SOL    HW227528   1.140   0.580   6.057 -0.1666 -0.2703  1.3117
 5356SOL     OW27529   0.101   2.058  10.903 -0.2690 -0.0955  0.0301
 5356SOL    HW127530   0.138   1.979  10.942  2.4613  0.0854 -2.2073
 5356SOL    HW227531   0.024   2.059  10.960 -0.0201 -1.0335  0.3795
 5357SOL     OW27532   1.608   0.485   1.101  0.3270  0.0451  0.0678
 5357SOL    HW127533   1.570   0.513   1.184  1.8594  0.3529  0.6740
 5357SOL    HW227534   1.659   0.562   1.077 -0.8256  0.7762 -0.0072
 5358SOL     OW27535   4.118   0.962   5.146  0.3687 -0.0818  0.0110
 5358SOL    HW127536   4.206   0.943   5.179 -0.2931 -0.3850  1.5782
 5358SOL    HW227537   4.138   0.952   5.053  1.5736 -2.1103  0.5080
 5359SOL     OW27538   1.323   3.218   2.558 -0.0056  0.3771  0.1393
 5359SOL    HW127539   1.259   3.271   2.511 -2.4803 -1.5831  1.3035
 5359SOL    HW227540   1.293   3.131   2.532  0.7348 -0.2126  1.2306
 5360SOL     OW27541   3.356   1.247   6.788  0.2319  0.1210 -0.0408
 5360SOL    HW127542   3.416   1.279   6.856  0.6519 -1.4953  0.3529
 5360SOL    HW227543   3.306   1.184   6.839  0.0192  0.0978 -0.2784
 5361SOL     OW27544   4.230   0.453   7.636  0.6665  0.0007 -0.0356
 5361SOL    HW127545   4.239   0.428   7.544  0.5422 -2.0184  0.4989
 5361SOL    HW227546   4.146   0.412   7.658  0.7507  0.2172  0.7115
 5362SOL     OW27547   1.452   4.518   2.132  0.2506 -0.1061  0.1357
 5362SOL    HW127548   1.359   4.536   2.143 -0.2736 -2.1639 -0.9218
 5362SOL    HW227549   1.441   4.432   2.093 -2.8350  1.4043 -2.3118
 5363SOL     OW27550   2.990   4.239   3.807  0.2885  0.2901 -0.7105
 5363SOL    HW127551   2.901   4.271   3.794 -0.1026 -1.5538 -2.5253
 5363SOL    HW227552   3.040   4.319   3.790  1.4099 -0.7909 -2.5318
 5364SOL     OW27553   3.442   3.226   0.170 -0.0562 -0.3163  0.2405
 5364SOL    HW127554   3.423   3.287   0.098 -1.3053 -0.8210  0.1416
 5364SOL    HW227555   3.487   3.279   0.235  0.5013  1.1464 -1.3282
 5365SOL     OW27556   1.286   3.198  10.058  0.1281 -0.3698  0.3450
 5365SOL    HW127557   1.302   3.104  10.054 -0.5698 -0.5230  1.0585
 5365SOL    HW227558   1.261   3.205  10.150 -1.0135 -0.3022  0.0366
 5366SOL     OW27559   1.328   1.135   2.158 -0.1235 -0.5527  0.1342
 5366SOL    HW127560   1.350   1.190   2.083 -0.5891 -1.7206 -0.8501
 5366SOL    HW227561   1.309   1.053   2.112 -3.0116 -0.0712  0.4449
 5367SOL     OW27562   1.989   3.850  15.747  0.5223 -0.1313 -0.1518
 5367SOL    HW127563   1.942   3.771  15.719  0.8856 -0.8276  1.2004
 5367SOL    HW227564   2.022   3.872  15.659 -1.6003 -0.5906 -1.0553
 5368SOL     OW27565   0.640   1.047   9.316  0.1931 -0.0305 -0.0549
 5368SOL    HW127566   0.720   1.091   9.342 -1.1055  1.0445  2.0767
 5368SOL    HW227567   0.600   1.114   9.260  0.6344  0.0453 -0.2738
 5369SOL     OW27568   2.466   0.362  10.282 -0.2150  0.0278 -0.0850
 5369SOL    HW127569   2.521   0.397  10.351  0.5028 -0.3969 -0.4470
 5369SOL    HW227570   2.429   0.287  10.329 -0.2547  0.1922  0.1454
 5370SOL     OW27571   2.737   0.866  10.322 -0.1761 -0.2131  0.3938
 5370SOL    HW127572   2.798   0.909  10.382  0.1609 -0.0442 -0.0756
 5370SOL    HW227573   2.661   0.869  10.379 -0.5869 -1.1334 -0.1119
 5371SOL     OW27574   1.361   1.162   4.110 -0.0016  0.3260 -0.0236
 5371SOL    HW127575   1.396   1.251   4.115 -1.0495  0.7704 -0.5948
 5371SOL    HW227576   1.399   1.139   4.025 -0.9835 -3.1578  0.4761
 5372SOL     OW27577   3.930   0.110   7.447  0.3419  0.3389  0.1871
 5372SOL    HW127578   3.873   0.104   7.371  0.8935  0.4112 -0.2280
 5372SOL    HW227579   3.916   0.030   7.498  1.5218  1.2240  1.9132
 5373SOL     OW27580   2.010   0.947   4.813  0.2341  0.0323 -1.0031
 5373SOL    HW127581   2.040   1.009   4.879 -2.2173  0.6455 -0.4403
 5373SOL    HW227582   1.914   0.942   4.818  0.1973  2.2244  0.6297
 5374SOL     OW27583   0.993   0.982   0.584 -0.8868 -0.1603 -0.7646
 5374SOL    HW127584   0.985   1.031   0.666 -3.2498  1.8278 -2.1565
 5374SOL    HW227585   0.954   1.045   0.523 -0.1901  0.9861 -0.0260
 5375SOL     OW27586   2.324   3.602   2.862  0.0267  0.1446  0.0876
 5375SOL    HW127587   2.269   3.568   2.792 -0.0712 -2.0914  1.2442
 5375SOL    HW227588   2.413   3.592   2.828 -0.3348 -2.6070 -0.0402
 5376SOL     OW27589   2.768   3.581  12.359 -0.0947 -0.2551 -0.1049
 5376SOL    HW127590   2.862   3.595  12.373 -0.5483  3.7173 -0.9466
 5376SOL    HW227591   2.765   3.489  12.331  0.4578 -0.0509 -0.8282
 5377SOL     OW27592   1.474   1.610   0.122  0.0818  0.0384 -0.1244
 5377SOL    HW127593   1.528   1.673   0.170 -1.3002  1.5855 -0.5764
 5377SOL    HW227594   1.388   1.629   0.160  0.4559 -1.1356  1.3129
 5378SOL     OW27595   0.545   0.564   5.702  0.1544 -0.5834 -0.0558
 5378SOL    HW127596   0.527   0.598   5.614  0.6155  0.0368  0.0943
 5378SOL    HW227597   0.467   0.509   5.708  0.3493 -1.0620 -1.8468
 5379SOL     OW27598   3.579   3.445  11.208  0.3780  0.2501  0.9338
 5379SOL    HW127599   3.646   3.377  11.195 -0.4702 -0.4035 -0.0406
 5379SOL    HW227600   3.594   3.513  11.143 -0.5016 -0.7646 -0.3238
 5380SOL     OW27601   2.455   4.380   3.879 -0.2857  0.4691 -0.2953
 5380SOL    HW127602   2.537   4.411   3.842  0.3375 -1.6306 -0.6954
 5380SOL    HW227603   2.413   4.459   3.911 -2.2680 -0.0438 -1.6059
 5381SOL     OW27604   0.615   4.681   7.444 -0.1726  0.4275 -0.7982
 5381SOL    HW127605   0.538   4.623   7.448  1.5920 -1.9126 -0.5619
 5381SOL    HW227606   0.676   4.641   7.505  2.3057  4.5224 -0.6190
 5382SOL     OW27607   1.892   0.268   1.026  0.1263  0.3475  0.0086
 5382SOL    HW127608   1.956   0.199   1.013  1.1774  1.1996  0.6057
 5382SOL    HW227609   1.810   0.219   1.014  0.0933  0.8935 -2.0020
 5383SOL     OW27610   2.523   0.304   7.410  0.3600  0.4823 -0.0511
 5383SOL    HW127611   2.439   0.263   7.429  1.4617 -0.9803  1.6576
 5383SOL    HW227612   2.502   0.396   7.427  0.1469  0.1885  1.2303
 5384SOL     OW27613   4.669   3.546   0.857 -0.1738  0.3649 -0.1921
 5384SOL    HW127614   4.601   3.514   0.916  0.3958 -0.0810  0.2213
 5384SOL    HW227615   4.712   3.607   0.916  0.6851 -0.0724 -0.3699
 5385SOL     OW27616   2.192   2.830  13.113 -0.2890  0.0471  0.4052
 5385SOL    HW127617   2.180   2.746  13.068  1.4352  0.7270 -1.3015
 5385SOL    HW227618   2.229   2.878  13.039 -1.0089 -0.5403 -0.3289
 5386SOL     OW27619   0.482   1.149   2.191 -0.0218 -0.7133 -0.1365
 5386SOL    HW127620   0.540   1.216   2.156  0.3377 -0.7007  0.4875
 5386SOL    HW227621   0.447   1.202   2.262  1.3348 -0.0197  0.0075
 5387SOL     OW27622   3.630   1.261   8.787  0.3203  0.0698 -0.0241
 5387SOL    HW127623   3.691   1.244   8.715 -1.5462 -0.4820 -1.4890
 5387SOL    HW227624   3.665   1.335   8.837 -1.6472  1.4941 -0.7592
 5388SOL     OW27625   1.023   2.552   3.098 -0.0486  0.7993  0.1699
 5388SOL    HW127626   1.099   2.538   3.041 -1.0332  2.6010 -1.5687
 5388SOL    HW227627   0.997   2.641   3.074  0.8283  0.7862 -0.8503
 5389SOL     OW27628   3.343   1.459   9.094 -0.5498  0.1329  0.4383
 5389SOL    HW127629   3.361   1.539   9.044 -1.8220 -0.2326 -0.6035
 5389SOL    HW227630   3.317   1.497   9.178 -0.4310  0.6378  0.2457
 5390SOL     OW27631   2.361   1.071  15.412 -0.5256 -0.2105  0.1410
 5390SOL    HW127632   2.358   1.121  15.494 -0.6516 -1.2500  0.7814
 5390SOL    HW227633   2.318   1.125  15.346 -2.0632 -0.0065  1.3072
 5391SOL     OW27634   1.029   2.955   9.613 -0.6120 -0.0361  0.2533
 5391SOL    HW127635   1.116   2.973   9.649  0.6031 -3.0682 -1.1487
 5391SOL    HW227636   0.977   2.978   9.690  1.3499 -1.7673  2.0801
 5392SOL     OW27637   4.463   1.742   0.530 -0.2596 -0.5669 -0.3535
 5392SOL    HW127638   4.530   1.758   0.464  1.3415  0.4956  1.5388
 5392SOL    HW227639   4.476   1.648   0.539  0.5118 -0.3554  0.8269
 5393SOL     OW27640   4.559   2.813  14.701  0.1455 -0.1537  0.2542
 5393SOL    HW127641   4.591   2.902  14.688  1.8844 -0.9524 -0.8711
 5393SOL    HW227642   4.558   2.802  14.796 -0.0236  1.4983  0.4484
 5394SOL     OW27643   4.235   4.499   9.055 -0.0096 -0.3246 -0.0294
 5394SOL    HW127644   4.253   4.405   9.052 -0.6191 -0.3757 -2.0206
 5394SOL    HW227645   4.147   4.494   9.094  1.0471  1.2426  2.5876
 5395SOL     OW27646   2.912   2.172   8.598  0.2998 -0.4260 -0.3209
 5395SOL    HW127647   2.947   2.190   8.685  0.8840 -1.3829 -0.3632
 5395SOL    HW227648   2.820   2.169   8.622 -0.2126  1.3950 -1.9922
 5396SOL     OW27649   4.147   3.484   6.402 -0.0973  0.6792  0.3666
 5396SOL    HW127650   4.153   3.477   6.497  0.1787  0.4425  0.3283
 5396SOL    HW227651   4.157   3.579   6.403 -0.2319  0.7043 -1.8587
 5397SOL     OW27652   1.608   1.195   2.877 -0.1975  0.5743 -0.7755
 5397SOL    HW127653   1.695   1.232   2.891  0.7338 -1.2776 -1.6090
 5397SOL    HW227654   1.566   1.227   2.957  0.0877 -3.0657  0.8468
 5398SOL     OW27655   2.058   1.787   5.838  0.4486 -0.1857 -0.2462
 5398SOL    HW127656   2.093   1.817   5.922 -0.8307 -0.1405  0.2612
 5398SOL    HW227657   2.035   1.871   5.799 -1.9234 -1.7000 -2.0511
 5399SOL     OW27658   2.594   1.623  14.778 -0.1506  0.3260  0.2804
 5399SOL    HW127659   2.679   1.579  14.766 -1.0563 -0.8189 -1.8302
 5399SOL    HW227660   2.624   1.705  14.818  0.4231 -0.2265  0.9812
 5400SOL     OW27661   1.884   1.318   5.540  1.0500 -0.0447 -0.2598
 5400SOL    HW127662   1.803   1.342   5.495 -0.1388 -0.9978  1.3781
 5400SOL    HW227663   1.845   1.265   5.609 -1.6219 -2.0058 -3.2887
 5401SOL     OW27664   3.325   2.847   8.096  0.2064 -0.0249  0.3825
 5401SOL    HW127665   3.409   2.831   8.139 -0.0732  0.0687  0.9695
 5401SOL    HW227666   3.280   2.882   8.174 -0.2660 -1.0361  0.5706
 5402SOL     OW27667   2.628   1.423   6.265 -0.7138  0.0360  0.5562
 5402SOL    HW127668   2.559   1.391   6.322  1.0057 -1.5039  1.7806
 5402SOL    HW227669   2.692   1.454   6.329 -0.6458 -2.7153  1.8261
 5403SOL     OW27670   1.843   1.258   3.936 -0.2526  0.1295 -0.2531
 5403SOL    HW127671   1.916   1.226   3.884 -0.1035  2.8157 -1.7191
 5403SOL    HW227672   1.824   1.174   3.978  0.1946  0.3786  0.4490
 5404SOL     OW27673   4.233   3.835   8.311 -0.0441  0.0333  0.6181
 5404SOL    HW127674   4.180   3.834   8.231  0.9991  1.6752 -0.1054
 5404SOL    HW227675   4.225   3.759   8.368 -2.2529  0.6305  1.1003
 5405SOL     OW27676   2.416   0.375   5.871  0.1393  0.5937 -0.0253
 5405SOL    HW127677   2.501   0.399   5.833 -0.3702  0.0866 -1.4956
 5405SOL    HW227678   2.362   0.454   5.862  0.8251  1.3261  2.4241
 5406SOL     OW27679   3.317   1.206   8.388  0.1817 -0.1099  0.8672
 5406SOL    HW127680   3.324   1.248   8.473  0.9027  0.8641  0.3322
 5406SOL    HW227681   3.404   1.231   8.356  0.9570 -2.3872  1.1561
 5407SOL     OW27682   0.445   2.738   2.104 -0.3930 -0.5898 -0.7716
 5407SOL    HW127683   0.399   2.755   2.186  1.5793 -3.1945  0.9035
 5407SOL    HW227684   0.532   2.718   2.139 -0.2044  0.7377 -0.4884
 5408SOL     OW27685   1.065   3.348   6.264 -0.5009 -0.1957  0.1207
 5408SOL    HW127686   1.082   3.303   6.181  1.3960  0.8035 -0.0341
 5408SOL    HW227687   0.972   3.371   6.264 -0.8762 -1.7151  0.9641
 5409SOL     OW27688   2.229   2.795   3.603  0.6097  0.3226  0.3002
 5409SOL    HW127689   2.306   2.761   3.648  0.4228 -2.0252 -1.1655
 5409SOL    HW227690   2.281   2.834   3.532  1.2423  0.1014  0.6421
 5410SOL     OW27691   2.568   1.241   2.695 -0.1399 -0.0774 -0.4801
 5410SOL    HW127692   2.630   1.201   2.756  0.0103  0.4646 -0.2812
 5410SOL    HW227693   2.509   1.282   2.758  1.3997  0.2533  0.7404
 5411SOL     OW27694   3.539   0.502   5.860  0.1945  0.2455 -0.4130
 5411SOL    HW127695   3.492   0.567   5.912  0.0324  1.0220 -1.5322
 5411SOL    HW227696   3.470   0.483   5.796 -0.9199  1.4994  0.4081
 5412SOL     OW27697   1.905   2.032   7.300 -0.0089 -0.0609  0.1112
 5412SOL    HW127698   1.942   1.998   7.381  0.6251  1.6998  0.5572
 5412SOL    HW227699   1.967   2.103   7.282  0.5257 -0.4331  0.4667
 5413SOL     OW27700   1.776   3.932   9.091 -0.0382  0.0558 -0.2954
 5413SOL    HW127701   1.866   3.935   9.057 -0.1281 -0.0305 -0.5420
 5413SOL    HW227702   1.744   4.022   9.092  1.2053  0.5071 -0.9715
 5414SOL     OW27703   4.041   3.505  16.737 -0.1804 -0.1290  1.0743
 5414SOL    HW127704   4.050   3.595  16.766 -0.1815 -0.3281  1.6905
 5414SOL    HW227705   4.040   3.515  16.642 -0.9139  0.9851  1.1980
 5415SOL     OW27706   3.320   1.610   5.818 -0.0088  0.0895  0.1084
 5415SOL    HW127707   3.289   1.696   5.791  1.1519 -0.5582 -3.4370
 5415SOL    HW227708   3.275   1.600   5.901  0.0530  3.5705  0.5444
 5416SOL     OW27709   3.712   1.903   1.911 -0.1057 -0.0146 -0.2589
 5416SOL    HW127710   3.668   1.822   1.935 -0.2879 -0.1898 -1.2059
 5416SOL    HW227711   3.774   1.918   1.983  0.0422 -0.7922 -0.2307
 5417SOL     OW27712   2.320   1.121  14.387  0.1711 -0.2622 -0.6323
 5417SOL    HW127713   2.243   1.176  14.401  1.4558  1.2165  0.5366
 5417SOL    HW227714   2.387   1.184  14.412  0.6864 -0.9540 -0.2617
 5418SOL     OW27715   2.134   1.880   6.059 -0.0483  0.1355 -0.0953
 5418SOL    HW127716   2.055   1.873   6.112 -0.0551 -0.3460 -0.1705
 5418SOL    HW227717   2.188   1.943   6.108  0.2933 -0.0515 -0.2350
 5419SOL     OW27718   4.103   2.935   6.689 -0.4838  0.4658 -0.6559
 5419SOL    HW127719   4.146   2.894   6.614  0.6653  0.7700 -0.1607
 5419SOL    HW227720   4.183   2.954   6.738 -0.9985 -1.0873  0.7648
 5420SOL     OW27721   4.180   2.491   8.578 -0.4114 -0.5199  0.4619
 5420SOL    HW127722   4.139   2.471   8.662 -0.1815 -0.1085  0.6688
 5420SOL    HW227723   4.234   2.413   8.566  0.4096  0.0617  0.3889
 5421SOL     OW27724   2.926   0.635  13.102  0.4805  0.1730  0.0531
 5421SOL    HW127725   3.021   0.633  13.097  0.4838 -0.8255  0.4986
 5421SOL    HW227726   2.905   0.689  13.179 -2.8837 -0.0302 -0.7122
 5422SOL     OW27727   2.654   3.825   5.447  0.3992  0.2622 -0.2996
 5422SOL    HW127728   2.648   3.820   5.352  0.0338  2.7587 -0.3923
 5422SOL    HW227729   2.745   3.797   5.462  0.1084 -0.9401 -0.7601
 5423SOL     OW27730   0.190   1.795   9.025 -0.2436  0.2592  0.5489
 5423SOL    HW127731   0.144   1.743   9.092  0.0090 -0.1553  0.4035
 5423SOL    HW227732   0.179   1.885   9.055  0.0440 -0.0259  1.4952
 5424SOL     OW27733   1.845   3.500   9.350 -0.1404 -0.2194 -0.1864
 5424SOL    HW127734   1.772   3.439   9.341 -2.0499  1.7925  1.7254
 5424SOL    HW227735   1.919   3.456   9.394  0.7592  1.0193 -0.4630
 5425SOL     OW27736   4.280   1.245   5.340  0.1577  0.8354  0.3461
 5425SOL    HW127737   4.342   1.177   5.316  1.9136  2.7720 -0.6533
 5425SOL    HW227738   4.340   1.319   5.328  0.6921  0.5250  1.1648
 5426SOL     OW27739   0.369   0.266  14.055  0.1547  0.5466 -0.3225
 5426SOL    HW127740   0.348   0.288  14.145 -0.2086 -0.6770 -0.0976
 5426SOL    HW227741   0.298   0.202  14.045  0.4871  0.2652 -0.8852
 5427SOL     OW27742   4.725   0.391  14.650  0.0213 -0.0675  0.1350
 5427SOL    HW127743   4.699   0.454  14.583  0.8860 -0.6649 -0.7541
 5427SOL    HW227744   0.094   0.383  14.639 -0.0753  1.5973 -1.8402
 5428SOL     OW27745   0.354   1.137   4.818  0.1749 -0.3152  0.0068
 5428SOL    HW127746   0.437   1.138   4.771  0.0039 -0.8195 -0.3113
 5428SOL    HW227747   0.350   1.223   4.860  2.0565  0.2460 -0.9463
 5429SOL     OW27748   2.093   3.809   5.333  0.4570 -0.1566 -0.2934
 5429SOL    HW127749   2.186   3.831   5.326  0.4830  0.3149  1.4697
 5429SOL    HW227750   2.081   3.797   5.427  2.0914 -0.2373 -0.0963
 5430SOL     OW27751   2.646   1.861   7.951  0.4036  0.3010  0.1641
 5430SOL    HW127752   2.653   1.926   8.021  1.4949  2.4733 -1.9662
 5430SOL    HW227753   2.697   1.787   7.984 -1.6628 -0.7756  0.9797
 5431SOL     OW27754   3.603   1.515   6.790  0.0110  0.5564  0.4495
 5431SOL    HW127755   3.667   1.583   6.769  1.4909 -0.7573  0.6941
 5431SOL    HW227756   3.529   1.559   6.747 -0.6799 -0.8585  0.2114
 5432SOL     OW27757   0.010   0.007   4.724  0.2591  0.1604 -0.4639
 5432SOL    HW127758   0.035   4.644   4.752  1.9706  0.2035 -1.8198
 5432SOL    HW227759   0.003   0.003   4.629  0.7374 -4.3010 -0.3116
 5433SOL     OW27760   1.387   3.979   8.846  0.3413  0.3684 -0.7538
 5433SOL    HW127761   1.370   4.070   8.824  0.7577  0.6406  0.0362
 5433SOL    HW227762   1.463   3.953   8.795  1.2012 -0.4435  0.9241
 5434SOL     OW27763   4.048   2.734   2.011 -0.1799  0.3742  0.1086
 5434SOL    HW127764   4.106   2.661   2.031 -1.3092 -1.1070 -2.0041
 5434SOL    HW227765   3.960   2.696   2.007  0.0304 -0.1393  0.3501
 5435SOL     OW27766   2.874   2.046   1.965 -0.5265  0.2913 -0.7983
 5435SOL    HW127767   2.901   2.122   1.914 -0.1849  1.3968  1.0176
 5435SOL    HW227768   2.786   2.039   1.928 -1.3848 -0.4889  1.3989
 5436SOL     OW27769   3.176   4.459   1.565 -0.4690 -0.3005 -0.8406
 5436SOL    HW127770   3.224   4.410   1.499  2.7925  2.2163 -0.3184
 5436SOL    HW227771   3.217   4.442   1.649 -0.0209 -0.2526 -1.0502
 5437SOL     OW27772   0.008   0.506   0.619  0.2007 -0.0396  0.2745
 5437SOL    HW127773   0.018   0.437   0.685 -0.4974  0.0077  0.4284
 5437SOL    HW227774   4.651   0.536   0.659  0.4964  1.4537 -0.2560
 5438SOL     OW27775   0.648   3.036   8.490 -0.7465  0.7679  0.4018
 5438SOL    HW127776   0.595   3.056   8.413 -0.2849  2.0901  0.4208
 5438SOL    HW227777   0.634   3.123   8.528 -1.9419  0.7443  0.0011
 5439SOL     OW27778   2.355   2.675   3.808  0.2200  0.0818 -0.0435
 5439SOL    HW127779   2.276   2.661   3.860  0.7407 -1.6968  0.2810
 5439SOL    HW227780   2.366   2.768   3.825 -1.0405 -0.1406  2.0393
 5440SOL     OW27781   4.193   2.995   2.297  0.3832 -0.0204  0.0256
 5440SOL    HW127782   4.271   2.941   2.314 -1.7210 -2.2703  2.6422
 5440SOL    HW227783   4.155   2.963   2.215 -0.0593 -3.4467  1.5575
 5441SOL     OW27784   4.154   0.193   1.661 -0.2833  0.0354  0.1692
 5441SOL    HW127785   4.220   0.262   1.653 -0.4209  0.0561 -0.7325
 5441SOL    HW227786   4.128   0.187   1.569 -1.8059 -0.7791  0.6478
 5442SOL     OW27787   3.103   3.638   4.922 -0.3894 -0.0096 -0.9374
 5442SOL    HW127788   3.042   3.575   4.884 -0.3098 -0.5251 -0.2046
 5442SOL    HW227789   3.056   3.666   5.001  1.0203  0.9223 -0.4181
 5443SOL     OW27790   4.148   3.549   2.842  0.6047 -0.2194  0.3001
 5443SOL    HW127791   4.089   3.551   2.917  0.6177  0.6804  0.2853
 5443SOL    HW227792   4.140   3.463   2.800 -1.2715  0.2049 -0.2462
 5444SOL     OW27793   1.511   2.293   4.289 -0.2333  0.9770  0.1020
 5444SOL    HW127794   1.557   2.348   4.353 -1.1896 -2.2888  3.5890
 5444SOL    HW227795   1.552   2.209   4.308  0.9471  2.2459  3.1859
 5445SOL     OW27796   1.602   0.568  17.317  0.1875  0.4164 -0.2590
 5445SOL    HW127797   1.598   0.653  17.274 -1.4159  0.5150  0.0989
 5445SOL    HW227798   1.530   0.526  17.269 -0.1869 -0.2269  0.8629
 5446SOL     OW27799   4.680   1.200   7.857 -0.1313  0.0734  0.0737
 5446SOL    HW127800   4.610   1.263   7.841 -0.7588 -0.1560  1.9495
 5446SOL    HW227801   0.030   1.258   7.860 -0.4073  0.3867  0.8254
 5447SOL     OW27802   1.578   3.959   0.438  0.4689 -0.3782  0.8234
 5447SOL    HW127803   1.500   3.916   0.402  0.6806 -0.3170  0.2949
 5447SOL    HW227804   1.610   3.890   0.496 -0.5747 -0.6437  1.0952
 5448SOL     OW27805   0.344   2.905   8.873 -0.3435 -0.1362 -0.0436
 5448SOL    HW127806   0.281   2.860   8.818  1.4730 -1.3660 -1.1319
 5448SOL    HW227807   0.428   2.886   8.830  1.4200  1.3683  2.7181
 5449SOL     OW27808   0.857   2.196  10.641 -0.4679 -0.3499  0.0644
 5449SOL    HW127809   0.907   2.259  10.590  0.0187  0.0579  1.0344
 5449SOL    HW227810   0.916   2.196  10.716 -0.2011  3.6404 -0.1701
 5450SOL     OW27811   2.808   1.071   8.730 -0.0493  0.3009  0.0671
 5450SOL    HW127812   2.762   1.019   8.796  2.5010  0.1065  1.6672
 5450SOL    HW227813   2.821   1.002   8.666 -1.2367 -1.0338  1.2674
 5451SOL     OW27814   1.977   1.211   2.607  0.4793  0.1757  0.0173
 5451SOL    HW127815   1.960   1.284   2.667  2.3408  1.2868 -0.7881
 5451SOL    HW227816   1.926   1.239   2.531  0.4950  0.1937  0.0133
 5452SOL     OW27817   4.693   0.911   1.939  0.4023  0.6331  0.2264
 5452SOL    HW127818   0.027   0.863   1.880  0.8531  2.5413 -0.8707
 5452SOL    HW227819   0.023   0.889   2.014  0.1289  1.0691  0.5563
 5453SOL     OW27820   4.441   3.327   8.349 -1.0806  0.5035  0.2425
 5453SOL    HW127821   4.420   3.408   8.304  0.4355  0.2768 -0.8967
 5453SOL    HW227822   4.439   3.355   8.440 -0.8974 -1.7411  0.9517
 5454SOL     OW27823   3.072   1.126   2.992  0.1695 -0.9142 -0.0029
 5454SOL    HW127824   3.022   1.048   3.018  0.9543 -0.8132  1.8324
 5454SOL    HW227825   3.073   1.189   3.064 -0.5189 -0.1732 -0.6416
 5455SOL     OW27826   3.642   1.823  13.881  0.2551 -0.1710  0.4935
 5455SOL    HW127827   3.547   1.820  13.876  0.1401  0.7062  1.9634
 5455SOL    HW227828   3.665   1.904  13.837 -1.8065  0.2764  0.2311
 5456SOL     OW27829   4.585   1.589   7.061 -0.0766  0.3377 -0.1820
 5456SOL    HW127830   4.608   1.534   6.986  2.2320  0.4903  0.4154
 5456SOL    HW227831   4.675   1.602   7.089  0.4479 -1.0927 -1.1848
 5457SOL     OW27832   2.429   4.369  16.229  0.4499  0.7234  0.1661
 5457SOL    HW127833   2.403   4.382  16.320  0.6353 -0.1017  0.3338
 5457SOL    HW227834   2.445   4.275  16.224  3.3112  1.2090 -0.0922
 5458SOL     OW27835   4.426   2.143   7.143  0.2464 -0.5515  0.3472
 5458SOL    HW127836   4.421   2.174   7.052 -0.4589  1.2460  0.9971
 5458SOL    HW227837   4.515   2.109   7.149  0.1103 -1.4767 -2.8459
 5459SOL     OW27838   4.048   2.591   5.961  0.0293  0.6312  0.1868
 5459SOL    HW127839   4.095   2.663   6.003 -0.7399  1.5529 -0.5338
 5459SOL    HW227840   3.979   2.646   5.924 -0.4954  0.0078  0.2191
 5460SOL     OW27841   2.039   3.248   5.847  1.1133  0.1185 -0.1673
 5460SOL    HW127842   2.099   3.318   5.873  0.7470  1.2192 -2.2407
 5460SOL    HW227843   2.107   3.188   5.818  0.2292 -1.1615  0.4362
 5461SOL     OW27844   0.852   4.072  14.727 -0.1507 -0.3986 -0.0812
 5461SOL    HW127845   0.897   4.114  14.654  0.0461  1.7604  1.2560
 5461SOL    HW227846   0.837   3.987  14.686  0.1514 -1.9789  3.0175
 5462SOL     OW27847   1.594   0.942  11.741  0.4419  0.0212 -0.3295
 5462SOL    HW127848   1.598   1.034  11.767 -1.4866  0.3690 -1.2225
 5462SOL    HW227849   1.679   0.909  11.768  1.0943  0.1166 -2.3250
 5463SOL     OW27850   1.040   2.703   4.596 -0.0116  0.3611  0.0808
 5463SOL    HW127851   1.062   2.626   4.648 -3.2795 -1.0695 -0.6904
 5463SOL    HW227852   0.958   2.672   4.559 -0.1756  0.8062  0.0727
 5464SOL     OW27853   2.690   0.169   8.632 -0.1336  0.4931  0.6589
 5464SOL    HW127854   2.752   0.224   8.680  1.3275 -1.0899  0.6133
 5464SOL    HW227855   2.726   0.190   8.546 -2.8993  3.9379  0.3707
 5465SOL     OW27856   3.090   3.141   4.941 -0.3152 -0.4764 -0.3705
 5465SOL    HW127857   2.995   3.144   4.947 -0.1864 -0.0889  1.5638
 5465SOL    HW227858   3.102   3.175   5.029 -1.9919 -1.6354  0.2989
 5466SOL     OW27859   2.389   3.275  10.265  0.3036 -0.4819  0.6672
 5466SOL    HW127860   2.368   3.330  10.340 -0.9345 -1.9864  1.4248
 5466SOL    HW227861   2.382   3.339  10.194  0.3974 -0.8743  0.3051
 5467SOL     OW27862   2.310   4.358   8.297  0.0870 -0.5638 -0.4561
 5467SOL    HW127863   2.258   4.431   8.262  1.9790  0.2338 -1.5949
 5467SOL    HW227864   2.301   4.371   8.391  0.0402  1.9159 -0.8105
 5468SOL     OW27865   1.981   3.530   8.571  0.2778 -0.2477 -0.4113
 5468SOL    HW127866   1.890   3.536   8.602  1.7600 -1.2333  4.1220
 5468SOL    HW227867   2.012   3.614   8.605 -0.1134 -0.0789 -0.4688
 5469SOL     OW27868   2.316   1.651   8.967 -0.5661 -0.2448  0.1345
 5469SOL    HW127869   2.339   1.620   8.880 -1.3764  0.4465 -0.3301
 5469SOL    HW227870   2.225   1.621   8.973 -0.1373 -1.5047  0.3507
 5470SOL     OW27871   0.051   4.434   8.584 -0.2219 -0.0582  0.2042
 5470SOL    HW127872   4.692   4.428   8.630 -0.1760  0.2787  0.3275
 5470SOL    HW227873   0.096   4.386   8.654 -0.4004 -0.5140  0.0106
 5471SOL     OW27874   3.296   1.903  10.823  0.1218  0.1845 -0.1273
 5471SOL    HW127875   3.358   1.971  10.797  0.6221 -0.2252 -0.0196
 5471SOL    HW227876   3.216   1.939  10.784 -0.8309 -1.2520  0.4814
 5472SOL     OW27877   1.352   2.513   5.868  0.0103 -0.5830  0.2761
 5472SOL    HW127878   1.396   2.449   5.812 -0.4389 -0.4186 -0.2559
 5472SOL    HW227879   1.429   2.549   5.913 -1.3560  1.5506  0.9150
 5473SOL     OW27880   4.168   3.426   3.981  0.5672  0.1254 -0.3964
 5473SOL    HW127881   4.109   3.350   3.973  0.2458  0.1035  2.0358
 5473SOL    HW227882   4.240   3.409   3.921  0.7137  2.9047 -0.9919
 5474SOL     OW27883   1.702   2.152   3.593 -0.3415 -0.2105 -0.7463
 5474SOL    HW127884   1.698   2.214   3.521 -1.3879  1.0841  0.4147
 5474SOL    HW227885   1.779   2.103   3.566  0.0659  0.4396 -0.7510
 5475SOL     OW27886   4.016   0.139   5.741 -0.3099 -0.5293 -0.0445
 5475SOL    HW127887   4.020   0.051   5.780  2.4262 -0.4936 -0.2972
 5475SOL    HW227888   4.103   0.139   5.702  0.0895  1.8665  0.8789
 5476SOL     OW27889   0.606   4.244   4.306  0.2902 -0.2639  0.6710
 5476SOL    HW127890   0.547   4.286   4.244  0.6696  0.3295  0.7019
 5476SOL    HW227891   0.566   4.158   4.314 -0.0803 -0.2696 -1.2764
 5477SOL     OW27892   1.753   0.409   5.542  0.1771  0.3196 -0.0648
 5477SOL    HW127893   1.751   0.379   5.633  0.0931 -0.1712 -0.2282
 5477SOL    HW227894   1.739   0.504   5.538 -1.5977  0.0631 -0.1937
 5478SOL     OW27895   3.350   1.838   1.192 -0.5098 -0.4997  0.0885
 5478SOL    HW127896   3.362   1.807   1.103 -2.5711 -1.2506  0.0616
 5478SOL    HW227897   3.319   1.760   1.239  1.4859 -0.7240  1.0166
 5479SOL     OW27898   4.077   1.495  17.385  0.0063 -0.2425  0.0385
 5479SOL    HW127899   4.116   1.422  17.337  0.3136 -1.7312  2.5661
 5479SOL    HW227900   3.985   1.470  17.389 -0.8725  2.8255 -0.8548
 5480SOL     OW27901   1.402   2.459   8.448  0.5868 -0.3689  0.2122
 5480SOL    HW127902   1.474   2.411   8.487 -1.2275 -2.2632  1.2275
 5480SOL    HW227903   1.326   2.438   8.502  0.8370 -0.1537  0.6515
 5481SOL     OW27904   2.800   1.140   8.394 -0.4224 -0.6105 -0.1443
 5481SOL    HW127905   2.840   1.119   8.478 -0.7529  1.3676  0.4914
 5481SOL    HW227906   2.836   1.070   8.339  2.5444  0.6853  0.1674
 5482SOL     OW27907   4.237   0.453  15.885  0.1885  0.3822  0.4284
 5482SOL    HW127908   4.153   0.488  15.915 -0.1264  0.5767 -0.6681
 5482SOL    HW227909   4.196   0.384  15.832  0.7659  1.1659 -1.0434
 5483SOL     OW27910   4.579   4.456   6.337 -0.3269  0.1155  0.7866
 5483SOL    HW127911   4.561   4.417   6.422  2.0181 -0.4951  0.9853
 5483SOL    HW227912   4.534   4.540   6.346  0.8852  1.0251 -1.6646
 5484SOL     OW27913   2.767   2.837   2.310  0.1491 -0.1212  0.0969
 5484SOL    HW127914   2.703   2.804   2.247  0.8968  1.3319 -1.4114
 5484SOL    HW227915   2.837   2.860   2.249  0.6620 -2.4979 -0.1909
 5485SOL     OW27916   0.658   3.479   3.151 -0.7045 -0.1151 -0.0387
 5485SOL    HW127917   0.656   3.482   3.246 -2.3868  2.9225 -0.1733
 5485SOL    HW227918   0.648   3.388   3.122 -1.0661  0.3516 -1.3808
 5486SOL     OW27919   1.000   0.113  12.313 -0.0513 -0.1769 -0.0001
 5486SOL    HW127920   1.069   0.178  12.316 -1.6563  1.6091 -2.4801
 5486SOL    HW227921   0.947   0.149  12.242 -0.6168  0.1763  0.5948
 5487SOL     OW27922   1.569   1.472   6.154  0.3088 -0.1564 -0.0012
 5487SOL    HW127923   1.571   1.392   6.101  0.5526 -0.4495  0.4475
 5487SOL    HW227924   1.664   1.481   6.165  0.4278 -1.9821  0.4217
 5488SOL     OW27925   3.737   1.195   5.926  0.2648 -0.1066  0.1131
 5488SOL    HW127926   3.699   1.197   6.014  1.5405  0.3634  0.6501
 5488SOL    HW227927   3.791   1.274   5.921  0.6322 -0.3846 -0.2544
 5489SOL     OW27928   3.641   2.670   4.249  1.0260  0.3154  0.2630
 5489SOL    HW127929   3.731   2.642   4.232  2.0401  1.5056  3.7432
 5489SOL    HW227930   3.610   2.593   4.297  0.6724  0.7469  0.7139
 5490SOL     OW27931   0.087   0.052   3.660 -0.1238 -0.7140 -0.3828
 5490SOL    HW127932   0.072   0.062   3.566 -0.1554 -0.9751 -0.4054
 5490SOL    HW227933   0.055   0.135   3.696  2.9929 -0.2558  1.3182
 5491SOL     OW27934   1.188   2.476   4.714  0.6267 -0.1576 -0.4828
 5491SOL    HW127935   1.157   2.426   4.790  2.3833 -1.3499 -0.5666
 5491SOL    HW227936   1.267   2.516   4.749 -0.5575  0.4225  1.5156
 5492SOL     OW27937   3.942   1.342  17.657  0.1748  0.2056 -0.4198
 5492SOL    HW127938   3.894   1.292  17.592 -0.3698  2.0201 -1.4122
 5492SOL    HW227939   4.023   1.291  17.665  0.7263  0.6605 -3.0039
 5493SOL     OW27940   3.593   3.401   1.831  0.1014  0.1364 -0.4893
 5493SOL    HW127941   3.558   3.480   1.790 -1.3877 -0.4235 -0.2959
 5493SOL    HW227942   3.622   3.431   1.916 -0.6150 -1.3038  0.2730
 5494SOL     OW27943   2.827   4.290   8.318  0.2929  0.0154  0.0211
 5494SOL    HW127944   2.920   4.279   8.301 -0.3084 -1.8916 -2.0031
 5494SOL    HW227945   2.782   4.267   8.236  2.2095 -0.5061 -0.8786
 5495SOL     OW27946   3.332   2.685   7.437 -0.0147  0.2522  0.7331
 5495SOL    HW127947   3.280   2.676   7.358  0.1022  0.0978  0.6733
 5495SOL    HW227948   3.270   2.655   7.504 -0.4601 -1.8046 -0.6026
 5496SOL     OW27949   3.937   0.415   3.400  0.4311 -0.4430  0.3501
 5496SOL    HW127950   3.867   0.472   3.433  0.1753 -0.7050  0.2649
 5496SOL    HW227951   3.892   0.331   3.411 -0.9608  0.4526  1.4734
 5497SOL     OW27952   4.572   4.661   5.766  0.7895 -0.5785  0.3310
 5497SOL    HW127953   4.597   0.020   5.804 -0.2106 -0.9410  1.7770
 5497SOL    HW227954   4.490   4.633   5.806  1.2025 -0.2367  1.4072
 5498SOL     OW27955   0.025   0.312   4.601  0.3529 -0.6087  0.4138
 5498SOL    HW127956   0.006   0.218   4.592 -0.4696 -0.3163 -0.8604
 5498SOL    HW227957   4.690   0.338   4.532  1.6221  2.2113  0.3910
 5499SOL     OW27958   2.225   0.226   5.348  0.8541 -0.3299 -0.3265
 5499SOL    HW127959   2.270   0.169   5.410  0.4074  0.1766  0.4533
 5499SOL    HW227960   2.135   0.198   5.368  0.3647  0.9609 -0.7352
 5500SOL     OW27961   3.932   1.427  10.312 -0.6043  0.0359  0.2903
 5500SOL    HW127962   3.851   1.389  10.277 -1.2141  0.8318  0.8322
 5500SOL    HW227963   3.910   1.428  10.405 -0.6615 -0.2217  0.2802
 5501SOL     OW27964   4.146   2.407  17.595  0.2986 -0.0381 -0.0932
 5501SOL    HW127965   4.191   2.326  17.571 -0.0409  0.4176 -2.2296
 5501SOL    HW227966   4.079   2.367  17.652  0.1520  0.8235  0.3444
 5502SOL     OW27967   0.093   2.926   0.646 -0.3527 -0.2818 -0.2874
 5502SOL    HW127968   0.153   2.851   0.640 -0.6669 -0.3598 -2.4139
 5502SOL    HW227969   0.075   2.934   0.740  1.7288 -1.1788  0.1877
 5503SOL     OW27970   1.594   3.070  14.000 -0.4782  0.0003 -0.4486
 5503SOL    HW127971   1.613   3.019  13.922  1.0927  1.3196 -0.9261
 5503SOL    HW227972   1.586   3.155  13.957 -0.1742  0.2530 -0.0143
 5504SOL     OW27973   1.583   0.293   7.403  0.0625  0.3950 -0.2671
 5504SOL    HW127974   1.642   0.356   7.444 -0.2685 -0.7009  1.8538
 5504SOL    HW227975   1.501   0.340   7.422 -0.7002 -0.5422 -1.2459
 5505SOL     OW27976   3.070   0.344   4.045  0.2502 -0.5772 -0.0713
 5505SOL    HW127977   3.082   0.392   3.963  1.4468 -3.8427 -1.8515
 5505SOL    HW227978   3.134   0.275   4.028  0.9979  0.7605 -2.6808
 5506SOL     OW27979   4.207   4.061   0.637 -0.2273 -0.8081 -0.3333
 5506SOL    HW127980   4.248   4.001   0.574  0.6258 -0.1024 -0.4438
 5506SOL    HW227981   4.193   4.009   0.716  1.3320  2.1781  1.9311
 5507SOL     OW27982   3.393   0.490   1.481  0.0583  0.0680 -0.0164
 5507SOL    HW127983   3.361   0.524   1.564 -0.8855  1.4498 -0.9472
 5507SOL    HW227984   3.320   0.463   1.425 -0.0082  1.2483 -0.5071
 5508SOL     OW27985   4.086   0.271   5.186  0.0936 -0.4264 -0.0568
 5508SOL    HW127986   4.013   0.274   5.124  1.9359  1.2037 -2.1458
 5508SOL    HW227987   4.151   0.223   5.136  0.7297 -0.4263  0.7746
 5509SOL     OW27988   2.869   2.848   0.462  0.1067 -0.5852 -0.7313
 5509SOL    HW127989   2.798   2.831   0.525 -0.7911 -0.0068 -1.5962
 5509SOL    HW227990   2.938   2.854   0.529  0.2587  1.4471 -1.0535
 5510SOL     OW27991   2.937   4.362  11.526 -0.0652 -0.4739 -0.6511
 5510SOL    HW127992   3.026   4.335  11.546  1.0820  2.0760 -2.1839
 5510SOL    HW227993   2.939   4.446  11.478  1.8444 -1.1158 -1.6904
 5511SOL     OW27994   1.400   0.500   7.400  0.0576  0.1540  0.1568
 5511SOL    HW127995   1.331   0.566   7.412 -0.3259 -0.3070  0.5061
 5511SOL    HW227996   1.442   0.535   7.322  0.7924 -0.2691  0.3661
 5512SOL     OW27997   1.296   3.577   4.879 -0.3145 -0.0686 -0.0747
 5512SOL    HW127998   1.328   3.570   4.969  0.6566 -0.2688 -0.4373
 5512SOL    HW227999   1.364   3.625   4.832 -0.4530  0.4911  0.2955
 5513SOL     OW28000   1.844   4.365   3.600  0.0747 -0.1542 -0.4578
 5513SOL    HW128001   1.924   4.416   3.612  0.8829 -1.4125 -0.4811
 5513SOL    HW228002   1.826   4.327   3.686  1.5147  1.2967  0.5003
 5514SOL     OW28003   4.651   4.466  17.493  0.2354 -0.7046 -0.6749
 5514SOL    HW128004   4.704   4.546  17.499  0.5427 -0.8939 -0.8304
 5514SOL    HW228005   4.675   4.433  17.406 -0.0635  1.5353 -1.6166
 5515SOL     OW28006   3.010   1.515   3.022 -0.0236 -0.0511  0.1937
 5515SOL    HW128007   3.050   1.601   3.032 -1.0335  0.2542  1.6825
 5515SOL    HW228008   3.087   1.469   2.987  0.2974 -0.2755  1.1848
 5516SOL     OW28009   3.662   0.520  10.709 -0.0895 -0.2146 -0.0745
 5516SOL    HW128010   3.660   0.431  10.744 -1.2452 -0.7655 -1.5165
 5516SOL    HW228011   3.580   0.526  10.660 -1.4944 -0.0902  2.2662
 5517SOL     OW28012   3.913   0.558   8.935 -0.1712  0.4917  0.0963
 5517SOL    HW128013   3.853   0.602   8.995  3.6088  1.7772  2.9936
 5517SOL    HW228014   3.954   0.628   8.885 -1.9218  1.2355 -0.2968
 5518SOL     OW28015   1.991   0.562   8.168  0.7803  0.4141 -0.0226
 5518SOL    HW128016   2.018   0.610   8.090 -0.3090  0.7454 -0.1917
 5518SOL    HW228017   1.896   0.569   8.161  0.9112  3.3121  0.9899
 5519SOL     OW28018   4.220   4.338   7.489  0.5264 -0.4630  0.0957
 5519SOL    HW128019   4.135   4.316   7.526  0.4240 -1.4697 -0.7368
 5519SOL    HW228020   4.185   4.418   7.450  2.6566 -0.3313 -1.5551
 5520SOL     OW28021   1.900   1.376   4.456  0.6906 -0.6269  0.4930
 5520SOL    HW128022   1.899   1.310   4.526 -0.4522 -1.0198  0.1052
 5520SOL    HW228023   1.806   1.394   4.449  0.9263  0.3752 -0.0373
 5521SOL     OW28024   4.272   2.413   0.472  0.1124 -0.2509 -0.1213
 5521SOL    HW128025   4.326   2.422   0.550  2.1139 -1.5435 -1.3570
 5521SOL    HW228026   4.317   2.483   0.424  0.9944 -1.4733 -1.0727
 5522SOL     OW28027   4.622   4.224   8.034  0.1664 -0.3993  0.0950
 5522SOL    HW128028   4.659   4.176   8.109 -1.1761  0.7382  1.4853
 5522SOL    HW228029   4.593   4.304   8.077  0.5092  0.9285 -2.1665
 5523SOL     OW28030   0.825   2.676   4.880  0.1866  0.3547 -0.5172
 5523SOL    HW128031   0.765   2.671   4.806  0.9440 -2.5753 -0.9549
 5523SOL    HW228032   0.826   2.580   4.888 -0.8524  0.4962  1.4827
 5524SOL     OW28033   3.671   2.707   1.880 -0.5765  0.1094 -0.3351
 5524SOL    HW128034   3.663   2.786   1.934  2.0669 -0.3292  0.7404
 5524SOL    HW228035   3.724   2.749   1.812 -0.2978  0.7754  0.2945
 5525SOL     OW28036   1.621   4.505   0.545  0.6493  0.4405  0.0168
 5525SOL    HW128037   1.551   4.512   0.480  0.9412 -0.9984 -0.4359
 5525SOL    HW228038   1.634   4.586   0.596  2.0210 -0.1054  0.5228
 5526SOL     OW28039   0.567   3.199  11.667  0.3194  0.4971  0.4394
 5526SOL    HW128040   0.656   3.164  11.673 -0.0914 -0.7261 -0.5489
 5526SOL    HW228041   0.585   3.286  11.630  0.3082 -0.0066 -0.7391
 5527SOL     OW28042   2.769   0.036   6.452 -0.5444  0.0281 -0.1673
 5527SOL    HW128043   2.694   4.707   6.473 -0.3213 -0.2048  0.0205
 5527SOL    HW228044   2.821   0.044   6.532 -0.4983  1.5234 -0.3289
 5528SOL     OW28045   3.840   1.926   9.174  0.1252 -0.2176  0.1148
 5528SOL    HW128046   3.768   1.988   9.166 -0.0923 -0.5293 -0.3532
 5528SOL    HW228047   3.785   1.848   9.176 -2.7451  1.7513 -1.8118
 5529SOL     OW28048   0.916   3.934  16.414  0.3364  0.4530  0.2223
 5529SOL    HW128049   0.869   3.992  16.473  2.5400 -0.7790  3.1611
 5529SOL    HW228050   0.845   3.891  16.366  1.6340 -1.0971 -0.2844
 5530SOL     OW28051   1.038   3.430  17.428  0.1424  0.1161 -0.1724
 5530SOL    HW128052   0.975   3.382  17.481 -1.2035  3.9026  1.6649
 5530SOL    HW228053   1.101   3.360  17.413  0.1070 -0.2710  1.5228
 5531SOL     OW28054   3.336   3.572   6.945  0.4456 -0.1533 -0.1300
 5531SOL    HW128055   3.325   3.566   7.040  1.8033  2.5830  0.1925
 5531SOL    HW228056   3.326   3.479   6.926  1.3777  0.0409 -1.5615
 5532SOL     OW28057   4.057   0.758   7.450  0.6294 -0.1333  0.8137
 5532SOL    HW128058   3.989   0.692   7.461 -0.5580  1.1054  0.9723
 5532SOL    HW228059   4.014   0.842   7.468 -0.7131 -0.0903 -2.7486
 5533SOL     OW28060   4.507   1.693  17.233  0.3926 -0.7242 -0.8125
 5533SOL    HW128061   4.540   1.746  17.160 -2.0168  0.0879 -1.3114
 5533SOL    HW228062   4.509   1.601  17.208 -2.4547 -1.0959  0.3619
 5534SOL     OW28063   0.121   0.534   8.613 -0.1598  0.3035 -0.1088
 5534SOL    HW128064   0.163   0.614   8.646 -1.6444  1.2553 -0.5467
 5534SOL    HW228065   0.030   0.561   8.617 -1.2379 -3.3970 -0.0498
 5535SOL     OW28066   3.220   4.125   5.007  0.4044 -0.2940  0.3510
 5535SOL    HW128067   3.294   4.156   5.060  0.4961 -2.0965  1.3073
 5535SOL    HW228068   3.232   4.182   4.932 -1.1128  1.3678  1.3732
 5536SOL     OW28069   0.197   2.479  13.611  0.6331 -0.4064 -0.5297
 5536SOL    HW128070   0.291   2.466  13.597  0.6330 -0.5492 -0.4019
 5536SOL    HW228071   0.172   2.539  13.542 -2.6749 -0.5693  0.5512
 5537SOL     OW28072   2.002   2.024  10.776 -0.1375 -0.0975  0.1782
 5537SOL    HW128073   1.971   2.016  10.866  2.0855  0.3246  0.9741
 5537SOL    HW228074   2.040   1.937  10.765 -0.5509 -0.0693 -1.4822
 5538SOL     OW28075   0.459   3.016  17.241  0.2805  0.6020  0.1284
 5538SOL    HW128076   0.389   3.001  17.304 -2.1048 -2.2696 -3.1517
 5538SOL    HW228077   0.481   2.924  17.222 -2.9456 -0.4143  1.2518
 5539SOL     OW28078   2.534   2.916   7.233  0.2428  0.3429  0.1508
 5539SOL    HW128079   2.523   2.870   7.150  4.2249 -1.9557  0.9192
 5539SOL    HW228080   2.490   2.858   7.295 -0.1204  1.6975  1.1576
 5540SOL     OW28081   1.928   0.182   3.289 -0.0868 -0.5347 -0.6395
 5540SOL    HW128082   1.873   0.143   3.357  2.8001 -1.5881  1.0644
 5540SOL    HW228083   1.913   0.126   3.213  0.4397  0.8719 -1.7811
 5541SOL     OW28084   2.936   2.977   3.490  0.4950 -0.6507 -0.5554
 5541SOL    HW128085   2.961   3.030   3.566 -1.1980  0.1864 -0.5816
 5541SOL    HW228086   2.991   2.899   3.491  1.1223 -0.2463 -2.2730
 5542SOL     OW28087   1.986   3.538  14.994  0.1227 -0.0526  0.1408
 5542SOL    HW128088   2.021   3.589  14.920  0.4823 -1.2429 -0.5177
 5542SOL    HW228089   1.896   3.535  14.961  0.1362  0.3431  0.0678
 5543SOL     OW28090   2.483   2.220   6.741  0.1651  0.1775  0.0170
 5543SOL    HW128091   2.404   2.199   6.692 -0.4191 -0.0574  1.0772
 5543SOL    HW228092   2.492   2.148   6.802  1.4308 -1.2756 -1.8809
 5544SOL     OW28093   0.414   2.342  13.123  0.3107  0.3773  0.2885
 5544SOL    HW128094   0.420   2.297  13.207 -0.8201  1.3273  0.8682
 5544SOL    HW228095   0.320   2.344  13.105 -0.4249  0.2894  4.1045
 5545SOL     OW28096   2.159   0.953   1.318 -0.0220 -0.2222  0.1476
 5545SOL    HW128097   2.072   0.924   1.346  0.2353 -0.9970  0.1573
 5545SOL    HW228098   2.148   0.990   1.231  2.1980  0.1437  0.0275
 5546SOL     OW28099   0.686   3.816   9.748  0.1927  0.1928 -0.2737
 5546SOL    HW128100   0.637   3.897   9.734  1.6162  1.1100  0.0572
 5546SOL    HW228101   0.770   3.859   9.765  0.9839  0.0654 -3.9251
 5547SOL     OW28102   4.254   0.293   8.706  0.5131 -0.5243 -0.1764
 5547SOL    HW128103   4.224   0.338   8.785  1.0338  1.0987 -0.9176
 5547SOL    HW228104   4.193   0.330   8.642  0.9021 -0.4305 -0.4885
 5548SOL     OW28105   2.456   4.109   6.041 -0.5342 -0.1875 -0.2306
 5548SOL    HW128106   2.464   4.176   6.109 -1.5418  0.2747 -0.5688
 5548SOL    HW228107   2.548   4.087   6.025  0.1452  1.3085  1.5893
 5549SOL     OW28108   2.720   3.867   6.667  0.3988  0.6644 -0.2443
 5549SOL    HW128109   2.804   3.886   6.626 -0.7570  0.5966 -2.6792
 5549SOL    HW228110   2.713   3.772   6.656 -1.3449  0.9566 -1.6783
 5550SOL     OW28111   3.317   2.263   1.690  0.0817 -0.3509 -0.4699
 5550SOL    HW128112   3.291   2.294   1.603 -1.7644  0.2977  0.3137
 5550SOL    HW228113   3.328   2.171   1.670 -0.7665 -0.9567  1.8618
 5551SOL     OW28114   1.036   2.362   9.432  0.0591  0.5286 -0.0676
 5551SOL    HW128115   0.974   2.418   9.478 -1.4066  1.4122 -3.1423
 5551SOL    HW228116   1.120   2.395   9.463 -0.0834  0.4150  0.4458
 5552SOL     OW28117   0.094   2.370   8.592 -0.8958 -0.2973 -0.1371
 5552SOL    HW128118   0.086   2.421   8.672  2.8861 -1.3874  0.9226
 5552SOL    HW228119   0.002   2.374   8.567 -0.7551 -2.5814 -1.0704
 5553SOL     OW28120   0.224   4.270   2.746 -0.1112  0.2235 -0.1479
 5553SOL    HW128121   0.313   4.294   2.718  0.2242  2.0065  2.4589
 5553SOL    HW228122   0.235   4.176   2.752  2.3626  0.4675 -0.6634
 5554SOL     OW28123   4.032   3.315   7.234 -0.5341 -0.4630  0.2700
 5554SOL    HW128124   4.099   3.247   7.244 -2.7490 -2.7711 -0.6648
 5554SOL    HW228125   4.051   3.381   7.301 -0.6593 -0.1565  0.0023
 5555SOL     OW28126   1.718   3.720   8.179  0.3909  0.0665 -0.0596
 5555SOL    HW128127   1.691   3.630   8.199  0.2283  0.3270  0.8591
 5555SOL    HW228128   1.657   3.743   8.109 -0.5178  0.7261  0.9526
 5556SOL     OW28129   3.862   1.545  13.044 -0.5486 -0.0029  0.1340
 5556SOL    HW128130   3.846   1.508  13.131  0.4884  0.2453  0.4273
 5556SOL    HW228131   3.918   1.485  12.996  0.6949  2.7503 -1.8273
 5557SOL     OW28132   0.187   2.774   4.953 -0.4506  0.2353  0.0577
 5557SOL    HW128133   0.189   2.724   4.871  1.9780 -1.0837  0.9329
 5557SOL    HW228134   0.264   2.738   4.997 -1.2191  0.7239  1.7745
 5558SOL     OW28135   4.711   1.269  17.120  0.3759  1.0706 -0.3114
 5558SOL    HW128136   0.067   1.276  17.170  1.1264 -0.3631 -1.3060
 5558SOL    HW228137   0.015   1.259  17.029 -0.6967 -0.6829 -0.4751
 5559SOL     OW28138   3.031   4.057   6.301 -0.0715 -0.2850 -0.2751
 5559SOL    HW128139   3.051   3.993   6.232 -0.1179 -1.6586  0.9945
 5559SOL    HW228140   2.937   4.062   6.284 -0.0046 -1.0251 -0.8596
 5560SOL     OW28141   4.081   3.465   2.233  0.0240  0.2809 -0.4437
 5560SOL    HW128142   4.002   3.516   2.251 -0.6116  0.4964 -3.9469
 5560SOL    HW228143   4.098   3.498   2.145 -0.5087 -1.4119 -1.1802
 5561SOL     OW28144   4.080   4.073   6.633 -0.4176  0.0791 -0.4747
 5561SOL    HW128145   4.111   4.155   6.672  1.6814 -0.9289 -0.0627
 5561SOL    HW228146   4.016   4.029   6.689 -0.4508 -0.1607 -0.7016
 5562SOL     OW28147   2.094   4.556  16.466 -0.1369 -0.1459  0.3081
 5562SOL    HW128148   2.140   4.550  16.550  1.6403  0.1796 -0.6538
 5562SOL    HW228149   2.104   4.648  16.441  1.7570  0.0624  1.8898
 5563SOL     OW28150   0.858   4.683  13.151  0.5140  0.3274 -0.5473
 5563SOL    HW128151   0.828   4.673  13.061  0.6213 -2.5625 -0.2558
 5563SOL    HW228152   0.945   4.643  13.150  1.1009  1.5644  0.8639
 5564SOL     OW28153   2.675   2.076   1.753  0.0313  0.2866 -0.3427
 5564SOL    HW128154   2.641   2.018   1.684 -2.2215  0.7502  0.3873
 5564SOL    HW228155   2.607   2.073   1.820 -1.8057 -0.9737 -2.2607
 5565SOL     OW28156   2.204   4.172   3.498 -0.9553 -0.3727 -0.2885
 5565SOL    HW128157   2.221   4.078   3.505  0.0481 -0.1915 -0.1862
 5565SOL    HW228158   2.156   4.196   3.577  1.9002 -1.9521  1.9434
 5566SOL     OW28159   1.807   2.496  12.762 -0.1805  0.3143 -0.2105
 5566SOL    HW128160   1.891   2.468  12.724 -0.2643  1.1914 -1.0080
 5566SOL    HW228161   1.786   2.423  12.821  0.0550  0.0258 -0.4880
 5567SOL     OW28162   2.081   2.938  10.606  0.0256 -0.5691  0.3619
 5567SOL    HW128163   2.151   3.001  10.591  0.7974 -1.4894  0.1104
 5567SOL    HW228164   2.025   2.997  10.657 -2.2823 -1.9410 -0.5832
 5568SOL     OW28165   3.095   3.455   7.325  0.2402  0.4112  0.1285
 5568SOL    HW128166   3.011   3.498   7.336 -0.1213 -1.0898  3.2188
 5568SOL    HW228167   3.072   3.383   7.266 -0.4902 -0.9529  2.0781
 5569SOL     OW28168   3.781   1.984   7.956  0.3925 -0.1045 -0.3699
 5569SOL    HW128169   3.819   2.055   8.008 -1.5257  1.6880 -1.4009
 5569SOL    HW228170   3.705   2.029   7.918  0.6129  0.9162  0.3759
 5570SOL     OW28171   1.191   4.554   1.831  0.2788  0.1308  0.4293
 5570SOL    HW128172   1.106   4.565   1.787 -0.5244 -0.1269  1.9316
 5570SOL    HW228173   1.257   4.588   1.770 -0.5428 -0.1176 -0.6079
 5571SOL     OW28174   1.184   1.258   5.382  0.4274 -0.2949 -0.3653
 5571SOL    HW128175   1.202   1.238   5.290 -0.6523 -1.1070 -0.4022
 5571SOL    HW228176   1.141   1.344   5.371 -1.2901 -1.0485  0.3760
 5572SOL     OW28177   2.743   1.401   1.406 -0.4268  0.1043  0.4164
 5572SOL    HW128178   2.648   1.415   1.413 -0.4262 -0.4309  1.4650
 5572SOL    HW228179   2.734   1.313   1.370  0.9546 -0.7030  2.0486
 5573SOL     OW28180   1.020   2.237  10.837  0.1027 -0.3213  0.2343
 5573SOL    HW128181   0.987   2.260  10.924  0.0083  0.5607 -0.0379
 5573SOL    HW228182   1.082   2.164  10.849 -1.2450 -1.4912  0.1309
 5574SOL     OW28183   2.816   4.631   8.575  0.1599  0.1156 -0.3936
 5574SOL    HW128184   2.765   4.573   8.518 -1.4347  0.6693  0.4662
 5574SOL    HW228185   2.758   4.706   8.589 -1.1182 -0.5731 -1.8614
 5575SOL     OW28186   2.358   3.960   4.924  0.0170 -0.0002 -0.0143
 5575SOL    HW128187   2.424   4.000   4.981  1.0321 -0.7431 -0.6681
 5575SOL    HW228188   2.302   4.036   4.908  0.2955  0.3123  0.4703
 5576SOL     OW28189   1.994   0.661  10.071  0.0905 -0.1466 -0.0064
 5576SOL    HW128190   1.923   0.706  10.026 -0.2628  0.1215  0.8321
 5576SOL    HW228191   1.978   0.577  10.028  0.3215 -0.3453  0.3000
 5577SOL     OW28192   4.414   4.405   4.777 -0.1734  0.7882 -0.2043
 5577SOL    HW128193   4.487   4.396   4.838  0.2678  0.7404 -0.7425
 5577SOL    HW228194   4.409   4.492   4.737 -0.4639  2.1958  2.9670
 5578SOL     OW28195   1.886   0.391   5.188 -0.0784 -0.2642 -0.7210
 5578SOL    HW128196   1.961   0.450   5.203 -0.6075  0.1738  0.2330
 5578SOL    HW228197   1.866   0.427   5.102  0.0964  0.0143 -0.6470
 5579SOL     OW28198   4.638   1.232   2.625 -0.3253 -0.0782  0.0949
 5579SOL    HW128199   4.592   1.267   2.701 -1.0971 -1.2670  0.1755
 5579SOL    HW228200   4.595   1.288   2.561 -0.5846 -0.5707 -0.1617
 5580SOL     OW28201   2.327   0.631   8.068  0.8906  0.3406  0.3503
 5580SOL    HW128202   2.290   0.546   8.093  2.0129  0.2118  1.5928
 5580SOL    HW228203   2.420   0.616   8.053  0.9584 -1.1584  2.3217
 5581SOL     OW28204   1.096   4.615   8.041 -0.5449 -0.5228  0.1701
 5581SOL    HW128205   1.132   4.681   7.981 -1.1179  0.5408  0.9848
 5581SOL    HW228206   1.036   4.655   8.104  1.2611 -2.7492  3.2610
 5582SOL     OW28207   2.757   4.651   6.722 -0.2858  0.2781  0.0244
 5582SOL    HW128208   2.673   4.691   6.700 -0.3392 -0.3666 -0.9316
 5582SOL    HW228209   2.790   4.703   6.795  0.8468 -0.0802 -0.2344
 5583SOL     OW28210   1.306   0.462   7.024  0.4453  0.3924  0.3752
 5583SOL    HW128211   1.232   0.402   7.026 -1.4570  2.7052 -0.9091
 5583SOL    HW228212   1.362   0.428   6.955  0.3933  1.3842 -0.1578
 5584SOL     OW28213   1.509   1.231   4.483 -0.2217  0.1143  0.3733
 5584SOL    HW128214   1.500   1.184   4.566 -2.2777  0.1465  0.1791
 5584SOL    HW228215   1.431   1.285   4.494  0.7789  2.0127 -1.8444
 5585SOL     OW28216   0.693   2.990  10.269 -0.3061  0.2811  0.5022
 5585SOL    HW128217   0.641   3.062  10.233 -0.2448 -0.9283 -1.9855
 5585SOL    HW228218   0.677   2.996  10.363 -0.1784 -2.0119  0.6566
 5586SOL     OW28219   4.105   3.770   6.355 -0.0804  0.2812  0.5532
 5586SOL    HW128220   4.100   3.739   6.264 -1.8399 -0.1122  0.7988
 5586SOL    HW228221   4.011   3.777   6.372  0.2542  0.6617  2.2725
 5587SOL     OW28222   4.308   1.432   3.532  0.0031 -0.1947 -0.2192
 5587SOL    HW128223   4.307   1.361   3.596 -0.6681 -0.0304 -0.0445
 5587SOL    HW228224   4.253   1.500   3.571 -1.0281 -0.7074 -0.7815
 5588SOL     OW28225   2.944   0.335   8.719 -0.1948  0.2934 -0.3261
 5588SOL    HW128226   3.004   0.357   8.647 -1.4176  1.6442 -0.9117
 5588SOL    HW228227   3.000   0.315   8.794  0.6435 -1.3737 -1.3899
 5589SOL     OW28228   3.755   0.286   2.829  0.6958 -0.2380 -0.3510
 5589SOL    HW128229   3.838   0.239   2.819  1.6663  0.8912  2.3578
 5589SOL    HW228230   3.749   0.347   2.756  0.7954 -1.7006 -1.5816
 5590SOL     OW28231   1.250   1.708   5.409 -0.4644  0.0451 -0.1669
 5590SOL    HW128232   1.202   1.748   5.483  0.4947 -0.6089  0.8017
 5590SOL    HW228233   1.190   1.636   5.392 -0.4185  0.5768 -2.5972
 5591SOL     OW28234   3.366   3.336   2.181  0.4717 -0.0596  0.3638
 5591SOL    HW128235   3.432   3.267   2.194  0.2418 -0.3719 -0.1277
 5591SOL    HW228236   3.311   3.301   2.111  1.2063  0.0412 -0.2507
 5592SOL     OW28237   1.869   2.627  16.125  0.1137 -0.1480 -0.5624
 5592SOL    HW128238   1.870   2.721  16.145  0.1253 -0.1380 -0.6097
 5592SOL    HW228239   1.939   2.596  16.182 -0.2393  1.6232  0.8423
 5593SOL     OW28240   1.265   1.787   9.523 -0.0493 -0.0996 -0.3018
 5593SOL    HW128241   1.233   1.876   9.508 -1.2246 -0.6424 -1.0166
 5593SOL    HW228242   1.310   1.785   9.607 -1.0889  0.6416  0.2650
 5594SOL     OW28243   0.023   1.688   1.449 -0.0318 -0.6055 -0.2987
 5594SOL    HW128244   0.060   1.668   1.535 -1.5818 -0.8378  0.3108
 5594SOL    HW228245   0.011   1.594   1.433 -2.8532 -0.2069 -0.4516
 5595SOL     OW28246   3.208   3.968   8.877 -0.2495 -0.0347 -0.0053
 5595SOL    HW128247   3.189   4.059   8.898 -0.5703 -0.3338  0.9838
 5595SOL    HW228248   3.297   3.986   8.848 -0.9614  2.7885 -0.4359
 5596SOL     OW28249   3.248   2.034   3.680 -0.1280 -0.0251  0.1419
 5596SOL    HW128250   3.285   1.964   3.626  0.0167  0.6457 -0.6151
 5596SOL    HW228251   3.322   2.087   3.709  0.9009 -0.1719 -2.3005
 5597SOL     OW28252   1.073   1.448  10.845 -0.3629  1.0527 -0.3228
 5597SOL    HW128253   1.121   1.436  10.763  3.0584 -0.9003  1.9692
 5597SOL    HW228254   1.150   1.455  10.902 -0.8009  0.9713  0.2701
 5598SOL     OW28255   3.200   1.491   5.016  0.7725 -0.5507  0.2101
 5598SOL    HW128256   3.221   1.471   4.925 -0.9685  1.1002 -0.5751
 5598SOL    HW228257   3.233   1.412   5.059 -1.4812 -1.5597  0.1218
 5599SOL     OW28258   4.277   0.112   2.277 -0.4100 -0.0314  0.3971
 5599SOL    HW128259   4.245   0.165   2.350  3.0505 -0.0374  1.9108
 5599SOL    HW228260   4.272   0.183   2.213 -1.9403 -1.3632 -0.9316
 5600SOL     OW28261   0.911   3.080   2.022  0.4856 -0.3987  0.3792
 5600SOL    HW128262   0.945   3.164   1.992  0.6818 -0.3558  0.7263
 5600SOL    HW228263   0.831   3.108   2.067  0.7276  1.4736 -0.3368
 5601SOL     OW28264   3.286   0.976   5.926  0.0159  0.0953 -0.7946
 5601SOL    HW128265   3.251   0.900   5.974  0.4754  1.1797  1.2413
 5601SOL    HW228266   3.377   0.952   5.909  1.5507  1.8898  5.0776
 5602SOL     OW28267   4.105   3.578  16.491 -0.1251 -0.5295 -0.1139
 5602SOL    HW128268   4.170   3.648  16.490  1.3739 -1.8895  1.3402
 5602SOL    HW228269   4.047   3.584  16.415  1.8449  0.7997 -1.4937
 5603SOL     OW28270   2.322   0.705   1.125 -0.5840 -0.3478  0.1881
 5603SOL    HW128271   2.253   0.710   1.191 -0.1005  2.5237  0.4849
 5603SOL    HW228272   2.361   0.628   1.167  1.0489  0.3698 -0.0190
 5604SOL     OW28273   4.675   3.580   6.151 -0.7051 -0.3659  0.5162
 5604SOL    HW128274   4.627   3.586   6.233 -0.0207  0.7518  0.8309
 5604SOL    HW228275   0.038   3.586   6.186 -0.6902 -1.6531  0.6726
 5605SOL     OW28276   2.321   2.466   3.620 -0.1617  0.3226 -0.3310
 5605SOL    HW128277   2.407   2.488   3.584  0.3477 -1.0930  0.0325
 5605SOL    HW228278   2.309   2.546   3.672 -1.0910 -0.4849  0.7138
 5606SOL     OW28279   4.641   1.698   7.355 -0.6135  0.4794  0.0948
 5606SOL    HW128280   4.656   1.760   7.284  1.6233 -0.4899 -0.2793
 5606SOL    HW228281   0.009   1.678   7.365 -0.1688  1.5172 -1.9678
 5607SOL     OW28282   0.676   2.273   2.516 -0.1867 -0.1668 -0.3054
 5607SOL    HW128283   0.636   2.359   2.502  3.9124  1.7842  0.0723
 5607SOL    HW228284   0.662   2.237   2.428 -0.9486  0.4577 -0.4308
 5608SOL     OW28285   1.236   3.646   1.053  0.1939  0.4239 -0.7793
 5608SOL    HW128286   1.174   3.586   1.011 -0.0161 -1.8802  2.7827
 5608SOL    HW228287   1.271   3.592   1.124  0.1708 -0.3680 -1.3654
 5609SOL     OW28288   0.750   1.187   2.070 -0.4555 -0.2382 -0.4110
 5609SOL    HW128289   0.843   1.209   2.060 -0.4858  0.0765 -0.0038
 5609SOL    HW228290   0.751   1.109   2.014 -0.2901 -1.4102  1.2283
 5610SOL     OW28291   2.116   1.861   3.160  0.2513 -0.3944  0.1139
 5610SOL    HW128292   2.121   1.843   3.254 -1.1056 -0.0592  0.2505
 5610SOL    HW228293   2.144   1.952   3.150  0.4623 -0.3352  1.1837
 5611SOL     OW28294   3.883   0.541   3.132  0.4082  0.1472  0.0684
 5611SOL    HW128295   3.899   0.612   3.194  1.4500 -3.1670  3.5759
 5611SOL    HW228296   3.923   0.470   3.183  0.6410 -0.2399 -0.6564
 5612SOL     OW28297   1.775   2.192   6.055  0.2655 -0.2203  0.0223
 5612SOL    HW128298   1.695   2.243   6.068  0.6948  0.2616  0.7362
 5612SOL    HW228299   1.834   2.266   6.058  0.2551 -0.3695  3.1811
 5613SOL     OW28300   4.081   1.002   2.675 -0.0237 -0.3158 -0.1881
 5613SOL    HW128301   4.156   0.952   2.643  0.4246 -0.2072  0.6852
 5613SOL    HW228302   4.076   0.986   2.769 -1.3839 -0.0437 -0.2118
 5614SOL     OW28303   1.768   3.513   7.640 -0.1153 -0.2128  0.0316
 5614SOL    HW128304   1.748   3.436   7.693 -1.2701 -1.1577 -1.7869
 5614SOL    HW228305   1.845   3.546   7.687 -1.4597 -1.2806  3.0109
 5615SOL     OW28306   2.376   1.364   8.625 -0.0559  0.5315 -0.0044
 5615SOL    HW128307   2.342   1.356   8.536  1.1672  0.7313 -0.4855
 5615SOL    HW228308   2.459   1.318   8.623 -0.4674 -0.1772 -0.7283
 5616SOL     OW28309   2.024   3.097   6.086 -0.2525 -0.0420 -0.1485
 5616SOL    HW128310   1.953   3.058   6.036 -3.1647  3.7052  1.0802
 5616SOL    HW228311   2.061   3.165   6.029 -0.8304  1.0274  0.7389
 5617SOL     OW28312   2.362   3.819  15.236  0.0871 -0.2931 -0.2197
 5617SOL    HW128313   2.364   3.727  15.265  0.5855  0.0624  0.8921
 5617SOL    HW228314   2.309   3.807  15.157 -1.2595 -0.7403  0.7504
 5618SOL     OW28315   0.778   0.967   6.746  0.0525  0.2809  0.1305
 5618SOL    HW128316   0.802   0.876   6.761 -1.4435  0.3099  2.5887
 5618SOL    HW228317   0.869   0.994   6.749  0.2201 -0.3303  0.5018
 5619SOL     OW28318   0.049   2.353   3.597  0.4571  0.2786 -0.1703
 5619SOL    HW128319   4.721   2.312   3.529  1.0016 -2.4461  1.0571
 5619SOL    HW228320   0.039   2.281   3.659 -3.1496 -0.4061 -1.5754
 5620SOL     OW28321   0.886   2.363   8.919  0.0084 -0.3516 -0.1402
 5620SOL    HW128322   0.831   2.439   8.935 -0.8918 -1.1214  0.4217
 5620SOL    HW228323   0.966   2.415   8.916  1.1761 -2.1231 -0.1531
 5621SOL     OW28324   3.910   2.632   4.207  0.2940  0.3105  0.6161
 5621SOL    HW128325   3.921   2.638   4.302  2.9915  0.1839  0.2863
 5621SOL    HW228326   3.992   2.646   4.159  0.8298 -2.2627  0.8108
 5622SOL     OW28327   3.266   0.295   8.082  0.6593  0.2062 -0.1380
 5622SOL    HW128328   3.182   0.274   8.043 -0.0474  2.6490  0.0406
 5622SOL    HW228329   3.292   0.206   8.104  1.1506 -0.1618 -2.2772
 5623SOL     OW28330   3.577   2.975   0.154 -0.1831 -0.0709  0.4023
 5623SOL    HW128331   3.540   3.053   0.194  0.9181  0.4577  0.4046
 5623SOL    HW228332   3.659   3.002   0.112 -0.0841 -0.5212  0.2975
 5624SOL     OW28333   4.357   4.273  10.139 -0.1865  0.2766 -0.1518
 5624SOL    HW128334   4.444   4.299  10.171  0.7108 -0.7839 -1.7243
 5624SOL    HW228335   4.321   4.357  10.110 -0.3934 -0.4408 -1.9743
 5625SOL     OW28336   0.413   4.540   0.357  0.3412  0.0727 -0.9486
 5625SOL    HW128337   0.335   4.487   0.341  0.9786 -1.1387  0.0296
 5625SOL    HW228338   0.452   4.468   0.407 -1.3262  0.6375  1.1810
 5626SOL     OW28339   1.089   3.285   3.525  0.0618 -0.8581  0.2112
 5626SOL    HW128340   1.153   3.317   3.461  0.3726 -0.5509  0.6694
 5626SOL    HW228341   1.147   3.253   3.594 -0.2930 -1.8261  0.0521
 5627SOL     OW28342   0.074   0.319   7.640  0.0568 -0.0505 -0.2551
 5627SOL    HW128343   4.706   0.341   7.639 -0.9810 -4.3630  1.1596
 5627SOL    HW228344   0.108   0.388   7.584  0.4349  1.1938  1.4856
 5628SOL     OW28345   3.922   2.532  17.394  0.5448  0.7116  0.1482
 5628SOL    HW128346   3.975   2.582  17.332 -0.6470  1.9346  0.1233
 5628SOL    HW228347   3.945   2.577  17.476  1.3795  1.8051 -0.6862
 5629SOL     OW28348   0.382   1.134  13.476 -0.0729  0.1495 -0.4750
 5629SOL    HW128349   0.429   1.072  13.532 -3.1930 -1.4829  0.3434
 5629SOL    HW228350   0.294   1.130  13.513 -0.1131 -0.4862 -0.6530
 5630SOL     OW28351   1.714   3.769   4.013 -0.2154 -0.2993 -0.2229
 5630SOL    HW128352   1.703   3.684   3.970 -2.7426  0.7723 -1.7204
 5630SOL    HW228353   1.694   3.743   4.103  0.7999  0.2033  0.1411
 5631SOL     OW28354   4.710   4.131   5.045  0.2912 -0.0290 -0.2483
 5631SOL    HW128355   0.017   4.117   5.134  2.0625  0.3248 -0.8494
 5631SOL    HW228356   4.669   4.048   5.018 -1.1431  0.4107  0.6022
 5632SOL     OW28357   1.007   0.928   7.056 -0.0804  0.3443  0.2522
 5632SOL    HW128358   1.061   0.852   7.077  0.3713  1.0535  1.6816
 5632SOL    HW228359   1.052   1.004   7.094 -0.5033  1.6107 -1.7629
 5633SOL     OW28360   0.451   1.981   7.332  0.1840  0.2048  0.0248
 5633SOL    HW128361   0.371   1.986   7.385  1.2647 -0.4053  1.7467
 5633SOL    HW228362   0.446   2.071   7.300  0.4897 -0.3279 -1.5154
 5634SOL     OW28363   2.712   0.955   9.785 -0.3147  0.2148 -0.2420
 5634SOL    HW128364   2.756   1.018   9.842 -0.8186  1.5670 -1.3266
 5634SOL    HW228365   2.741   0.866   9.805  0.6774  0.8648  1.2034
 5635SOL     OW28366   4.119   0.903   4.597 -0.2632  0.1018  0.3854
 5635SOL    HW128367   4.090   0.934   4.511  1.0374 -0.2379 -0.1819
 5635SOL    HW228368   4.034   0.880   4.635  1.0719 -0.5292  3.0091
 5636SOL     OW28369   1.876   4.180   5.973 -0.4177  0.3253  0.0363
 5636SOL    HW128370   1.868   4.228   6.055  0.7289  1.6042 -0.6093
 5636SOL    HW228371   1.785   4.191   5.944 -1.4537 -2.5005  2.1497
 5637SOL     OW28372   2.893   4.696  10.292 -0.1561 -0.4133  0.5016
 5637SOL    HW128373   2.883   0.055  10.336  2.3825 -0.0888  0.4754
 5637SOL    HW228374   2.829   4.702  10.222 -0.1380  1.8515  0.6773
 5638SOL     OW28375   4.546   2.570   4.654 -0.1051 -0.2316 -0.4047
 5638SOL    HW128376   4.475   2.506   4.648  0.9545 -1.1273 -3.2434
 5638SOL    HW228377   4.497   2.628   4.711 -0.1300 -0.0264 -0.6371
 5639SOL     OW28378   3.882   0.569   5.672 -0.1305  0.3081  0.4526
 5639SOL    HW128379   3.811   0.560   5.735 -0.8991  1.3515 -0.2558
 5639SOL    HW228380   3.863   0.655   5.634  1.0382  0.6597  0.6677
 5640SOL     OW28381   1.773   0.302  16.503 -0.3702  0.2926 -0.1144
 5640SOL    HW128382   1.713   0.303  16.577 -0.2943  1.1286 -0.0651
 5640SOL    HW228383   1.843   0.248  16.541  1.1953  2.3005 -0.1219
 5641SOL     OW28384   4.425   2.604  13.799  0.4589 -0.0838  0.2189
 5641SOL    HW128385   4.395   2.517  13.777 -4.0903  0.7734  2.9489
 5641SOL    HW228386   4.468   2.592  13.884 -0.6876  0.9088  0.9486
 5642SOL     OW28387   1.763   0.657  10.471  0.2150  0.2506 -0.0818
 5642SOL    HW128388   1.781   0.630  10.561 -2.5861 -2.2418 -0.2983
 5642SOL    HW228389   1.850   0.687  10.446 -0.7370  1.2166 -2.1991
 5643SOL     OW28390   1.015   3.988   6.552  0.0413 -0.1291 -0.7628
 5643SOL    HW128391   1.039   4.062   6.496 -0.0216  0.2990 -0.2355
 5643SOL    HW228392   0.933   4.023   6.586 -0.1673  0.1284 -1.5311
 5644SOL     OW28393   2.800   1.054   0.072 -0.4121 -0.4015  0.7023
 5644SOL    HW128394   2.881   1.069   0.024  0.7560 -0.6529  2.5651
 5644SOL    HW228395   2.825   0.982   0.131 -2.2991 -1.4287  0.2624
 5645SOL     OW28396   0.870   2.829  10.724  0.1612  0.0023  0.4734
 5645SOL    HW128397   0.908   2.876  10.797 -1.6576 -1.4154  2.3236
 5645SOL    HW228398   0.879   2.736  10.747  0.5257 -0.1326 -0.2202
 5646SOL     OW28399   3.181   1.203   0.386 -0.3822 -0.1374  0.0949
 5646SOL    HW128400   3.171   1.269   0.454 -0.6441 -1.7449  1.6033
 5646SOL    HW228401   3.141   1.128   0.430 -2.2461  1.5433  1.2239
 5647SOL     OW28402   0.339   0.042   5.307  0.4117 -0.4491 -0.0242
 5647SOL    HW128403   0.295   0.017   5.388 -0.7539  1.2315 -0.1226
 5647SOL    HW228404   0.341   0.138   5.318 -0.8643 -0.6474  1.8528
 5648SOL     OW28405   2.392   2.428  11.976 -0.3266  0.4670 -0.1605
 5648SOL    HW128406   2.429   2.501  12.026  1.1424 -1.2669  1.2709
 5648SOL    HW228407   2.457   2.365  12.007  0.3610  2.1707  1.8885
 5649SOL     OW28408   0.720   2.896   3.200 -0.3336 -0.2939  0.7508
 5649SOL    HW128409   0.652   2.842   3.240  1.2029 -3.1867 -0.5284
 5649SOL    HW228410   0.724   2.969   3.262 -0.4850 -0.3229  0.7941
 5650SOL     OW28411   4.350   1.916   3.103  0.2922 -0.6519 -0.0168
 5650SOL    HW128412   4.309   1.863   3.172 -1.0779 -0.1762 -0.4590
 5650SOL    HW228413   4.380   1.846   3.044  2.1980  0.2703 -0.1325
 5651SOL     OW28414   1.786   0.898  15.151 -0.3377 -0.2278  0.1088
 5651SOL    HW128415   1.828   0.828  15.202  2.3448 -0.2947 -2.1918
 5651SOL    HW228416   1.726   0.847  15.097 -0.1203 -0.6784  0.2934
 5652SOL     OW28417   0.830   3.350   6.528 -0.3876 -0.1631  0.2065
 5652SOL    HW128418   0.909   3.403   6.539  0.8387 -1.6526 -1.3134
 5652SOL    HW228419   0.858   3.283   6.465 -0.2619 -0.3968  0.5126
 5653SOL     OW28420   1.391   0.177   4.795  0.1156 -0.2280 -0.6899
 5653SOL    HW128421   1.474   0.194   4.839 -0.0423  1.4027 -1.0380
 5653SOL    HW228422   1.321   0.195   4.857  0.8686 -0.4072  0.2069
 5654SOL     OW28423   0.424   1.347   4.985  0.5684  0.0299 -0.6465
 5654SOL    HW128424   0.498   1.345   4.925  0.9104  0.9709 -0.2570
 5654SOL    HW228425   0.453   1.429   5.025 -2.7362  1.3466 -0.9242
 5655SOL     OW28426   1.023   1.874   0.043  0.3478  0.0429  0.1990
 5655SOL    HW128427   0.995   1.817   0.115 -1.8669  3.0246  1.7377
 5655SOL    HW228428   1.117   1.884   0.056  0.0415  2.8888  0.3773
 5656SOL     OW28429   0.041   2.018   9.149 -0.2477  0.2198  0.1987
 5656SOL    HW128430   0.007   2.062   9.228 -2.6374 -0.3383 -0.5196
 5656SOL    HW228431   0.097   2.089   9.116 -1.6162 -0.1074 -2.8117
 5657SOL     OW28432   3.595   2.105   8.507 -0.3580 -0.2783 -0.2880
 5657SOL    HW128433   3.687   2.086   8.523  0.1759  0.2044 -2.7411
 5657SOL    HW228434   3.558   2.019   8.528 -1.0890 -0.0169 -0.4975
 5658SOL     OW28435   2.839   3.252   4.415 -0.1759  0.1932 -0.1848
 5658SOL    HW128436   2.770   3.188   4.434 -0.9206  0.4514 -2.0339
 5658SOL    HW228437   2.815   3.317   4.481 -1.7569  0.8012 -1.3663
 5659SOL     OW28438   3.559   1.293   8.275  0.8733  0.7835 -0.6631
 5659SOL    HW128439   3.497   1.366   8.265 -1.1656 -0.7466  0.7541
 5659SOL    HW228440   3.612   1.307   8.197  1.7610  0.5266 -0.1134
 5660SOL     OW28441   4.549   1.862   1.404  0.3485 -0.3800  0.1523
 5660SOL    HW128442   4.619   1.799   1.418 -0.5480 -1.7644 -1.3958
 5660SOL    HW228443   4.577   1.916   1.477 -0.4913  0.1492  0.0941
 5661SOL     OW28444   2.035   3.744   5.592 -0.2636 -0.1409 -0.0707
 5661SOL    HW128445   1.998   3.804   5.657 -1.9383  0.9847 -2.0867
 5661SOL    HW228446   1.964   3.680   5.588  0.3334 -0.8821  1.0950
 5662SOL     OW28447   4.423   3.917   0.046  0.4214 -0.2293 -0.0312
 5662SOL    HW128448   4.401   3.898   0.138  0.2532  0.1434  0.0076
 5662SOL    HW228449   4.366   3.862  17.695 -0.4718  2.0015 -1.4099
 5663SOL     OW28450   3.433   3.535  11.980 -0.4436  0.1167 -0.0304
 5663SOL    HW128451   3.500   3.581  12.029 -0.8590  0.1277  0.5327
 5663SOL    HW228452   3.455   3.445  12.006 -1.3121 -0.1923 -0.3529
 5664SOL     OW28453   1.028   1.308  16.052 -0.3959 -0.2222  0.4539
 5664SOL    HW128454   0.934   1.302  16.038 -0.4095 -0.3576  0.6133
 5664SOL    HW228455   1.023   1.349  16.138  0.6099  2.5497 -0.8018
 5665SOL     OW28456   0.039   0.756   6.925 -0.1402 -0.7268 -0.7707
 5665SOL    HW128457   0.128   0.722   6.930  0.0691 -0.3506 -1.9070
 5665SOL    HW228458   0.018   0.738   6.833 -1.4510 -1.4275 -0.3506
 5666SOL     OW28459   1.646   0.300   2.077  0.5520 -0.3191  0.1952
 5666SOL    HW128460   1.671   0.391   2.088  3.8636 -1.3361  1.1688
 5666SOL    HW228461   1.661   0.259   2.162  0.5955 -0.1067  0.2877
 5667SOL     OW28462   0.442   0.181   9.391 -0.1159  0.1733 -0.2181
 5667SOL    HW128463   0.529   0.168   9.430 -0.6559 -0.4558  0.7973
 5667SOL    HW228464   0.421   0.273   9.406  0.3038 -0.2003  2.6773
 5668SOL     OW28465   1.574   2.429   1.444 -0.4379  0.5818 -0.1439
 5668SOL    HW128466   1.547   2.515   1.476 -0.4233 -0.0379  1.4920
 5668SOL    HW228467   1.591   2.378   1.523  0.5088 -1.2594 -1.5142
 5669SOL     OW28468   2.599   1.244   0.709  0.3698  0.0500  0.3229
 5669SOL    HW128469   2.617   1.150   0.718  0.8864  0.1636  0.4594
 5669SOL    HW228470   2.578   1.278   0.796 -0.3828 -0.7135  0.4404
 5670SOL     OW28471   3.474   0.103   2.427 -0.2560 -0.1630  0.1105
 5670SOL    HW128472   3.449   0.105   2.520  0.8122  2.3805  0.3448
 5670SOL    HW228473   3.480   0.008   2.416 -1.5334 -0.1345 -0.7454
 5671SOL     OW28474   1.008   2.670   4.204  0.6937 -0.4432 -0.0085
 5671SOL    HW128475   1.020   2.664   4.109 -0.0764 -1.5200 -0.0329
 5671SOL    HW228476   1.006   2.578   4.232 -1.3114 -0.8853 -1.6274
 5672SOL     OW28477   2.893   4.395  15.821 -0.4193 -0.6603  0.0464
 5672SOL    HW128478   2.893   4.344  15.740  0.2722 -0.9285  0.2136
 5672SOL    HW228479   2.860   4.480  15.793  1.5644  0.8683  2.2949
 5673SOL     OW28480   3.376   1.296  11.524 -0.3562  0.0645  0.0170
 5673SOL    HW128481   3.297   1.325  11.477 -0.6795 -1.3630 -0.3318
 5673SOL    HW228482   3.425   1.377  11.535  1.5569 -0.7152 -2.6450
 5674SOL     OW28483   1.962   1.511   8.205  0.1957 -0.0386 -0.4381
 5674SOL    HW128484   1.931   1.543   8.120  1.0740 -0.2200 -0.8238
 5674SOL    HW228485   1.995   1.593   8.241  1.4139 -0.1510 -1.3084
 5675SOL     OW28486   3.762   3.786  11.223  0.1594  0.7043 -0.1146
 5675SOL    HW128487   3.820   3.791  11.299 -0.3632  0.2396  0.3143
 5675SOL    HW228488   3.697   3.850  11.251 -0.3866  0.1453 -0.1090
 5676SOL     OW28489   1.340   4.655   9.078  0.1221  0.6201  0.5552
 5676SOL    HW128490   1.376   0.011   9.115  0.1055 -0.1294  2.1718
 5676SOL    HW228491   1.363   4.595   9.148 -0.9802  0.8467  1.1139
 5677SOL     OW28492   2.597   3.991  10.027 -0.0531  0.0585 -0.3846
 5677SOL    HW128493   2.571   4.082  10.041 -0.7620 -0.3801  1.1377
 5677SOL    HW228494   2.554   3.946  10.100  0.5497 -0.7919 -0.5580
 5678SOL     OW28495   1.225   1.683   6.401  0.1892  0.0901 -0.3884
 5678SOL    HW128496   1.137   1.661   6.370 -0.0544  1.4733 -0.6813
 5678SOL    HW228497   1.214   1.778   6.406  0.7555  0.1766 -0.7944
 5679SOL     OW28498   0.478   4.623   6.564  0.5818  0.8351  0.2119
 5679SOL    HW128499   0.464   4.717   6.576  1.8692  1.0489  0.0570
 5679SOL    HW228500   0.546   4.615   6.498 -0.4899  0.2117 -0.8215
 5680SOL     OW28501   1.437   3.055   8.870  0.5767  0.4557 -0.1410
 5680SOL    HW128502   1.440   2.960   8.882  1.5544  0.6286  1.0203
 5680SOL    HW228503   1.460   3.084   8.958 -0.7240  0.6192  0.1515
 5681SOL     OW28504   1.410   0.240   9.928  0.7083 -0.5175 -0.4909
 5681SOL    HW128505   1.371   0.278   9.849 -2.2196  0.5525  1.5035
 5681SOL    HW228506   1.472   0.311   9.945  1.9241 -0.9997 -2.8820
 5682SOL     OW28507   1.786   3.855  10.230 -0.2739  1.0250  0.2306
 5682SOL    HW128508   1.864   3.904  10.204  0.5928  1.0260  2.8030
 5682SOL    HW228509   1.750   3.922  10.289 -0.8931  2.0415 -1.3190
 5683SOL     OW28510   1.577   0.720  10.115  0.1529 -0.2281 -0.2385
 5683SOL    HW128511   1.626   0.694  10.192 -2.5641  0.5453  1.7321
 5683SOL    HW228512   1.504   0.755  10.166 -0.8026 -0.9080 -1.1459
 5684SOL     OW28513   1.687   0.457  16.184  0.1127  0.1341 -0.8325
 5684SOL    HW128514   1.639   0.374  16.182  1.4516 -0.6499 -0.5711
 5684SOL    HW228515   1.629   0.510  16.129 -1.9126  2.3050  3.3268
 5685SOL     OW28516   3.679   3.302   4.243  0.2790 -0.0348 -0.2269
 5685SOL    HW128517   3.607   3.297   4.180 -0.9780  0.7902  1.1300
 5685SOL    HW228518   3.683   3.393   4.272  2.9420  0.8139 -3.2991
 5686SOL     OW28519   1.182   0.293  12.297 -0.4601  0.3622 -0.3228
 5686SOL    HW128520   1.187   0.364  12.232 -0.3653 -0.0964 -0.8184
 5686SOL    HW228521   1.275   0.272  12.296 -0.6132 -0.3208  0.1359
 5687SOL     OW28522   4.115   2.922   2.984 -0.4953 -0.2285 -0.2229
 5687SOL    HW128523   4.044   2.865   3.013 -1.2149  0.8166  0.0743
 5687SOL    HW228524   4.071   2.966   2.911  0.7064  1.9434  0.3359
 5688SOL     OW28525   2.246   3.394   3.859  0.1877  0.5071  0.1114
 5688SOL    HW128526   2.283   3.385   3.947  3.1902  0.6149 -1.1273
 5688SOL    HW228527   2.176   3.330   3.862  0.1793  0.5329  0.5243
 5689SOL     OW28528   2.120   1.716  10.436  0.7949  0.1792  0.3358
 5689SOL    HW128529   2.198   1.717  10.492  0.0038  0.9321  1.4297
 5689SOL    HW228530   2.053   1.690  10.500  0.8032  0.4700  0.4643
 5690SOL     OW28531   2.218   4.030   7.015 -0.1669  0.1573  0.2478
 5690SOL    HW128532   2.208   4.052   7.108 -0.5703 -1.5251  0.6082
 5690SOL    HW228533   2.194   4.116   6.979 -0.1374 -0.4358 -1.1984
 5691SOL     OW28534   0.185   2.264   6.370 -0.5294 -0.5039  0.2564
 5691SOL    HW128535   0.131   2.343   6.359 -0.8788 -0.9085 -0.8872
 5691SOL    HW228536   0.230   2.261   6.286 -1.6291 -2.0720 -0.2883
 5692SOL     OW28537   0.919   3.768   7.987 -0.1656  0.5118 -0.4439
 5692SOL    HW128538   0.873   3.701   7.937  1.4232 -0.4714 -0.5691
 5692SOL    HW228539   0.853   3.837   7.980  2.4187  3.2218  1.8609
 5693SOL     OW28540   4.074   1.589   2.494 -0.6194 -0.3649  0.5811
 5693SOL    HW128541   4.069   1.685   2.493  1.5615 -0.2623 -0.6927
 5693SOL    HW228542   3.989   1.563   2.530 -0.9782  0.8195  0.6148
 5694SOL     OW28543   0.062   1.767   2.425  0.6472 -0.3416 -0.4380
 5694SOL    HW128544   0.043   1.701   2.491 -1.9687 -0.4072 -1.2432
 5694SOL    HW228545   0.154   1.788   2.440  1.1581 -2.2261 -0.8161
 5695SOL     OW28546   1.201   3.059   6.830 -0.2744  0.4788  0.3659
 5695SOL    HW128547   1.265   3.012   6.776 -1.7961 -1.5709  0.3425
 5695SOL    HW228548   1.130   2.995   6.829  0.5610 -0.4611  0.5433
 5696SOL     OW28549   4.087   1.858   3.452 -0.3843 -0.2785 -0.2439
 5696SOL    HW128550   4.009   1.910   3.472 -0.0363  0.0438  0.2744
 5696SOL    HW228551   4.074   1.854   3.357 -0.0041  3.6889 -0.4668
 5697SOL     OW28552   1.714   2.654  12.567  0.5763  0.4401 -0.2502
 5697SOL    HW128553   1.626   2.623  12.590  1.0015 -0.3943  0.2338
 5697SOL    HW228554   1.773   2.598  12.616 -0.1262 -0.0531  0.0316
 5698SOL     OW28555   1.374   0.022   6.504 -0.4385  0.1110 -0.6929
 5698SOL    HW128556   1.305   4.686   6.529  0.5306 -0.8106 -0.2241
 5698SOL    HW228557   1.455   4.707   6.536  0.1519  1.5320 -0.4076
 5699SOL     OW28558   2.248   3.714   0.463 -0.9252 -0.1790 -0.0502
 5699SOL    HW128559   2.251   3.789   0.403  0.1153 -0.9471 -0.9464
 5699SOL    HW228560   2.180   3.664   0.418 -0.8829  0.1636 -0.4914
 5700SOL     OW28561   3.752   2.710   0.153  0.0616  0.4659 -0.4054
 5700SOL    HW128562   3.726   2.799   0.179  3.6298  1.4110 -0.0719
 5700SOL    HW228563   3.718   2.694   0.065 -0.3585 -0.2774 -0.1116
 5701SOL     OW28564   1.873   2.921  10.383 -0.1911  0.2180  0.6351
 5701SOL    HW128565   1.872   3.017  10.374  1.6438  0.2438  0.6940
 5701SOL    HW228566   1.914   2.906  10.468  1.7700  0.1760 -0.3255
 5702SOL     OW28567   2.298   2.582   9.101 -0.3787  0.3824  0.1339
 5702SOL    HW128568   2.301   2.596   9.195  2.4619  1.2661 -0.0653
 5702SOL    HW228569   2.361   2.646   9.066 -0.4426 -0.3302 -1.2938
 5703SOL     OW28570   0.946   3.866   9.829 -0.4396 -0.5611  0.2041
 5703SOL    HW128571   0.947   3.773   9.851 -0.0749 -0.6070 -0.0144
 5703SOL    HW228572   0.946   3.911   9.914  1.8803  2.1031 -1.1844
 5704SOL     OW28573   2.125   2.088   7.856  0.5200 -0.4118 -0.0927
 5704SOL    HW128574   2.097   2.095   7.947 -1.4803  1.5795 -0.8371
 5704SOL    HW228575   2.081   2.161   7.810  2.0120  0.3595 -0.2907
 5705SOL     OW28576   1.898   4.119   7.120  0.7060 -0.2235 -0.9937
 5705SOL    HW128577   1.911   4.034   7.077 -1.9433 -1.5897  0.8899
 5705SOL    HW228578   1.963   4.110   7.189 -0.8577 -2.2047  0.2270
 5706SOL     OW28579   3.259   2.684  15.904  0.0046 -0.5995  0.2825
 5706SOL    HW128580   3.210   2.625  15.846  3.1326 -0.4526 -2.5488
 5706SOL    HW228581   3.338   2.696  15.851  0.0150  1.1194  0.6954
 5707SOL     OW28582   4.226   1.107   8.267 -0.1259  0.6946 -0.4353
 5707SOL    HW128583   4.321   1.114   8.269 -0.4361  3.7756  3.5115
 5707SOL    HW228584   4.210   1.128   8.359  2.0169  2.0890 -0.3944
 5708SOL     OW28585   0.351   2.911  12.486  0.1560  0.2803  0.1936
 5708SOL    HW128586   0.257   2.907  12.472 -0.2766  0.0266  3.2462
 5708SOL    HW228587   0.373   2.819  12.496 -2.4088 -0.5602 -1.8903
 5709SOL     OW28588   3.089   0.491   9.272 -0.3017 -0.1006 -0.1007
 5709SOL    HW128589   3.076   0.564   9.332  1.5206  0.1087  0.0385
 5709SOL    HW228590   3.084   0.425   9.341 -0.0509 -0.7244 -0.6730
 5710SOL     OW28591   3.687   2.251  10.795  0.0220  0.8542  0.2374
 5710SOL    HW128592   3.730   2.170  10.770 -1.0803  0.1867  0.5216
 5710SOL    HW228593   3.742   2.286  10.866 -2.1939  1.7243  1.5507
 5711SOL     OW28594   1.562   3.247   5.019 -0.5345 -0.5848 -0.3653
 5711SOL    HW128595   1.580   3.326   4.967 -0.4397 -1.6503 -1.9624
 5711SOL    HW228596   1.466   3.245   5.026 -0.6637  1.0928 -1.6034
 5712SOL     OW28597   1.410   1.070   4.705 -0.0522  0.4374  0.0665
 5712SOL    HW128598   1.432   1.014   4.779 -3.1933  0.3244  0.9494
 5712SOL    HW228599   1.316   1.071   4.727 -0.1947 -0.3266 -0.4838
 5713SOL     OW28600   0.687   0.670  11.813  0.4897 -0.2864  0.0757
 5713SOL    HW128601   0.601   0.632  11.827 -0.4544  1.8152  0.0422
 5713SOL    HW228602   0.683   0.735  11.883 -0.2030 -0.0825 -0.1562
 5714SOL     OW28603   0.986   2.145   2.929 -0.3764 -0.2492  0.3874
 5714SOL    HW128604   0.958   2.057   2.953 -1.2180 -0.8233 -2.7049
 5714SOL    HW228605   0.910   2.198   2.906 -1.3703 -1.1672  1.5613
 5715SOL     OW28606   4.283   3.224  12.138 -0.7867  0.1629  0.5653
 5715SOL    HW128607   4.367   3.185  12.112 -1.2665 -0.5030  0.0231
 5715SOL    HW228608   4.296   3.319  12.140 -0.0569  0.0502  1.1966
 5716SOL     OW28609   0.266   3.511   8.245  0.2312  0.6478  0.0224
 5716SOL    HW128610   0.318   3.540   8.320 -1.0385 -1.5081  1.7453
 5716SOL    HW228611   0.180   3.492   8.282  0.5826 -0.5967  0.2097
 5717SOL     OW28612   1.601   1.345  11.147  0.0963 -0.4435  0.1421
 5717SOL    HW128613   1.686   1.345  11.103 -1.5229 -0.6421 -2.9807
 5717SOL    HW228614   1.557   1.268  11.111 -0.0913 -0.6299  0.7608
 5718SOL     OW28615   4.225   3.306   4.779 -0.8700 -0.4804 -0.5094
 5718SOL    HW128616   4.172   3.241   4.824 -1.5304  1.6674  1.8492
 5718SOL    HW228617   4.255   3.366   4.847  1.5556 -0.7965 -1.3126
 5719SOL     OW28618   2.694   3.784   3.758  0.1355  0.0181 -0.0071
 5719SOL    HW128619   2.605   3.755   3.781 -0.6019  1.5812 -0.8743
 5719SOL    HW228620   2.738   3.751   3.837  1.2041  1.8908  0.1796
 5720SOL     OW28621   4.129   0.554   2.244 -0.1258 -0.1453 -0.0055
 5720SOL    HW128622   4.122   0.647   2.223  0.3228  0.0454  0.6893
 5720SOL    HW228623   4.185   0.516   2.176  0.7295 -1.1495  1.2467
 5721SOL     OW28624   3.032   1.143  14.308  0.0540 -0.1424 -0.1961
 5721SOL    HW128625   3.110   1.189  14.278 -0.1801  1.7788  2.1790
 5721SOL    HW228626   3.058   1.141  14.400 -0.5525 -0.5896 -0.0312
 5722SOL     OW28627   3.120   2.811   7.913 -0.3378  0.0273 -0.4153
 5722SOL    HW128628   3.037   2.833   7.955 -0.9025  0.2134 -1.6213
 5722SOL    HW228629   3.185   2.826   7.981 -0.6368  0.5401 -0.2460
 5723SOL     OW28630   3.002   0.947  10.128 -0.0681  0.5046  0.0902
 5723SOL    HW128631   3.023   0.997  10.206  2.0980 -1.7022  0.9038
 5723SOL    HW228632   2.981   0.861  10.165 -0.0115  0.7225  0.6153
 5724SOL     OW28633   0.500   4.321   2.712  0.5257 -0.3524 -0.2410
 5724SOL    HW128634   0.586   4.339   2.674  0.1351 -1.1448 -1.4737
 5724SOL    HW228635   0.521   4.261   2.784  0.5454  3.3679  2.9111
 5725SOL     OW28636   1.202   3.431   0.222  0.0808 -0.1145  0.3698
 5725SOL    HW128637   1.152   3.365   0.174 -1.7061 -0.1157  2.2153
 5725SOL    HW228638   1.287   3.417   0.181 -1.3688 -1.7561 -2.0597
 5726SOL     OW28639   1.838   0.685   9.142 -0.2791  0.4159  0.3581
 5726SOL    HW128640   1.844   0.683   9.238  0.9482  1.1862  0.3008
 5726SOL    HW228641   1.861   0.777   9.125 -2.0353  1.0803  1.6294
 5727SOL     OW28642   2.604   0.839   2.548 -0.1593  0.1379 -0.3918
 5727SOL    HW128643   2.649   0.788   2.481  0.1911  1.4621 -1.1564
 5727SOL    HW228644   2.642   0.804   2.629 -0.0235  2.7538  0.6665
 5728SOL     OW28645   1.366   2.177  14.076 -0.1668  0.1373 -0.0622
 5728SOL    HW128646   1.332   2.088  14.066 -0.1129  0.3385 -2.0703
 5728SOL    HW228647   1.308   2.230  14.131 -0.8803 -0.5835 -0.1274
 5729SOL     OW28648   2.442   4.709   3.920 -0.1121  0.1654  0.7001
 5729SOL    HW128649   2.419   4.690   4.011  2.2812  1.7077  1.6174
 5729SOL    HW228650   2.370   0.036   3.886 -1.0006 -1.0270  0.7503
 5730SOL     OW28651   3.107   0.132  14.445 -0.1305 -0.7605 -0.2701
 5730SOL    HW128652   3.084   0.209  14.395  2.8879  0.2815 -0.1027
 5730SOL    HW228653   3.053   0.063  14.407 -0.4417  0.0691 -1.3029
 5731SOL     OW28654   1.333   4.444  16.620  0.2764  0.0352  0.4750
 5731SOL    HW128655   1.242   4.467  16.639  0.2402  0.6514 -0.4805
 5731SOL    HW228656   1.356   4.379  16.687 -0.4814 -0.9683 -0.2349
 5732SOL     OW28657   1.380   0.108   3.599  0.4790  0.6064 -0.3680
 5732SOL    HW128658   1.338   0.151   3.525 -0.4101  0.0053 -0.2152
 5732SOL    HW228659   1.446   0.171   3.629  1.0903  0.5409 -1.5994
 5733SOL     OW28660   2.344   3.572   2.105  0.6619  0.4409  0.2572
 5733SOL    HW128661   2.346   3.665   2.084  3.8166  0.1160 -0.8116
 5733SOL    HW228662   2.262   3.540   2.068  0.6038 -0.5988  1.2616
 5734SOL     OW28663   0.557   1.864   4.213 -0.1224  0.1988  0.1647
 5734SOL    HW128664   0.513   1.859   4.298  0.3299 -2.1707  0.2641
 5734SOL    HW228665   0.608   1.944   4.224 -0.6279  0.6662 -0.8777
 5735SOL     OW28666   4.427   2.346   8.187  0.0592  0.0396 -0.5088
 5735SOL    HW128667   4.340   2.320   8.157 -0.2863  0.4771  0.1204
 5735SOL    HW228668   4.459   2.258   8.209 -1.5111 -0.3096  0.3704
 5736SOL     OW28669   3.060   0.398   4.815 -0.3942  0.1596  0.0677
 5736SOL    HW128670   3.092   0.428   4.730 -0.6887 -2.5180 -1.0072
 5736SOL    HW228671   2.992   0.333   4.795  0.7451 -1.4053  1.4052
 5737SOL     OW28672   2.786   1.285   5.194  0.4789 -0.2410 -0.3896
 5737SOL    HW128673   2.871   1.328   5.203  0.8350 -1.1059  0.2776
 5737SOL    HW228674   2.756   1.292   5.285  1.5542  1.0531 -0.1387
 5738SOL     OW28675   1.360   3.393   4.093  0.1585 -0.1900 -0.0514
 5738SOL    HW128676   1.454   3.395   4.076 -0.0804 -2.0179 -1.5531
 5738SOL    HW228677   1.352   3.362   4.183 -0.9421  0.9180  0.2444
 5739SOL     OW28678   3.385   0.354  15.832  0.3248  0.4669 -0.0836
 5739SOL    HW128679   3.477   0.372  15.853  0.7927 -2.4342  0.2433
 5739SOL    HW228680   3.349   0.441  15.854 -1.7093  0.6080 -4.0401
 5740SOL     OW28681   4.300   1.743   3.321 -0.0494 -0.0641 -0.7577
 5740SOL    HW128682   4.362   1.709   3.385  0.1701  1.4426 -0.1606
 5740SOL    HW228683   4.233   1.785   3.375  2.9590  0.3248  2.6553
 5741SOL     OW28684   0.499   1.767   4.468  0.4338  0.5720 -0.3455
 5741SOL    HW128685   0.453   1.691   4.431 -0.0284  1.5217 -1.7312
 5741SOL    HW228686   0.586   1.728   4.459  0.8590  1.2996  0.6060
 5742SOL     OW28687   4.520   3.445   4.988  0.4480 -0.3817  0.2252
 5742SOL    HW128688   4.428   3.426   5.009  0.0249  0.7881 -0.5976
 5742SOL    HW228689   4.515   3.450   4.893 -0.4254 -0.9535  0.2429
 5743SOL     OW28690   4.222   3.679   6.811  0.6356 -0.1806  0.1074
 5743SOL    HW128691   4.259   3.767   6.815  1.2851 -0.3426 -2.3142
 5743SOL    HW228692   4.268   3.650   6.732 -0.7729  0.9246 -1.1117
 5744SOL     OW28693   2.503   3.281   4.894  1.0998 -0.0139 -0.3365
 5744SOL    HW128694   2.408   3.287   4.878  0.9893  1.1922  0.7145
 5744SOL    HW228695   2.515   3.199   4.847  0.1278 -0.5210  0.2849
 5745SOL     OW28696   4.333   2.862  14.058  0.5326 -0.1423 -0.1121
 5745SOL    HW128697   4.297   2.857  14.146  2.9731 -0.5465  0.8472
 5745SOL    HW228698   4.346   2.770  14.039  1.9641  0.2903 -1.2458
 5746SOL     OW28699   0.642   0.399  12.272 -0.2172 -0.2628  0.0060
 5746SOL    HW128700   0.583   0.451  12.217 -0.5328  0.5660  1.1312
 5746SOL    HW228701   0.682   0.471  12.321 -0.4348 -0.6771  0.7817
 5747SOL     OW28702   4.707   0.964   4.032 -0.2338 -0.4180  0.2609
 5747SOL    HW128703   4.612   0.956   4.016 -0.7426  4.0484  1.2196
 5747SOL    HW228704   4.718   1.057   4.015 -0.2859  0.0010  2.5478
 5748SOL     OW28705   0.631   2.963   5.777  0.4316 -0.2796 -0.5147
 5748SOL    HW128706   0.601   2.962   5.686 -1.5846 -0.2385  0.1532
 5748SOL    HW228707   0.713   2.915   5.768  0.2505 -0.3443 -1.9031
 5749SOL     OW28708   2.716   1.979  16.118 -0.0350 -0.3765  0.3495
 5749SOL    HW128709   2.739   2.066  16.086 -0.1091 -1.0407 -1.5342
 5749SOL    HW228710   2.791   1.961  16.174 -0.8082  1.5834  1.9895
 5750SOL     OW28711   2.669   4.169   7.467  0.6979  0.2001 -0.3058
 5750SOL    HW128712   2.734   4.206   7.408  0.6700  1.2263  0.3057
 5750SOL    HW228713   2.690   4.076   7.464  1.5664  0.4368 -1.6171
 5751SOL     OW28714   2.360   1.924   4.782  0.5842  0.0693 -0.9632
 5751SOL    HW128715   2.349   1.831   4.805 -0.8261  0.4167 -0.2274
 5751SOL    HW228716   2.446   1.947   4.817  1.2173 -1.6579 -1.3886
 5752SOL     OW28717   2.241   3.554   2.596 -0.0619 -0.1246  0.5813
 5752SOL    HW128718   2.149   3.574   2.578  0.3624 -0.8655 -2.4814
 5752SOL    HW228719   2.267   3.514   2.513 -0.5933 -0.3956  0.5452
 5753SOL     OW28720   4.326   0.175   5.695  0.2921  0.1699  0.1764
 5753SOL    HW128721   4.402   0.190   5.751 -1.1991  2.8855  1.4568
 5753SOL    HW228722   4.312   0.260   5.653 -2.1941  0.1868  1.0794
 5754SOL     OW28723   3.598   4.547   4.503  0.4245 -0.7937  0.1823
 5754SOL    HW128724   3.654   4.556   4.580 -0.2301 -3.5713  1.0027
 5754SOL    HW228725   3.534   4.614   4.525  0.6162 -1.1504  1.8599
 5755SOL     OW28726   1.355   2.709   4.266 -0.2822 -0.6288  0.5474
 5755SOL    HW128727   1.277   2.718   4.210 -0.2065 -0.5316  0.4598
 5755SOL    HW228728   1.420   2.698   4.196 -1.5550 -0.9296 -0.5998
 5756SOL     OW28729   0.474   2.105   3.938 -0.5234  0.3575  0.2011
 5756SOL    HW128730   0.462   2.199   3.951  0.7465  0.7212 -1.1533
 5756SOL    HW228731   0.570   2.098   3.932 -0.5364  0.8584 -0.5700
 5757SOL     OW28732   3.760   4.040   3.178  0.1548  0.4201  0.0354
 5757SOL    HW128733   3.810   4.043   3.259  1.2707 -1.9528 -0.5456
 5757SOL    HW228734   3.830   4.050   3.113  1.9861 -0.9666  1.7888
 5758SOL     OW28735   0.677   2.948   5.500 -0.3612  0.3830 -0.3994
 5758SOL    HW128736   0.620   2.987   5.433 -0.9346 -1.5444 -1.0379
 5758SOL    HW228737   0.761   2.985   5.475 -0.0054 -1.1848 -1.5273
 5759SOL     OW28738   1.704   3.054   9.582 -0.0890  0.4432 -0.4706
 5759SOL    HW128739   1.746   3.093   9.659 -0.7977  1.1362 -0.4288
 5759SOL    HW228740   1.770   2.996   9.545  0.2416 -0.7915  2.0701
 5760SOL     OW28741   4.437   2.605   6.163  0.6115 -0.3188  0.3334
 5760SOL    HW128742   4.468   2.696   6.162  1.2557 -0.5352  0.2254
 5760SOL    HW228743   4.375   2.613   6.235  0.2943  1.8657 -0.1742
 5761SOL     OW28744   3.080   0.082   7.028  0.1200  0.0145 -0.1402
 5761SOL    HW128745   3.136   0.154   7.057 -0.3481  0.2941  0.0821
 5761SOL    HW228746   3.101   0.024   7.102  1.8205  0.2268 -0.4731
 5762SOL     OW28747   1.347   2.984   7.744 -0.0671  0.1027 -0.5259
 5762SOL    HW128748   1.399   2.934   7.680  0.1115 -0.4865  0.0801
 5762SOL    HW228749   1.258   2.962   7.717 -0.1276 -1.2413  0.7662
 5763SOL     OW28750   0.637   2.551   4.396 -0.2591  0.2889 -0.0250
 5763SOL    HW128751   0.626   2.497   4.317 -1.1125 -1.0056  0.9820
 5763SOL    HW228752   0.543   2.560   4.412 -0.3795 -1.2263  0.1292
 5764SOL     OW28753   0.826   3.777   3.650  0.3585 -0.0974 -0.0421
 5764SOL    HW128754   0.907   3.759   3.602  0.0132  0.7172 -0.9241
 5764SOL    HW228755   0.822   3.873   3.640 -1.5949 -0.0154  1.6099
 5765SOL     OW28756   3.501   4.262   5.159  0.0793  0.4473 -0.1947
 5765SOL    HW128757   3.485   4.184   5.213 -1.0850  0.0386 -1.1364
 5765SOL    HW228758   3.582   4.234   5.117  0.8250  0.3341  1.2987
 5766SOL     OW28759   3.807   1.658   9.158  0.3024  0.2816 -0.2057
 5766SOL    HW128760   3.801   1.579   9.212 -2.4479 -0.4191 -1.5503
 5766SOL    HW228761   3.891   1.690   9.192  0.8442 -2.8008  1.3582
 5767SOL     OW28762   2.311   3.111   4.570  0.1385 -0.2452  0.0610
 5767SOL    HW128763   2.381   3.076   4.625  0.5334 -0.4096 -0.5324
 5767SOL    HW228764   2.277   3.188   4.615  0.9032  0.6448 -0.8711
 5768SOL     OW28765   2.775   4.267   1.372 -0.2057 -0.1030 -0.0142
 5768SOL    HW128766   2.696   4.239   1.325  0.5594 -0.8280 -0.8788
 5768SOL    HW228767   2.813   4.179   1.368  0.9745  0.4967 -1.9600
 5769SOL     OW28768   2.754   0.330  14.035  0.1801  0.3862  0.6258
 5769SOL    HW128769   2.831   0.374  14.000  0.6658  0.2190  1.5071
 5769SOL    HW228770   2.679   0.389  14.018 -0.2276 -0.4494 -0.4637
 5770SOL     OW28771   3.382   0.935  11.348  0.2986 -0.1009  0.1044
 5770SOL    HW128772   3.388   0.840  11.352  0.9910 -0.0206  0.8472
 5770SOL    HW228773   3.349   0.948  11.259  0.6395 -0.9759 -0.1489
 5771SOL     OW28774   4.341   0.177  12.123 -0.4581  0.1961  0.8644
 5771SOL    HW128775   4.423   0.144  12.086  0.0734 -0.6327  2.7713
 5771SOL    HW228776   4.365   0.244  12.187 -1.7576  1.9358 -0.4443
 5772SOL     OW28777   3.350   0.138   5.373  0.2179 -0.3785 -0.1687
 5772SOL    HW128778   3.318   0.089   5.449 -0.6301 -1.5862 -1.2979
 5772SOL    HW228779   3.426   0.189   5.402 -0.5505 -0.4535  1.9599
 5773SOL     OW28780   4.355   4.120   7.407 -0.2741  0.0613  0.8505
 5773SOL    HW128781   4.315   4.202   7.437 -1.8545 -1.0433  1.7375
 5773SOL    HW228782   4.340   4.069   7.487  3.6570  0.7954  2.1156
 5774SOL     OW28783   1.948   3.953   3.561 -0.3725 -0.1677 -0.6703
 5774SOL    HW128784   1.981   3.869   3.531 -1.2429 -0.5304 -0.6065
 5774SOL    HW228785   1.864   3.957   3.516 -0.6520  3.2824  0.1092
 5775SOL     OW28786   2.228   1.059   6.331 -0.3489 -0.5089  0.1154
 5775SOL    HW128787   2.132   1.059   6.323 -0.4087 -3.6266  0.5730
 5775SOL    HW228788   2.236   1.017   6.417  1.0951  0.1285  0.2730
 5776SOL     OW28789   0.785   0.650   4.847  0.0205 -0.0510  0.0315
 5776SOL    HW128790   0.707   0.667   4.794  0.0441 -1.4120 -0.4326
 5776SOL    HW228791   0.735   0.677   4.925 -0.0583 -1.8839  0.6183
 5777SOL     OW28792   1.534   0.316   3.737 -0.5669  0.3133  1.1815
 5777SOL    HW128793   1.620   0.359   3.735  0.0545 -0.9575 -0.2864
 5777SOL    HW228794   1.518   0.302   3.830  0.4784 -1.3607  1.1135
 5778SOL     OW28795   0.609   2.417   5.191  0.2671  0.9403 -0.2244
 5778SOL    HW128796   0.517   2.429   5.168  0.4329  2.2554 -0.2094
 5778SOL    HW228797   0.612   2.329   5.228 -1.4051  1.5433  1.3686
 5779SOL     OW28798   1.285   1.918   0.105  0.1507 -0.6593  0.3220
 5779SOL    HW128799   1.271   1.834   0.150  3.4957 -0.8852  0.9360
 5779SOL    HW228800   1.291   1.971   0.184 -2.4491  0.6379 -0.3546
 5780SOL     OW28801   3.556   1.329   9.521 -0.2984 -0.2521 -0.1397
 5780SOL    HW128802   3.565   1.391   9.594  2.5941 -1.3316  0.4142
 5780SOL    HW228803   3.568   1.250   9.574  0.0656 -1.3426 -1.8680
 5781SOL     OW28804   2.506   3.701   1.564 -0.0949 -0.2385  0.3282
 5781SOL    HW128805   2.524   3.687   1.471  1.5245  1.0237  0.4611
 5781SOL    HW228806   2.576   3.761   1.590  0.7980 -1.4872  0.8142
 5782SOL     OW28807   1.441   1.294   5.505 -0.1658 -0.2127  0.0409
 5782SOL    HW128808   1.350   1.323   5.504 -0.3732 -0.9232 -1.4202
 5782SOL    HW228809   1.431   1.219   5.564 -1.4265 -0.7661 -0.8858
 5783SOL     OW28810   3.061   2.117   9.703  0.4074 -0.3819  0.0898
 5783SOL    HW128811   3.029   2.136   9.791 -1.3825 -1.7015 -0.2676
 5783SOL    HW228812   3.037   2.193   9.650  0.2930  0.8440  1.9109
 5784SOL     OW28813   1.448   0.007  10.591  0.0161 -0.3441 -0.8548
 5784SOL    HW128814   1.502   0.034  10.517  0.6214  1.2591  0.1619
 5784SOL    HW228815   1.415   0.096  10.607  0.2650 -0.3047 -0.5622
 5785SOL     OW28816   2.956   4.415  10.179 -0.0671 -0.1715  0.6174
 5785SOL    HW128817   3.030   4.439  10.235  1.6683  2.8375 -2.9091
 5785SOL    HW228818   2.877   4.455  10.214  1.7153  0.9724  3.2863
 5786SOL     OW28819   0.365   3.579   8.498 -0.6402 -0.8818 -0.0516
 5786SOL    HW128820   0.446   3.539   8.466  0.3581 -1.3023  2.9769
 5786SOL    HW228821   0.305   3.504   8.503 -0.3360 -1.2160 -1.4127
 5787SOL     OW28822   4.398   0.149  15.846  0.8767  0.7185 -0.4687
 5787SOL    HW128823   4.412   0.222  15.786 -0.5433  1.4851  0.1345
 5787SOL    HW228824   4.409   0.069  15.795  0.9340 -0.7252  1.7884
 5788SOL     OW28825   1.601   3.676   9.338 -0.2033 -0.3521 -0.6093
 5788SOL    HW128826   1.694   3.655   9.343 -0.2951 -0.4095  1.1695
 5788SOL    HW228827   1.568   3.590   9.311 -0.3035  0.0316 -1.6844
 5789SOL     OW28828   1.382   0.541   2.165  0.0355 -0.3092 -0.2650
 5789SOL    HW128829   1.476   0.554   2.153  0.3342 -1.5724  0.6785
 5789SOL    HW228830   1.357   0.632   2.181  0.1390 -0.2243 -0.5914
 5790SOL     OW28831   4.419   0.853  11.172 -0.1229  0.6304 -0.1567
 5790SOL    HW128832   4.508   0.866  11.142  0.2144  1.7259  1.3363
 5790SOL    HW228833   4.424   0.872  11.265  1.2601  0.8159 -0.2707
 5791SOL     OW28834   0.454   4.616   6.136  0.1755 -0.0289  0.1838
 5791SOL    HW128835   0.478   4.682   6.200 -1.9182  2.1835 -1.3052
 5791SOL    HW228836   0.439   4.660   6.053  0.4417 -1.2693 -0.5328
 5792SOL     OW28837   0.111   0.217  16.715  0.0198  0.5043  0.0198
 5792SOL    HW128838   0.095   0.215  16.621  1.7996 -2.3250 -0.2158
 5792SOL    HW228839   0.029   0.246  16.755 -0.1171  0.9249 -0.5683
 5793SOL     OW28840   4.400   4.706   5.541 -0.4419 -0.1021  0.9832
 5793SOL    HW128841   4.368   0.049   5.600  1.8706  1.0165  0.9247
 5793SOL    HW228842   4.478   4.676   5.589  0.0861 -0.8247 -0.3218
 5794SOL     OW28843   1.363   0.903   6.539  0.2737 -0.4448 -0.1574
 5794SOL    HW128844   1.398   0.848   6.469 -1.3934 -0.6131 -0.8568
 5794SOL    HW228845   1.311   0.839   6.588  2.5215 -1.2664  1.1964
 5795SOL     OW28846   0.653   4.613   3.162  0.4338 -0.0131  1.0681
 5795SOL    HW128847   0.646   4.681   3.095  1.6330 -0.7075  0.2199
 5795SOL    HW228848   0.749   4.606   3.158  0.4399  0.8401 -0.4218
 5796SOL     OW28849   3.880   0.608   5.283  0.0114 -0.0321  0.2595
 5796SOL    HW128850   3.820   0.543   5.320  0.1242 -0.4335 -0.2699
 5796SOL    HW228851   3.842   0.694   5.300 -1.7837 -1.4808  3.7083
 5797SOL     OW28852   2.606   2.065   6.983  0.4438 -0.8945 -0.6277
 5797SOL    HW128853   2.589   2.155   7.012  0.0437 -1.6533  1.5330
 5797SOL    HW228854   2.524   2.025   7.012  0.1845  0.6435  0.8053
 5798SOL     OW28855   1.340   1.478   7.833 -0.2735  0.1987 -0.4783
 5798SOL    HW128856   1.280   1.539   7.790 -1.1700 -0.0853  0.3723
 5798SOL    HW228857   1.426   1.521   7.827 -0.4099  0.5278 -0.0379
 5799SOL     OW28858   0.719   3.787   6.636 -0.4738  0.2381 -0.2652
 5799SOL    HW128859   0.660   3.755   6.704 -1.2177  2.6139  0.2171
 5799SOL    HW228860   0.792   3.817   6.691 -1.4234  2.8165 -0.4011
 5800SOL     OW28861   2.883   4.074  16.322  0.2387  0.5332  0.3245
 5800SOL    HW128862   2.942   4.134  16.277  0.1538  0.4107  0.0486
 5800SOL    HW228863   2.921   4.070  16.410 -2.0224 -0.3540  1.2773
 5801SOL     OW28864   0.061   0.683   7.613 -0.0699 -0.3046 -0.6164
 5801SOL    HW128865   0.144   0.680   7.661 -1.4634  0.2581  1.7738
 5801SOL    HW228866   0.086   0.629   7.538 -0.8479 -1.4837 -0.0314
 5802SOL     OW28867   0.916   0.248   3.036  0.0810  0.1078  0.2080
 5802SOL    HW128868   0.889   0.326   2.989  0.6799  1.6299  2.3940
 5802SOL    HW228869   0.866   0.257   3.117  1.9228  1.0114  1.2282
 5803SOL     OW28870   2.262   1.183   7.252 -0.3748  0.0566 -0.5077
 5803SOL    HW128871   2.299   1.239   7.184 -0.7150 -1.5781 -2.0526
 5803SOL    HW228872   2.290   1.094   7.230 -0.6926 -0.2757  0.4188
 5804SOL     OW28873   0.683   0.760   3.181  0.5063 -0.0735 -0.3562
 5804SOL    HW128874   0.639   0.675   3.175  1.1005 -0.4508  0.7166
 5804SOL    HW228875   0.611   0.818   3.155 -0.3467 -1.9049 -2.0929
 5805SOL     OW28876   0.749   0.235   9.808 -0.0798 -0.5918  0.1274
 5805SOL    HW128877   0.660   0.268   9.802  0.1360 -0.3471 -1.6189
 5805SOL    HW228878   0.740   0.186   9.890  0.3276 -0.8097  0.0442
 5806SOL     OW28879   1.084   1.600  13.702 -0.0129  0.2093  0.1007
 5806SOL    HW128880   1.126   1.669  13.650  1.4619 -1.3123 -0.7348
 5806SOL    HW228881   1.017   1.568  13.641  0.4311 -2.7570  1.1819
 5807SOL     OW28882   2.686   1.272   7.232 -0.7216  0.2996 -0.1752
 5807SOL    HW128883   2.666   1.179   7.244  0.2351 -0.0381 -1.2904
 5807SOL    HW228884   2.740   1.293   7.308 -0.7390  0.0890 -0.1057
 5808SOL     OW28885   2.078   1.426   7.738  0.2842  0.4467  0.0988
 5808SOL    HW128886   2.031   1.396   7.661  0.1144  0.0562  0.3528
 5808SOL    HW228887   2.148   1.364   7.758  1.9787  2.8268  1.5098
 5809SOL     OW28888   0.129   1.390   0.669 -0.9068 -0.1578  0.3534
 5809SOL    HW128889   0.130   1.300   0.637 -0.8085 -0.8455  2.2788
 5809SOL    HW228890   0.137   1.443   0.589 -2.3372 -0.8837 -0.2660
 5810SOL     OW28891   3.854   2.736   5.843  0.0564 -0.1318 -0.0228
 5810SOL    HW128892   3.824   2.751   5.753 -0.3651  2.9796  0.6363
 5810SOL    HW228893   3.863   2.824   5.880  1.5504  0.5663 -2.0724
 5811SOL     OW28894   4.623   2.936   4.009 -0.5514  0.4830 -0.0848
 5811SOL    HW128895   4.534   2.942   4.044 -1.0058  0.9771 -1.3006
 5811SOL    HW228896   4.658   3.022   4.034  2.7136 -0.9667  0.3032
 5812SOL     OW28897   1.214   0.776   5.583 -0.1775 -0.2654 -0.1989
 5812SOL    HW128898   1.176   0.848   5.533  0.7877  1.0425  0.9606
 5812SOL    HW228899   1.146   0.758   5.649 -0.1848  0.3133 -0.0470
 5813SOL     OW28900   2.339   0.564   1.721  0.4381 -0.1375 -0.2300
 5813SOL    HW128901   2.407   0.631   1.736  3.0548 -2.8116 -0.2305
 5813SOL    HW228902   2.343   0.524   1.807  0.7944 -0.4198 -0.3801
 5814SOL     OW28903   1.979   1.336  12.924 -0.2491  0.5758  0.7269
 5814SOL    HW128904   2.062   1.359  12.967 -0.0534 -2.7316  2.0696
 5814SOL    HW228905   2.008   1.324  12.834  0.1435  1.1611  0.7677
 5815SOL     OW28906   1.455   1.653  11.694  0.2468 -0.1158  0.5808
 5815SOL    HW128907   1.389   1.667  11.762 -0.3584  1.6719 -0.3893
 5815SOL    HW228908   1.416   1.717  11.635  0.0179  0.1345  1.0089
 5816SOL     OW28909   4.632   1.970   3.132 -0.6706 -0.0409  0.8096
 5816SOL    HW128910   4.559   1.911   3.114  0.5750 -0.6081 -2.2630
 5816SOL    HW228911   4.594   2.045   3.086 -0.8038 -1.3141 -1.1294
 5817SOL     OW28912   4.547   0.374   2.228 -0.2849  0.5860 -0.0894
 5817SOL    HW128913   4.596   0.443   2.272  0.5877 -0.2482  0.2538
 5817SOL    HW228914   4.565   0.297   2.282 -0.2695  0.6568  0.0059
 5818SOL     OW28915   4.201   2.304   1.834 -0.1177  0.5961  0.8415
 5818SOL    HW128916   4.279   2.263   1.871 -0.6224 -0.5956  0.5849
 5818SOL    HW228917   4.157   2.332   1.914 -2.2739  0.1853 -0.2196
 5819SOL     OW28918   2.927   3.466   4.842  0.3713 -0.7595  0.1455
 5819SOL    HW128919   2.840   3.467   4.883  0.9412  0.8399  1.2788
 5819SOL    HW228920   2.900   3.448   4.751  2.4420 -0.1885 -0.5820
 5820SOL     OW28921   3.554   3.960  11.301 -0.0201  0.1434  0.6042
 5820SOL    HW128922   3.487   3.913  11.351 -0.2679  0.1101  0.2367
 5820SOL    HW228923   3.504   4.015  11.242 -3.3456 -1.9460  1.4657
 5821SOL     OW28924   4.623   0.424   3.307 -0.2965 -0.3786 -0.0790
 5821SOL    HW128925   4.624   0.508   3.352 -3.4502 -0.2498 -0.2635
 5821SOL    HW228926   4.705   0.384   3.336 -0.4583 -2.5950 -2.6901
 5822SOL     OW28927   2.472   4.087   3.651 -0.3503 -0.5718 -0.6839
 5822SOL    HW128928   2.414   4.013   3.664  0.3311 -0.6829  1.6285
 5822SOL    HW228929   2.525   4.053   3.579  2.0500  0.4848  0.5619
 5823SOL     OW28930   0.887   3.183   2.356 -0.3291 -0.4435 -1.0070
 5823SOL    HW128931   0.800   3.153   2.332 -0.7441 -0.2242  0.2073
 5823SOL    HW228932   0.882   3.273   2.322 -1.5967  0.3658  1.2976
 5824SOL     OW28933   0.159   2.709   7.257 -0.6290  0.7506 -0.4085
 5824SOL    HW128934   0.142   2.665   7.174  1.4379 -1.5900  0.3900
 5824SOL    HW228935   0.244   2.749   7.234  0.5020 -0.5111  1.6229
 5825SOL     OW28936   3.828   2.486   7.036  0.2910  0.4326 -0.4017
 5825SOL    HW128937   3.831   2.497   7.131 -0.3843 -0.6471 -0.2448
 5825SOL    HW228938   3.909   2.523   7.002  0.7819 -0.6455 -0.4137
 5826SOL     OW28939   4.405   0.729   4.607 -0.4261  0.1658 -0.0668
 5826SOL    HW128940   4.401   0.807   4.551 -1.2506  1.3043  1.5536
 5826SOL    HW228941   4.428   0.772   4.690  0.4533 -0.0335 -0.2028
 5827SOL     OW28942   1.968   2.501   3.687 -0.0485 -0.8283  0.2875
 5827SOL    HW128943   2.014   2.538   3.762 -2.0617 -0.0401  1.1458
 5827SOL    HW228944   2.029   2.430   3.667  0.7571  0.0297 -0.2801
 5828SOL     OW28945   0.827   3.770   2.226  0.0941  0.6792 -0.0945
 5828SOL    HW128946   0.753   3.711   2.221  0.1074  0.6367  0.2253
 5828SOL    HW228947   0.841   3.781   2.320 -0.8594 -0.4136  0.1702
 5829SOL     OW28948   3.795   2.061   0.067 -0.2747  0.0696 -0.0523
 5829SOL    HW128949   3.860   2.057  17.699 -1.9015  0.5411 -1.5956
 5829SOL    HW228950   3.739   2.132   0.036 -2.0729 -0.9833  0.8076
 5830SOL     OW28951   1.213   4.010   0.468  0.4433 -0.2519 -0.3024
 5830SOL    HW128952   1.245   4.016   0.558  1.2287  0.1679 -0.6097
 5830SOL    HW228953   1.272   3.947   0.427  0.3269 -0.7075  0.2370
 5831SOL     OW28954   4.403   3.064  10.689  0.0595  0.5369 -0.3394
 5831SOL    HW128955   4.366   3.039  10.774  1.8994  1.1489  0.6250
 5831SOL    HW228956   4.323   3.046  10.638 -1.1460  0.5271  1.5696
 5832SOL     OW28957   4.066   2.123   4.619  0.2984  0.3282  0.2128
 5832SOL    HW128958   4.137   2.176   4.581 -0.1491 -0.2051 -1.3781
 5832SOL    HW228959   4.052   2.155   4.708 -0.4818  1.7145 -0.4177
 5833SOL     OW28960   4.130   1.042   9.005  0.0795 -0.9325 -0.3405
 5833SOL    HW128961   4.087   1.085   9.079 -0.1557  0.4761 -1.2855
 5833SOL    HW228962   4.116   0.950   9.028  0.4467 -0.7965  0.4341
 5834SOL     OW28963   1.409   0.820   1.734 -0.3615 -0.5167  0.3553
 5834SOL    HW128964   1.468   0.750   1.706 -0.7912 -1.3382  1.5245
 5834SOL    HW228965   1.419   0.891   1.670  0.5574 -0.2372  0.8048
 5835SOL     OW28966   4.030   4.105   7.793  0.0576  0.1591 -0.1304
 5835SOL    HW128967   3.938   4.086   7.809  0.2360 -0.0488  0.6365
 5835SOL    HW228968   4.050   4.177   7.853  0.7588 -0.6228  0.5799
 5836SOL     OW28969   3.452   3.014  17.265  0.6479  0.1096 -0.6191
 5836SOL    HW128970   3.371   2.974  17.295  0.4687  2.6626  2.3701
 5836SOL    HW228971   3.457   3.086  17.328  0.4929 -0.5476  0.1323
 5837SOL     OW28972   3.924   1.384  13.790 -0.0640 -0.0323 -0.0421
 5837SOL    HW128973   3.919   1.473  13.754  0.0572 -0.2185 -0.5125
 5837SOL    HW228974   3.978   1.401  13.867  1.2117 -0.2718 -0.8894
 5838SOL     OW28975   2.631   1.168   1.207  0.0598  0.1462 -0.0019
 5838SOL    HW128976   2.715   1.155   1.251 -0.6514 -2.0147  0.6907
 5838SOL    HW228977   2.617   1.080   1.174 -1.0741 -0.0691  1.0454
 5839SOL     OW28978   3.292   4.276   6.677  0.3506  0.3912  0.3774
 5839SOL    HW128979   3.329   4.228   6.603 -0.0750  1.1433 -0.3221
 5839SOL    HW228980   3.373   4.311   6.714  1.0104 -0.8061  0.0869
 5840SOL     OW28981   1.564   4.256   2.922  0.1788  0.1467 -0.2281
 5840SOL    HW128982   1.507   4.287   2.852  1.0057  1.5813 -0.2781
 5840SOL    HW228983   1.513   4.195   2.975 -0.1507  1.4082  0.8894
 5841SOL     OW28984   2.698   4.033   2.169  0.1531  0.0242  0.2103
 5841SOL    HW128985   2.699   3.956   2.225  0.6622 -1.4175 -1.7700
 5841SOL    HW228986   2.731   4.095   2.234 -0.9254  1.7527 -0.9058
 5842SOL     OW28987   3.873   2.477   5.659  0.1206 -0.4174 -0.1846
 5842SOL    HW128988   3.874   2.382   5.653  3.9217 -0.3679 -0.2438
 5842SOL    HW228989   3.942   2.498   5.597  0.1503 -0.8197 -0.2827
 5843SOL     OW28990   4.315   1.503   2.600  0.4843  0.0166 -0.1569
 5843SOL    HW128991   4.238   1.554   2.574  0.3283 -0.5944 -0.8791
 5843SOL    HW228992   4.357   1.555   2.670  1.0080 -1.2323  0.4570
 5844SOL     OW28993   3.426   2.351   4.165 -0.4833 -0.3281 -0.6508
 5844SOL    HW128994   3.406   2.438   4.131 -1.2645 -0.0522  0.5502
 5844SOL    HW228995   3.423   2.367   4.259 -3.3347 -0.7510 -0.6904
 5845SOL     OW28996   0.791   2.631   8.923  0.9684 -0.0976 -0.2965
 5845SOL    HW128997   0.868   2.646   8.867  1.0364  3.5981  0.7551
 5845SOL    HW228998   0.794   2.700   8.989  0.9562 -1.2557  0.9165
 5846SOL     OW28999   1.802   4.255   6.224  0.0811  0.6345 -0.6154
 5846SOL    HW129000   1.768   4.344   6.231  1.7256  1.1680  0.5304
 5846SOL    HW229001   1.741   4.208   6.280  1.3831 -1.1053 -0.6453
 5847SOL     OW29002   2.451   0.191  11.163 -0.6432  0.0013 -0.1830
 5847SOL    HW129003   2.406   0.250  11.224 -1.3463 -2.9230  2.1130
 5847SOL    HW229004   2.502   0.260  11.120  1.0570 -0.1436  1.6034
 5848SOL     OW29005   2.513   1.017   7.952  0.4765  0.0046 -0.5429
 5848SOL    HW129006   2.450   1.031   8.023  1.3936  2.7604 -0.2840
 5848SOL    HW229007   2.581   0.988   8.013  1.3782 -0.2360 -1.6704
 5849SOL     OW29008   4.048   1.861   0.494  0.4881 -0.4364 -0.7304
 5849SOL    HW129009   3.996   1.930   0.536 -0.1173 -0.8821 -0.7554
 5849SOL    HW229010   3.977   1.816   0.448 -0.9860  0.5024  0.6161
 5850SOL     OW29011   4.488   4.292  15.301  0.0038 -0.2944 -0.4284
 5850SOL    HW129012   4.515   4.266  15.213 -0.1508  1.4500 -0.9981
 5850SOL    HW229013   4.555   4.243  15.350  1.5683 -0.1265 -2.4110
 5851SOL     OW29014   0.824   2.174   9.115  0.2370  0.6413  0.0269
 5851SOL    HW129015   0.870   2.239   9.063  0.8270 -0.3806 -0.7369
 5851SOL    HW229016   0.735   2.186   9.083  0.0566 -0.7942 -0.0346
 5852SOL     OW29017   2.745   1.085   2.810 -0.4920 -0.3069  0.1431
 5852SOL    HW129018   2.824   1.102   2.759  0.0820  0.0092  1.1368
 5852SOL    HW229019   2.732   0.991   2.822 -2.3778  0.0473  0.8787
 5853SOL     OW29020   2.687   2.099   5.754  0.0462 -0.0499  0.3763
 5853SOL    HW129021   2.748   2.047   5.701 -0.3304 -0.3846  0.2701
 5853SOL    HW229022   2.645   2.160   5.694  1.1235 -0.0237 -0.3600
 5854SOL     OW29023   0.076   3.876   9.544 -0.1232 -0.0107  0.1991
 5854SOL    HW129024   0.063   3.961   9.502 -2.2737  0.1556  1.2405
 5854SOL    HW229025   0.038   3.885   9.631  1.2651 -1.2929  0.9374
 5855SOL     OW29026   0.772   4.127   7.577 -0.3512  0.1668  0.3298
 5855SOL    HW129027   0.741   4.212   7.608  0.7644  0.3695  0.9018
 5855SOL    HW229028   0.703   4.106   7.515 -0.6750  0.0368  0.7352
 5856SOL     OW29029   1.730   1.202   8.877 -0.2007  0.2227  0.2732
 5856SOL    HW129030   1.721   1.220   8.971  0.7533  2.2880 -0.0170
 5856SOL    HW229031   1.681   1.120   8.883 -0.7363  0.5560  0.4594
 5857SOL     OW29032   1.818   0.061   3.925 -0.1661 -0.3195  0.0456
 5857SOL    HW129033   1.846   0.083   3.836  1.2897  2.9884  1.3342
 5857SOL    HW229034   1.857   0.130   3.978 -2.5966  0.8215  0.3437
 5858SOL     OW29035   0.553   3.921   7.776  0.2771 -0.3345 -0.9013
 5858SOL    HW129036   0.582   4.006   7.741  0.4366  0.3079  0.8058
 5858SOL    HW229037   0.512   3.884   7.698 -1.1356 -0.8326  0.0891
 5859SOL     OW29038   4.311   3.615  11.899  0.5648 -0.1633 -0.1563
 5859SOL    HW129039   4.358   3.569  11.969  0.6200  1.1958  0.6847
 5859SOL    HW229040   4.283   3.695  11.943 -0.4218 -0.9950  0.7199
 5860SOL     OW29041   3.843   2.209   1.928 -0.1427  0.3972 -0.0715
 5860SOL    HW129042   3.752   2.219   1.955  0.1286  0.9932  0.6298
 5860SOL    HW229043   3.838   2.216   1.833  2.1082 -1.2377 -0.3176
 5861SOL     OW29044   0.999   1.575   2.668 -0.3384  0.4918 -0.1776
 5861SOL    HW129045   0.938   1.638   2.707  0.1088  0.5969  0.3569
 5861SOL    HW229046   1.083   1.619   2.681  0.1270 -0.0493 -1.3595
 5862SOL     OW29047   3.913   0.966   5.851  0.0988  0.3974 -0.5668
 5862SOL    HW129048   3.833   0.994   5.895  0.2415  1.0880 -0.7480
 5862SOL    HW229049   3.984   1.029   5.866  2.2906 -3.0988  3.8003
 5863SOL     OW29050   3.930   4.027  10.573 -0.2998 -0.5116  0.4366
 5863SOL    HW129051   3.912   4.109  10.619  2.2076 -0.8854  2.1279
 5863SOL    HW229052   3.841   4.009  10.545 -0.3096  1.0837 -0.5825
 5864SOL     OW29053   1.899   1.519   7.943 -0.0692  0.3351  0.2789
 5864SOL    HW129054   1.859   1.435   7.922  0.8998 -0.1409  0.3221
 5864SOL    HW229055   1.973   1.514   7.882 -1.7031  0.8284 -1.7231
 5865SOL     OW29056   4.206   3.878   7.903 -0.5184  0.3345 -0.4753
 5865SOL    HW129057   4.176   3.872   7.994 -0.1957  0.4952 -0.3594
 5865SOL    HW229058   4.288   3.926   7.911 -1.6770  1.7518  2.8353
 5866SOL     OW29059   4.058   3.154   8.680 -0.3323  0.2085 -0.2466
 5866SOL    HW129060   3.976   3.199   8.701  0.7343  1.3628  1.4487
 5866SOL    HW229061   4.044   3.143   8.586 -1.9422  0.2147 -0.0152
 5867SOL     OW29062   2.971   0.138   3.578  0.0105  0.2017 -0.4123
 5867SOL    HW129063   3.057   0.119   3.616 -0.7841 -2.3423  0.0858
 5867SOL    HW229064   2.962   0.055   3.530  1.6925 -0.8424  1.0584
 5868SOL     OW29065   3.021   2.868   7.612  0.1778  0.0072  0.4739
 5868SOL    HW129066   3.061   2.899   7.693  0.9076 -1.5445  0.7070
 5868SOL    HW229067   2.942   2.824   7.644 -0.0918  1.0378  1.2130
 5869SOL     OW29068   3.622   0.374   7.478 -0.1262 -0.3981 -0.1142
 5869SOL    HW129069   3.599   0.444   7.539  1.5274  2.0806 -2.3045
 5869SOL    HW229070   3.714   0.351   7.494 -0.8674 -2.4696  1.1058
 5870SOL     OW29071   1.022   1.904   3.742 -0.1809  0.3981 -0.1401
 5870SOL    HW129072   0.976   1.943   3.667  0.3561 -1.3595 -1.3657
 5870SOL    HW229073   1.087   1.843   3.707 -0.6663  0.1003 -0.5198
 5871SOL     OW29074   1.367   3.790   0.383  0.1192  0.0167  0.0210
 5871SOL    HW129075   1.403   3.717   0.332  3.1251  1.9841 -0.6632
 5871SOL    HW229076   1.308   3.743   0.442  2.2521 -1.5759  0.9194
 5872SOL     OW29077   0.266   0.574   4.365  0.2103  0.0782 -0.3658
 5872SOL    HW129078   0.199   0.635   4.337  0.4642  0.4711 -0.1323
 5872SOL    HW229079   0.257   0.606   4.455 -1.5602 -0.8564 -0.2208
 5873SOL     OW29080   1.365   3.261   9.563  0.1223  0.3054 -0.2427
 5873SOL    HW129081   1.410   3.240   9.645  0.3455  1.8179  0.0244
 5873SOL    HW229082   1.281   3.299   9.592  0.1139  0.1323 -0.0426
 5874SOL     OW29083   4.363   2.780   2.716 -0.6319  0.1018 -0.5535
 5874SOL    HW129084   4.384   2.718   2.646 -0.6316 -0.8409  0.2723
 5874SOL    HW229085   4.343   2.860   2.668 -0.0703  1.3885  1.3282
 5875SOL     OW29086   1.827   4.402  11.588 -0.2620 -0.3686 -0.7329
 5875SOL    HW129087   1.791   4.322  11.627  0.2415 -0.0703  0.3239
 5875SOL    HW229088   1.772   4.430  11.514  1.3722  0.5397 -1.6021
 5876SOL     OW29089   4.478   4.152   4.467 -0.5163 -0.2977 -0.1045
 5876SOL    HW129090   4.384   4.164   4.483 -0.7022  2.0892 -2.9656
 5876SOL    HW229091   4.487   4.153   4.371 -0.8389 -0.2846 -0.1359
 5877SOL     OW29092   4.548   2.711  14.973 -0.1097  0.3554  0.1683
 5877SOL    HW129093   4.542   2.625  15.015  0.4081 -0.0790 -0.6464
 5877SOL    HW229094   4.531   2.774  15.043 -0.3529  0.9507 -0.4381
 5878SOL     OW29095   4.107   2.272   9.491  0.8256 -0.1882 -0.4068
 5878SOL    HW129096   4.085   2.202   9.429  1.4301  0.6173 -1.5319
 5878SOL    HW229097   4.179   2.238   9.543 -0.9704 -2.7995  0.4005
 5879SOL     OW29098   0.607   0.626  13.316  0.2865 -0.3960 -0.6100
 5879SOL    HW129099   0.553   0.588  13.384  1.9360 -3.0367 -0.7769
 5879SOL    HW229100   0.675   0.564  13.290 -0.2572 -0.7847 -1.0883
 5880SOL     OW29101   3.149   1.461   0.200 -0.1401  0.4194  0.2368
 5880SOL    HW129102   3.205   1.537   0.187 -0.5226  0.9242  1.5855
 5880SOL    HW229103   3.114   1.487   0.285  1.1130 -1.9602  1.4906
 5881SOL     OW29104   1.011   2.721   3.461 -0.2900 -0.2212 -0.4897
 5881SOL    HW129105   1.036   2.809   3.487  1.4223 -1.2429  1.3195
 5881SOL    HW229106   0.917   2.719   3.479 -0.4383  1.8663 -1.0903
 5882SOL     OW29107   1.607   1.794   6.022  0.1765  0.3062 -0.3231
 5882SOL    HW129108   1.574   1.768   6.108 -2.4508 -0.0250 -1.4148
 5882SOL    HW229109   1.669   1.724   6.004  0.7020  1.3060 -2.4370
 5883SOL     OW29110   4.301   0.537   4.763 -0.0902  0.1450 -0.2612
 5883SOL    HW129111   4.323   0.604   4.698  0.8373  2.9132  2.9578
 5883SOL    HW229112   4.374   0.475   4.755  0.7606  1.0825  0.2709
 5884SOL     OW29113   2.771   3.807   3.493  0.1420  0.4156 -0.1337
 5884SOL    HW129114   2.835   3.860   3.540  0.9964 -0.4189 -0.3455
 5884SOL    HW229115   2.728   3.767   3.569 -0.1626  0.3239 -0.3503
 5885SOL     OW29116   4.039   2.722  17.216  0.4824 -0.0963 -0.5365
 5885SOL    HW129117   4.116   2.774  17.241 -0.4778  0.5462  1.0327
 5885SOL    HW229118   3.974   2.792  17.224  0.4034 -0.1346 -0.8411
 5886SOL     OW29119   2.495   1.731  11.279  0.3986  0.1015  0.2003
 5886SOL    HW129120   2.474   1.733  11.372  0.1699 -0.0118  0.1516
 5886SOL    HW229121   2.560   1.661  11.282 -1.0223 -1.1939  1.2504
 5887SOL     OW29122   1.442   1.914   8.907  0.6170 -0.5701  0.1126
 5887SOL    HW129123   1.489   1.963   8.974 -2.1887 -0.5494  2.0667
 5887SOL    HW229124   1.372   1.868   8.954  0.5146 -0.1220  0.4013
 5888SOL     OW29125   2.179   0.296  11.341  0.2844 -0.1658  0.4631
 5888SOL    HW129126   2.090   0.306  11.308 -0.0631 -0.2477  1.3709
 5888SOL    HW229127   2.181   0.217  11.395  2.7798 -1.4064 -1.4606
 5889SOL     OW29128   0.396   2.597  15.820  0.3321 -0.0487 -0.3359
 5889SOL    HW129129   0.331   2.650  15.774  3.3535  2.7938 -1.3736
 5889SOL    HW229130   0.410   2.537  15.746 -2.2802 -1.4328  0.3067
 5890SOL     OW29131   1.053   2.897  13.213 -0.0287  0.0957  0.9320
 5890SOL    HW129132   1.111   2.969  13.237 -0.8095  1.7062 -2.0333
 5890SOL    HW229133   1.097   2.876  13.131 -1.4867 -1.5733  0.5617
 5891SOL     OW29134   1.097   4.297  17.474 -0.2494 -0.6292  0.4092
 5891SOL    HW129135   1.178   4.343  17.451  0.8126 -1.7253  1.9257
 5891SOL    HW229136   1.095   4.307  17.569  2.4998  0.7902  0.3234
 5892SOL     OW29137   2.889   2.760   1.606  0.2756 -0.2395  0.2064
 5892SOL    HW129138   2.941   2.679   1.604 -1.5837 -1.4078 -0.5690
 5892SOL    HW229139   2.841   2.767   1.688  0.1940 -4.6166  0.5129
 5893SOL     OW29140   2.037   4.310   7.819  0.1112 -0.3300  0.6363
 5893SOL    HW129141   2.027   4.277   7.729  0.2696  2.0245 -0.2694
 5893SOL    HW229142   2.074   4.394   7.788  0.2572 -0.0888  1.4757
 5894SOL     OW29143   1.408   2.098   5.696  0.2089 -0.6275 -0.0997
 5894SOL    HW129144   1.464   2.026   5.667  0.7718  0.7969 -2.5897
 5894SOL    HW229145   1.440   2.169   5.641 -0.6769  0.1449  0.3775
 5895SOL     OW29146   0.966   0.605   0.976 -0.2504 -0.2570  0.5838
 5895SOL    HW129147   0.946   0.680   0.919 -0.1670 -0.0306  0.8486
 5895SOL    HW229148   1.004   0.639   1.057  0.4223  0.3250  0.0342
 5896SOL     OW29149   0.755   3.045   7.517  0.5645  0.1019  0.1708
 5896SOL    HW129150   0.762   2.970   7.457 -0.3960  0.0542  0.1268
 5896SOL    HW229151   0.664   3.059   7.492  0.2833 -1.1516  0.4794
 5897SOL     OW29152   3.999   2.334  10.266  0.5725 -0.3417 -0.1131
 5897SOL    HW129153   3.919   2.355  10.316  1.7540  0.7965  1.3233
 5897SOL    HW229154   4.025   2.418  10.229 -0.7772  0.9329  1.7931
 5898SOL     OW29155   2.745   4.185   8.555  0.0604  0.0007 -0.4143
 5898SOL    HW129156   2.785   4.208   8.471 -1.4634  1.9571 -0.6208
 5898SOL    HW229157   2.809   4.229   8.611  0.2307 -1.3509  0.4422
 5899SOL     OW29158   0.070   0.167   3.043  0.5444  0.1956 -0.7175
 5899SOL    HW129159   4.713   0.122   3.060  1.5364 -0.8763  1.2705
 5899SOL    HW229160   0.125   0.096   3.012  1.7427  0.3025  1.1248
 5900SOL     OW29161   0.190   4.133   9.785 -0.7472  0.2891 -0.0397
 5900SOL    HW129162   0.196   4.051   9.735 -1.0294  1.3461 -1.8121
 5900SOL    HW229163   0.170   4.095   9.871  0.0294 -0.7879 -0.3204
 5901SOL     OW29164   4.635   3.184  12.213 -0.0255  0.0436  0.6548
 5901SOL    HW129165   4.720   3.161  12.175  0.2790  1.6000  0.4085
 5901SOL    HW229166   4.578   3.189  12.136 -0.0383 -0.5379  0.6272
 5902SOL     OW29167   0.237   0.747   6.147  0.3988 -0.3008 -1.2430
 5902SOL    HW129168   0.270   0.836   6.156 -0.7354  0.2084 -2.3012
 5902SOL    HW229169   0.315   0.694   6.167 -0.6642 -1.0151  1.0215
 5903SOL     OW29170   2.910   2.203   7.953 -0.0524  0.5360  0.6063
 5903SOL    HW129171   2.876   2.285   7.989 -2.1443  0.3975 -1.0266
 5903SOL    HW229172   2.994   2.196   7.999 -0.3186  0.1090  1.0240
 5904SOL     OW29173   4.510   3.101   1.757  0.1999 -0.0980 -0.1575
 5904SOL    HW129174   4.604   3.087   1.744 -0.0161 -1.5108 -0.1966
 5904SOL    HW229175   4.495   3.178   1.701 -0.3956  0.6594  1.0294
 5905SOL     OW29176   3.557   1.501   0.624 -0.0032 -0.8205  0.2851
 5905SOL    HW129177   3.514   1.434   0.570 -0.5743  0.5997 -1.0230
 5905SOL    HW229178   3.478   1.540   0.662 -0.2137 -1.7900  0.8574
 5906SOL     OW29179   2.778   3.028   5.930  0.1978  0.4299  0.1180
 5906SOL    HW129180   2.720   2.953   5.915  1.1329 -0.7277  2.2707
 5906SOL    HW229181   2.729   3.072   6.000 -2.2982 -0.1868 -1.2098
 5907SOL     OW29182   1.619   4.084   6.380 -0.3643  0.2094 -0.0763
 5907SOL    HW129183   1.690   4.066   6.442  0.6302  3.3260 -0.3264
 5907SOL    HW229184   1.564   4.008   6.398  2.1884 -1.4633  0.7601
 5908SOL     OW29185   4.481   2.615  10.085  0.3654 -0.5222  0.2891
 5908SOL    HW129186   4.558   2.672  10.077 -1.7661  2.0424 -1.9433
 5908SOL    HW229187   4.438   2.640  10.003 -0.8571 -1.8775  0.5310
 5909SOL     OW29188   2.084   1.153   3.908 -0.1876 -0.1906  0.6018
 5909SOL    HW129189   2.169   1.188   3.935 -0.2460 -1.0461  1.8793
 5909SOL    HW229190   2.092   1.064   3.941  2.7526  0.2253  0.9893
 5910SOL     OW29191   4.665   0.915   7.564  0.1417  0.3179 -0.3544
 5910SOL    HW129192   4.687   0.823   7.577  1.2089  0.8445  1.5510
 5910SOL    HW229193   0.022   0.956   7.536  1.7380 -0.0689  3.8182
 5911SOL     OW29194   3.436   2.767  13.821  0.1665  0.3996 -0.1428
 5911SOL    HW129195   3.427   2.740  13.729  1.4327 -0.0812 -0.1310
 5911SOL    HW229196   3.347   2.781  13.854  0.1684 -0.5604  0.2666
 5912SOL     OW29197   1.322   3.105   3.365  0.0988 -0.0234 -0.1409
 5912SOL    HW129198   1.253   3.053   3.323 -0.7749  1.5577 -0.6495
 5912SOL    HW229199   1.313   3.086   3.459  0.6995 -0.6740 -0.2092
 5913SOL     OW29200   0.914   0.220   6.619 -0.1520  0.1314  0.0105
 5913SOL    HW129201   0.893   0.127   6.621  1.3082 -0.1956 -0.4880
 5913SOL    HW229202   0.990   0.217   6.562 -1.0987  2.2707 -1.3547
 5914SOL     OW29203   2.328   0.568  10.512  0.1704  0.2539  0.1915
 5914SOL    HW129204   2.294   0.535  10.429 -2.1660 -0.2935  1.3639
 5914SOL    HW229205   2.273   0.646  10.512  2.3457  1.7870  0.4241
 5915SOL     OW29206   0.204   1.863   6.598  0.6443  0.1359  0.1101
 5915SOL    HW129207   0.297   1.876   6.618  0.7192 -0.0851 -0.1030
 5915SOL    HW229208   0.174   1.837   6.685 -0.5592 -0.5703 -0.5306
 5916SOL     OW29209   4.246   3.952   4.896  0.5241  0.3823 -0.1104
 5916SOL    HW129210   4.270   3.991   4.980  0.8126 -1.1418  0.5114
 5916SOL    HW229211   4.226   3.865   4.930  1.2938  0.1465 -0.2416
 5917SOL     OW29212   1.826   2.797   7.567 -0.6696 -0.1337 -0.1284
 5917SOL    HW129213   1.841   2.793   7.662  0.7504  1.6586 -0.2769
 5917SOL    HW229214   1.827   2.703   7.549  2.9868 -0.0255 -0.4656
 5918SOL     OW29215   4.487   1.222   5.999 -0.0787  0.6679  0.2728
 5918SOL    HW129216   4.483   1.312   6.032  0.6540  1.0524 -0.7163
 5918SOL    HW229217   4.579   1.210   5.976 -0.9385 -0.2584 -2.6623
 5919SOL     OW29218   0.598   1.383   4.330 -0.3786 -0.2706  1.2241
 5919SOL    HW129219   0.522   1.443   4.334 -0.3286 -0.1543  0.2995
 5919SOL    HW229220   0.634   1.408   4.245 -1.7817  2.2180  1.3501
 5920SOL     OW29221   2.865   2.174   0.708  0.3663 -0.1967 -0.2236
 5920SOL    HW129222   2.867   2.242   0.641 -1.3382 -1.9629 -2.0300
 5920SOL    HW229223   2.797   2.210   0.766 -1.2537 -0.7701 -1.7654
 5921SOL     OW29224   1.964   1.098   8.701  0.0522 -0.0725 -0.6914
 5921SOL    HW129225   1.894   1.158   8.725  0.5189 -0.1361  0.8417
 5921SOL    HW229226   1.913   1.017   8.696 -1.7437  1.0608 -0.4653
 5922SOL     OW29227   4.131   0.584   1.603  0.0519 -0.2344  0.6103
 5922SOL    HW129228   4.187   0.640   1.657  0.0781  0.3734 -0.0406
 5922SOL    HW229229   4.153   0.611   1.514  1.8014 -2.5504  0.3570
 5923SOL     OW29230   4.307   0.386   8.203 -0.1695  0.1889 -0.0374
 5923SOL    HW129231   4.253   0.333   8.262 -1.3185  0.3810 -0.9142
 5923SOL    HW229232   4.392   0.348   8.222  1.2651  2.6941 -1.4342
 5924SOL     OW29233   2.075   0.600   5.240  0.0551 -0.2221 -0.0276
 5924SOL    HW129234   2.094   0.551   5.161  0.1126  2.5231 -1.6981
 5924SOL    HW229235   2.105   0.689   5.221 -0.7144  0.4293  1.7374
 5925SOL     OW29236   3.310   3.447   8.606  0.1793 -0.3260  0.2121
 5925SOL    HW129237   3.341   3.385   8.540  1.8740  1.9266 -1.1174
 5925SOL    HW229238   3.299   3.385   8.678 -1.2390 -0.4336 -0.0961
 5926SOL     OW29239   1.742   1.370   9.482  0.3104  0.6400 -0.4840
 5926SOL    HW129240   1.792   1.375   9.401  2.0357 -2.0071  0.4441
 5926SOL    HW229241   1.699   1.456   9.482 -2.1832 -0.6200  0.2190
 5927SOL     OW29242   2.569   0.982  10.629  0.2070  0.4404  0.2584
 5927SOL    HW129243   2.503   0.951  10.567  0.6989  0.5557 -0.3265
 5927SOL    HW229244   2.521   1.019  10.703 -0.2498  1.8182 -0.7169
 5928SOL     OW29245   1.774   2.852   6.930 -0.9546 -0.4520 -0.1237
 5928SOL    HW129246   1.841   2.908   6.890 -1.2442 -1.2300 -1.7151
 5928SOL    HW229247   1.723   2.919   6.976  0.2272  0.9461 -0.8313
 5929SOL     OW29248   4.119   1.262   5.666 -0.0376 -0.0919  0.0857
 5929SOL    HW129249   4.087   1.304   5.586 -2.3414 -0.4148  0.8441
 5929SOL    HW229250   4.133   1.173   5.635 -0.3660  0.3825 -1.4215
 5930SOL     OW29251   4.363   3.743   3.320  0.8505 -0.1628  0.3508
 5930SOL    HW129252   4.279   3.773   3.357  0.3414 -0.5004 -0.5370
 5930SOL    HW229253   4.338   3.754   3.229 -0.2171 -1.9492  0.4075
 5931SOL     OW29254   2.721   1.881   3.509  0.3014 -0.7189  0.3213
 5931SOL    HW129255   2.666   1.804   3.524  0.0023 -0.5840 -0.0692
 5931SOL    HW229256   2.651   1.946   3.512  1.3462  0.3488  1.5924
 5932SOL     OW29257   4.230   2.482   4.680  0.0927  0.4182  0.2184
 5932SOL    HW129258   4.208   2.471   4.587 -0.3908  0.4690  0.3263
 5932SOL    HW229259   4.180   2.560   4.704 -2.3503 -0.7695 -1.0669
 5933SOL     OW29260   4.358   0.922  11.496  0.0630  0.5489  0.3741
 5933SOL    HW129261   4.349   0.840  11.545  0.4239 -0.2219 -0.8485
 5933SOL    HW229262   4.442   0.949  11.532  0.1558  1.7297 -0.7443
 5934SOL     OW29263   1.492   2.660   1.558  0.0863  0.0355 -0.1319
 5934SOL    HW129264   1.403   2.637   1.586 -0.3703 -0.8939 -2.3819
 5934SOL    HW229265   1.487   2.754   1.576 -1.4478 -0.2206  0.7759
 5935SOL     OW29266   3.214   4.329  11.562  0.0438  0.0333 -0.0774
 5935SOL    HW129267   3.278   4.376  11.615  0.7749 -2.6736  1.4375
 5935SOL    HW229268   3.261   4.247  11.546 -0.3664 -0.3292  0.5974
 5936SOL     OW29269   1.109   2.337   9.779  0.3344  0.6553  0.0406
 5936SOL    HW129270   1.014   2.343   9.779  0.3765  1.3100  1.1980
 5936SOL    HW229271   1.127   2.244   9.797 -0.7315 -0.1703 -3.0050
 5937SOL     OW29272   2.963   2.374   2.316  0.5634  0.0211 -0.2372
 5937SOL    HW129273   2.999   2.447   2.265  0.2679  0.1525 -0.2611
 5937SOL    HW229274   3.009   2.375   2.400 -1.6984  0.6185  0.9899
 5938SOL     OW29275   4.375   3.645   6.583  0.1301 -0.3355 -0.1590
 5938SOL    HW129276   4.458   3.630   6.538  0.8126 -0.9246  1.2854
 5938SOL    HW229277   4.358   3.734   6.551 -2.4722 -0.3949  1.1018
 5939SOL     OW29278   3.910   4.525   2.329 -0.5582  0.0686 -1.0575
 5939SOL    HW129279   3.983   4.486   2.282  1.4221  0.8127  1.4057
 5939SOL    HW229280   3.933   4.615   2.303 -0.6998  0.1119 -1.0331
 5940SOL     OW29281   4.120   1.734   7.171  0.1255 -0.0559 -0.1240
 5940SOL    HW129282   4.180   1.715   7.099 -2.4054  1.0689 -2.5043
 5940SOL    HW229283   4.155   1.814   7.210 -0.1566 -0.1755  0.3815
 5941SOL     OW29284   2.088   1.426   7.084  0.2381 -0.1429  0.0065
 5941SOL    HW129285   2.153   1.491   7.057  1.8736 -0.6357  2.7159
 5941SOL    HW229286   2.147   1.365   7.129  0.7484  0.2130 -0.1805
 5942SOL     OW29287   2.461   1.991  11.292 -0.3969 -0.6408 -0.6091
 5942SOL    HW129288   2.543   2.022  11.330  0.7135 -1.9279 -1.9606
 5942SOL    HW229289   2.480   1.898  11.279 -0.5679 -0.5129 -1.8297
 5943SOL     OW29290   3.931   2.482   4.732  0.2860  0.5292  0.1673
 5943SOL    HW129291   3.989   2.443   4.797 -0.5629 -1.9019 -0.5312
 5943SOL    HW229292   3.845   2.455   4.764 -0.6827  1.0663 -2.0011
 5944SOL     OW29293   4.450   1.667   1.658  0.0635 -1.1163 -0.1579
 5944SOL    HW129294   4.476   1.743   1.711 -1.9842  0.3759 -1.3050
 5944SOL    HW229295   4.356   1.684   1.656  0.4103  0.6693 -1.4887
 5945SOL     OW29296   3.865   4.175  14.718 -0.9738 -0.2645 -0.1549
 5945SOL    HW129297   3.795   4.214  14.665  0.8455 -0.0702 -2.3979
 5945SOL    HW229298   3.908   4.256  14.743  0.5738 -1.1955  0.1803
 5946SOL     OW29299   4.204   2.997  13.844 -0.3473 -0.4690  0.5638
 5946SOL    HW129300   4.252   2.973  13.923  2.1010  1.0563 -0.4701
 5946SOL    HW229301   4.247   3.079  13.822  0.2305 -2.3545 -5.3040
 5947SOL     OW29302   0.558   0.974   5.618  0.1093 -0.4122  0.5175
 5947SOL    HW129303   0.548   1.007   5.529  1.4814  0.4878  0.7027
 5947SOL    HW229304   0.642   0.929   5.609 -0.1134  0.0328 -3.5445
 5948SOL     OW29305   1.993   2.518   2.614  0.6772 -0.2000  0.2634
 5948SOL    HW129306   1.915   2.565   2.586  1.0860  0.4442  0.2160
 5948SOL    HW229307   2.063   2.550   2.557 -2.0603 -0.7786 -3.4339
 5949SOL     OW29308   4.151   2.781   4.369 -0.2049 -0.0021  0.0813
 5949SOL    HW129309   4.113   2.859   4.329 -2.5302 -1.5697 -0.7738
 5949SOL    HW229310   4.152   2.801   4.462  2.2461  0.7878 -0.1014
 5950SOL     OW29311   2.538   2.016  17.443  0.9741  0.7527  0.0843
 5950SOL    HW129312   2.578   2.097  17.410 -0.9251  1.4237 -0.5430
 5950SOL    HW229313   2.494   1.974  17.370 -0.1013  0.0940  1.1018
 5951SOL     OW29314   1.742   4.295   4.768  0.2649  0.4263  0.2270
 5951SOL    HW129315   1.789   4.367   4.726 -0.0025  1.1753  1.2102
 5951SOL    HW229316   1.665   4.345   4.793 -1.0841 -1.4187 -0.2094
 5952SOL     OW29317   4.718   3.058  14.702  0.2512 -0.1870  0.0414
 5952SOL    HW129318   4.699   3.146  14.668  0.5335  0.7017  2.1702
 5952SOL    HW229319   0.046   3.016  14.635  2.9921  0.3488  1.9073
 5953SOL     OW29320   1.954   2.870   4.969  0.1094  0.2617 -0.1452
 5953SOL    HW129321   1.867   2.866   4.929 -1.2585  2.1142  2.6531
 5953SOL    HW229322   1.936   2.949   5.019 -0.5521 -0.1299  0.2309
 5954SOL     OW29323   3.365   2.787   2.269  0.6553 -0.3539  0.4728
 5954SOL    HW129324   3.438   2.842   2.298  0.6679 -0.3750  0.4811
 5954SOL    HW229325   3.306   2.850   2.228 -0.2414 -1.5246 -0.0497
 5955SOL     OW29326   1.134   3.224   6.022 -0.1018 -0.4551 -0.3794
 5955SOL    HW129327   1.057   3.187   5.980 -0.9988  1.5369 -0.4831
 5955SOL    HW229328   1.132   3.310   5.981  5.4937  0.2047  0.7537
 5956SOL     OW29329   1.501   2.180   2.479 -0.8922 -0.0100 -0.7924
 5956SOL    HW129330   1.432   2.238   2.512  0.8971  1.9135 -0.4332
 5956SOL    HW229331   1.568   2.200   2.545 -2.3583 -3.3316  1.7236
 5957SOL     OW29332   3.761   4.038   7.875 -0.6509 -0.3778  0.1214
 5957SOL    HW129333   3.733   4.116   7.924  3.4844  0.1444  1.6321
 5957SOL    HW229334   3.768   3.981   7.951  0.6671 -0.5190 -0.1101
 5958SOL     OW29335   1.418   0.939  14.547 -1.0937 -0.5810  0.7791
 5958SOL    HW129336   1.462   0.874  14.601  1.7399  1.1797  0.5725
 5958SOL    HW229337   1.440   0.912  14.457 -0.5431  3.3155 -0.2538
 5959SOL     OW29338   3.425   0.763   4.087 -0.1744  0.1859  0.1877
 5959SOL    HW129339   3.486   0.828   4.121  1.5418 -2.2628  1.8451
 5959SOL    HW229340   3.467   0.679   4.110 -0.4064  0.4549  1.5810
 5960SOL     OW29341   0.667   3.895   4.049  0.2163 -0.3742  0.2711
 5960SOL    HW129342   0.690   3.922   3.960 -0.7571 -0.2573  0.0557
 5960SOL    HW229343   0.582   3.861   4.020  0.5697  0.2450 -1.4722
 5961SOL     OW29344   0.212   4.329  10.014  0.5452 -0.7551 -0.3865
 5961SOL    HW129345   0.231   4.351   9.923  1.3991 -0.3872 -0.1211
 5961SOL    HW229346   0.158   4.250  10.015 -0.7179  0.1117 -0.1547
 5962SOL     OW29347   0.784   1.304   6.448 -0.0431  0.0619  0.3686
 5962SOL    HW129348   0.700   1.258   6.445  0.3168 -0.5521 -0.2235
 5962SOL    HW229349   0.747   1.392   6.460 -1.2355 -0.7026  2.2804
 5963SOL     OW29350   3.321   2.853   4.694  0.2819 -0.0313  0.3548
 5963SOL    HW129351   3.400   2.837   4.642  0.4596  0.9142  0.3220
 5963SOL    HW229352   3.340   2.932   4.745 -1.8221  1.3826 -1.0777
 5964SOL     OW29353   2.672   2.742   2.773  0.2811 -0.2791 -0.1199
 5964SOL    HW129354   2.587   2.786   2.775  0.5573  0.3628 -1.6856
 5964SOL    HW229355   2.731   2.805   2.815 -1.7335  2.5476 -1.4483
 5965SOL     OW29356   2.440   2.463   1.723 -0.0965 -0.2320 -0.1621
 5965SOL    HW129357   2.417   2.427   1.637  0.4560 -1.2096  0.0920
 5965SOL    HW229358   2.397   2.397   1.779  0.5207 -1.8566 -1.5938
 5966SOL     OW29359   2.310   4.138   3.056  0.4599  0.5104 -0.0577
 5966SOL    HW129360   2.230   4.181   3.026  0.3721  0.6537  0.3723
 5966SOL    HW229361   2.302   4.172   3.145  1.6792 -0.8382  0.5725
 5967SOL     OW29362   0.838   1.922   3.003  0.1967  0.1487 -0.3995
 5967SOL    HW129363   0.818   1.831   3.025  3.8435  0.1382  2.9925
 5967SOL    HW229364   0.817   1.957   3.090  3.1139  0.2839  0.2710
 5968SOL     OW29365   4.418   1.473   0.287 -0.0885  0.3224  0.0810
 5968SOL    HW129366   4.365   1.551   0.269 -1.6092 -0.6601  0.3261
 5968SOL    HW229367   4.367   1.394   0.269  0.7466 -0.6264  1.7914
 5969SOL     OW29368   3.880   1.049   8.084  0.4654  0.3746  0.3456
 5969SOL    HW129369   3.882   1.107   8.009 -1.1750  0.1206  0.1164
 5969SOL    HW229370   3.940   0.980   8.055  0.0742  0.7324 -1.2887
 5970SOL     OW29371   2.963   1.623   7.201 -0.0705 -0.1653  0.3882
 5970SOL    HW129372   2.951   1.717   7.215 -1.0181 -0.0903 -0.8568
 5970SOL    HW229373   2.950   1.584   7.288  0.9265  0.9114  1.0103
 5971SOL     OW29374   2.490   0.549   1.312  0.3595 -0.3785  0.2664
 5971SOL    HW129375   2.526   0.479   1.258  1.2691 -1.4624  2.2928
 5971SOL    HW229376   2.534   0.535   1.396  0.7678 -2.6859 -0.3219
 5972SOL     OW29377   3.475   4.489   6.746  0.2932 -0.0714 -0.1834
 5972SOL    HW129378   3.557   4.538   6.742  1.6556 -2.3938 -0.6879
 5972SOL    HW229379   3.406   4.550   6.772  1.3490  1.5586 -1.2075
 5973SOL     OW29380   3.618   0.246  10.742  0.5610  0.1023  0.8892
 5973SOL    HW129381   3.625   0.236  10.647  2.0221  1.7180  0.8306
 5973SOL    HW229382   3.643   0.157  10.765 -1.2002 -0.3603  1.0408
 5974SOL     OW29383   1.746   3.570   4.643  0.5076 -0.1213  0.3344
 5974SOL    HW129384   1.838   3.570   4.666  0.9455  2.4012 -1.4067
 5974SOL    HW229385   1.754   3.525   4.559 -0.4681 -0.0435  0.1946
 5975SOL     OW29386   0.138   2.534   5.703  0.3312 -0.1853 -0.3395
 5975SOL    HW129387   0.102   2.507   5.788 -1.0762 -1.6034 -1.4016
 5975SOL    HW229388   0.067   2.583   5.660  0.5153 -1.0908 -1.6725
 5976SOL     OW29389   1.408   2.042   1.918  0.3782 -0.2718 -0.1202
 5976SOL    HW129390   1.429   1.983   1.991 -2.4832  0.9609  1.7138
 5976SOL    HW229391   1.481   2.017   1.861  0.2828 -0.0454 -0.3425
 5977SOL     OW29392   4.229   3.500  17.508 -0.2506  0.8867 -0.2091
 5977SOL    HW129393   4.145   3.458  17.488  0.3852 -0.6885  0.4753
 5977SOL    HW229394   4.270   3.502  17.421  1.9237  3.0919  0.8679
 5978SOL     OW29395   0.756   1.392  10.617  0.3032  0.5878  0.5726
 5978SOL    HW129396   0.757   1.486  10.597  1.8230  0.8370  1.7695
 5978SOL    HW229397   0.726   1.356  10.534  0.4536 -0.0221  0.7829
 5979SOL     OW29398   1.486   0.817   5.613  0.0438 -0.8252 -0.5420
 5979SOL    HW129399   1.479   0.913   5.611  2.0307 -0.6863 -0.6870
 5979SOL    HW229400   1.403   0.791   5.572 -0.3490  0.4503 -0.5639
 5980SOL     OW29401   1.683   2.504   9.382  0.1366  0.1213 -0.3757
 5980SOL    HW129402   1.597   2.465   9.364  0.5581 -1.3186  0.7296
 5980SOL    HW229403   1.675   2.599   9.386  1.9765  0.2410  0.4804
 5981SOL     OW29404   1.260   1.363   4.410 -0.4169  0.2127 -0.1453
 5981SOL    HW129405   1.315   1.421   4.358 -2.5390  0.7862 -1.7532
 5981SOL    HW229406   1.209   1.426   4.461  0.3028  1.7299 -1.3144
 5982SOL     OW29407   1.122   0.464   7.573 -0.0464  0.3525  0.2995
 5982SOL    HW129408   1.082   0.527   7.513 -0.8254 -1.1870 -0.7816
 5982SOL    HW229409   1.077   0.486   7.655 -0.8348  0.2667 -0.1043
 5983SOL     OW29410   3.710   2.911  16.769  0.2750 -0.2227 -0.0095
 5983SOL    HW129411   3.661   2.835  16.737 -1.4225  1.3369 -1.0629
 5983SOL    HW229412   3.667   2.930  16.852 -2.4560 -0.8595 -1.2922
 5984SOL     OW29413   0.508   3.047   0.778  0.3420 -0.5292  0.1655
 5984SOL    HW129414   0.446   2.979   0.751 -0.4763 -0.8044  2.7464
 5984SOL    HW229415   0.528   3.015   0.866 -0.9820 -1.2390  0.2057
 5985SOL     OW29416   1.687   0.572   0.414  0.6538 -0.4301  0.1662
 5985SOL    HW129417   1.671   0.665   0.434 -0.5977 -0.9439  1.5992
 5985SOL    HW229418   1.624   0.554   0.343  0.6834  1.1868 -0.2862
 5986SOL     OW29419   1.010   1.845   7.336 -0.3894  0.0625 -0.0094
 5986SOL    HW129420   1.009   1.937   7.310 -1.0489 -0.0681 -0.4305
 5986SOL    HW229421   0.985   1.841   7.429  1.4188 -1.7584  0.3916
 5987SOL     OW29422   1.784   2.681  11.157  0.2424  0.8844 -0.2420
 5987SOL    HW129423   1.724   2.612  11.128 -3.8610  3.4085  2.1489
 5987SOL    HW229424   1.771   2.689  11.252 -0.0548  0.6137 -0.2611
 5988SOL     OW29425   2.678   0.088   7.410 -0.2237 -0.1524 -0.1912
 5988SOL    HW129426   2.766   0.116   7.385 -0.6461  1.1308 -0.2612
 5988SOL    HW229427   2.621   0.165   7.403 -1.1870 -0.7557  1.0525
 5989SOL     OW29428   1.992   1.865  14.740 -0.1352 -0.3756 -0.1005
 5989SOL    HW129429   1.955   1.871  14.652  0.0367  2.5157  0.0330
 5989SOL    HW229430   1.916   1.894  14.790  0.0724  0.6383 -0.3698
 5990SOL     OW29431   1.252   2.315  11.126  0.1785  0.3362 -0.1038
 5990SOL    HW129432   1.316   2.243  11.128  0.8638  0.8988 -1.5181
 5990SOL    HW229433   1.311   2.387  11.148 -1.9426  0.9531  3.6490
 5991SOL     OW29434   3.957   1.781   4.133 -0.4907  0.0870  0.2389
 5991SOL    HW129435   3.951   1.827   4.050 -1.4095 -0.6207 -0.0967
 5991SOL    HW229436   4.039   1.739   4.109 -0.1504  1.5683 -1.1680
 5992SOL     OW29437   4.227   1.724   0.646 -0.0043 -0.0885 -0.2524
 5992SOL    HW129438   4.177   1.794   0.604 -0.0218 -0.9146 -1.6253
 5992SOL    HW229439   4.307   1.721   0.593 -0.0046 -0.7006 -0.2204
 5993SOL     OW29440   4.092   2.412  17.035 -0.5984  0.2808  0.1390
 5993SOL    HW129441   4.148   2.357  16.979 -1.7889  0.2583 -1.0386
 5993SOL    HW229442   4.130   2.391  17.120 -0.0448  2.1101  0.3355
 5994SOL     OW29443   2.652   2.871   9.661  0.5694 -0.0973 -0.0533
 5994SOL    HW129444   2.671   2.780   9.682 -2.5662 -0.1039  2.9079
 5994SOL    HW229445   2.669   2.917   9.743  0.1215  0.7575 -0.4390
 5995SOL     OW29446   2.897   2.274   1.773 -0.2990 -0.4789  0.5989
 5995SOL    HW129447   2.897   2.369   1.757 -1.2198 -0.4026  1.1047
 5995SOL    HW229448   2.808   2.251   1.748 -0.1798  0.3534 -0.5903
 5996SOL     OW29449   2.240   4.283   6.906  0.1389 -0.0015 -0.4924
 5996SOL    HW129450   2.327   4.252   6.934  0.7497  1.8187 -0.3572
 5996SOL    HW229451   2.219   4.322   6.991 -0.0640 -1.9024  0.3208
 5997SOL     OW29452   1.324   0.521   8.242 -0.3738  1.1185 -0.0225
 5997SOL    HW129453   1.293   0.588   8.303 -1.1746 -0.0060  0.7990
 5997SOL    HW229454   1.322   0.568   8.158  0.0029  1.3048  0.0717
 5998SOL     OW29455   3.451   3.381  12.331 -0.8546  0.1135 -0.3928
 5998SOL    HW129456   3.501   3.402  12.252  2.3504 -2.1882  1.0482
 5998SOL    HW229457   3.516   3.366  12.399 -1.8365 -0.9884  0.3098
 5999SOL     OW29458   3.671   0.356   3.435  0.0193  0.2002 -0.5068
 5999SOL    HW129459   3.609   0.422   3.405  0.5278  0.8606 -0.0846
 5999SOL    HW229460   3.639   0.275   3.395  0.9940 -1.0673  1.2837
 6000SOL     OW29461   0.389   3.093   6.211 -0.5400 -0.6519 -0.0694
 6000SOL    HW129462   0.478   3.058   6.217  0.1048  1.0543  0.4457
 6000SOL    HW229463   0.362   3.106   6.302 -1.3622  1.5912 -0.6202
 6001SOL     OW29464   3.527   2.997   4.965  0.0570 -0.3398 -0.2825
 6001SOL    HW129465   3.492   2.964   5.047  0.3607 -1.0125 -0.4171
 6001SOL    HW229466   3.455   3.010   4.903  1.0200  0.2050 -1.2939
 6002SOL     OW29467   1.936   2.916   9.525 -0.4009  0.1598 -0.0092
 6002SOL    HW129468   1.940   2.876   9.612 -0.7590 -2.3016 -1.1278
 6002SOL    HW229469   2.006   2.981   9.525 -0.8379  0.6327 -0.8349
 6003SOL     OW29470   1.620   1.525   7.837  0.5137 -0.1550  0.0795
 6003SOL    HW129471   1.709   1.553   7.858  0.1934  0.0057  1.2211
 6003SOL    HW229472   1.601   1.567   7.753  0.4308  1.8923  1.1279
 6004SOL     OW29473   4.390   0.237  13.262  0.2314 -0.3851 -0.1761
 6004SOL    HW129474   4.350   0.183  13.194 -0.7091  0.3775 -0.2256
 6004SOL    HW229475   4.319   0.238  13.326  0.7231  0.4271  0.3599
 6005SOL     OW29476   3.622   3.306   5.938  0.1999  0.1112  0.2831
 6005SOL    HW129477   3.534   3.303   5.976 -0.5575 -0.3724 -1.5201
 6005SOL    HW229478   3.616   3.367   5.865  0.5309 -0.9953 -0.6702
 6006SOL     OW29479   1.436   4.435   9.230 -0.6882  0.6680 -0.1466
 6006SOL    HW129480   1.509   4.430   9.291 -0.3600  0.7289 -0.5377
 6006SOL    HW229481   1.376   4.372   9.271 -0.3006  0.6626  0.4126
 6007SOL     OW29482   3.699   1.507   8.559 -0.1149 -0.0333  0.5103
 6007SOL    HW129483   3.753   1.571   8.606  1.4798 -1.3482  0.4534
 6007SOL    HW229484   3.670   1.557   8.483  2.0819 -1.3145 -1.1881
 6008SOL     OW29485   3.390   2.349   4.438 -0.0068 -0.0997  0.4656
 6008SOL    HW129486   3.361   2.412   4.505 -0.7279 -2.2229  2.1598
 6008SOL    HW229487   3.335   2.275   4.463 -2.9973  2.6620  2.1564
 6009SOL     OW29488   0.974   1.080   2.792  0.7144 -0.3022 -0.0624
 6009SOL    HW129489   0.934   1.037   2.716 -0.5817  0.0816  0.3982
 6009SOL    HW229490   0.936   1.168   2.794  1.7825  0.1332  1.6180
 6010SOL     OW29491   3.586   1.114   9.725  0.3001  0.5650  0.4115
 6010SOL    HW129492   3.526   1.078   9.790  1.4924 -3.2703 -0.6401
 6010SOL    HW229493   3.668   1.072   9.748 -0.8589 -1.4597  0.8471
 6011SOL     OW29494   2.539   3.841   7.725 -0.5097 -0.4890  0.2925
 6011SOL    HW129495   2.599   3.840   7.799  0.1307  0.2154 -0.2157
 6011SOL    HW229496   2.597   3.790   7.667 -1.0516 -1.7473  0.8475
 6012SOL     OW29497   4.373   2.169   3.703  0.3028 -0.2425 -0.5312
 6012SOL    HW129498   4.323   2.219   3.638 -1.6218 -0.2904  0.9136
 6012SOL    HW229499   4.451   2.154   3.650 -0.6491 -0.1935 -1.9689
 6013SOL     OW29500   1.321   3.769   9.414 -0.2258 -0.3121  0.5796
 6013SOL    HW129501   1.408   3.736   9.392 -0.1478 -1.1256  2.0941
 6013SOL    HW229502   1.289   3.712   9.484 -1.6047  1.7318  1.6119
 6014SOL     OW29503   4.239   2.219  14.451 -0.0112 -0.1004  0.8225
 6014SOL    HW129504   4.186   2.206  14.372 -0.3895  2.9411  0.5930
 6014SOL    HW229505   4.178   2.174  14.510  1.2998 -0.7890  1.6473
 6015SOL     OW29506   1.462   4.246   3.312  0.4966  0.5387  0.1354
 6015SOL    HW129507   1.555   4.253   3.334  0.3020  0.5944  0.9451
 6015SOL    HW229508   1.422   4.256   3.398  0.1960 -2.3248  0.3389
 6016SOL     OW29509   4.148   2.219   0.673  0.1671  0.3909  0.1974
 6016SOL    HW129510   4.213   2.263   0.619  0.3183  0.7604  0.6839
 6016SOL    HW229511   4.187   2.252   0.754 -1.0420 -2.3265  1.8705
 6017SOL     OW29512   1.108   0.531   7.278  0.0457  0.2640  0.7042
 6017SOL    HW129513   1.158   0.459   7.240  0.3229  1.0592 -0.4712
 6017SOL    HW229514   1.025   0.486   7.292  0.5060 -1.1328 -1.0479
 6018SOL     OW29515   4.388   4.337  11.319  0.2247  0.3644  0.2979
 6018SOL    HW129516   4.420   4.413  11.271 -1.5732 -0.1288 -1.6822
 6018SOL    HW229517   4.386   4.261  11.262 -3.1053 -0.8745  2.0690
 6019SOL     OW29518   1.804   1.863   8.082 -0.2752 -0.4521 -0.5722
 6019SOL    HW129519   1.799   1.834   8.173 -1.4375  0.0223 -0.4919
 6019SOL    HW229520   1.792   1.958   8.084 -0.6242 -0.4974 -0.6258
 6020SOL     OW29521   2.082   2.477   7.572  0.9703 -0.7527  0.0227
 6020SOL    HW129522   2.106   2.524   7.652 -1.5296  1.8621 -0.7431
 6020SOL    HW229523   2.139   2.527   7.513 -1.4848  1.1027 -0.8209
 6021SOL     OW29524   0.491   1.764  15.589 -0.0687 -0.4219  0.2719
 6021SOL    HW129525   0.482   1.841  15.645  3.0994  1.6018 -2.0127
 6021SOL    HW229526   0.586   1.756  15.594 -0.0382 -0.4506 -0.3259
 6022SOL     OW29527   3.709   4.693   7.021  0.7221  0.0133  0.0283
 6022SOL    HW129528   3.627   0.015   7.007  1.1672  1.1953  1.4781
 6022SOL    HW229529   3.769   0.016   6.964  0.5715  0.3972  0.1953
 6023SOL     OW29530   3.642   3.555  12.640 -0.9318 -0.2804  0.0042
 6023SOL    HW129531   3.737   3.568  12.643 -1.0429  0.6482 -0.5993
 6023SOL    HW229532   3.636   3.463  12.668 -3.6818  0.0795  0.6272
 6024SOL     OW29533   1.724   3.471   5.442  0.4141 -0.2076  0.1468
 6024SOL    HW129534   1.697   3.555   5.479  0.2192  0.8765 -2.4425
 6024SOL    HW229535   1.816   3.456   5.462  0.7325 -0.4855 -1.5163
 6025SOL     OW29536   1.282   0.423   1.104  0.1434 -0.0580 -0.0645
 6025SOL    HW129537   1.319   0.387   1.023  0.2079  0.0518 -0.0836
 6025SOL    HW229538   1.302   0.360   1.173 -1.0075 -1.4770 -1.0419
 6026SOL     OW29539   3.259   3.377   3.056 -0.8483  0.5170 -0.2776
 6026SOL    HW129540   3.318   3.437   3.009 -0.7586  1.8091  1.4907
 6026SOL    HW229541   3.189   3.378   2.990 -0.8626 -2.4417 -0.3230
 6027SOL     OW29542   1.661   0.697   4.755 -0.9550 -0.5751  0.0290
 6027SOL    HW129543   1.661   0.792   4.746 -0.9537 -0.5233  0.6043
 6027SOL    HW229544   1.731   0.678   4.692 -1.1360 -0.8960 -0.0759
 6028SOL     OW29545   3.196   2.196  10.955 -0.2633 -0.1095  0.0428
 6028SOL    HW129546   3.147   2.114  10.955  0.7229 -0.7073  1.9975
 6028SOL    HW229547   3.199   2.206  11.050 -0.7493 -2.2543  0.2887
 6029SOL     OW29548   3.478   3.392   7.374  0.3433  0.1589  0.0700
 6029SOL    HW129549   3.491   3.378   7.468 -1.0575  0.3029  0.2855
 6029SOL    HW229550   3.570   3.398   7.351  1.1969 -0.1600  3.3762
 6030SOL     OW29551   1.139   2.331   3.172 -0.3030  0.5179  0.5848
 6030SOL    HW129552   1.153   2.318   3.078  0.6078  0.9841  0.6607
 6030SOL    HW229553   1.096   2.416   3.159  1.2053  0.9747 -1.4138
 6031SOL     OW29554   1.390   0.866   3.612 -0.3541  0.5114 -0.0808
 6031SOL    HW129555   1.319   0.811   3.579 -0.2708  1.0353 -1.1196
 6031SOL    HW229556   1.392   0.923   3.535  1.6150 -1.5276 -1.5525
 6032SOL     OW29557   2.213   4.535   3.484 -0.4142 -0.3087 -0.4535
 6032SOL    HW129558   2.155   4.543   3.560  0.4741 -0.3449  0.2387
 6032SOL    HW229559   2.214   4.625   3.450 -1.8247  0.0445  0.4115
 6033SOL     OW29560   2.267   2.559  14.898  0.3730 -0.2623 -0.9547
 6033SOL    HW129561   2.195   2.621  14.907  0.9797  0.2397  0.4571
 6033SOL    HW229562   2.284   2.575  14.805  0.1190  0.8883 -0.8081
 6034SOL     OW29563   4.582   2.578   9.021  0.3373  0.4562  0.1931
 6034SOL    HW129564   4.608   2.641   8.953 -2.0191  1.1145 -0.0951
 6034SOL    HW229565   4.620   2.496   8.989  2.1932  1.0030  1.0254
 6035SOL     OW29566   3.034   2.681  10.807 -0.1878 -0.1019 -0.0367
 6035SOL    HW129567   3.005   2.678  10.716 -1.0090  0.7329  0.2002
 6035SOL    HW229568   3.063   2.591  10.823  0.7192  0.1773 -0.1237
 6036SOL     OW29569   4.354   2.026  14.250 -0.1108 -0.4088  0.1193
 6036SOL    HW129570   4.268   2.050  14.216  0.6255 -0.8938 -2.0587
 6036SOL    HW229571   4.379   2.108  14.293  0.0199 -0.7358  0.6749
 6037SOL     OW29572   3.162   4.379   9.240  0.1011 -0.6974  0.0008
 6037SOL    HW129573   3.221   4.307   9.261 -0.7336 -2.3422 -3.2830
 6037SOL    HW229574   3.078   4.335   9.226  0.6387 -1.1806 -1.7242
 6038SOL     OW29575   0.994   2.902   6.682  0.1200  1.3027 -0.0057
 6038SOL    HW129576   0.970   2.912   6.589  1.8421 -1.7227 -0.8046
 6038SOL    HW229577   0.924   2.956   6.718 -1.7557 -1.2752  0.2302
 6039SOL     OW29578   1.795   4.423   9.094  0.5118  0.2277 -0.0971
 6039SOL    HW129579   1.827   4.507   9.126  1.8145 -0.5300  0.5841
 6039SOL    HW229580   1.725   4.447   9.034  1.2992  0.7074 -0.8320
 6040SOL     OW29581   1.615   2.400   4.524 -0.3562 -0.0604  0.5390
 6040SOL    HW129582   1.548   2.376   4.587  0.8885  0.8445  2.2163
 6040SOL    HW229583   1.700   2.367   4.554  0.8870  1.8931 -0.8271
 6041SOL     OW29584   2.913   3.260  14.958  0.3721 -0.9105 -0.1684
 6041SOL    HW129585   2.931   3.250  15.052  0.8922 -0.9162 -0.2698
 6041SOL    HW229586   2.845   3.195  14.941 -1.5273  1.2894 -1.0044
 6042SOL     OW29587   2.708   0.633  13.418 -0.2154  0.3875  0.7475
 6042SOL    HW129588   2.758   0.556  13.394 -0.8419  0.0742  0.4487
 6042SOL    HW229589   2.746   0.704  13.367  0.5061 -0.2128  0.4655
 6043SOL     OW29590   3.770   0.216   8.650  0.0541  0.2179 -0.1027
 6043SOL    HW129591   3.813   0.258   8.725 -0.9100 -2.0223  1.7121
 6043SOL    HW229592   3.719   0.147   8.692 -1.0398  0.1597 -1.5638
 6044SOL     OW29593   2.565   3.297  15.793 -0.2734  0.2782  0.5355
 6044SOL    HW129594   2.570   3.364  15.725  1.3860 -0.6816 -0.2890
 6044SOL    HW229595   2.483   3.250  15.780  1.4700 -1.3995 -4.4440
 6045SOL     OW29596   4.702   1.207   3.908  0.4600  0.4578 -0.2584
 6045SOL    HW129597   4.629   1.182   3.851  1.2779 -1.7724 -0.3330
 6045SOL    HW229598   0.047   1.212   3.842  0.5006  1.0749 -0.1657
 6046SOL     OW29599   3.140   0.690   6.135 -0.6224  0.0268  0.2436
 6046SOL    HW129600   3.058   0.667   6.178 -0.2566 -1.7812 -0.0214
 6046SOL    HW229601   3.125   0.647   6.051 -0.3090 -0.1204  0.2648
 6047SOL     OW29602   1.312   2.216   7.740 -0.2480 -0.2376  0.1696
 6047SOL    HW129603   1.360   2.236   7.660  1.2751  0.4307  1.2688
 6047SOL    HW229604   1.224   2.209   7.701 -0.9152  2.8949  1.1561
 6048SOL     OW29605   0.808   1.493  15.163 -0.7836  0.1018 -0.0229
 6048SOL    HW129606   0.759   1.563  15.206  1.8255  1.4040  0.8582
 6048SOL    HW229607   0.890   1.491  15.213 -0.6207  1.9087 -0.2375
 6049SOL     OW29608   3.728   2.999  10.452  0.2286 -0.5309  0.1148
 6049SOL    HW129609   3.663   3.043  10.398 -2.3918 -1.4528  2.5465
 6049SOL    HW229610   3.688   2.912  10.455  1.0727 -0.9702 -1.1162
 6050SOL     OW29611   1.905   2.590   3.418 -0.0823  0.4614  0.5733
 6050SOL    HW129612   1.978   2.568   3.476  1.2572 -3.3601 -2.5605
 6050SOL    HW229613   1.931   2.679   3.392  0.6286  0.3291  0.8242
 6051SOL     OW29614   1.466   1.827  17.177  0.1051  0.3657  0.6076
 6051SOL    HW129615   1.550   1.853  17.215  0.1761 -0.6213  1.1184
 6051SOL    HW229616   1.450   1.746  17.226 -0.6057 -0.6760 -1.3315
 6052SOL     OW29617   2.972   3.812   6.913  0.3685 -0.5601  0.0803
 6052SOL    HW129618   3.027   3.797   6.836  0.8824  3.1922 -0.2523
 6052SOL    HW229619   3.034   3.802   6.986  0.0968  1.5208  0.6033
 6053SOL     OW29620   1.632   3.934   9.392 -0.0955  0.2837  0.2492
 6053SOL    HW129621   1.618   3.850   9.348 -0.0389  0.0754  0.6232
 6053SOL    HW229622   1.623   3.912   9.485 -1.3226 -0.4883 -0.0550
 6054SOL     OW29623   1.670   1.570  11.847 -0.3479  0.3844  0.7364
 6054SOL    HW129624   1.602   1.605  11.789 -0.3777 -0.8525  0.0138
 6054SOL    HW229625   1.749   1.584  11.795 -0.1729  1.7774  1.3857
 6055SOL     OW29626   4.132   1.164   6.596  0.1147 -0.2062 -0.1123
 6055SOL    HW129627   4.038   1.177   6.584  0.3684 -0.6565 -2.6061
 6055SOL    HW229628   4.132   1.124   6.684 -0.0640 -2.8951 -1.3294
 6056SOL     OW29629   0.372   1.817   4.964 -0.0723  0.0216 -0.2043
 6056SOL    HW129630   0.332   1.813   4.877  1.7630 -0.8179 -1.0004
 6056SOL    HW229631   0.421   1.899   4.964 -1.5650  0.9019 -0.0170
 6057SOL     OW29632   1.378   3.769  15.573 -0.1390 -0.0905 -0.3324
 6057SOL    HW129633   1.459   3.807  15.541  0.7894 -3.0339 -1.4919
 6057SOL    HW229634   1.367   3.705  15.502 -1.2369  1.1430 -1.2772
 6058SOL     OW29635   2.898   2.810   3.200  0.2184  0.8489  0.5089
 6058SOL    HW129636   2.951   2.858   3.135  1.2452 -1.2300 -0.1714
 6058SOL    HW229637   2.940   2.823   3.285 -1.1643  0.0862  1.2902
 6059SOL     OW29638   2.457   3.900   4.623 -0.0665  0.0789  0.6211
 6059SOL    HW129639   2.486   3.878   4.534  2.3272 -0.7486  1.6107
 6059SOL    HW229640   2.371   3.939   4.610  1.0772  0.9968 -4.3142
 6060SOL     OW29641   1.781   0.907   8.646  0.0429  0.1129  0.0187
 6060SOL    HW129642   1.831   0.856   8.582  0.3080 -2.1366  2.0075
 6060SOL    HW229643   1.790   0.855   8.726  1.3777 -0.7603 -0.7152
 6061SOL     OW29644   4.149   1.221   2.534  0.1411  0.2590  0.9205
 6061SOL    HW129645   4.135   1.191   2.444  3.8868  0.7260  0.1804
 6061SOL    HW229646   4.089   1.163   2.580 -0.3989  1.9468  2.2972
 6062SOL     OW29647   2.623   4.082   0.998 -0.2920  0.5253  0.0378
 6062SOL    HW129648   2.590   3.996   0.973  1.8988 -0.3846  0.3149
 6062SOL    HW229649   2.628   4.090   1.094 -1.5342 -2.0913  0.3175
 6063SOL     OW29650   4.332   4.569   8.648  0.1409 -0.0040  0.0656
 6063SOL    HW129651   4.266   4.561   8.579 -1.6776 -1.5227  1.9972
 6063SOL    HW229652   4.277   4.603   8.719 -0.1022 -0.5636  0.1444
 6064SOL     OW29653   4.125   2.205  14.197  0.1017 -0.2798  0.1508
 6064SOL    HW129654   4.154   2.260  14.124 -0.3874  2.7029  2.2458
 6064SOL    HW229655   4.031   2.208  14.180  0.1709  2.1382  0.2694
 6065SOL     OW29656   2.618   4.241  13.137  0.0683 -0.1625 -0.5165
 6065SOL    HW129657   2.703   4.196  13.129  0.5847  0.8291 -0.6310
 6065SOL    HW229658   2.564   4.182  13.085  2.4536 -1.1653 -1.8605
 6066SOL     OW29659   0.385   2.137   4.723 -0.1291  0.4900  0.0322
 6066SOL    HW129660   0.415   2.133   4.814 -2.1672 -1.9316  0.5725
 6066SOL    HW229661   0.468   2.137   4.674  0.5419  0.0690  1.1784
 6067SOL     OW29662   1.735   0.602   6.059  0.7929 -0.1055  0.5066
 6067SOL    HW129663   1.788   0.528   6.026 -1.0923 -1.3122  0.1892
 6067SOL    HW229664   1.799   0.664   6.093  2.7154  0.0719 -3.3451
 6068SOL     OW29665   4.262   0.940   7.186 -0.3676  0.0489  0.6426
 6068SOL    HW129666   4.258   1.028   7.150 -1.5910 -0.1046  0.4137
 6068SOL    HW229667   4.351   0.939   7.223 -0.5477 -2.7965  0.9875
 6069SOL     OW29668   4.433   2.796   2.419  0.8643 -0.0322  0.4540
 6069SOL    HW129669   4.478   2.867   2.464 -1.6953  2.2536 -0.6220
 6069SOL    HW229670   4.505   2.735   2.400  0.2564 -0.0972 -1.6184
 6070SOL     OW29671   3.187   1.452  11.354  0.1249 -0.2042  0.3646
 6070SOL    HW129672   3.257   1.505  11.315 -0.4372  0.8229  0.7607
 6070SOL    HW229673   3.158   1.509  11.425 -2.1663 -1.3097  0.3088
 6071SOL     OW29674   0.588   3.547   7.695 -0.0461 -0.0012 -0.5684
 6071SOL    HW129675   0.657   3.542   7.761 -2.0346 -0.2601  1.5126
 6071SOL    HW229676   0.642   3.588   7.627  0.4531 -1.2000 -0.8829
 6072SOL     OW29677   3.337   1.635   8.506  0.2848  0.2112 -0.4616
 6072SOL    HW129678   3.352   1.551   8.551  2.4076  1.5592  1.3730
 6072SOL    HW229679   3.326   1.600   8.418  2.7324 -1.9969  0.0885
 6073SOL     OW29680   1.145   2.583  17.125 -0.5268 -0.6188 -0.1724
 6073SOL    HW129681   1.118   2.646  17.058 -0.8137 -2.7625 -2.0724
 6073SOL    HW229682   1.176   2.639  17.196 -0.5374  0.5428 -1.0718
 6074SOL     OW29683   0.007   0.614  10.285 -0.1654 -0.0530 -0.8127
 6074SOL    HW129684   4.662   0.591  10.225 -1.8273 -0.4924  1.2708
 6074SOL    HW229685   0.068   0.647  10.219  0.5103 -0.4999 -0.4180
 6075SOL     OW29686   0.859   3.834  17.229 -0.1232  0.6219 -0.1665
 6075SOL    HW129687   0.955   3.834  17.228 -0.1240  1.8827 -0.7741
 6075SOL    HW229688   0.842   3.741  17.241  0.6679  0.4786 -0.1640
 6076SOL     OW29689   3.198   2.876  12.110  1.2113 -0.1200  0.0380
 6076SOL    HW129690   3.197   2.957  12.059  1.7180 -1.2178 -1.7512
 6076SOL    HW229691   3.257   2.898  12.182  1.6716  1.2802 -0.7621
 6077SOL     OW29692   1.139   3.244   9.237  0.2661  0.5680 -0.3267
 6077SOL    HW129693   1.073   3.228   9.305  1.9997 -1.8505  0.7810
 6077SOL    HW229694   1.093   3.311   9.186 -2.1384  0.1083  1.2557
 6078SOL     OW29695   3.065   2.070   8.420 -0.1635 -0.0566 -0.4587
 6078SOL    HW129696   3.008   2.121   8.476  0.8538 -0.0041  0.5129
 6078SOL    HW229697   3.039   1.980   8.442  0.8858 -0.7416 -1.9197
 6079SOL     OW29698   3.780   4.167   8.598  0.1831  0.4817  0.1689
 6079SOL    HW129699   3.870   4.179   8.625  0.6675 -1.9392 -0.3464
 6079SOL    HW229700   3.758   4.084   8.640 -2.5196  1.4768  0.7643
 6080SOL     OW29701   0.345   2.517   1.866 -0.3356 -0.1353 -0.3455
 6080SOL    HW129702   0.379   2.475   1.787 -0.5136 -0.6267 -0.1593
 6080SOL    HW229703   0.417   2.504   1.928  1.3035  2.1827 -1.7343
 6081SOL     OW29704   3.070   3.868   4.400  0.6881 -0.1114 -0.3072
 6081SOL    HW129705   3.028   3.876   4.315  1.5395  0.7476 -0.6417
 6081SOL    HW229706   3.161   3.874   4.370  0.1899  1.5408 -1.4987
 6082SOL     OW29707   3.980   3.584   1.084 -0.9300 -0.2581 -0.9764
 6082SOL    HW129708   3.980   3.678   1.066 -0.5266 -0.0387  0.1730
 6082SOL    HW229709   3.888   3.564   1.102 -0.0803 -2.2751  0.9841
 6083SOL     OW29710   0.323   2.766   3.157  0.0730  0.4391 -0.3210
 6083SOL    HW129711   0.368   2.810   3.229 -0.1530 -0.4174  0.3342
 6083SOL    HW229712   0.323   2.831   3.087  4.2477 -0.2354 -0.9658
 6084SOL     OW29713   3.586   3.477   4.613 -0.2177  0.7455 -0.0984
 6084SOL    HW129714   3.669   3.442   4.582 -0.7822 -0.0661 -0.7231
 6084SOL    HW229715   3.610   3.569   4.615 -1.2082  0.9900  0.3664
 6085SOL     OW29716   0.381   0.207   4.255  0.2352 -0.4617  0.0967
 6085SOL    HW129717   0.408   0.285   4.207 -1.2443  0.2045  0.3446
 6085SOL    HW229718   0.443   0.202   4.328  2.1039 -0.4945 -1.4982
 6086SOL     OW29719   4.235   4.560   5.193  0.1014  0.1861  0.1930
 6086SOL    HW129720   4.325   4.593   5.185 -0.4500  1.8245  0.8854
 6086SOL    HW229721   4.211   4.573   5.284  0.5835 -2.1942  0.6766
 6087SOL     OW29722   4.266   0.064   3.127 -0.3035 -0.2445 -0.5865
 6087SOL    HW129723   4.214   4.715   3.095  0.0955 -0.7522 -0.0715
 6087SOL    HW229724   4.211   0.140   3.113 -0.4641 -0.3348 -0.4484
 6088SOL     OW29725   4.711   3.812   2.343  0.3655 -0.1103 -0.4703
 6088SOL    HW129726   4.675   3.724   2.335  0.0650 -0.1360  1.1939
 6088SOL    HW229727   4.651   3.844   2.409 -0.4394  1.0603 -1.7673
 6089SOL     OW29728   2.908   3.686   3.268  0.3714  0.2301 -0.4695
 6089SOL    HW129729   2.865   3.726   3.344  0.8211 -1.2225  0.5512
 6089SOL    HW229730   2.911   3.593   3.291 -0.4725  0.2989 -0.0675
 6090SOL     OW29731   2.315   2.480   2.808 -0.2170  0.0015  0.3783
 6090SOL    HW129732   2.254   2.509   2.740 -0.1433 -1.8434 -0.4958
 6090SOL    HW229733   2.375   2.554   2.799 -0.8029  0.3065 -1.0397
 6091SOL     OW29734   1.129   0.143   2.052  0.3748 -0.3822 -0.1294
 6091SOL    HW129735   1.177   0.211   2.100  3.2044 -1.0087 -2.0754
 6091SOL    HW229736   1.096   0.195   1.979  2.2870  0.1380 -0.6436
 6092SOL     OW29737   3.777   0.002   3.613  0.2316  0.2933 -0.3049
 6092SOL    HW129738   3.859   4.687   3.642  0.0943  1.0900  1.1685
 6092SOL    HW229739   3.803   0.020   3.522 -1.1782 -1.2729 -1.0187
 6093SOL     OW29740   3.656   1.622   8.320  0.0017  0.2251 -0.3828
 6093SOL    HW129741   3.652   1.697   8.261 -0.8257  0.6621  0.2205
 6093SOL    HW229742   3.742   1.586   8.299  0.0972 -0.4813  1.1907
 6094SOL     OW29743   4.720   1.633   1.736 -0.2991  0.1850 -0.4250
 6094SOL    HW129744   4.633   1.607   1.704  0.0783 -0.7387 -0.6974
 6094SOL    HW229745   0.035   1.546   1.730  1.3315  0.9871 -0.8806
 6095SOL     OW29746   1.713   1.408   6.465  0.3496 -0.1959  0.2123
 6095SOL    HW129747   1.626   1.370   6.476  0.3636 -0.6218 -1.0392
 6095SOL    HW229748   1.759   1.386   6.546 -1.7174  1.0672  1.7030
 6096SOL     OW29749   3.831   0.741   8.631 -0.0058  0.1929 -0.4483
 6096SOL    HW129750   3.908   0.716   8.682 -2.0369 -1.4126  1.8747
 6096SOL    HW229751   3.762   0.684   8.665 -0.2034  0.5573 -0.2312
 6097SOL     OW29752   2.738   0.757   0.674  0.6319  0.3412  0.4640
 6097SOL    HW129753   2.826   0.793   0.681  0.7148 -0.2947  2.6957
 6097SOL    HW229754   2.751   0.665   0.697  2.2903  0.0139 -1.7908
 6098SOL     OW29755   0.178   3.023   7.228 -0.2167  0.0918 -0.6975
 6098SOL    HW129756   0.180   3.043   7.322  2.4072 -0.0440 -0.7242
 6098SOL    HW229757   0.114   2.952   7.229 -0.5535  0.4026 -0.0404
 6099SOL     OW29758   3.464   2.260   7.050 -0.1074 -0.2036 -0.4971
 6099SOL    HW129759   3.534   2.280   7.113 -0.7401  0.4681 -0.0035
 6099SOL    HW229760   3.512   2.255   6.968  0.0145 -0.6675 -0.3963
 6100SOL     OW29761   4.097   0.727   8.687 -0.0287  0.1597 -0.4264
 6100SOL    HW129762   4.130   0.768   8.607  0.8752  2.2052  0.9883
 6100SOL    HW229763   4.175   0.731   8.742 -0.1228 -2.4429 -0.1117
 6101SOL     OW29764   4.505   0.464   8.870  0.2748  0.2314  0.0671
 6101SOL    HW129765   4.474   0.399   8.933 -2.4157  1.0570 -0.4038
 6101SOL    HW229766   4.522   0.538   8.929  0.9625  0.5044 -0.4638
 6102SOL     OW29767   4.383   1.384  11.265 -0.0665 -0.0139  0.1723
 6102SOL    HW129768   4.458   1.337  11.301  0.1898  2.0161  2.2959
 6102SOL    HW229769   4.365   1.462  11.319  0.9204  0.4068 -0.1032
 6103SOL     OW29770   3.533   0.849   9.041  0.1191  0.6191  0.3176
 6103SOL    HW129771   3.559   0.935   9.009  1.4541 -0.5908 -1.8396
 6103SOL    HW229772   3.570   0.865   9.127  0.9271 -0.3298  0.1371
 6104SOL     OW29773   4.605   1.853   4.226 -1.2230 -0.1013  0.1070
 6104SOL    HW129774   4.664   1.800   4.280 -1.2188 -1.4339 -1.2169
 6104SOL    HW229775   4.565   1.910   4.291  1.4966  0.9984  0.8214
 6105SOL     OW29776   3.270   4.035  11.845  0.5292 -0.1818 -0.3411
 6105SOL    HW129777   3.344   4.064  11.791  1.1731  0.7709  1.0769
 6105SOL    HW229778   3.269   3.939  11.841  2.8874 -0.2277  0.1640
 6106SOL     OW29779   2.720   1.898   0.816 -0.0057  0.0963  0.2215
 6106SOL    HW129780   2.725   1.968   0.881 -0.3410  1.3815 -1.1277
 6106SOL    HW229781   2.755   1.934   0.735 -2.7851 -2.2561 -2.0418
 6107SOL     OW29782   0.187   3.809   6.025  0.0081  0.2035 -0.7475
 6107SOL    HW129783   0.194   3.718   5.997  0.6080 -0.1074  0.3924
 6107SOL    HW229784   0.257   3.850   5.974 -2.0684  4.4320 -0.1914
 6108SOL     OW29785   3.056   2.353   6.899  0.4040 -0.2071  0.1481
 6108SOL    HW129786   2.977   2.368   6.951  0.3316 -0.5139  0.1288
 6108SOL    HW229787   3.022   2.289   6.837  1.9582  0.0655 -0.9998
 6109SOL     OW29788   2.516   4.056   8.064 -0.3414 -0.2855 -0.1450
 6109SOL    HW129789   2.525   4.052   8.160 -0.0603  1.9739 -0.0794
 6109SOL    HW229790   2.587   4.110   8.032 -0.7068  1.3122  1.7121
 6110SOL     OW29791   4.242   2.568  15.337  0.2851  0.2585  0.6340
 6110SOL    HW129792   4.202   2.550  15.252 -2.2343 -1.7109  2.2424
 6110SOL    HW229793   4.171   2.564  15.400 -0.6105  0.8808 -0.3257
 6111SOL     OW29794   0.393   0.219   2.812 -0.2832 -0.1502  0.1061
 6111SOL    HW129795   0.325   0.286   2.805 -1.3556 -1.0543  1.9297
 6111SOL    HW229796   0.394   0.174   2.728  1.1159  1.0504 -0.5207
 6112SOL     OW29797   2.072   1.537   8.929 -1.0801  0.4662 -0.5787
 6112SOL    HW129798   2.035   1.534   9.017 -0.2487 -1.1414 -0.2742
 6112SOL    HW229799   2.075   1.442   8.920 -0.2046  0.5095 -0.7213
 6113SOL     OW29800   3.915   4.576  12.507  0.3011  0.4249 -0.2035
 6113SOL    HW129801   3.840   4.606  12.560  0.6571  2.1824 -0.6796
 6113SOL    HW229802   3.887   4.485  12.504  2.6737 -0.4170  2.9741
 6114SOL     OW29803   2.033   0.827   4.368  0.1871  0.1591 -0.5138
 6114SOL    HW129804   2.107   0.861   4.318 -0.7346  2.9953  0.1058
 6114SOL    HW229805   1.984   0.784   4.298  0.4898 -0.5695 -0.2911
 6115SOL     OW29806   1.870   0.467   6.289  0.1564  0.4243  0.0595
 6115SOL    HW129807   1.781   0.454   6.322 -1.0241  1.0143 -2.8840
 6115SOL    HW229808   1.923   0.446   6.365  0.6924  1.3108 -0.0663
 6116SOL     OW29809   2.181   4.179   1.335 -0.4998  0.2413  0.0947
 6116SOL    HW129810   2.098   4.209   1.373 -0.0888  1.3693  0.1191
 6116SOL    HW229811   2.229   4.159   1.416  1.2686  1.4430 -0.6481
 6117SOL     OW29812   3.353   0.758  15.541  0.2010  0.5754  0.2246
 6117SOL    HW129813   3.385   0.672  15.516 -1.5655 -0.1519  0.4059
 6117SOL    HW229814   3.433   0.809  15.555 -0.6786  1.6077  1.5675
 6118SOL     OW29815   1.175   4.216   6.444 -0.3667 -0.0327 -0.6400
 6118SOL    HW129816   1.257   4.247   6.407 -0.4269  0.2195 -0.5619
 6118SOL    HW229817   1.177   4.236   6.537 -2.3955  0.1370 -0.6327
 6119SOL     OW29818   0.883   3.678   0.977  0.6612 -0.3459 -0.3867
 6119SOL    HW129819   0.913   3.587   0.980  0.6687 -0.2133  3.1558
 6119SOL    HW229820   0.813   3.666   1.042  2.8226  0.3226  2.0545
 6120SOL     OW29821   3.664   4.367   1.864 -0.1603  0.1644  0.1206
 6120SOL    HW129822   3.753   4.382   1.831 -0.0019 -1.9077 -0.4338
 6120SOL    HW229823   3.670   4.406   1.951 -0.1220  0.0835  0.1542
 6121SOL     OW29824   3.375   2.975  14.849 -0.1590 -0.0238 -0.7422
 6121SOL    HW129825   3.294   3.012  14.885  0.7027  0.8679  0.2521
 6121SOL    HW229826   3.339   2.959  14.761 -2.2127 -0.6879  0.2086
 6122SOL     OW29827   4.069   4.199   0.872 -0.4537 -0.1468 -0.0299
 6122SOL    HW129828   4.017   4.250   0.809 -0.6228 -1.4263 -0.9397
 6122SOL    HW229829   4.149   4.252   0.877 -2.2757  2.3910  2.3427
 6123SOL     OW29830   4.000   4.175  17.609  0.2829 -0.0002  0.1440
 6123SOL    HW129831   4.006   4.087  17.646 -0.3190 -0.0652  0.0905
 6123SOL    HW229832   3.977   4.144  17.521  1.0886  0.1542 -0.1241
 6124SOL     OW29833   1.038   2.008  17.500 -0.1402 -0.3364  0.8400
 6124SOL    HW129834   1.028   1.965  17.585 -0.6421  0.3259  1.1258
 6124SOL    HW229835   1.116   1.965  17.467 -0.9019 -2.8532  2.2884
 6125SOL     OW29836   2.943   1.015  13.542  0.1248 -0.2147 -0.2094
 6125SOL    HW129837   3.020   0.968  13.572  1.9667  2.6891 -0.3613
 6125SOL    HW229838   2.946   0.999  13.448 -1.6817  1.8139 -0.6367
 6126SOL     OW29839   0.947   0.689   2.928 -0.4625 -0.3002  0.0226
 6126SOL    HW129840   1.031   0.722   2.895 -0.5056  0.0222  0.2361
 6126SOL    HW229841   0.917   0.777   2.951  1.5124 -0.1628  2.1204
 6127SOL     OW29842   3.930   4.169   5.863  0.2443  0.2051 -0.4616
 6127SOL    HW129843   3.951   4.136   5.950  1.0564  1.8746 -0.0387
 6127SOL    HW229844   3.836   4.181   5.874  0.2847 -2.0307  2.2254
 6128SOL     OW29845   0.276   4.062   9.358 -0.4372 -0.1217 -0.3847
 6128SOL    HW129846   0.291   4.044   9.265  1.2086  0.2260 -0.1773
 6128SOL    HW229847   0.183   4.084   9.361 -0.5369 -0.4404 -1.2919
 6129SOL     OW29848   0.341   0.288  16.597 -0.1297 -0.2232 -0.0949
 6129SOL    HW129849   0.319   0.227  16.526 -0.3381  1.1232 -1.1875
 6129SOL    HW229850   0.265   0.265  16.649  1.0733  0.0303  1.7840
 6130SOL     OW29851   2.457   2.194   8.875  0.4372 -0.4126 -0.1316
 6130SOL    HW129852   2.384   2.255   8.862 -0.8285 -2.0602 -0.7432
 6130SOL    HW229853   2.445   2.174   8.968 -0.0875  0.0063 -0.1089
 6131SOL     OW29854   3.852   4.219  14.330  0.0063  0.6723 -0.0612
 6131SOL    HW129855   3.772   4.177  14.362  0.5581 -2.5077 -2.9210
 6131SOL    HW229856   3.850   4.302  14.379 -0.2848  1.4350 -1.3487
 6132SOL     OW29857   2.626   0.051   3.772  0.2523 -0.5004 -0.3402
 6132SOL    HW129858   2.563   0.044   3.844  1.5668  0.0175  0.8586
 6132SOL    HW229859   2.578   0.010   3.701 -0.0985  1.1781 -1.0835
 6133SOL     OW29860   4.049   2.550   0.533  0.1844 -0.1430  0.1149
 6133SOL    HW129861   4.104   2.488   0.486  1.7784  0.6865  0.8936
 6133SOL    HW229862   4.106   2.572   0.607  0.1281  1.3720 -0.3005
 6134SOL     OW29863   1.951   0.532   0.889 -0.0606 -0.5043  0.7065
 6134SOL    HW129864   1.937   0.437   0.882  0.8058 -0.6833  1.4374
 6134SOL    HW229865   1.944   0.559   0.797 -0.8059 -2.3948  0.1935
 6135SOL     OW29866   3.746   1.908   1.631  0.0092 -0.1424  0.4730
 6135SOL    HW129867   3.746   2.002   1.614 -0.1969 -0.2954 -0.3976
 6135SOL    HW229868   3.758   1.887   1.724 -1.6643 -0.7270  0.5602
 6136SOL     OW29869   4.310   2.987  10.928 -0.7093 -0.3480 -0.3435
 6136SOL    HW129870   4.370   2.925  10.971 -1.7017 -0.3473  1.0309
 6136SOL    HW229871   4.313   3.066  10.982  1.8774 -1.0338  0.5411
 6137SOL     OW29872   0.915   0.854  11.674 -0.6357 -0.2575 -0.4185
 6137SOL    HW129873   0.947   0.879  11.761  0.3573 -1.2341 -0.4997
 6137SOL    HW229874   0.852   0.785  11.697 -0.6187  0.1641  0.8688
 6138SOL     OW29875   4.304   0.131   6.022  0.5949  0.2051  0.2007
 6138SOL    HW129876   4.359   0.158   6.096  3.7300 -0.8016 -1.7571
 6138SOL    HW229877   4.328   0.039   6.014 -0.0122  0.1687 -1.0882
 6139SOL     OW29878   0.891   4.283   3.799  0.3385 -0.3449  0.7326
 6139SOL    HW129879   0.846   4.304   3.881 -0.0158 -0.4255  0.5603
 6139SOL    HW229880   0.907   4.189   3.806 -0.7707 -0.5126  1.0593
 6140SOL     OW29881   2.755   2.402   4.717 -0.4444 -0.2503  0.1602
 6140SOL    HW129882   2.796   2.347   4.649  0.5772 -0.0561  0.6171
 6140SOL    HW229883   2.798   2.373   4.797 -0.6351  1.0524  0.7311
 6141SOL     OW29884   0.184   1.126   8.491  0.3682 -0.1518 -0.5738
 6141SOL    HW129885   0.122   1.096   8.425  0.0261 -3.2960  1.1619
 6141SOL    HW229886   0.260   1.088   8.447  1.1577 -0.6635  1.2281
 6142SOL     OW29887   0.375   3.001   2.465 -0.2301  0.1747 -0.1582
 6142SOL    HW129888   0.458   2.958   2.444 -0.6990 -0.8678  0.1012
 6142SOL    HW229889   0.406   3.071   2.522  2.2071 -1.6583  0.7942
 6143SOL     OW29890   0.550   0.912   7.113 -0.2308  0.1538 -0.5107
 6143SOL    HW129891   0.494   0.915   7.190  1.1540  0.4717  0.5017
 6143SOL    HW229892   0.639   0.882   7.133 -0.3392 -0.0495 -0.3367
 6144SOL     OW29893   0.865   2.875   5.166  0.0342 -0.2377  0.9605
 6144SOL    HW129894   0.818   2.887   5.084  3.6277  0.2911 -1.0366
 6144SOL    HW229895   0.838   2.785   5.182 -1.7661  0.2497  0.6403
 6145SOL     OW29896   3.277   0.051   5.640 -0.8269  0.3143  0.0665
 6145SOL    HW129897   3.347   0.106   5.676 -0.3824 -0.2454  0.0544
 6145SOL    HW229898   3.273   4.698   5.694  0.3939  0.8922  0.9773
 6146SOL     OW29899   1.464   4.371   3.560  0.1975 -0.5351 -0.0494
 6146SOL    HW129900   1.485   4.304   3.624  0.6238  0.3636  0.7462
 6146SOL    HW229901   1.430   4.440   3.617  0.7943 -0.9997  0.8472
 6147SOL     OW29902   2.448   4.285   4.879  0.3662 -0.6337 -0.6674
 6147SOL    HW129903   2.524   4.240   4.841 -0.8272 -0.7271 -2.9166
 6147SOL    HW229904   2.464   4.294   4.973  1.5484 -1.2211 -0.8072
 6148SOL     OW29905   3.369   3.412   9.095 -0.2362 -0.5269  0.3821
 6148SOL    HW129906   3.311   3.488   9.098  0.3208 -0.0531 -1.0015
 6148SOL    HW229907   3.369   3.395   9.001 -0.3385  3.1452 -0.2623
 6149SOL     OW29908   3.406   0.615   5.488 -0.2998  0.8078 -0.5265
 6149SOL    HW129909   3.376   0.700   5.456  0.9179  1.1986 -0.6199
 6149SOL    HW229910   3.462   0.637   5.563  1.3012 -1.2596 -1.1258
 6150SOL     OW29911   2.325   2.670   1.009  0.2178 -0.6001  0.2141
 6150SOL    HW129912   2.240   2.661   1.053  0.5805 -3.0917  0.3832
 6150SOL    HW229913   2.369   2.592   1.041  0.5356 -1.3689 -2.1257
 6151SOL     OW29914   0.909   4.012   3.884  0.1379 -0.2559 -0.2602
 6151SOL    HW129915   0.981   3.956   3.855 -0.2425 -0.6949 -0.3476
 6151SOL    HW229916   0.933   4.045   3.971  0.3857 -0.7391 -0.1441
 6152SOL     OW29917   0.614   1.138   6.574  0.1102  0.3109 -0.3586
 6152SOL    HW129918   0.571   1.186   6.645  1.9736 -1.3871  1.8945
 6152SOL    HW229919   0.664   1.068   6.616  3.3374  0.7941 -3.3674
 6153SOL     OW29920   3.810   2.536  13.673 -0.2601 -0.7289  0.1498
 6153SOL    HW129921   3.905   2.530  13.663 -0.0911  2.1797  0.0819
 6153SOL    HW229922   3.795   2.630  13.681  1.5550 -0.4111 -0.1490
 6154SOL     OW29923   1.892   3.089   4.749 -1.2660 -0.0074  0.6822
 6154SOL    HW129924   1.846   3.021   4.798  0.2802 -0.2332  1.8342
 6154SOL    HW229925   1.881   3.049   4.663  0.3483  0.3619  0.2955
 6155SOL     OW29926   3.045   3.994  12.873  0.0270 -0.1522 -0.4709
 6155SOL    HW129927   3.098   4.073  12.884 -1.0153  0.4959 -0.0862
 6155SOL    HW229928   3.079   3.927  12.933  0.0390  1.2880  1.1435
 6156SOL     OW29929   0.605   1.475  13.323  0.1602 -0.6564 -0.0838
 6156SOL    HW129930   0.691   1.462  13.282  0.1062 -1.4490  0.0530
 6156SOL    HW229931   0.607   1.571  13.325 -1.4129 -0.6831  1.7816
 6157SOL     OW29932   1.578   0.456   3.451  0.6562  0.1135  0.0190
 6157SOL    HW129933   1.619   0.464   3.537  0.1839 -0.8519  0.3328
 6157SOL    HW229934   1.535   0.374   3.475 -3.0400  1.6646 -1.3623
 6158SOL     OW29935   4.028   3.425   8.869 -0.1721 -0.0901 -0.2808
 6158SOL    HW129936   4.063   3.454   8.785 -1.2168 -0.2650 -0.7772
 6158SOL    HW229937   3.970   3.353   8.845 -0.4640  1.6327 -4.7387
 6159SOL     OW29938   2.066   1.914   1.412  0.0967 -0.0212  0.1583
 6159SOL    HW129939   2.061   1.988   1.473 -0.6838  1.0446 -1.1868
 6159SOL    HW229940   2.072   1.833   1.463  2.1998 -0.0609 -0.1233
 6160SOL     OW29941   3.598   2.784   1.172  0.2093 -0.0477  0.4358
 6160SOL    HW129942   3.609   2.837   1.251 -2.5098  1.5994 -0.3118
 6160SOL    HW229943   3.514   2.742   1.192  0.1243 -0.3929 -0.6741
 6161SOL     OW29944   1.963   2.893   9.276  0.4327 -0.2025 -0.0322
 6161SOL    HW129945   1.972   2.908   9.370 -1.6526  2.6857 -0.2932
 6161SOL    HW229946   2.054   2.906   9.248  0.1170  2.0358  0.0083
 6162SOL     OW29947   0.542   1.699   8.674 -0.2273  0.2404 -0.0086
 6162SOL    HW129948   0.620   1.754   8.669 -1.1546  1.5060 -0.4542
 6162SOL    HW229949   0.502   1.744   8.600  0.6811 -1.4448 -1.5118
 6163SOL     OW29950   2.602   3.153   3.643 -0.0734 -0.1903  0.7948
 6163SOL    HW129951   2.518   3.173   3.684 -0.4827  0.0201 -0.1412
 6163SOL    HW229952   2.654   3.226   3.674 -0.8399  0.5642  0.2971
 6164SOL     OW29953   4.082   4.423  14.105 -0.3420  0.0639 -0.0214
 6164SOL    HW129954   4.175   4.414  14.084 -0.5380 -0.9859 -0.4387
 6164SOL    HW229955   4.055   4.467  14.024 -0.0669 -0.2615 -0.2910
 6165SOL     OW29956   2.281   0.297  13.226 -0.4792 -0.3281  0.1916
 6165SOL    HW129957   2.251   0.262  13.310 -0.3635 -1.3490 -0.1856
 6165SOL    HW229958   2.275   0.218  13.172 -0.4035 -0.3620  0.2329
 6166SOL     OW29959   0.690   0.211   0.029  0.1591 -0.0214  0.6237
 6166SOL    HW129960   0.619   0.182   0.087 -2.4600 -0.2608 -2.7035
 6166SOL    HW229961   0.729   0.284   0.076  1.6506 -2.4385  3.1867
 6167SOL     OW29962   3.073   0.549   3.146  0.6120  0.0694 -0.4393
 6167SOL    HW129963   3.068   0.610   3.219 -0.9042 -1.0807  0.4115
 6167SOL    HW229964   3.165   0.522   3.145  1.0188  1.5099 -1.8397
 6168SOL     OW29965   1.490   0.227  10.883 -0.9808 -0.4044  0.2275
 6168SOL    HW129966   1.517   0.302  10.831  0.6120 -0.1704  1.3830
 6168SOL    HW229967   1.410   0.257  10.927 -0.3514 -0.9698  1.7768
 6169SOL     OW29968   4.248   3.913  17.295 -0.3763 -0.3191 -0.8794
 6169SOL    HW129969   4.292   3.901  17.211 -0.6287 -2.0989 -0.7579
 6169SOL    HW229970   4.222   4.005  17.284  1.1068  0.3759  1.5165
 6170SOL     OW29971   2.528   0.075   7.641  0.1870  0.2956 -0.6741
 6170SOL    HW129972   2.583   0.062   7.564 -1.6226 -0.2048 -1.8746
 6170SOL    HW229973   2.603   0.078   7.701  1.4525 -1.1020 -2.1754
 6171SOL     OW29974   0.060   1.319   4.872 -0.4752 -0.0240 -0.1360
 6171SOL    HW129975   0.115   1.321   4.793  0.2671 -2.2411  0.3126
 6171SOL    HW229976   0.015   1.403   4.866  1.6533  1.1047 -0.2324
 6172SOL     OW29977   0.697   1.874   5.998  0.4499 -0.1100  0.2317
 6172SOL    HW129978   0.724   1.816   6.069  0.1295 -2.6832 -1.7839
 6172SOL    HW229979   0.604   1.850   5.994  0.9958 -1.8869 -1.5225
 6173SOL     OW29980   4.565   4.635   2.652  0.6656 -0.3390 -0.2120
 6173SOL    HW129981   4.509   4.618   2.728  2.6451 -1.4316  0.9916
 6173SOL    HW229982   4.651   4.602   2.678  1.6602  0.5520 -2.3356
 6174SOL     OW29983   4.033   1.560   3.155  0.0824  0.3281 -0.7233
 6174SOL    HW129984   3.947   1.548   3.116 -0.5960 -1.5726  1.3137
 6174SOL    HW229985   4.027   1.494   3.225  0.2730 -0.6624 -1.6387
 6175SOL     OW29986   3.351   2.032   0.288 -0.1498 -0.3068 -0.0039
 6175SOL    HW129987   3.281   2.023   0.222  0.1507 -1.0620 -0.2179
 6175SOL    HW229988   3.401   2.113   0.280 -1.4385  0.4690 -0.2346
 6176SOL     OW29989   1.911   1.593   4.078  0.2687  0.0054 -0.0513
 6176SOL    HW129990   1.894   1.624   3.989 -0.1513 -1.8874 -0.6508
 6176SOL    HW229991   1.827   1.612   4.120  0.4794  0.3969  0.1893
 6177SOL     OW29992   0.255   1.365   3.044  0.3932 -0.1663 -0.8895
 6177SOL    HW129993   0.261   1.454   3.079 -0.2840 -0.7325  0.6667
 6177SOL    HW229994   0.197   1.379   2.969  1.5876 -2.0118 -2.1616
 6178SOL     OW29995   0.554   2.413   9.772 -0.4090  0.5221  0.0232
 6178SOL    HW129996   0.559   2.320   9.748 -0.3302  0.6006 -0.2640
 6178SOL    HW229997   0.583   2.431   9.861 -0.9626  0.8479  0.1348
 6179SOL     OW29998   2.240   3.871   6.793  0.1024  0.1939  0.5125
 6179SOL    HW129999   2.262   3.923   6.871  1.5505  0.6868 -0.2226
 6179SOL    HW230000   2.150   3.840   6.804 -0.1612  0.8704  0.2825
 6180SOL     OW30001   3.537   2.153  11.247 -0.0341 -0.5678 -0.4404
 6180SOL    HW130002   3.548   2.125  11.156  2.8089  0.1723 -0.3280
 6180SOL    HW230003   3.627   2.178  11.268  0.1044 -1.8342  0.4751
 6181SOL     OW30004   3.331   0.143  12.732 -0.4509  0.3776 -0.4087
 6181SOL    HW130005   3.341   0.093  12.651  0.8212 -0.9693  0.5691
 6181SOL    HW230006   3.378   0.219  12.698  0.3741 -0.4583 -1.1324
 6182SOL     OW30007   3.598   2.441   8.019  0.2425  0.3945 -0.4920
 6182SOL    HW130008   3.630   2.378   8.083  0.0617  1.2169  0.4085
 6182SOL    HW230009   3.679   2.487   7.998  0.0894  1.4365  1.2655
 6183SOL     OW30010   0.212   3.301   4.137  0.3091 -0.2840 -0.0591
 6183SOL    HW130011   0.282   3.238   4.119 -1.0163 -2.0629  0.9400
 6183SOL    HW230012   0.141   3.269   4.081 -1.2855  0.0097  1.7884
 6184SOL     OW30013   1.654   4.623  16.857  0.4955 -0.2042 -0.2611
 6184SOL    HW130014   1.596   4.627  16.781 -1.4675 -1.5018  1.1708
 6184SOL    HW230015   1.689   4.537  16.835 -1.2826 -0.5593 -1.7004
 6185SOL     OW30016   0.259   2.182   8.476 -0.5952  0.1782  0.3027
 6185SOL    HW130017   0.286   2.228   8.397  1.8866 -1.3961  0.2086
 6185SOL    HW230018   0.219   2.254   8.524 -1.6088 -1.0228  1.2724
 6186SOL     OW30019   3.160   0.710   3.706  0.0393 -0.4767 -0.7504
 6186SOL    HW130020   3.164   0.616   3.726  0.8864 -0.4188 -0.6465
 6186SOL    HW230021   3.232   0.733   3.764  1.4148 -1.1583 -2.1836
 6187SOL     OW30022   1.945   2.374   4.315 -0.4300 -0.2020 -0.5330
 6187SOL    HW130023   1.936   2.284   4.282 -4.3893 -0.4719  1.3123
 6187SOL    HW230024   1.912   2.368   4.405  0.5619 -2.1225 -0.2880
 6188SOL     OW30025   3.724   3.135   5.754 -0.1118 -0.6030 -0.1790
 6188SOL    HW130026   3.684   3.122   5.667  0.8556 -0.5288 -0.6312
 6188SOL    HW230027   3.693   3.219   5.788  0.4817 -0.2139 -0.6142
 6189SOL     OW30028   2.891   4.545   8.832  0.2276  0.0001 -0.1680
 6189SOL    HW130029   2.911   4.454   8.810 -0.3323 -0.1292 -0.1280
 6189SOL    HW230030   2.848   4.568   8.750 -0.8458  0.1252  0.4273
 6190SOL     OW30031   3.378   3.998   4.673 -0.4862 -0.3154 -0.2887
 6190SOL    HW130032   3.306   3.949   4.712 -2.3054  0.6364 -2.4189
 6190SOL    HW230033   3.334   4.082   4.688 -0.1744 -0.3213  0.6398
 6191SOL     OW30034   4.084   1.457   4.491  0.2669  0.2931 -0.3559
 6191SOL    HW130035   4.109   1.423   4.577 -1.9679  0.3317  0.3078
 6191SOL    HW230036   4.173   1.454   4.455  0.8631 -0.5142  1.1973
 6192SOL     OW30037   3.049   1.303   2.481 -0.2541 -0.5714 -1.0304
 6192SOL    HW130038   2.990   1.378   2.482 -0.1531 -0.4481 -4.3299
 6192SOL    HW230039   3.009   1.254   2.553 -0.2543 -2.2188 -2.1661
 6193SOL     OW30040   2.016   2.482  13.277  0.3198  0.0567  0.5100
 6193SOL    HW130041   2.062   2.559  13.309 -2.4579  1.6504  0.6869
 6193SOL    HW230042   2.044   2.482  13.185 -0.6749  2.3273  0.1845
 6194SOL     OW30043   0.040   3.800   5.114  0.1487 -0.7809 -0.0652
 6194SOL    HW130044   0.028   3.705   5.114  0.8183 -0.8557 -1.3066
 6194SOL    HW230045   4.685   3.824   5.067  0.1789  0.4073  0.4964
 6195SOL     OW30046   1.168   4.460  11.770  0.4526 -0.5823  0.5681
 6195SOL    HW130047   1.224   4.385  11.749 -0.1640 -1.0604  0.6449
 6195SOL    HW230048   1.094   4.434  11.715  1.4664  0.2382 -1.2130
 6196SOL     OW30049   3.142   4.192   4.496 -0.5565 -0.1140  0.2660
 6196SOL    HW130050   3.094   4.273   4.482  0.5825  0.4974 -0.0462
 6196SOL    HW230051   3.202   4.220   4.566  0.0879 -1.2460  0.1724
 6197SOL     OW30052   2.032   4.635   5.517 -0.5065 -0.0071  0.0200
 6197SOL    HW130053   2.034   4.602   5.607 -1.3125  0.1887  0.1050
 6197SOL    HW230054   1.984   4.717   5.512  2.0841  1.5542  1.2851
 6198SOL     OW30055   3.671   3.423   8.160  0.4124  0.0626  0.0211
 6198SOL    HW130056   3.620   3.344   8.145  0.4286 -0.0568  0.5892
 6198SOL    HW230057   3.719   3.414   8.078 -0.2749 -0.6314 -0.3006
 6199SOL     OW30058   3.398   2.222  16.921  0.1967 -0.2490 -0.0867
 6199SOL    HW130059   3.485   2.222  16.960  0.2653 -1.3299 -0.2384
 6199SOL    HW230060   3.374   2.315  16.925  1.3001  0.0018  0.6357
 6200SOL     OW30061   3.796   3.909  12.563  0.3128  0.0320  0.5578
 6200SOL    HW130062   3.857   3.889  12.492 -0.1924 -2.7677  0.9150
 6200SOL    HW230063   3.837   3.984  12.605 -1.6627  1.7438 -0.5978
 6201SOL     OW30064   2.160   1.204   0.807 -0.0790  0.2772 -0.0199
 6201SOL    HW130065   2.232   1.257   0.773 -1.4686  1.8823 -0.4731
 6201SOL    HW230066   2.096   1.247   0.749  1.7453  2.7060 -0.2447
 6202SOL     OW30067   1.725   0.308   4.226  0.3683  0.6207  0.0257
 6202SOL    HW130068   1.777   0.240   4.270 -2.1127  0.1576  2.2874
 6202SOL    HW230069   1.787   0.342   4.161 -1.2341 -0.5230 -2.1043
 6203SOL     OW30070   0.060   3.449   9.515 -0.1413 -0.7822  0.0329
 6203SOL    HW130071   0.131   3.386   9.507  1.0465  0.6802 -0.9641
 6203SOL    HW230072   0.099   3.535   9.496 -2.1609  0.7470  2.8066
 6204SOL     OW30073   3.392   3.617   6.688 -0.7090 -0.8000 -0.0251
 6204SOL    HW130074   3.343   3.699   6.695  0.9657  0.1910  0.0680
 6204SOL    HW230075   3.392   3.595   6.781  1.4268  0.1148  0.1805
 6205SOL     OW30076   3.559   0.936  13.710 -0.2601  0.6632 -0.2901
 6205SOL    HW130077   3.498   0.890  13.652 -0.9895 -0.2100  1.1758
 6205SOL    HW230078   3.501   1.009  13.730 -1.7510 -0.1508 -1.6398
 6206SOL     OW30079   2.095   2.371   8.117 -0.4432  0.3512  0.3042
 6206SOL    HW130080   2.091   2.276   8.107 -1.3066  0.3930  0.2765
 6206SOL    HW230081   2.066   2.388   8.207  0.3965 -0.4491  0.7213
 6207SOL     OW30082   0.808   2.367   7.550  0.1401  0.3220 -0.2261
 6207SOL    HW130083   0.844   2.279   7.552  2.2798  1.2326  1.6328
 6207SOL    HW230084   0.842   2.404   7.632 -1.5514  0.1336  0.5527
 6208SOL     OW30085   4.145   3.473   7.464  0.1671  0.7750 -0.3036
 6208SOL    HW130086   4.120   3.463   7.556  0.2115  0.9374 -0.2737
 6208SOL    HW230087   4.154   3.568   7.450 -1.1537  0.7154 -1.5934
 6209SOL     OW30088   1.477   4.368  15.944 -0.1047 -0.3084 -0.2218
 6209SOL    HW130089   1.417   4.316  15.890 -1.8071  0.2300  1.1443
 6209SOL    HW230090   1.535   4.301  15.979  1.1939  1.1390  0.4096
 6210SOL     OW30091   0.064   2.499   6.429 -0.2226  0.1383 -0.9290
 6210SOL    HW130092   0.089   2.561   6.361  0.0795  1.0612  0.0234
 6210SOL    HW230093   0.059   2.546   6.512 -2.4039 -1.8458  0.0677
 6211SOL     OW30094   3.790   1.266  12.837 -0.0426  0.0959  0.1969
 6211SOL    HW130095   3.749   1.246  12.921  1.0762 -0.2177  0.6740
 6211SOL    HW230096   3.880   1.286  12.865  0.0737 -1.6003  1.0328
 6212SOL     OW30097   0.767   1.749   9.457 -0.0599  0.6425 -0.9027
 6212SOL    HW130098   0.862   1.750   9.448 -0.1176  3.1016 -1.2714
 6212SOL    HW230099   0.739   1.793   9.377  0.2278  0.7755 -0.9286
 6213SOL     OW30100   1.470   0.342   4.342 -0.2304 -0.0060  0.2953
 6213SOL    HW130101   1.564   0.326   4.349 -0.3274 -0.2327  1.0346
 6213SOL    HW230102   1.473   0.394   4.261  0.1792  1.6202  1.3488
 6214SOL     OW30103   2.465   3.749   6.068 -0.0407 -0.0816  0.4789
 6214SOL    HW130104   2.468   3.658   6.097 -1.6577 -0.4308 -0.4741
 6214SOL    HW230105   2.498   3.800   6.142  2.4240  1.3773 -1.6284
 6215SOL     OW30106   0.817   2.606   5.964  0.2952  0.2254 -0.1126
 6215SOL    HW130107   0.872   2.539   6.004 -0.4781 -0.7080 -0.6163
 6215SOL    HW230108   0.743   2.620   6.022  1.4755  2.7153  0.8020
 6216SOL     OW30109   2.374   0.006   8.360 -0.1245  0.4926 -0.0108
 6216SOL    HW130110   2.332   4.676   8.294  1.3212  2.1456 -2.3096
 6216SOL    HW230111   2.408   0.080   8.309 -1.7784  0.7904 -0.6726
 6217SOL     OW30112   2.644   3.771  12.528  0.3434 -0.3553  0.3317
 6217SOL    HW130113   2.725   3.720  12.527  1.4306  1.3500  1.0085
 6217SOL    HW230114   2.603   3.739  12.448 -1.8524  0.4156  1.1378
 6218SOL     OW30115   3.564   4.301   8.452 -0.2140  0.1345 -0.2506
 6218SOL    HW130116   3.627   4.251   8.504 -0.2490  0.1652 -0.1785
 6218SOL    HW230117   3.579   4.388   8.489  0.0337  0.8227 -1.9799
 6219SOL     OW30118   2.040   3.081   6.796  0.1237  0.2768  0.0177
 6219SOL    HW130119   2.035   2.987   6.782 -3.7863  0.5631 -0.4574
 6219SOL    HW230120   1.952   3.104   6.767 -0.4890  0.8734  2.4033
 6220SOL     OW30121   1.140   0.309   5.567 -0.6348  0.1602 -0.4612
 6220SOL    HW130122   1.114   0.377   5.629  1.0417  0.1978  0.2183
 6220SOL    HW230123   1.156   0.366   5.492  0.1856 -0.8843 -1.0851
 6221SOL     OW30124   3.688   1.925  11.477 -0.1909  0.2965 -0.3732
 6221SOL    HW130125   3.761   1.892  11.529  0.2172  1.1900 -0.3812
 6221SOL    HW230126   3.716   2.002  11.427 -0.1892 -0.4825 -1.5655
 6222SOL     OW30127   0.061   2.888   5.469 -0.3461 -0.2273 -0.2706
 6222SOL    HW130128   4.720   2.886   5.401 -0.5924  3.0073 -0.1335
 6222SOL    HW230129   0.029   2.830   5.538 -1.1333  1.9641  1.1992
 6223SOL     OW30130   4.205   1.536   5.136 -0.3837  0.0210  0.0645
 6223SOL    HW130131   4.125   1.560   5.184 -0.5785  2.7200 -1.6253
 6223SOL    HW230132   4.282   1.530   5.193  0.1875 -2.8163 -0.9737
 6224SOL     OW30133   3.802   0.939   9.746  0.3605  0.4979  0.4238
 6224SOL    HW130134   3.864   0.866   9.747 -0.8570 -0.5286  0.8454
 6224SOL    HW230135   3.797   0.956   9.840 -1.1172 -1.2968  0.6771
 6225SOL     OW30136   4.533   1.833   3.948 -0.1912 -0.6181 -0.7798
 6225SOL    HW130137   4.481   1.913   3.941 -0.1464 -0.4468  0.7725
 6225SOL    HW230138   4.541   1.837   4.044 -0.4506 -0.0593 -0.7845
 6226SOL     OW30139   2.526   3.935  10.361  0.1494  0.3755  0.0368
 6226SOL    HW130140   2.497   3.924  10.452  1.1933 -2.5243  0.0158
 6226SOL    HW230141   2.618   3.932  10.387 -0.4629  0.4976  2.1969
 6227SOL     OW30142   0.245   1.539   2.438 -0.0267 -0.0166  0.4388
 6227SOL    HW130143   0.160   1.539   2.483 -0.4246 -3.7457 -0.2885
 6227SOL    HW230144   0.307   1.545   2.510 -0.4517  1.8616  0.6472
 6228SOL     OW30145   1.664   0.581  15.459 -0.3390  0.0204 -0.5635
 6228SOL    HW130146   1.675   0.675  15.451 -0.3989  0.1999  1.7241
 6228SOL    HW230147   1.626   0.563  15.373 -0.4664 -1.6260 -0.1714
 6229SOL     OW30148   4.192   1.866   1.985 -0.7438 -0.0490  0.2268
 6229SOL    HW130149   4.246   1.944   1.998  0.4514 -0.6089 -1.5004
 6229SOL    HW230150   4.124   1.901   1.927 -0.2346 -1.6905 -1.3470
 6230SOL     OW30151   1.393   3.637   5.374  0.2231 -0.4996 -0.1696
 6230SOL    HW130152   1.486   3.651   5.357  0.4936 -3.1456 -0.8179
 6230SOL    HW230153   1.386   3.674   5.462  0.0454  0.3553 -0.5428
 6231SOL     OW30154   4.274   0.547   5.051 -0.3494  0.2674 -0.3863
 6231SOL    HW130155   4.363   0.515   5.059 -0.4149 -0.0459 -0.8824
 6231SOL    HW230156   4.253   0.574   4.962 -0.6840  2.1778  0.2787
 6232SOL     OW30157   2.806   2.749  10.606 -0.1355  0.0901 -0.2748
 6232SOL    HW130158   2.725   2.729  10.654 -0.6806 -0.6825 -1.5014
 6232SOL    HW230159   2.830   2.664  10.568  2.8560  1.1265 -0.6683
 6233SOL     OW30160   4.517   4.512   2.062  0.3221  0.0244 -0.1823
 6233SOL    HW130161   4.612   4.512   2.075  0.1219 -0.0413  1.3647
 6233SOL    HW230162   4.497   4.421   2.083  0.9136  0.4151  2.0814
 6234SOL     OW30163   2.119   2.695   3.983 -0.4646 -0.1793  0.0150
 6234SOL    HW130164   2.049   2.634   4.007  0.0611 -0.7549  0.0942
 6234SOL    HW230165   2.166   2.711   4.065 -0.6177  1.4359 -0.2127
 6235SOL     OW30166   3.624   2.672  14.949 -0.3824 -0.0996  0.0810
 6235SOL    HW130167   3.590   2.589  14.914  0.1663 -0.1102 -0.4275
 6235SOL    HW230168   3.663   2.626  15.024  3.1749  1.3626 -0.9068
 6236SOL     OW30169   4.387   1.705   8.697 -0.6218 -0.7760 -0.3431
 6236SOL    HW130170   4.419   1.632   8.644 -1.0703 -1.3595  0.2034
 6236SOL    HW230171   4.402   1.780   8.638 -2.0919 -1.3651 -1.4746
 6237SOL     OW30172   2.957   4.625  13.677 -0.4917  0.6146 -0.3305
 6237SOL    HW130173   3.034   4.670  13.641  0.1119 -2.0621 -2.3571
 6237SOL    HW230174   2.903   4.617  13.599 -1.7263 -1.2222  0.7119
 6238SOL     OW30175   1.759   0.201  14.008 -0.4601 -0.1611  0.1571
 6238SOL    HW130176   1.711   0.120  13.991 -1.1339  0.1258  0.7028
 6238SOL    HW230177   1.737   0.216  14.100 -1.8458  0.5625 -0.2875
 6239SOL     OW30178   4.101   3.849   8.862  0.2196  0.0479 -0.0870
 6239SOL    HW130179   4.023   3.888   8.901  1.7525  2.5724  0.4559
 6239SOL    HW230180   4.142   3.824   8.945  0.9621 -0.3610 -0.5711
 6240SOL     OW30181   4.443   1.255  12.747 -0.2092 -0.1636 -0.1764
 6240SOL    HW130182   4.476   1.266  12.836  0.8818 -0.8995 -0.4853
 6240SOL    HW230183   4.448   1.348  12.727 -1.0729  0.3852  2.1595
 6241SOL     OW30184   1.749   3.033   3.748  0.3385 -0.3146  0.2006
 6241SOL    HW130185   1.815   2.980   3.703  0.8609  0.0974  0.4743
 6241SOL    HW230186   1.747   3.110   3.691 -0.3226 -0.8981 -0.5548
 6242SOL     OW30187   2.814   1.863  17.225 -0.4755 -0.0005 -0.2049
 6242SOL    HW130188   2.743   1.926  17.235  1.3760  2.0369  0.2203
 6242SOL    HW230189   2.871   1.911  17.165 -1.0320  2.8420  1.5400
 6243SOL     OW30190   2.664   0.909   8.143  0.3094 -0.4289 -0.0328
 6243SOL    HW130191   2.751   0.928   8.106  0.2574 -0.3773 -0.1279
 6243SOL    HW230192   2.681   0.930   8.235 -0.7129  0.7408 -0.1166
 6244SOL     OW30193   3.803   4.568   7.584 -0.0247 -0.1176  0.5141
 6244SOL    HW130194   3.717   4.563   7.626 -0.7058  0.1037 -0.8464
 6244SOL    HW230195   3.822   4.478   7.557 -1.7161 -0.6035  0.8942
 6245SOL     OW30196   4.540   4.300   3.073 -0.9044  0.4136  0.1896
 6245SOL    HW130197   4.586   4.264   3.149  0.8647 -0.3620 -1.2545
 6245SOL    HW230198   4.501   4.217   3.048  2.3379 -1.2213  0.5657
 6246SOL     OW30199   1.409   4.517   8.617 -0.2439 -0.0529 -0.5770
 6246SOL    HW130200   1.423   4.611   8.608 -1.3384  0.1351 -0.3057
 6246SOL    HW230201   1.500   4.485   8.615 -0.6067 -1.1225  0.2955
 6247SOL     OW30202   3.136   2.871   5.248 -0.4844  0.4159  0.0095
 6247SOL    HW130203   3.224   2.870   5.209 -0.2474 -0.2267  0.5646
 6247SOL    HW230204   3.132   2.966   5.263  0.9660  0.7901 -1.9728
 6248SOL     OW30205   2.661   2.355   3.802 -0.2323 -0.5176  0.2561
 6248SOL    HW130206   2.566   2.350   3.816 -0.0347 -1.5198  1.3356
 6248SOL    HW230207   2.677   2.444   3.772  1.4449 -1.1626 -0.7079
 6249SOL     OW30208   0.780   2.820   7.083  0.3776 -0.3083  0.1133
 6249SOL    HW130209   0.812   2.732   7.105 -4.4396 -1.8887  0.7847
 6249SOL    HW230210   0.845   2.873   7.128 -0.4709  0.3898  0.5070
 6250SOL     OW30211   3.880   4.222   6.852  0.2711  0.0764  0.4443
 6250SOL    HW130212   3.974   4.238   6.859  1.0365 -3.8330 -0.7814
 6250SOL    HW230213   3.848   4.312   6.849  1.3665  0.4496 -0.1534
 6251SOL     OW30214   1.543   3.343  13.953 -0.1251 -0.2940  0.2920
 6251SOL    HW130215   1.610   3.376  13.894 -0.0041 -0.6742  0.2172
 6251SOL    HW230216   1.582   3.348  14.040  0.1141 -1.5798  0.2504
 6252SOL     OW30217   2.600   0.864   8.789 -0.2329 -0.4485  0.1870
 6252SOL    HW130218   2.560   0.949   8.773 -0.5810 -0.7496 -0.5303
 6252SOL    HW230219   2.540   0.797   8.757 -0.6249  0.6188 -1.3115
 6253SOL     OW30220   0.335   4.309  10.869  0.5501  0.3250  1.0001
 6253SOL    HW130221   0.393   4.291  10.795  0.9101  0.3932  1.2627
 6253SOL    HW230222   0.254   4.290  10.823  0.8082  0.0340  0.6719
 6254SOL     OW30223   3.417   2.370  10.762  0.4547 -0.7909  0.2305
 6254SOL    HW130224   3.509   2.377  10.787 -0.0830 -1.1694  2.2889
 6254SOL    HW230225   3.417   2.283  10.723 -0.0280  0.5664 -2.8132
 6255SOL     OW30226   0.485   1.577   7.773  0.2388 -0.1876 -0.5555
 6255SOL    HW130227   0.481   1.640   7.845 -1.0591  0.1835 -0.9526
 6255SOL    HW230228   0.515   1.500   7.821  1.0827 -0.0215 -0.8151
 6256SOL     OW30229   2.954   1.420   6.321 -0.0074  0.2623 -0.1362
 6256SOL    HW130230   2.907   1.495   6.357 -1.7550 -0.9443  0.0834
 6256SOL    HW230231   3.043   1.455   6.310  0.1676 -0.4442 -1.0063
 6257SOL     OW30232   1.692   2.152   6.956  0.1495 -0.1447 -0.3074
 6257SOL    HW130233   1.749   2.167   6.880  0.8327 -2.1042 -0.1770
 6257SOL    HW230234   1.733   2.208   7.022  0.6584 -1.8344  0.7920
 6258SOL     OW30235   0.705   1.414  15.431  0.1699  0.4219  0.2536
 6258SOL    HW130236   0.675   1.357  15.361  0.9461 -0.1397  0.3913
 6258SOL    HW230237   0.626   1.463  15.456 -0.6847 -0.7229 -0.1654
 6259SOL     OW30238   1.125   2.851   5.109  0.1280  0.1821 -0.1615
 6259SOL    HW130239   1.165   2.868   5.194  0.3390  0.5414 -0.3295
 6259SOL    HW230240   1.035   2.879   5.125 -1.2848 -3.6833 -1.4474
 6260SOL     OW30241   0.850   0.342   1.599  0.4384  0.3842 -0.4343
 6260SOL    HW130242   0.845   0.382   1.686 -1.2529 -1.5869  0.3808
 6260SOL    HW230243   0.915   0.395   1.554  2.5863 -2.5983 -0.8114
 6261SOL     OW30244   1.714   1.534   5.737  0.2376  0.4418 -0.2561
 6261SOL    HW130245   1.790   1.575   5.779  0.8399 -2.7032  1.7471
 6261SOL    HW230246   1.654   1.607   5.726 -0.7695 -0.9619 -4.0724
 6262SOL     OW30247   2.711   0.405   3.380 -0.2866 -0.7839  0.3406
 6262SOL    HW130248   2.617   0.405   3.361 -0.2585  1.9628  0.1722
 6262SOL    HW230249   2.739   0.323   3.340  1.5097 -0.0438  0.0616
 6263SOL     OW30250   1.550   4.175  10.834 -0.1841  0.3167 -0.0150
 6263SOL    HW130251   1.521   4.244  10.773  1.3918  0.7894 -0.2369
 6263SOL    HW230252   1.511   4.219  10.910  1.1656 -0.9895  1.4307
 6264SOL     OW30253   3.665   3.937   5.489 -0.0635  0.2709  0.3033
 6264SOL    HW130254   3.760   3.942   5.503  0.0194 -1.7844  0.4113
 6264SOL    HW230255   3.636   3.850   5.516  0.6547  0.1479  0.6958
 6265SOL     OW30256   3.935   4.261  10.736  0.1259  0.3828  0.4240
 6265SOL    HW130257   3.857   4.301  10.773  0.5280  1.7460 -0.2009
 6265SOL    HW230258   4.006   4.293  10.792  1.3498 -2.9236  0.7586
 6266SOL     OW30259   0.781   2.315   2.975  0.0438 -0.0551  0.6917
 6266SOL    HW130260   0.764   2.393   3.028  0.2684  1.1944 -1.0961
 6266SOL    HW230261   0.707   2.257   2.999 -2.2629  1.6884 -2.2751
 6267SOL     OW30262   2.397   1.348  17.090  0.0053  0.0177  0.2328
 6267SOL    HW130263   2.425   1.409  17.158  0.9190 -0.4451  0.2708
 6267SOL    HW230264   2.302   1.355  17.103  0.1524  0.8626  0.8018
 6268SOL     OW30265   1.615   1.954   2.384 -0.2990  0.3782  0.2290
 6268SOL    HW130266   1.650   1.923   2.467 -0.6318  0.7021  0.4860
 6268SOL    HW230267   1.544   2.011   2.411  0.3125  1.2503 -0.0018
 6269SOL     OW30268   3.063   2.257   4.238 -0.0325 -0.3841  0.3236
 6269SOL    HW130269   3.079   2.350   4.254 -0.3277 -0.7223  2.4918
 6269SOL    HW230270   2.975   2.249   4.274 -0.2779 -0.6195 -0.3147
 6270SOL     OW30271   3.838   3.877   9.861  0.0302 -0.0812 -0.5194
 6270SOL    HW130272   3.775   3.818   9.904  0.9189 -0.0893  0.7878
 6270SOL    HW230273   3.899   3.886   9.934 -1.1777  0.1800  0.4657
 6271SOL     OW30274   4.544   1.743   6.766  0.7619 -0.0763  0.1734
 6271SOL    HW130275   4.626   1.764   6.810  0.8110 -1.1918  0.5948
 6271SOL    HW230276   4.505   1.831   6.760  0.3333 -0.2014  1.1294
 6272SOL     OW30277   2.527   1.497   9.652 -0.4312 -0.6278 -0.4086
 6272SOL    HW130278   2.464   1.549   9.602 -0.8322 -0.2051  0.5413
 6272SOL    HW230279   2.585   1.563   9.692 -1.5401  0.3132 -0.3664
 6273SOL     OW30280   2.570   1.757   1.518 -0.0748  0.5486  0.3924
 6273SOL    HW130281   2.593   1.710   1.598 -0.2500 -1.0759 -0.5178
 6273SOL    HW230282   2.525   1.833   1.554 -1.7591 -1.5341  2.7272
 6274SOL     OW30283   0.919   1.148   8.793  0.0356  0.6583 -0.1156
 6274SOL    HW130284   0.976   1.096   8.850  2.7458  2.2190 -1.4217
 6274SOL    HW230285   0.969   1.226   8.817 -0.2717  0.8112  0.0192
 6275SOL     OW30286   0.808   1.660   7.182  0.2965 -0.3275 -0.0549
 6275SOL    HW130287   0.842   1.723   7.119 -0.9135 -0.0068 -0.3781
 6275SOL    HW230288   0.850   1.685   7.264  0.3611 -1.1843  0.1786
 6276SOL     OW30289   4.310   2.725   8.991 -0.2984  0.3346  0.7192
 6276SOL    HW130290   4.381   2.788   9.008  0.5534  0.2303 -2.4897
 6276SOL    HW230291   4.300   2.741   8.897  0.6301  3.4907  1.1448
 6277SOL     OW30292   4.415   1.799  14.401  0.2838  0.6177  0.1252
 6277SOL    HW130293   4.415   1.873  14.340 -0.7326  0.2427 -0.3242
 6277SOL    HW230294   4.435   1.827  14.490 -0.9491  2.0675 -0.0448
 6278SOL     OW30295   4.657   3.191   8.236  0.1291  0.3753  0.4953
 6278SOL    HW130296   4.595   3.243   8.287 -0.5802  0.3626 -0.3569
 6278SOL    HW230297   4.636   3.217   8.147  2.6691 -0.2067 -0.2912
 6279SOL     OW30298   0.113   2.556  10.915 -0.1466  0.3518  0.4761
 6279SOL    HW130299   0.147   2.645  10.906 -1.9936  1.1516  1.4416
 6279SOL    HW230300   0.165   2.516  10.845 -0.1482  1.7414 -0.3153
 6280SOL     OW30301   3.314   0.506   7.071  0.0031 -0.1588  0.1661
 6280SOL    HW130302   3.330   0.587   7.022 -2.5066  0.3568  0.1831
 6280SOL    HW230303   3.388   0.498   7.131  2.5621 -0.8759 -3.0385
 6281SOL     OW30304   2.412   4.222   4.289  0.2005 -0.3995  0.3804
 6281SOL    HW130305   2.484   4.160   4.300 -0.1046 -1.1752 -1.8399
 6281SOL    HW230306   2.453   4.301   4.252 -0.1513 -0.4548 -0.1240
 6282SOL     OW30307   1.707   4.219   3.382  0.6686 -0.3572 -0.6072
 6282SOL    HW130308   1.727   4.260   3.467 -0.9628  3.0082 -1.8518
 6282SOL    HW230309   1.695   4.132   3.419  0.3253 -0.0330  0.0470
 6283SOL     OW30310   0.704   2.168  15.646  0.5465  0.0066 -0.1305
 6283SOL    HW130311   0.623   2.123  15.671  0.2119  0.2794 -0.7169
 6283SOL    HW230312   0.693   2.181  15.552 -0.2275 -1.4768 -0.2379
 6284SOL     OW30313   2.306   1.015   8.124  0.1740  0.1816  0.2277
 6284SOL    HW130314   2.347   1.032   8.208 -1.2060 -0.0145  0.9319
 6284SOL    HW230315   2.235   1.079   8.119 -0.9428 -1.1333 -0.7462
 6285SOL     OW30316   4.382   2.258  15.120  0.6070 -0.1989  0.2669
 6285SOL    HW130317   4.450   2.232  15.182  1.7733 -3.1847 -2.2183
 6285SOL    HW230318   4.300   2.243  15.166 -0.3620  0.3474 -1.2898
 6286SOL     OW30319   1.317   4.270   9.551 -0.4118 -0.0557  0.1344
 6286SOL    HW130320   1.254   4.253   9.481  3.0577 -0.1614 -2.9662
 6286SOL    HW230321   1.310   4.366   9.549  0.1077  0.0297  1.7495
 6287SOL     OW30322   2.342   4.334   8.022  0.5304  0.3136  0.2964
 6287SOL    HW130323   2.366   4.334   8.115 -0.6489  1.3454  0.5962
 6287SOL    HW230324   2.251   4.304   8.015  1.2296 -1.2817 -1.9628
 6288SOL     OW30325   4.134   4.326   2.081 -1.0211  0.3903  0.3976
 6288SOL    HW130326   4.218   4.285   2.058 -0.4381  2.2662 -0.8187
 6288SOL    HW230327   4.156   4.400   2.137 -0.5917  1.1086 -0.7219
 6289SOL     OW30328   4.197   0.322  16.373  0.3131  0.2216 -0.8741
 6289SOL    HW130329   4.248   0.298  16.295  2.1917 -0.0590  0.4558
 6289SOL    HW230330   4.189   0.242  16.426  0.2141 -0.3109 -1.6825
 6290SOL     OW30331   3.394   0.045   2.167 -0.4090 -0.3309  0.4101
 6290SOL    HW130332   3.379   0.075   2.257 -1.0233  0.3135  0.0983
 6290SOL    HW230333   3.449   4.693   2.177  0.3767  0.2707  0.6660
 6291SOL     OW30334   3.300   2.805   4.377  0.3465 -0.9993  0.4724
 6291SOL    HW130335   3.257   2.879   4.419 -1.8889 -2.5728  0.9830
 6291SOL    HW230336   3.298   2.839   4.287  1.8060  1.2801  1.3159
 6292SOL     OW30337   0.483   1.927   6.681  0.1620 -0.2212  0.2105
 6292SOL    HW130338   0.573   1.935   6.649 -0.1403 -2.7052 -1.2427
 6292SOL    HW230339   0.440   2.010   6.661  0.7945 -0.4454 -2.1597
 6293SOL     OW30340   1.891   0.099   2.800 -0.3182  0.4705  0.2004
 6293SOL    HW130341   1.941   0.021   2.774  1.6966  1.1563  2.0894
 6293SOL    HW230342   1.957   0.160   2.832 -0.2732 -0.0438  1.0832
 6294SOL     OW30343   0.921   0.867  12.304  0.3603 -0.1695  0.0403
 6294SOL    HW130344   0.900   0.926  12.231 -1.1583 -1.3343 -0.4792
 6294SOL    HW230345   0.939   0.782  12.264  2.1734  0.3861 -0.2992
 6295SOL     OW30346   1.296   4.327   3.938  0.1946  0.2682  1.1180
 6295SOL    HW130347   1.235   4.342   4.010  0.6817 -0.7243  1.7328
 6295SOL    HW230348   1.322   4.236   3.951  1.8830  0.2625 -2.1534
 6296SOL     OW30349   1.950   3.719   7.429  0.2589 -0.6863  0.5121
 6296SOL    HW130350   2.032   3.760   7.454  0.9316 -1.7372  0.0486
 6296SOL    HW230351   1.886   3.786   7.450  0.4684  0.0004 -1.0395
 6297SOL     OW30352   2.794   2.347   7.010  0.0515  0.0570 -0.4856
 6297SOL    HW130353   2.768   2.414   6.946 -0.6708  0.7723  0.5621
 6297SOL    HW230354   2.717   2.341   7.067 -0.0307 -1.1379 -0.7395
 6298SOL     OW30355   0.396   1.534   7.110 -0.0026  0.2577 -0.1690
 6298SOL    HW130356   0.447   1.578   7.042  1.2514 -0.5190  0.2740
 6298SOL    HW230357   0.447   1.558   7.187 -1.2248 -0.6894  0.9232
 6299SOL     OW30358   2.013   0.187  16.608  0.0892 -0.2433 -0.9844
 6299SOL    HW130359   2.050   0.139  16.533 -0.3703  1.8949 -2.5696
 6299SOL    HW230360   2.034   0.123  16.677  0.6227  1.3390  0.3103
 6300SOL     OW30361   0.005   2.379  11.991  0.9039 -0.5623 -0.3843
 6300SOL    HW130362   0.075   2.345  11.934 -1.0475  0.0725 -3.1236
 6300SOL    HW230363   0.014   2.468  11.957  0.8197 -0.0546  0.9280
 6301SOL     OW30364   2.508   0.458   0.870 -0.7789  0.1767  0.3406
 6301SOL    HW130365   2.493   0.365   0.888 -2.0960  0.4435  0.6288
 6301SOL    HW230366   2.603   0.460   0.883 -0.7032 -1.4495  0.0831
 6302SOL     OW30367   1.938   0.948   9.104 -0.1916 -0.1717 -0.1425
 6302SOL    HW130368   1.877   1.021   9.108  1.8976  1.6677 -2.2775
 6302SOL    HW230369   2.016   0.995   9.077  0.7701 -0.9579  1.2633
 6303SOL     OW30370   1.210   2.262   9.217 -0.0853 -0.0103  0.3537
 6303SOL    HW130371   1.244   2.344   9.182 -1.3500 -0.6795 -2.4226
 6303SOL    HW230372   1.122   2.284   9.249 -0.6995 -0.6535 -0.8870
 6304SOL     OW30373   3.422   3.435   1.172  0.1597 -0.3595 -0.3083
 6304SOL    HW130374   3.394   3.344   1.179  1.4094 -0.8372 -1.5505
 6304SOL    HW230375   3.483   3.444   1.099 -1.8315  1.3852 -1.7522
 6305SOL     OW30376   1.099   0.919   5.119  0.2248  0.3117  0.0378
 6305SOL    HW130377   1.099   1.013   5.100  2.2831 -0.0148 -1.6139
 6305SOL    HW230378   1.013   0.912   5.078 -0.0349 -2.6707  1.1417
 6306SOL     OW30379   0.261   0.215   6.298  0.5651 -0.4369 -0.4071
 6306SOL    HW130380   0.331   0.268   6.335 -0.9703  0.1981  1.6222
 6306SOL    HW230381   0.189   0.276   6.278  1.9901  0.4657 -2.7935
 6307SOL     OW30382   2.534   2.125   1.991  0.3178 -0.2473 -0.1268
 6307SOL    HW130383   2.512   2.057   2.055  0.7990  0.0786  0.3903
 6307SOL    HW230384   2.575   2.194   2.043 -0.3894  0.1004 -0.0410
 6308SOL     OW30385   3.427   1.583   3.123  0.5792  0.2610 -0.0062
 6308SOL    HW130386   3.492   1.540   3.179  0.3663  0.3747  0.3280
 6308SOL    HW230387   3.374   1.514   3.083  0.0593  1.4410 -1.3293
 6309SOL     OW30388   0.216   2.331   7.184  0.4379  0.0438 -0.0538
 6309SOL    HW130389   0.216   2.410   7.129 -1.2336 -0.0768 -0.2412
 6309SOL    HW230390   0.122   2.314   7.175  0.5829 -0.8896  0.1895
 6310SOL     OW30391   0.522   4.689   9.743 -0.4979  0.1273 -0.0933
 6310SOL    HW130392   0.472   4.623   9.791  0.8516 -1.6500 -1.1377
 6310SOL    HW230393   0.516   0.042   9.797 -0.3626  1.3574 -1.8691
 6311SOL     OW30394   2.669   3.354   0.564 -0.3093 -0.2823 -0.1164
 6311SOL    HW130395   2.674   3.390   0.475  2.2788  1.0551  0.5484
 6311SOL    HW230396   2.742   3.292   0.567 -0.5286 -0.4721  1.1884
 6312SOL     OW30397   1.947   0.494   2.092 -0.4047  0.3319 -0.2347
 6312SOL    HW130398   2.020   0.547   2.123  0.5562  0.3484 -2.5252
 6312SOL    HW230399   1.938   0.426   2.160 -1.8626 -1.6262 -2.3855
 6313SOL     OW30400   1.264   3.074  10.947 -0.2647 -0.0512 -0.7854
 6313SOL    HW130401   1.342   3.035  10.908  0.0406 -1.5015  1.2660
 6313SOL    HW230402   1.270   3.160  10.905 -0.6199  1.2521  1.8922
 6314SOL     OW30403   1.421   0.978   5.931  0.6975 -0.4187  0.1884
 6314SOL    HW130404   1.391   0.943   6.015 -1.2486 -1.3075 -0.8978
 6314SOL    HW230405   1.353   1.024   5.883  0.9652 -1.0109 -0.7733
 6315SOL     OW30406   0.010   4.454  14.609 -0.0719 -0.0674 -0.1572
 6315SOL    HW130407   0.033   4.397  14.682 -2.0000  0.7279  1.0835
 6315SOL    HW230408   4.672   4.400  14.562  0.5794 -0.9485 -0.0121
 6316SOL     OW30409   0.357   0.390   2.203  0.3496  0.2535 -0.2071
 6316SOL    HW130410   0.357   0.482   2.178  1.4245 -0.1588 -1.7530
 6316SOL    HW230411   0.451   0.376   2.209  0.5548  1.1100 -1.3579
 6317SOL     OW30412   4.651   0.924   5.122 -0.3269 -0.6205 -0.6564
 6317SOL    HW130413   4.720   0.972   5.077  1.5490 -1.7049  1.0272
 6317SOL    HW230414   4.686   0.836   5.140 -2.1016 -0.9507  1.1497
 6318SOL     OW30415   2.530   2.567   4.471  0.7471  0.2835  0.4072
 6318SOL    HW130416   2.573   2.495   4.424 -0.0663 -0.0159  0.1267
 6318SOL    HW230417   2.507   2.529   4.555  1.4509 -1.8154 -0.3522
 6319SOL     OW30418   4.227   4.614  15.828  0.6507 -0.1485  0.2889
 6319SOL    HW130419   4.314   4.651  15.812  1.1444 -1.3954  0.0682
 6319SOL    HW230420   4.171   4.658  15.764 -0.0290  0.5428  1.3650
 6320SOL     OW30421   1.122   0.126   9.573 -0.4088  0.2816  0.7799
 6320SOL    HW130422   1.110   0.084   9.488  0.4460  0.6779  0.4633
 6320SOL    HW230423   1.110   0.054   9.636 -0.5320  0.3826  0.8736
 6321SOL     OW30424   2.380   2.552   7.885 -0.3043  0.6539  0.4758
 6321SOL    HW130425   2.286   2.562   7.898 -0.6052 -0.8657 -0.4983
 6321SOL    HW230426   2.419   2.541   7.972  2.9754  0.9849 -0.9477
 6322SOL     OW30427   3.991   2.965   7.567  0.8737 -0.6547 -0.4756
 6322SOL    HW130428   3.933   2.996   7.636  0.9254 -1.9711  0.1623
 6322SOL    HW230429   4.076   3.001   7.593  0.5790 -0.5997  0.4133
 6323SOL     OW30430   4.239   4.700   2.620  0.5002  0.1776 -0.4944
 6323SOL    HW130431   4.228   0.070   2.614 -1.8011 -0.2349 -2.9716
 6323SOL    HW230432   4.307   4.686   2.555 -0.5069  3.3753 -2.2343
 6324SOL     OW30433   0.329   3.070  14.985  0.2426  0.1462 -0.6125
 6324SOL    HW130434   0.236   3.052  14.967  0.4789 -1.5036 -0.1923
 6324SOL    HW230435   0.323   3.157  15.026 -2.4372 -0.9313  1.2652
 6325SOL     OW30436   3.322   1.740   8.937 -0.4340 -0.1843 -0.0337
 6325SOL    HW130437   3.343   1.712   8.848  1.4082 -1.6374  0.8709
 6325SOL    HW230438   3.409   1.768   8.965 -0.9766  2.2039 -0.7019
 6326SOL     OW30439   0.840   0.560   4.066 -0.2068  0.4047 -0.3916
 6326SOL    HW130440   0.924   0.520   4.043 -0.5420  0.0520 -1.0170
 6326SOL    HW230441   0.791   0.480   4.086 -0.0045 -0.0128 -1.5407
 6327SOL     OW30442   3.090   2.846  17.473 -0.0368 -0.0176  0.4686
 6327SOL    HW130443   3.163   2.896  17.436  0.5382  0.1458  1.7833
 6327SOL    HW230444   3.063   2.791  17.400  0.4269  0.0414  0.2552
 6328SOL     OW30445   4.276   2.274   0.926 -0.1122 -0.1161  0.2646
 6328SOL    HW130446   4.311   2.355   0.965  2.1857 -2.2842  2.6750
 6328SOL    HW230447   4.317   2.209   0.983 -0.4867 -2.0679 -1.7286
 6329SOL     OW30448   4.435   1.951  13.375  0.2581  0.6285  0.3927
 6329SOL    HW130449   4.446   2.006  13.297 -1.9087 -0.0108 -0.3616
 6329SOL    HW230450   4.357   1.994  13.412  0.3309  0.7225  0.4384
 6330SOL     OW30451   2.562   3.156   2.716  0.2073  0.0768 -0.1441
 6330SOL    HW130452   2.552   3.084   2.655  0.0417  0.3019 -0.3808
 6330SOL    HW230453   2.500   3.220   2.681 -0.1435 -1.4361 -2.2900
 6331SOL     OW30454   2.219   3.199  12.564  0.0559 -0.2055  0.0843
 6331SOL    HW130455   2.225   3.111  12.601 -1.1836  0.4443  1.8317
 6331SOL    HW230456   2.203   3.257  12.638  1.9608  1.4265 -0.8005
 6332SOL     OW30457   1.818   0.008   2.104 -0.4840  0.1459 -0.0456
 6332SOL    HW130458   1.747   0.046   2.052 -0.1789  1.9216  0.8451
 6332SOL    HW230459   1.775   4.657   2.143 -1.0305  1.5545  2.0725
 6333SOL     OW30460   3.168   1.853   9.445  0.5476  0.0301  0.2413
 6333SOL    HW130461   3.179   1.775   9.499  1.8745  1.5434  2.1854
 6333SOL    HW230462   3.251   1.901   9.454  0.7074 -0.2757  0.3827
 6334SOL     OW30463   0.928   4.181   6.048 -0.0862 -0.1555  0.3850
 6334SOL    HW130464   0.928   4.160   5.954  0.5315 -1.2550  0.6383
 6334SOL    HW230465   0.894   4.269   6.029  1.1223  0.3124  0.3556
 6335SOL     OW30466   2.969   1.012   7.620 -0.0013 -0.4750 -0.7516
 6335SOL    HW130467   2.892   1.047   7.665 -0.6319 -2.0632 -0.5944
 6335SOL    HW230468   3.032   0.998   7.690  0.5435  1.8809 -0.7675
 6336SOL     OW30469   3.289   3.307   5.918 -0.1773  0.2946  0.3911
 6336SOL    HW130470   3.246   3.368   5.977  0.4927  0.8125  0.3371
 6336SOL    HW230471   3.305   3.231   5.974  0.2790  0.9511  1.1341
 6337SOL     OW30472   0.438   3.180   2.654 -0.4029 -0.6459 -0.5048
 6337SOL    HW130473   0.370   3.241   2.680 -0.8627 -0.5477 -1.9139
 6337SOL    HW230474   0.481   3.172   2.739 -0.0147  2.9933 -0.3409
 6338SOL     OW30475   0.261   1.024   4.229 -0.6926  0.2633 -0.4355
 6338SOL    HW130476   0.257   1.119   4.216 -0.2796  0.4873  1.0648
 6338SOL    HW230477   0.222   0.998   4.145  1.1295 -0.4787 -1.0528
 6339SOL     OW30478   4.593   3.963   7.726 -0.2431  0.1846  0.0197
 6339SOL    HW130479   4.647   3.917   7.663  0.2225  0.8699 -0.0789
 6339SOL    HW230480   4.599   4.053   7.694 -1.6396 -0.2855 -1.5209
 6340SOL     OW30481   3.412   2.873   3.041  0.1160 -0.3063 -0.4173
 6340SOL    HW130482   3.362   2.888   2.960  1.4001 -1.9624 -1.5234
 6340SOL    HW230483   3.365   2.943   3.086 -0.5718 -2.0093  1.5022
 6341SOL     OW30484   2.436   3.680   6.758 -0.9612  0.1643 -0.0148
 6341SOL    HW130485   2.419   3.633   6.840  2.1409 -0.6625  0.1371
 6341SOL    HW230486   2.377   3.754   6.770 -2.3454 -1.0777  0.9774
 6342SOL     OW30487   0.431   4.153   4.760  0.9250 -0.2288 -0.0984
 6342SOL    HW130488   0.387   4.082   4.805  0.1909  0.2791 -0.0153
 6342SOL    HW230489   0.389   4.159   4.674 -0.2533 -1.5238  0.3970
 6343SOL     OW30490   2.467   2.845  11.021 -0.0234  0.3132  0.8340
 6343SOL    HW130491   2.453   2.920  11.078  0.1541  2.0048 -1.3799
 6343SOL    HW230492   2.433   2.867  10.934  0.1006 -1.2019  0.3949
 6344SOL     OW30493   1.425   0.598   9.577 -0.3450  0.3941  0.0314
 6344SOL    HW130494   1.438   0.566   9.667 -0.9013 -1.7262 -0.6450
 6344SOL    HW230495   1.454   0.689   9.589  0.3489  0.1597  0.1705
 6345SOL     OW30496   1.863   2.258  13.344  0.0715 -0.1077  0.3334
 6345SOL    HW130497   1.793   2.263  13.279  1.4770 -2.1500 -1.3357
 6345SOL    HW230498   1.910   2.337  13.318 -0.1031 -0.9171 -2.4005
 6346SOL     OW30499   4.178   1.768  14.212 -0.5570 -0.0113 -0.2174
 6346SOL    HW130500   4.238   1.710  14.164 -0.3448  1.5727 -1.8538
 6346SOL    HW230501   4.221   1.775  14.297  1.7935 -0.2220 -1.3751
 6347SOL     OW30502   1.175   4.569   2.780 -0.7946 -0.2815 -0.3636
 6347SOL    HW130503   1.199   4.662   2.783 -1.1658 -0.2734  3.1600
 6347SOL    HW230504   1.200   4.538   2.693 -0.4283  0.2556 -0.4503
 6348SOL     OW30505   2.335   1.319   6.356  0.1863  0.1796 -0.2949
 6348SOL    HW130506   2.288   1.382   6.301 -0.2512 -1.4343 -1.8000
 6348SOL    HW230507   2.296   1.237   6.324  0.5013 -0.1499  0.1732
 6349SOL     OW30508   3.791   3.589  17.702  0.4036  0.0179  0.1816
 6349SOL    HW130509   3.769   3.580  17.609  4.2273 -1.6216 -0.5533
 6349SOL    HW230510   3.712   3.557   0.043  0.1832  1.2170  0.6943
 6350SOL     OW30511   4.220   0.213   8.388  0.0734 -0.2823 -0.0755
 6350SOL    HW130512   4.214   0.120   8.409 -1.9867 -0.1385 -0.0078
 6350SOL    HW230513   4.165   0.248   8.459 -0.3341 -0.9311 -0.0717
 6351SOL     OW30514   0.124   1.328   6.828  0.1982  0.2380 -0.9103
 6351SOL    HW130515   0.036   1.364   6.811 -0.2579 -0.9762 -1.1092
 6351SOL    HW230516   0.179   1.401   6.800  1.9492 -0.0163  1.8921
 6352SOL     OW30517   4.676   0.534   2.956  0.2521 -0.1990 -0.4332
 6352SOL    HW130518   4.715   0.554   3.041 -2.5190 -0.6548  0.9251
 6352SOL    HW230519   4.674   0.626   2.929  3.2470 -0.2460 -0.8790
 6353SOL     OW30520   0.494   1.042   3.986 -0.5958  0.3535  0.7324
 6353SOL    HW130521   0.412   1.007   3.953 -0.6244  1.0722  0.0408
 6353SOL    HW230522   0.461   1.114   4.041 -0.3622  1.5600 -0.7139
 6354SOL     OW30523   3.596   3.160   5.516  0.1298  0.2857 -0.4617
 6354SOL    HW130524   3.545   3.230   5.557 -1.5700  0.3087 -2.6342
 6354SOL    HW230525   3.625   3.208   5.439  0.6213 -1.2717 -1.2412
 6355SOL     OW30526   0.771   0.238  13.479  0.4598 -0.7524 -0.3037
 6355SOL    HW130527   0.756   0.283  13.562 -3.0995  0.3372 -1.5025
 6355SOL    HW230528   0.681   0.246  13.445  0.3454 -0.4442  0.0728
 6356SOL     OW30529   2.178   4.044   6.117 -0.1711 -0.7256  0.1497
 6356SOL    HW130530   2.271   4.057   6.100 -0.6976 -1.5454 -3.2532
 6356SOL    HW230531   2.138   4.058   6.032 -1.0289 -3.5031  0.1008
 6357SOL     OW30532   1.866   4.554   2.840 -0.2436 -0.3975 -0.2268
 6357SOL    HW130533   1.781   4.585   2.870  0.3582  2.9403 -1.9565
 6357SOL    HW230534   1.847   4.462   2.860 -2.1396 -0.0350 -0.3980
 6358SOL     OW30535   1.124   1.662   3.056  0.2574  0.7494 -0.2111
 6358SOL    HW130536   1.180   1.589   3.081  1.1383  1.3702 -0.3850
 6358SOL    HW230537   1.155   1.684   2.968 -0.0784 -1.7352 -0.9444
 6359SOL     OW30538   2.053   1.845  13.925 -0.1906 -0.2506 -0.4743
 6359SOL    HW130539   2.050   1.862  13.830 -0.0918  1.8239 -0.1167
 6359SOL    HW230540   2.022   1.755  13.919 -0.3386 -0.2003 -0.4639
 6360SOL     OW30541   4.444   0.017   8.048 -0.1008  0.4169  0.0322
 6360SOL    HW130542   4.489   0.101   8.062  0.8876  0.1916 -1.7674
 6360SOL    HW230543   4.361   0.051   8.014 -0.8729  0.0107  1.5339
 6361SOL     OW30544   2.314   3.533  15.225  0.5567 -0.1562 -0.4701
 6361SOL    HW130545   2.339   3.496  15.310 -1.8279  0.7298  0.6237
 6361SOL    HW230546   2.328   3.456  15.170  0.7536 -0.4092 -0.0698
 6362SOL     OW30547   4.000   3.987   8.384  0.3031  0.3550  0.4161
 6362SOL    HW130548   3.943   3.921   8.424 -0.4647  2.2241  2.4348
 6362SOL    HW230549   4.090   3.956   8.387 -0.2750 -1.4336 -0.9784
 6363SOL     OW30550   3.236   3.786  16.009  0.3450  0.7659  0.2050
 6363SOL    HW130551   3.309   3.843  16.035  2.3750 -0.0710 -3.6194
 6363SOL    HW230552   3.187   3.786  16.091  1.3371 -1.8587  0.7899
 6364SOL     OW30553   3.724   3.381   3.058  0.0677  0.1337  0.5357
 6364SOL    HW130554   3.699   3.423   2.975  1.3783 -1.1353 -0.5162
 6364SOL    HW230555   3.815   3.358   3.036 -0.1984 -0.0858 -0.3646
 6365SOL     OW30556   0.770   1.245   8.245 -0.2318  0.7653  0.3751
 6365SOL    HW130557   0.777   1.207   8.333 -0.2928  0.3951  0.2222
 6365SOL    HW230558   0.791   1.167   8.192  0.5192  0.7220  0.7354
 6366SOL     OW30559   1.793   1.133   6.969 -0.0243  0.4784 -0.1772
 6366SOL    HW130560   1.815   1.225   6.979 -1.0684  0.7042  0.0139
 6366SOL    HW230561   1.747   1.129   6.885  0.4119  0.9157 -0.4353
 6367SOL     OW30562   4.142   2.135  15.957  0.1962  0.7883  0.6048
 6367SOL    HW130563   4.049   2.117  15.939 -0.1747  1.3144  1.9934
 6367SOL    HW230564   4.138   2.121  16.051  0.3494  2.1478  0.8130
 6368SOL     OW30565   2.384   2.792   7.442 -0.2762  0.3925  0.0218
 6368SOL    HW130566   2.296   2.783   7.478 -0.4107 -1.9296 -0.8819
 6368SOL    HW230567   2.436   2.779   7.522  0.5099  0.0043 -0.5492
 6369SOL     OW30568   0.090   0.574  11.944 -0.0775  0.3028  0.2997
 6369SOL    HW130569   0.095   0.589  12.038  0.8695  0.1144  0.2837
 6369SOL    HW230570   0.014   0.518  11.953  0.3720 -0.6657 -1.9446
 6370SOL     OW30571   2.367   0.654  10.231  0.7723  0.0125  0.0582
 6370SOL    HW130572   2.436   0.593  10.259 -1.9720 -3.8870 -1.6245
 6370SOL    HW230573   2.420   0.731  10.211  1.6158 -0.0693  1.9291
 6371SOL     OW30574   3.759   0.634   9.986  0.0616 -0.1106  0.1855
 6371SOL    HW130575   3.813   0.695  10.037  1.1034  0.9430 -2.1483
 6371SOL    HW230576   3.674   0.677   9.977  0.4060  0.8166  1.2389
 6372SOL     OW30577   1.192   4.097   9.087 -0.2903 -0.4764  0.0812
 6372SOL    HW130578   1.187   4.110   8.993 -1.1696 -1.7683 -0.0611
 6372SOL    HW230579   1.287   4.100   9.100 -0.3955  0.1941  0.6769
 6373SOL     OW30580   2.861   1.495   2.569  0.0062  0.2270 -0.1594
 6373SOL    HW130581   2.875   1.589   2.558 -1.0964  0.5501  1.2498
 6373SOL    HW230582   2.847   1.490   2.664  0.1490 -0.6419 -0.1923
 6374SOL     OW30583   3.669   1.310   9.971  0.2115 -0.0474  0.2412
 6374SOL    HW130584   3.607   1.303   9.899 -0.7344 -1.6214  1.2097
 6374SOL    HW230585   3.674   1.405   9.975  0.8229  0.0058 -1.8431
 6375SOL     OW30586   4.272   0.174   6.774  0.0047 -0.1958 -0.5439
 6375SOL    HW130587   4.257   0.119   6.851 -3.0720  0.3802 -0.7537
 6375SOL    HW230588   4.236   0.121   6.704  1.7683  0.2284 -1.7633
 6376SOL     OW30589   0.478   3.864   6.188 -0.2559  0.2551 -0.0402
 6376SOL    HW130590   0.448   3.864   6.279 -0.4490 -1.4035 -0.1029
 6376SOL    HW230591   0.517   3.777   6.192  0.2634  0.6868  4.0611
 6377SOL     OW30592   1.638   0.408  14.600 -0.0294  0.2752 -0.5149
 6377SOL    HW130593   1.568   0.342  14.602  0.8233 -0.5427  1.8430
 6377SOL    HW230594   1.694   0.370  14.532  0.2635 -0.1768 -0.0240
 6378SOL     OW30595   1.476   4.392   7.858  0.1651  0.4286 -1.0073
 6378SOL    HW130596   1.505   4.433   7.940  1.5030 -2.1630 -0.1649
 6378SOL    HW230597   1.511   4.456   7.796 -0.5743  1.2577 -0.5711
 6379SOL     OW30598   3.589   2.802  17.174 -0.2928 -0.1408 -0.4114
 6379SOL    HW130599   3.678   2.837  17.169  0.1839 -1.1554  1.0103
 6379SOL    HW230600   3.528   2.875  17.189  0.7495  0.5685  0.3851
 6380SOL     OW30601   4.273   0.081  12.995  0.1560  0.0254  0.5040
 6380SOL    HW130602   4.219   0.003  13.005  1.4855 -1.1959 -1.6536
 6380SOL    HW230603   4.265   0.089  12.900  0.8803  2.6349  0.6557
 6381SOL     OW30604   3.896   2.199   5.648 -0.0934 -0.1899 -0.3018
 6381SOL    HW130605   3.945   2.169   5.572 -1.0130 -2.2425 -0.0937
 6381SOL    HW230606   3.824   2.136   5.653 -0.2870 -0.3000 -4.3184
 6382SOL     OW30607   0.717   3.710   7.527 -0.3330 -0.4237 -0.0741
 6382SOL    HW130608   0.765   3.787   7.558  1.6508 -1.3205 -0.8999
 6382SOL    HW230609   0.633   3.753   7.512 -0.0912  0.6718  1.6607
 6383SOL     OW30610   0.558   1.969   2.003 -0.3162  0.5621 -0.0502
 6383SOL    HW130611   0.635   1.996   2.053 -1.4984 -0.0781  2.0814
 6383SOL    HW230612   0.597   1.986   1.917 -3.0049  1.9482 -0.9944
 6384SOL     OW30613   3.197   2.259   3.203 -0.2951  0.0172 -0.2697
 6384SOL    HW130614   3.255   2.290   3.273  1.6544  0.8611 -2.2889
 6384SOL    HW230615   3.145   2.337   3.184 -0.9083 -0.8262 -2.0528
 6385SOL     OW30616   1.663   3.093   8.551 -0.1436  0.0009  0.0522
 6385SOL    HW130617   1.678   3.012   8.600 -0.5834  0.0446  0.2540
 6385SOL    HW230618   1.579   3.076   8.508 -0.3186 -2.0418  1.2206
 6386SOL     OW30619   2.056   1.120   8.198 -0.0719  0.2145 -0.0687
 6386SOL    HW130620   1.984   1.163   8.244 -0.3505  0.4959 -0.7777
 6386SOL    HW230621   2.011   1.042   8.165 -1.5893  0.6886  0.8671
 6387SOL     OW30622   3.493   1.536   6.301  0.3097  0.5634  0.0662
 6387SOL    HW130623   3.560   1.544   6.368 -1.0098  0.6806  1.3885
 6387SOL    HW230624   3.547   1.544   6.223 -0.3896 -0.5299 -0.5284
 6388SOL     OW30625   3.740   2.428   2.481 -0.6972  0.0660  0.0730
 6388SOL    HW130626   3.656   2.385   2.464  0.1594 -1.3626 -0.5165
 6388SOL    HW230627   3.732   2.516   2.445  0.9660  0.7798  1.4844
 6389SOL     OW30628   2.512   2.466  12.435 -0.1015  0.0913  0.3106
 6389SOL    HW130629   2.582   2.498  12.379 -1.8722  0.5119 -1.6247
 6389SOL    HW230630   2.478   2.553  12.452 -1.3310 -0.5221  0.9745
 6390SOL     OW30631   3.424   0.075  13.132 -0.8931  0.0072  0.1938
 6390SOL    HW130632   3.390   0.156  13.095  1.0898  0.1223 -1.3508
 6390SOL    HW230633   3.392   0.009  13.070  0.3619 -0.2709 -0.1645
 6391SOL     OW30634   2.371   2.305   2.534 -0.2781 -0.7234  0.2662
 6391SOL    HW130635   2.361   2.363   2.610 -0.5721 -2.7494  1.7854
 6391SOL    HW230636   2.455   2.338   2.500 -1.7500  0.2525 -2.3844
 6392SOL     OW30637   1.118   4.619   8.929 -0.4352  0.0069  0.5228
 6392SOL    HW130638   1.197   4.654   8.968 -0.4203 -1.9549  2.1834
 6392SOL    HW230639   1.137   4.641   8.837  0.9505 -1.7455  0.4076
 6393SOL     OW30640   2.546   3.813   0.978 -0.0597  0.1684  0.1425
 6393SOL    HW130641   2.521   3.743   0.918  1.1780  0.3509 -0.5927
 6393SOL    HW230642   2.621   3.780   1.028  0.7174 -0.8904 -1.7329
 6394SOL     OW30643   3.396   2.547   2.689  0.4115 -0.1058 -0.2811
 6394SOL    HW130644   3.316   2.588   2.657 -1.1628 -2.1244  1.1342
 6394SOL    HW230645   3.371   2.464   2.729  0.4822 -0.7777 -1.6258
 6395SOL     OW30646   4.122   0.627  16.881 -0.6629  0.3360 -0.2492
 6395SOL    HW130647   4.070   0.552  16.910  0.5106 -0.1186  0.6827
 6395SOL    HW230648   4.145   0.592  16.795 -0.1021  0.7740 -0.2751
 6396SOL     OW30649   0.898   2.333  15.097  0.0229  0.2992 -0.3958
 6396SOL    HW130650   0.932   2.268  15.036  1.8285 -1.8214  2.8882
 6396SOL    HW230651   0.842   2.385  15.039 -2.1710  0.1652  1.5816
 6397SOL     OW30652   2.602   2.804  10.242 -0.6608  0.6113 -0.1477
 6397SOL    HW130653   2.658   2.791  10.165  0.0944 -1.3717  0.7390
 6397SOL    HW230654   2.518   2.776  10.206  0.7413 -2.4111 -1.0466
 6398SOL     OW30655   1.527   2.231  17.379  0.4819 -0.1305 -0.3268
 6398SOL    HW130656   1.488   2.315  17.353 -1.7106 -0.8887  0.5669
 6398SOL    HW230657   1.485   2.171  17.318 -0.6250  2.5831 -2.2783
 6399SOL     OW30658   2.715   0.224   5.855 -0.1802  0.0710 -0.0249
 6399SOL    HW130659   2.709   0.129   5.866  0.1229  0.1120  0.5083
 6399SOL    HW230660   2.697   0.262   5.941 -0.1864 -0.3757  0.1718
 6400SOL     OW30661   1.043   1.901   6.165 -0.1132  0.1811 -0.1833
 6400SOL    HW130662   1.101   1.937   6.232  0.7104 -1.5608  0.0571
 6400SOL    HW230663   0.956   1.917   6.200  0.7070  0.2362  1.8043
 6401SOL     OW30664   2.307   3.163   8.682 -0.2438  0.1260  0.0074
 6401SOL    HW130665   2.241   3.177   8.750 -0.0208  1.4139 -0.0553
 6401SOL    HW230666   2.385   3.195   8.727  0.2730 -0.7739 -0.2451
 6402SOL     OW30667   4.634   0.013   1.531 -0.1912 -0.6271 -0.2615
 6402SOL    HW130668   4.684   4.659   1.510  1.9260  0.8768 -0.8882
 6402SOL    HW230669   4.582   4.688   1.595 -1.0306  0.4704 -0.0924
 6403SOL     OW30670   2.234   1.000   4.654 -0.4556  0.3161  0.0406
 6403SOL    HW130671   2.149   0.972   4.689 -0.7127 -0.1810 -0.9767
 6403SOL    HW230672   2.209   1.056   4.581  2.0260 -0.0015 -1.0323
 6404SOL     OW30673   4.122   4.546   7.350 -0.3542  0.8956  0.2203
 6404SOL    HW130674   4.164   4.601   7.284  1.5003 -0.5219  0.2467
 6404SOL    HW230675   4.049   4.512   7.297  0.3011  1.9518 -1.3608
 6405SOL     OW30676   3.446   2.538   5.242  0.2480 -0.0748 -0.6708
 6405SOL    HW130677   3.395   2.601   5.294  1.1583  0.3571 -0.3056
 6405SOL    HW230678   3.456   2.464   5.302 -3.4762  0.7600  1.0062
 6406SOL     OW30679   0.329   1.970   5.741 -0.1169 -0.4944  0.1310
 6406SOL    HW130680   0.336   1.887   5.788  1.2055  0.4571  1.6254
 6406SOL    HW230681   0.242   1.964   5.702 -0.6058  1.9255  0.8870
 6407SOL     OW30682   3.304   0.584  15.952  0.4042 -1.0222 -0.5672
 6407SOL    HW130683   3.388   0.611  15.989 -0.2755  2.4093 -1.4948
 6407SOL    HW230684   3.252   0.664  15.953 -1.5023 -2.2719 -0.4164
 6408SOL     OW30685   0.909   0.214   3.428 -0.0946  0.0844 -0.9548
 6408SOL    HW130686   0.959   0.191   3.506 -0.8193  1.3192 -0.1204
 6408SOL    HW230687   0.820   0.181   3.442  0.2103  0.4111  1.7705
 6409SOL     OW30688   2.470   1.855   7.382  0.5632 -0.4339  0.2444
 6409SOL    HW130689   2.540   1.897   7.431 -0.2087  0.8376  0.2587
 6409SOL    HW230690   2.460   1.777   7.436  0.1325 -0.2404  0.4475
 6410SOL     OW30691   0.537   3.679   6.842  0.7336  0.0725  0.1992
 6410SOL    HW130692   0.484   3.601   6.831 -1.3992  1.2469  2.1853
 6410SOL    HW230693   0.585   3.662   6.923  1.7288 -1.6199 -0.7509
 6411SOL     OW30694   0.872   0.905   2.604 -0.4036 -0.3843 -0.0835
 6411SOL    HW130695   0.807   0.885   2.671 -0.8562 -0.6837 -0.6226
 6411SOL    HW230696   0.889   0.822   2.561 -0.0695  0.2745 -1.2299
 6412SOL     OW30697   1.393   1.350   7.076  0.0654 -0.0093  0.4032
 6412SOL    HW130698   1.454   1.342   7.149  1.7658  1.6938 -0.8505
 6412SOL    HW230699   1.311   1.382   7.114 -1.5078 -2.4410 -0.9547
 6413SOL     OW30700   3.590   1.118  11.347 -0.1198  0.3091  0.5684
 6413SOL    HW130701   3.518   1.054  11.353  0.2668 -0.0476  1.4477
 6413SOL    HW230702   3.545   1.198  11.374  1.9179  1.0407  1.7646
 6414SOL     OW30703   4.599   0.491  14.426  0.3744 -0.0576 -0.0352
 6414SOL    HW130704   4.534   0.548  14.384 -0.1907 -1.1742 -0.6582
 6414SOL    HW230705   4.554   0.407  14.432  0.6854 -0.3442 -1.8664
 6415SOL     OW30706   1.620   0.696   8.427 -0.2366  0.5969 -0.0942
 6415SOL    HW130707   1.553   0.706   8.495 -2.0100 -0.4936 -1.6759
 6415SOL    HW230708   1.588   0.755   8.359  0.7897 -2.4219 -3.2131
 6416SOL     OW30709   1.549   1.550  11.345 -0.3691 -0.7108 -0.3156
 6416SOL    HW130710   1.584   1.470  11.306  0.5152 -0.8045  0.6560
 6416SOL    HW230711   1.457   1.550  11.318 -0.5765  1.4718  0.3307
 6417SOL     OW30712   0.206   2.152   7.730 -0.8406 -0.5746 -0.1560
 6417SOL    HW130713   0.227   2.155   7.637 -0.8569  0.1143 -0.1339
 6417SOL    HW230714   0.112   2.172   7.732 -0.8258 -0.5626  0.4969
 6418SOL     OW30715   0.180   2.042   7.161 -0.3213  0.0844  0.1361
 6418SOL    HW130716   0.259   2.005   7.122 -0.9233  0.2516 -1.2499
 6418SOL    HW230717   0.206   2.134   7.167 -0.5640  0.2792 -1.7224
 6419SOL     OW30718   0.475   0.279   8.815 -0.2471 -0.2886  0.3464
 6419SOL    HW130719   0.465   0.265   8.909 -2.9134 -1.6281 -0.1386
 6419SOL    HW230720   0.383   0.292   8.790  0.9467  1.6552 -2.9359
 6420SOL     OW30721   4.404   1.669   5.647  0.3110  0.2323 -0.2790
 6420SOL    HW130722   4.309   1.664   5.643  0.4423 -0.3712 -2.7313
 6420SOL    HW230723   4.430   1.718   5.569 -0.1400 -0.4999 -0.8899
 6421SOL     OW30724   0.014   0.486   5.333  0.0449  0.2217 -0.2264
 6421SOL    HW130725   4.695   0.424   5.391 -0.4848  2.4113  1.7551
 6421SOL    HW230726   0.068   0.428   5.281 -0.5592 -0.1728 -0.4144
 6422SOL     OW30727   0.586   3.436   7.377  0.0707 -0.0843 -0.5458
 6422SOL    HW130728   0.505   3.392   7.404  0.9099 -0.6642  1.0076
 6422SOL    HW230729   0.566   3.473   7.291 -0.3806  0.5315 -0.1718
 6423SOL     OW30730   3.625   2.118  14.345 -0.3860  0.3716 -0.4222
 6423SOL    HW130731   3.588   2.114  14.433 -2.6237 -3.6508 -1.5072
 6423SOL    HW230732   3.544   2.125  14.295 -0.9390  2.5494  0.8019
 6424SOL     OW30733   1.457   4.490   3.168  0.3376 -0.1759 -0.8352
 6424SOL    HW130734   1.379   4.497   3.113 -0.5678  3.1323  0.8813
 6424SOL    HW230735   1.449   4.398   3.197 -0.4771 -0.1755 -1.0626
 6425SOL     OW30736   3.591   0.114   9.960 -0.1392  0.7183 -0.4536
 6425SOL    HW130737   3.593   0.206   9.986  0.9235 -0.0831  2.3082
 6425SOL    HW230738   3.679   0.088   9.933 -0.6399 -0.8818 -0.5504
 6426SOL     OW30739   4.683   2.861  16.753 -0.2031  0.6702 -0.9705
 6426SOL    HW130740   0.010   2.898  16.682  0.7718 -0.5236 -0.8975
 6426SOL    HW230741   4.660   2.942  16.799  0.7894  0.7137 -0.5490
 6427SOL     OW30742   2.909   1.308   2.129 -0.0634 -0.4966  0.1218
 6427SOL    HW130743   2.904   1.397   2.094 -2.5525  0.1456  2.0734
 6427SOL    HW230744   2.848   1.325   2.201  0.8701  0.1635  0.7638
 6428SOL     OW30745   0.821   1.191  11.644  0.2446  0.3694  0.3474
 6428SOL    HW130746   0.774   1.167  11.724 -1.9370 -0.2843 -1.1366
 6428SOL    HW230747   0.909   1.190  11.681 -0.4160  0.9975  1.9427
 6429SOL     OW30748   4.626   0.176  17.461  0.0577 -0.0343 -0.0046
 6429SOL    HW130749   4.691   0.226  17.511  1.6743 -2.7763  0.6057
 6429SOL    HW230750   4.574   0.137  17.531 -1.6512 -1.0420 -1.8467
 6430SOL     OW30751   3.296   4.653   6.865  0.0156 -0.2219  0.4196
 6430SOL    HW130752   3.224   4.712   6.844  1.1209 -0.0221 -2.9363
 6430SOL    HW230753   3.266   4.602   6.940  0.1844  3.1902  2.7884
 6431SOL     OW30754   3.168   4.017   3.454 -0.6286 -0.4521 -0.6893
 6431SOL    HW130755   3.227   3.947   3.483 -1.1591  0.3815  2.4442
 6431SOL    HW230756   3.101   4.013   3.522  2.2908 -0.8057  2.1596
 6432SOL     OW30757   0.432   0.315  17.593 -0.2765  0.5254 -0.3065
 6432SOL    HW130758   0.452   0.399  17.635 -0.9678  0.6176 -0.1710
 6432SOL    HW230759   0.523   0.302  17.564  0.3854  1.9674  1.1336
 6433SOL     OW30760   4.558   3.677  10.374 -0.2672 -0.3567 -0.3963
 6433SOL    HW130761   4.466   3.651  10.364 -0.1205  0.8473 -4.9294
 6433SOL    HW230762   4.608   3.596  10.387  1.6028  0.4893 -2.1735
 6434SOL     OW30763   4.329   3.537  16.736  0.4504 -0.2647  0.1397
 6434SOL    HW130764   4.249   3.488  16.721 -0.5777  0.6336  2.7840
 6434SOL    HW230765   4.317   3.605  16.669  1.6656  2.0098  2.2259
 6435SOL     OW30766   2.799   0.117  13.335  0.3879 -0.5173  0.3179
 6435SOL    HW130767   2.825   0.207  13.350 -0.2142 -0.2222 -0.3928
 6435SOL    HW230768   2.715   0.135  13.293  0.6768  1.4697  0.6049
 6436SOL     OW30769   4.507   0.275  12.326  0.8300 -0.6499  0.6327
 6436SOL    HW130770   4.497   0.219  12.404 -1.3644  0.2217  0.9675
 6436SOL    HW230771   4.603   0.278  12.328  0.8044  0.6637 -0.7907
 6437SOL     OW30772   1.888   1.016   6.575 -0.0423 -0.5280  0.1133
 6437SOL    HW130773   1.867   1.069   6.652  0.8213  2.0565 -1.4150
 6437SOL    HW230774   1.809   0.962   6.571  0.4694 -1.2755  0.0996
 6438SOL     OW30775   1.418   0.069   5.147  0.4896  0.1107 -0.1370
 6438SOL    HW130776   1.421   0.141   5.084 -0.3835  0.5496  0.3205
 6438SOL    HW230777   1.390   0.110   5.229  0.4441  0.9116 -0.5577
 6439SOL     OW30778   3.007   3.350  17.667  0.5908  0.1367 -0.3960
 6439SOL    HW130779   3.046   3.336   0.051  1.4708  1.3918 -0.6071
 6439SOL    HW230780   2.946   3.279  17.645  0.4817 -0.1103  0.6827
 6440SOL     OW30781   0.337   3.844  15.378 -0.1659 -0.1407 -0.1244
 6440SOL    HW130782   0.399   3.888  15.320  0.3230  1.8900  1.9286
 6440SOL    HW230783   0.257   3.844  15.326  0.7246 -2.2793 -1.4874
 6441SOL     OW30784   3.564   4.435   5.558  0.3685 -0.3321  0.4377
 6441SOL    HW130785   3.606   4.513   5.595 -1.1083 -0.2720  1.9975
 6441SOL    HW230786   3.528   4.475   5.479  1.0073 -1.2001 -0.2827
 6442SOL     OW30787   2.745   0.048   7.812  0.5075 -0.1023  0.0253
 6442SOL    HW130788   2.823   4.719   7.811  1.6627  1.5808 -1.9194
 6442SOL    HW230789   2.724   0.047   7.905 -1.2082 -0.4641 -0.3721
 6443SOL     OW30790   0.475   4.169   0.128 -0.1859 -0.0668  0.2831
 6443SOL    HW130791   0.534   4.214   0.189 -0.1073 -0.0979  0.2299
 6443SOL    HW230792   0.516   4.168   0.041  0.7690  0.7011  0.7258
 6444SOL     OW30793   1.490   3.465   3.625 -0.1037 -0.1722  0.1776
 6444SOL    HW130794   1.473   3.513   3.543  0.3599  2.1151  1.4077
 6444SOL    HW230795   1.413   3.411   3.640 -0.2721 -0.8442 -3.1520
 6445SOL     OW30796   3.008   2.454   4.535  0.7158 -0.5689 -0.2238
 6445SOL    HW130797   3.002   2.474   4.441 -0.9357  1.4086  0.2850
 6445SOL    HW230798   3.033   2.537   4.575 -1.0297  1.0327 -2.4249
 6446SOL     OW30799   0.338   3.658   2.622 -0.2630 -0.2501 -0.3722
 6446SOL    HW130800   0.424   3.619   2.608  0.0779  0.3722  0.0159
 6446SOL    HW230801   0.300   3.641   2.535  1.0076 -0.2597 -0.9185
 6447SOL     OW30802   0.794   4.208   0.569 -0.7957  0.1450 -0.0627
 6447SOL    HW130803   0.841   4.142   0.619  1.0740  1.6403  0.1542
 6447SOL    HW230804   0.747   4.256   0.638 -2.9909 -0.1036 -1.3986
 6448SOL     OW30805   4.226   1.539  17.600  0.2879  0.5233 -0.1944
 6448SOL    HW130806   4.237   1.452  17.638 -0.2473  0.3448 -0.4429
 6448SOL    HW230807   4.160   1.517  17.534 -0.1044  1.8898 -0.2645
 6449SOL     OW30808   3.421   0.296   6.213  0.3082  0.1023 -0.1920
 6449SOL    HW130809   3.403   0.354   6.286 -3.4191 -1.1526 -0.1144
 6449SOL    HW230810   3.506   0.329   6.184  0.3169 -0.0643 -0.3596
 6450SOL     OW30811   3.322   4.543   4.970 -0.0215 -0.2360 -0.2874
 6450SOL    HW130812   3.401   4.489   4.963 -0.3873 -0.9823  1.3675
 6450SOL    HW230813   3.348   4.604   5.040  3.0856 -2.8210  0.8311
 6451SOL     OW30814   4.462   0.878  17.668  0.5654  0.3965 -0.6891
 6451SOL    HW130815   4.537   0.894   0.024  0.3217  0.3616 -0.3689
 6451SOL    HW230816   4.488   0.792  17.635  0.6909 -0.2612  1.1133
 6452SOL     OW30817   0.916   2.767   8.187  0.3316  0.2558 -0.4404
 6452SOL    HW130818   0.851   2.808   8.129  0.6177  0.1543 -0.8331
 6452SOL    HW230819   0.854   2.727   8.248  0.2371 -1.3006 -1.5397
 6453SOL     OW30820   4.144   0.752   3.605  0.0259 -0.7517 -0.4025
 6453SOL    HW130821   4.125   0.718   3.692 -1.5158  1.2469  0.0322
 6453SOL    HW230822   4.092   0.689   3.555 -0.0232 -1.7582  0.9140
 6454SOL     OW30823   0.672   2.710   3.693 -0.7982  0.1098 -0.7974
 6454SOL    HW130824   0.717   2.627   3.710 -0.1691  0.5978 -0.0633
 6454SOL    HW230825   0.686   2.743   3.781  0.3567 -0.6640 -0.6834
 6455SOL     OW30826   0.559   0.105   5.928  0.2204 -0.0591 -0.2939
 6455SOL    HW130827   0.562   0.075   5.837 -0.3693  1.8365 -0.9324
 6455SOL    HW230828   0.652   0.118   5.943 -0.5067  1.7119  2.6632
 6456SOL     OW30829   3.956   1.871   8.359  0.0793 -0.0989 -0.3997
 6456SOL    HW130830   4.001   1.826   8.287  0.6095  2.8689 -1.9280
 6456SOL    HW230831   3.897   1.928   8.309 -1.7710 -0.3960  1.4306
 6457SOL     OW30832   3.633   3.645  11.023 -0.3797  0.3557  0.4869
 6457SOL    HW130833   3.620   3.709  10.953  0.5129  0.6599  0.5990
 6457SOL    HW230834   3.707   3.681  11.072  0.2168  0.4061 -0.4578
 6458SOL     OW30835   2.082   4.101   7.299  0.2866 -0.4168 -0.7102
 6458SOL    HW130836   2.106   4.064   7.384  1.1275 -1.8092 -1.5473
 6458SOL    HW230837   2.134   4.181   7.301 -1.6706  0.8651 -1.7784
 6459SOL     OW30838   3.057   3.175  13.955 -0.3838 -0.4261 -0.1972
 6459SOL    HW130839   3.079   3.167  13.862 -1.0322  1.0502 -0.4802
 6459SOL    HW230840   3.015   3.259  13.976  0.3991 -0.1168  0.1518
 6460SOL     OW30841   3.139   2.252  10.114 -0.0926  0.0830  0.1188
 6460SOL    HW130842   3.120   2.334  10.070 -0.3141 -0.9764 -1.7814
 6460SOL    HW230843   3.233   2.242  10.100 -0.2372 -0.0256 -0.7692
 6461SOL     OW30844   1.267   0.554   5.431  0.8364  0.1709 -0.3003
 6461SOL    HW130845   1.250   0.626   5.491  2.1624  0.6724 -0.5238
 6461SOL    HW230846   1.252   0.589   5.344  0.3327 -1.5201 -0.8874
 6462SOL     OW30847   0.135   2.555   7.021  0.3225  0.2949  0.4600
 6462SOL    HW130848   0.056   2.587   6.979  0.5926  2.2935  1.4679
 6462SOL    HW230849   0.192   2.564   6.944 -1.8195  0.9588 -1.0445
 6463SOL     OW30850   2.598   1.377   7.961  0.3591  0.1453  0.5482
 6463SOL    HW130851   2.597   1.410   7.871 -1.3438  1.7324  1.1285
 6463SOL    HW230852   2.678   1.325   7.961 -0.3157 -0.9025  3.1340
 6464SOL     OW30853   4.594   0.430   4.788 -0.1799 -0.0863 -0.0028
 6464SOL    HW130854   4.640   0.510   4.812 -0.3226  0.6766 -2.2282
 6464SOL    HW230855   4.663   0.393   4.733 -0.7577 -0.6808 -0.3290
 6465SOL     OW30856   1.913   1.074  12.794 -0.3583  0.3801  0.1884
 6465SOL    HW130857   1.982   1.110  12.850 -0.5041 -0.1453  0.7142
 6465SOL    HW230858   1.925   1.129  12.717  1.7072 -1.3252 -0.7254
 6466SOL     OW30859   1.870   1.197  11.974  0.0398  0.0347 -0.2239
 6466SOL    HW130860   1.860   1.193  11.879  1.4149 -1.6745 -0.3007
 6466SOL    HW230861   1.814   1.273  11.992  0.4150  1.0669 -3.4584
 6467SOL     OW30862   1.720   1.770   8.812  0.4591  0.5360 -0.2603
 6467SOL    HW130863   1.670   1.799   8.888  0.1117  2.2156 -1.1299
 6467SOL    HW230864   1.770   1.697   8.848  0.3248  0.1538 -0.8552
 6468SOL     OW30865   1.355   2.074  17.253  0.4121 -0.3719  0.2452
 6468SOL    HW130866   1.312   2.036  17.330 -0.7860  0.6561  0.0733
 6468SOL    HW230867   1.380   1.992  17.209 -1.7266 -0.4919 -0.7633
 6469SOL     OW30868   4.208   3.121  15.529 -0.1953  0.3982  0.6440
 6469SOL    HW130869   4.179   3.208  15.554 -0.8603  0.8168 -1.6285
 6469SOL    HW230870   4.300   3.145  15.517 -1.2375  3.7816 -0.3824
 6470SOL     OW30871   0.523   2.623  17.547  0.2140 -0.3180 -0.0158
 6470SOL    HW130872   0.521   2.708  17.591 -0.7204 -1.5720  2.3909
 6470SOL    HW230873   0.438   2.584  17.569  0.5036 -0.1550  1.3716
 6471SOL     OW30874   4.471   0.430   5.620 -0.3509 -0.4037  0.2435
 6471SOL    HW130875   4.438   0.452   5.533  2.8326  3.8335  0.1430
 6471SOL    HW230876   4.543   0.370   5.600  1.4679  1.6610  0.5538
 6472SOL     OW30877   1.276   3.991   4.072  0.1467  0.0301 -0.6623
 6472SOL    HW130878   1.200   3.953   4.114 -0.1275 -0.5306 -1.6752
 6472SOL    HW230879   1.274   3.952   3.985  0.0926 -0.2392 -0.5382
 6473SOL     OW30880   1.759   3.895   3.782  0.1601  0.1082  0.0165
 6473SOL    HW130881   1.825   3.948   3.827  0.5826  0.5362 -1.0837
 6473SOL    HW230882   1.728   3.845   3.857  0.1928 -1.4750 -1.0121
 6474SOL     OW30883   1.931   2.730   7.818 -0.3897  0.0887 -0.0229
 6474SOL    HW130884   2.013   2.700   7.859  0.6003  0.2559 -1.8638
 6474SOL    HW230885   1.876   2.698   7.890 -0.0493  0.2936  0.3322
 6475SOL     OW30886   1.290   1.214  14.677  0.0213 -0.3233  0.0311
 6475SOL    HW130887   1.349   1.139  14.680 -1.6080 -1.5788  0.1925
 6475SOL    HW230888   1.255   1.213  14.766 -0.6959  0.6671 -0.2320
 6476SOL     OW30889   1.639   3.942  11.838  0.5142  0.1036  0.0827
 6476SOL    HW130890   1.592   3.964  11.918  2.5256  0.3288  1.1965
 6476SOL    HW230891   1.705   3.888  11.880  0.0380 -0.5917 -0.0740
 6477SOL     OW30892   3.431   1.984  11.440  0.0640 -0.8587 -0.1185
 6477SOL    HW130893   3.520   1.972  11.470  0.3347  0.3923 -0.3936
 6477SOL    HW230894   3.453   2.053  11.377  1.5399 -2.9151 -1.8664
 6478SOL     OW30895   0.955   4.121   9.193  0.0819  0.2173 -0.0980
 6478SOL    HW130896   0.977   4.163   9.277 -0.7612 -0.9252  0.6940
 6478SOL    HW230897   1.041   4.096   9.161 -0.2843 -1.9114  0.5820
 6479SOL     OW30898   4.595   3.134   7.200  0.4222  0.6245  0.3780
 6479SOL    HW130899   4.596   3.219   7.156  1.0717 -0.0898 -0.9871
 6479SOL    HW230900   4.681   3.147   7.239  1.1620  0.6120 -1.2569
 6480SOL     OW30901   4.152   0.579  16.421 -0.1510 -0.4178  0.5833
 6480SOL    HW130902   4.206   0.628  16.360 -0.6306 -0.3008  0.2573
 6480SOL    HW230903   4.195   0.495  16.404  0.4084 -0.1531  0.6675
 6481SOL     OW30904   1.549   0.404   6.901 -0.8688  0.1327  0.1032
 6481SOL    HW130905   1.558   0.351   6.980 -0.3584  0.2137  0.0984
 6481SOL    HW230906   1.565   0.336   6.836 -0.7206  0.7773 -0.5284
 6482SOL     OW30907   0.659   0.480   2.671 -0.8251  0.1815  0.1963
 6482SOL    HW130908   0.683   0.419   2.601 -0.3142  0.9977 -0.3381
 6482SOL    HW230909   0.641   0.556   2.615  0.8041 -1.4944 -2.6093
 6483SOL     OW30910   0.727   4.221  17.660  0.5037  0.1360 -0.0685
 6483SOL    HW130911   0.693   4.288  17.600 -0.7557 -0.6970 -0.2802
 6483SOL    HW230912   0.780   4.174  17.596  0.3242 -1.4770  0.9663
 6484SOL     OW30913   3.196   1.812   8.666 -0.3389  0.4005  0.2159
 6484SOL    HW130914   3.111   1.823   8.621 -1.5377 -0.7029  2.2146
 6484SOL    HW230915   3.232   1.740   8.615  0.4823  1.2914 -0.4714
 6485SOL     OW30916   0.101   4.579   2.755 -0.2458  0.1559  0.1892
 6485SOL    HW130917   0.189   4.545   2.740  0.3076  1.8965 -0.5103
 6485SOL    HW230918   0.123   4.659   2.803 -2.8041 -0.2190  1.9904
 6486SOL     OW30919   0.688   3.510   9.184  0.0673 -0.0244  0.2049
 6486SOL    HW130920   0.670   3.603   9.200  1.9437  0.2857  0.4766
 6486SOL    HW230921   0.655   3.492   9.096 -0.8134 -1.4033  0.8189
 6487SOL     OW30922   0.430   3.340   7.743 -0.2104  0.1962 -0.4530
 6487SOL    HW130923   0.379   3.353   7.823 -0.6694 -1.7970 -0.4417
 6487SOL    HW230924   0.483   3.419   7.728  0.8752 -0.2043  1.1956
 6488SOL     OW30925   2.320   0.645   6.593  0.3049 -0.0078  0.3771
 6488SOL    HW130926   2.391   0.694   6.635 -1.0599 -0.5315  3.2787
 6488SOL    HW230927   2.361   0.606   6.515  2.0870  1.5475  0.5271
 6489SOL     OW30928   3.575   0.985   4.098 -0.4339  0.3424 -0.2556
 6489SOL    HW130929   3.612   0.992   4.010  0.6554  0.1730  0.2005
 6489SOL    HW230930   3.608   1.069   4.131  0.3894  0.0619 -0.3847
 6490SOL     OW30931   3.349   1.925  17.639  0.4978 -0.4359  0.0589
 6490SOL    HW130932   3.267   1.929  17.688  0.6398  1.8412  0.1345
 6490SOL    HW230933   3.340   2.007  17.589 -1.2259 -1.2348 -0.9371
 6491SOL     OW30934   3.324   0.304   4.826 -0.1742 -0.1687 -0.1854
 6491SOL    HW130935   3.306   0.212   4.849 -1.6108  0.1098 -0.1650
 6491SOL    HW230936   3.241   0.346   4.848  0.2640  0.1989  0.7625
 6492SOL     OW30937   2.162   4.150   7.612  0.1850  0.2645  0.1030
 6492SOL    HW130938   2.213   4.104   7.679  2.3373  1.4930 -0.7017
 6492SOL    HW230939   2.232   4.175   7.553  2.1180 -2.2241  1.3662
 6493SOL     OW30940   3.292   2.624  15.071  0.1148  0.0772 -0.3521
 6493SOL    HW130941   3.339   2.700  15.105 -0.1260 -0.3704  0.9509
 6493SOL    HW230942   3.295   2.570  15.150 -0.6010 -0.7443 -0.8849
 6494SOL     OW30943   1.362   2.181   7.995  0.0397  0.3583  0.3471
 6494SOL    HW130944   1.326   2.154   7.910 -1.1058  0.0304  0.9352
 6494SOL    HW230945   1.319   2.266   8.005 -1.3909 -0.4985  1.5408
 6495SOL     OW30946   2.679   1.731   2.221 -0.1838  0.3097  0.1022
 6495SOL    HW130947   2.604   1.671   2.222  0.9861 -1.1579  1.1781
 6495SOL    HW230948   2.649   1.803   2.276 -1.5550 -0.9212  0.9955
 6496SOL     OW30949   1.938   1.968   5.543 -0.4326  0.8301  0.3587
 6496SOL    HW130950   1.976   2.056   5.537  0.2895  0.4179 -0.9715
 6496SOL    HW230951   2.021   1.920   5.550 -0.8338 -0.1354 -1.5266
 6497SOL     OW30952   3.564   0.894   9.306 -0.0263  0.4123 -0.0516
 6497SOL    HW130953   3.581   0.801   9.320 -1.1753 -0.0968 -1.9875
 6497SOL    HW230954   3.524   0.906   9.392  1.7494 -0.5485  0.9172
 6498SOL     OW30955   2.040   1.890  10.039  0.1284 -0.6540 -0.4588
 6498SOL    HW130956   2.114   1.852   9.990  1.3338  1.1686 -0.0718
 6498SOL    HW230957   2.004   1.813  10.082  0.2213  0.4913  1.6791
 6499SOL     OW30958   4.570   4.625  15.966 -0.2318 -0.0722  0.8870
 6499SOL    HW130959   4.529   4.651  15.883 -1.7502 -1.7028  1.1272
 6499SOL    HW230960   4.623   4.699  15.995 -2.5550  1.2628  1.6484
 6500SOL     OW30961   0.460   0.434  11.890 -0.3168 -0.5145 -0.4044
 6500SOL    HW130962   0.518   0.378  11.838  3.3440  1.4098  1.6196
 6500SOL    HW230963   0.439   0.508  11.834  0.4074 -1.9550 -2.5964
 6501SOL     OW30964   1.464   4.512   4.601 -0.5148 -0.0753  0.0049
 6501SOL    HW130965   1.491   4.604   4.603 -1.9215  0.3263  0.9912
 6501SOL    HW230966   1.421   4.515   4.686  2.8980 -1.4299  1.7710
 6502SOL     OW30967   3.549   0.486   8.505 -0.3582 -0.7147  0.1222
 6502SOL    HW130968   3.559   0.484   8.600  1.6891  0.0206 -0.0764
 6502SOL    HW230969   3.525   0.576   8.481 -0.5995  0.1980  3.8973
 6503SOL     OW30970   3.357   3.810  12.830  0.7060  0.1951 -0.0660
 6503SOL    HW130971   3.323   3.839  12.914 -1.0187 -1.0774 -0.3012
 6503SOL    HW230972   3.341   3.715  12.832 -0.5087  0.4263  0.8976
 6504SOL     OW30973   0.867   3.486   2.540 -0.2661 -0.5959 -0.3052
 6504SOL    HW130974   0.882   3.544   2.616 -1.1814 -0.6373 -0.0949
 6504SOL    HW230975   0.839   3.406   2.584 -0.2716  0.4937  1.6929
 6505SOL     OW30976   2.701   1.246   6.945 -0.1938  0.2427  0.8731
 6505SOL    HW130977   2.659   1.313   6.999  0.6934  1.0163  0.6058
 6505SOL    HW230978   2.789   1.283   6.944  0.6172 -1.6924  0.3370
 6506SOL     OW30979   3.776   1.165  13.734  0.2940  0.3044  0.0980
 6506SOL    HW130980   3.814   1.251  13.752 -0.6016  1.0504 -1.6253
 6506SOL    HW230981   3.729   1.146  13.815 -0.1220  1.4854  0.1307
 6507SOL     OW30982   4.626   2.743   3.284  0.0604 -0.6690 -0.3831
 6507SOL    HW130983   4.693   2.699   3.337  0.7883  2.6284  1.4582
 6507SOL    HW230984   4.651   2.733   3.192  1.1192  0.2983 -0.1904
 6508SOL     OW30985   3.132   2.854   8.334  0.0425  0.0885 -0.5547
 6508SOL    HW130986   3.042   2.822   8.326 -0.1794 -0.0185  2.4275
 6508SOL    HW230987   3.175   2.775   8.368  0.8631  0.5661 -0.4836
 6509SOL     OW30988   2.866   1.699   1.822 -0.8141 -0.0931 -0.0807
 6509SOL    HW130989   2.915   1.746   1.755 -1.1468  0.2942 -0.0512
 6509SOL    HW230990   2.899   1.610   1.819  0.9960  0.6127 -1.0621
 6510SOL     OW30991   2.780   3.030  10.596 -0.5599  0.1209  0.1603
 6510SOL    HW130992   2.791   2.935  10.601  0.8853  0.3501  1.4551
 6510SOL    HW230993   2.780   3.054  10.689 -0.8353 -1.2255  0.5131
 6511SOL     OW30994   3.123   0.980   3.679 -0.7393  0.0259 -0.1759
 6511SOL    HW130995   3.133   0.887   3.698  2.6195  0.5614  0.6948
 6511SOL    HW230996   3.134   1.021   3.765  1.8953  0.4791 -0.7200
 6512SOL     OW30997   0.067   4.698   8.029  0.4841  0.1651 -0.1397
 6512SOL    HW130998   0.107   4.617   8.059  1.4059  0.7211  0.1438
 6512SOL    HW230999   0.060   4.683   7.934 -0.2809 -0.3173 -0.0042
 6513SOL     OW31000   3.765   3.572   6.794 -0.1239  0.8524  0.8429
 6513SOL    HW131001   3.698   3.637   6.773 -2.0263 -0.7810  1.8430
 6513SOL    HW231002   3.801   3.616   6.871 -1.1788  0.2989  1.6528
 6514SOL     OW31003   0.421   1.147   5.167 -0.3036 -0.5285  0.3192
 6514SOL    HW131004   0.414   1.210   5.095 -2.2046 -1.4922 -0.3537
 6514SOL    HW231005   0.340   1.166   5.215 -0.3692 -1.8641  0.7522
 6515SOL     OW31006   1.720   1.820  14.819 -0.3614 -0.0378  0.1577
 6515SOL    HW131007   1.693   1.737  14.859 -1.7405  0.5995  0.5317
 6515SOL    HW231008   1.648   1.836  14.759  0.5491 -2.7628 -1.6645
 6516SOL     OW31009   1.900   0.493   8.571 -0.4549  0.3305  0.4741
 6516SOL    HW131010   1.876   0.586   8.569  0.0552  0.4508 -0.1913
 6516SOL    HW231011   1.964   0.499   8.642  1.4277  0.3015 -1.1986
 6517SOL     OW31012   3.806   1.612  14.485 -0.0073 -0.0714  0.0862
 6517SOL    HW131013   3.829   1.698  14.452 -0.8436  0.8594  1.8782
 6517SOL    HW231014   3.892   1.574  14.470 -0.1378  0.2270 -1.4026
 6518SOL     OW31015   4.521   1.321   2.862 -0.1449  0.6601  0.0439
 6518SOL    HW131016   4.428   1.341   2.871 -0.8544 -2.4729 -0.2440
 6518SOL    HW231017   4.515   1.226   2.877 -1.5537  1.1293  2.4376
 6519SOL     OW31018   2.798   1.051   4.756  0.0103  0.9745  0.0056
 6519SOL    HW131019   2.835   0.987   4.696  0.5191  0.8819  0.4181
 6519SOL    HW231020   2.881   1.088   4.786  0.7985 -0.8865  0.1309
 6520SOL     OW31021   0.648   1.036  11.450 -0.0433 -0.5641 -0.0605
 6520SOL    HW131022   0.707   1.087  11.506 -0.2341  0.4035 -0.7352
 6520SOL    HW231023   0.698   1.012  11.372  0.1853  0.1665 -0.1443
 6521SOL     OW31024   3.466   1.816  11.063 -0.3421  0.1157 -0.2217
 6521SOL    HW131025   3.423   1.838  10.981  2.8882  1.0111 -1.6336
 6521SOL    HW231026   3.412   1.849  11.135 -0.5079 -0.2106 -0.1963
 6522SOL     OW31027   3.140   0.575   2.687 -0.4881 -0.1139  0.0659
 6522SOL    HW131028   3.093   0.653   2.714  1.0308  1.0767 -0.7235
 6522SOL    HW231029   3.104   0.563   2.599 -0.8203  0.0220  0.1868
 6523SOL     OW31030   1.911   2.528   4.037 -0.3331 -0.0724 -0.8641
 6523SOL    HW131031   1.953   2.478   4.107  1.0330 -1.9276 -3.0297
 6523SOL    HW231032   1.819   2.500   4.041  0.2985 -1.8887  1.0939
 6524SOL     OW31033   0.736   3.664   8.548  0.0569 -0.0083 -0.0940
 6524SOL    HW131034   0.729   3.760   8.543 -1.0654  0.0006  1.8894
 6524SOL    HW231035   0.797   3.657   8.621  0.7062  1.6409 -0.4602
 6525SOL     OW31036   4.145   3.315   5.244  0.2865 -0.6620  0.1993
 6525SOL    HW131037   4.163   3.399   5.287  0.9279  0.3264 -1.9696
 6525SOL    HW231038   4.208   3.260   5.290  1.3154 -0.2747 -0.7308
 6526SOL     OW31039   2.196   1.328  10.813  0.1543  0.2982  0.1868
 6526SOL    HW131040   2.197   1.376  10.896  0.9893  1.2259 -0.3551
 6526SOL    HW231041   2.105   1.300  10.802  0.4979 -0.7201 -0.0202
 6527SOL     OW31042   3.106   2.215   0.976  0.1612  0.1834  0.1109
 6527SOL    HW131043   3.152   2.192   1.057  1.6404  1.0706 -0.4648
 6527SOL    HW231044   3.114   2.144   0.913 -0.5292  2.0153 -2.0234
 6528SOL     OW31045   1.336   1.860   8.247  0.0706  0.1015 -0.2517
 6528SOL    HW131046   1.392   1.934   8.269  0.4047  0.1279 -1.2057
 6528SOL    HW231047   1.400   1.817   8.190 -0.1561  0.0209 -0.4470
 6529SOL     OW31048   0.650   0.450   6.835 -0.0386  0.2085  0.0533
 6529SOL    HW131049   0.707   0.501   6.892 -0.7142  0.1998  0.7408
 6529SOL    HW231050   0.642   0.375   6.893  0.1102  0.9512  1.0262
 6530SOL     OW31051   2.564   0.509   2.828  0.1784 -0.0304  0.0972
 6530SOL    HW131052   2.585   0.471   2.913 -0.1661  3.2346  1.6753
 6530SOL    HW231053   2.501   0.442   2.803 -0.2616  0.5680 -0.4079
 6531SOL     OW31054   2.283   2.524   7.370  0.5389  0.2078  0.0069
 6531SOL    HW131055   2.351   2.460   7.390  1.7294  0.9140 -1.8490
 6531SOL    HW231056   2.318   2.613   7.373 -0.5424  0.6994 -2.1476
 6532SOL     OW31057   2.131   0.819   8.062 -0.0192  0.0287  0.9820
 6532SOL    HW131058   2.189   0.890   8.092  0.6250 -0.4653  0.9038
 6532SOL    HW231059   2.202   0.754   8.066  0.9974  0.9880 -1.5735
 6533SOL     OW31060   0.557   4.663   4.845 -0.0350  0.3713  0.4935
 6533SOL    HW131061   0.530   4.584   4.798 -0.9374  1.6990 -1.1904
 6533SOL    HW231062   0.652   4.657   4.832 -0.0787 -1.0441  0.8079
 6534SOL     OW31063   0.883   1.264   5.675 -0.5764  0.3905  0.0528
 6534SOL    HW131064   0.847   1.273   5.764 -1.4558  0.6575 -0.3262
 6534SOL    HW231065   0.967   1.307   5.690  0.5230 -2.0397  0.7820
 6535SOL     OW31066   0.186   1.348   3.533  0.2675 -0.5948 -0.0097
 6535SOL    HW131067   0.261   1.405   3.520 -0.2168 -0.0762 -0.4826
 6535SOL    HW231068   0.148   1.341   3.445  1.7115 -1.1769 -0.5921
 6536SOL     OW31069   3.703   3.910   6.219 -0.1760 -0.1769  0.7072
 6536SOL    HW131070   3.722   3.817   6.233  0.6152  0.3211  2.8684
 6536SOL    HW231071   3.625   3.916   6.162  1.3606 -0.4629 -1.4177
 6537SOL     OW31072   2.061   1.939   7.086 -1.2040 -0.4062 -0.0736
 6537SOL    HW131073   2.092   1.849   7.101  1.1454  0.5740  0.8721
 6537SOL    HW231074   2.001   1.967   7.155 -1.7241  1.2975 -1.2409
 6538SOL     OW31075   2.954   1.987  16.245 -0.1002  0.2679 -0.5739
 6538SOL    HW131076   3.037   1.944  16.265  0.2354  0.9902 -0.4187
 6538SOL    HW231077   2.947   2.047  16.319  2.4998  0.3691 -0.4080
 6539SOL     OW31078   4.479   4.500   2.862  0.3353 -0.1898 -0.5084
 6539SOL    HW131079   4.518   4.467   2.943  1.0683 -0.7631 -1.0882
 6539SOL    HW231080   4.515   4.431   2.806  2.1117  2.6689 -2.9112
 6540SOL     OW31081   3.815   3.896   0.214 -0.0601 -0.1462 -0.2170
 6540SOL    HW131082   3.864   3.974   0.240  1.8170 -1.4855  0.2808
 6540SOL    HW231083   3.871   3.866   0.143  1.4600  2.0292  0.0580
 6541SOL     OW31084   3.613   2.249   9.861 -0.2727  0.9386  0.2466
 6541SOL    HW131085   3.693   2.263   9.811 -0.4843 -0.7268 -0.5475
 6541SOL    HW231086   3.570   2.334   9.867  0.2959  1.1546  1.4117
 6542SOL     OW31087   1.084   2.944   8.026 -0.0259 -0.5397  0.4880
 6542SOL    HW131088   1.161   2.999   8.041  0.0780 -0.4004 -0.5349
 6542SOL    HW231089   1.014   3.004   8.054 -0.0258 -0.5918  0.5998
 6543SOL     OW31090   1.238   1.472   1.937 -0.1602  0.7016 -0.0168
 6543SOL    HW131091   1.193   1.552   1.908 -0.2654  0.7444  0.2682
 6543SOL    HW231092   1.238   1.486   2.032 -1.3032 -0.1533  0.1029
 6544SOL     OW31093   3.313   3.569  17.363  0.6828 -0.1672  0.2889
 6544SOL    HW131094   3.219   3.563  17.343  0.9131 -1.4373 -0.4262
 6544SOL    HW231095   3.316   3.665  17.363  0.7195 -0.1654 -0.2605
 6545SOL     OW31096   0.913   0.393   9.687 -0.1564  0.3315 -0.0509
 6545SOL    HW131097   0.853   0.331   9.727 -1.0410  1.2427  0.0396
 6545SOL    HW231098   0.899   0.475   9.735  1.3072 -0.1033  1.1284
 6546SOL     OW31099   1.816   4.570  12.448  0.1520  0.2232 -0.1875
 6546SOL    HW131100   1.899   4.555  12.403 -1.0244 -0.6118 -2.0923
 6546SOL    HW231101   1.794   4.659  12.421 -1.2530  0.5424  2.0718
 6547SOL     OW31102   1.956   4.267  12.382 -0.1511  0.4154 -0.8695
 6547SOL    HW131103   2.051   4.272  12.375 -0.1538  2.0175  0.3146
 6547SOL    HW231104   1.940   4.173  12.383 -0.7485  0.5190 -0.5491
 6548SOL     OW31105   1.893   0.918   3.536  0.3421  0.3386 -0.0622
 6548SOL    HW131106   1.970   0.974   3.548  1.2143 -1.0374  0.8496
 6548SOL    HW231107   1.840   0.932   3.614  0.8241 -1.9705  0.6939
 6549SOL     OW31108   1.676   3.779  12.284 -1.0922  0.3129 -0.0660
 6549SOL    HW131109   1.703   3.695  12.322  0.7770  0.2114 -1.6690
 6549SOL    HW231110   1.590   3.802  12.320  0.0397  0.8006  2.3268
 6550SOL     OW31111   0.033   3.324   0.673 -0.0092 -0.3245  0.2099
 6550SOL    HW131112   0.020   3.390   0.740  0.3941 -1.0218  0.9737
 6550SOL    HW231113   0.100   3.267   0.711  1.1665  0.2867 -0.9384
 6551SOL     OW31114   0.012   1.985   3.378 -0.0954 -0.2580  0.1759
 6551SOL    HW131115   4.724   1.991   3.283 -0.0011 -0.3310  0.1580
 6551SOL    HW231116   0.103   2.016   3.383  0.1532 -0.4800 -2.7585
 6552SOL     OW31117   1.261   1.314  17.266 -0.4539 -0.0949 -0.0013
 6552SOL    HW131118   1.286   1.363  17.345  0.4422  0.5109 -0.6626
 6552SOL    HW231119   1.256   1.373  17.191  1.0397  2.6019  2.0355
 6553SOL     OW31120   1.618   2.310  16.896 -0.1804 -0.0868  0.2699
 6553SOL    HW131121   1.524   2.306  16.878 -1.0004 -1.4987  5.0539
 6553SOL    HW231122   1.647   2.392  16.854  0.1624 -0.6251 -0.5464
 6554SOL     OW31123   2.392   4.091  16.282 -0.8086 -0.4993  0.1267
 6554SOL    HW131124   2.485   4.069  16.282 -0.6155  0.2738  0.9570
 6554SOL    HW231125   2.345   4.015  16.247 -0.7094  0.7814 -2.7090
 6555SOL     OW31126   2.496   0.518   5.126 -0.0500  0.3859 -0.0723
 6555SOL    HW131127   2.559   0.463   5.172 -0.3738 -1.2156 -1.5560
 6555SOL    HW231128   2.420   0.494   5.179  0.9525  0.6406  1.4803
 6556SOL     OW31129   3.501   0.168  15.628 -0.5053 -0.1763  0.6702
 6556SOL    HW131130   3.476   0.086  15.672  2.8119 -1.3858  0.2948
 6556SOL    HW231131   3.466   0.226  15.696  0.2438 -0.5872  1.4122
 6557SOL     OW31132   1.388   0.975   4.313  0.0651  0.1304 -0.0034
 6557SOL    HW131133   1.357   1.022   4.235 -1.1283  0.1450  0.4810
 6557SOL    HW231134   1.398   1.052   4.370  0.2805 -0.3255  0.5819
 6558SOL     OW31135   3.306   3.020   2.833 -0.2576 -0.2642 -0.1237
 6558SOL    HW131136   3.301   3.115   2.840 -0.3296 -0.2716 -0.0734
 6558SOL    HW231137   3.297   3.004   2.739 -0.1283  1.2255 -0.3845
 6559SOL     OW31138   0.580   0.610   7.176  0.1401 -0.2488  0.1260
 6559SOL    HW131139   0.518   0.656   7.118  0.8486 -0.1426 -0.5452
 6559SOL    HW231140   0.659   0.660   7.155 -2.5234  3.1209 -1.8963
 6560SOL     OW31141   3.135   1.810   8.144 -0.0719 -0.1849 -0.6021
 6560SOL    HW131142   3.205   1.866   8.177  0.6686 -0.5406 -1.5804
 6560SOL    HW231143   3.065   1.873   8.161  0.5752  0.2716  0.3980
 6561SOL     OW31144   3.292   3.895   2.467 -0.2794  0.3478 -0.0682
 6561SOL    HW131145   3.201   3.903   2.439  0.0157 -0.1339 -1.1885
 6561SOL    HW231146   3.308   3.985   2.497 -2.0289  0.6279  0.0041
 6562SOL     OW31147   2.304   2.047   6.146 -0.2788 -0.2121 -0.0845
 6562SOL    HW131148   2.333   2.067   6.235 -1.3661  1.3861 -0.0893
 6562SOL    HW231149   2.343   2.123   6.102  0.2419 -0.7800 -0.5969
 6563SOL     OW31150   0.057   2.060   6.728  0.2729  0.2514 -0.6070
 6563SOL    HW131151   0.121   2.008   6.681  0.4946 -0.6434  0.6923
 6563SOL    HW231152   0.110   2.106   6.794 -2.3665  1.0337  0.9845
 6564SOL     OW31153   4.067   4.169   8.641  0.2431  0.8575 -0.3448
 6564SOL    HW131154   4.162   4.179   8.647  0.5006 -0.0795 -2.6191
 6564SOL    HW231155   4.058   4.129   8.555  2.4276 -0.8548  0.2407
 6565SOL     OW31156   4.030   1.506  17.046  0.0541 -0.5202  0.1252
 6565SOL    HW131157   4.015   1.455  16.966  1.8332 -2.3580  0.9681
 6565SOL    HW231158   3.940   1.534  17.062  0.2842 -0.3010  1.0373
 6566SOL     OW31159   1.508   0.067   4.567  0.4044 -0.1421  0.1258
 6566SOL    HW131160   1.445   0.094   4.634  0.6601 -1.9217  1.0665
 6566SOL    HW231161   1.465   0.088   4.484  2.7129 -0.9186 -1.2637
 6567SOL     OW31162   0.553   4.095   9.709  0.3943  0.1004  0.6241
 6567SOL    HW131163   0.593   4.174   9.673  0.5049 -0.4049 -0.3929
 6567SOL    HW231164   0.569   4.100   9.803 -1.6565  0.6133  0.9428
 6568SOL     OW31165   3.663   1.706  11.269 -0.1890  0.1841  0.0176
 6568SOL    HW131166   3.736   1.652  11.300  0.4984  1.0339 -0.1120
 6568SOL    HW231167   3.616   1.725  11.350 -0.7208  0.6531 -0.4045
 6569SOL     OW31168   3.839   4.452   2.796 -0.1470 -0.3484 -0.1819
 6569SOL    HW131169   3.751   4.468   2.762  0.2327  0.1325 -0.9380
 6569SOL    HW231170   3.891   4.505   2.735  0.9758  1.4017  2.2686
 6570SOL     OW31171   2.773   3.333   7.456  0.0679  0.3446 -0.2382
 6570SOL    HW131172   2.822   3.253   7.440 -0.6065 -0.1137 -0.0283
 6570SOL    HW231173   2.702   3.323   7.393 -1.3972  1.4056  1.2336
 6571SOL     OW31174   2.138   3.312   2.447  0.6945  0.3667  0.4092
 6571SOL    HW131175   2.182   3.270   2.521 -0.3796  1.4052  1.6468
 6571SOL    HW231176   2.061   3.352   2.488  1.2231 -0.6560  2.4184
 6572SOL     OW31177   1.702   0.198  15.064  0.0091  0.2326 -0.5127
 6572SOL    HW131178   1.746   0.121  15.101 -1.3327 -0.6748 -0.8028
 6572SOL    HW231179   1.774   0.234  15.012 -1.0531  2.4648 -0.4227
 6573SOL     OW31180   2.992   0.450   6.112 -0.2563  0.6420  0.3239
 6573SOL    HW131181   2.934   0.498   6.172  2.3695  2.2429  1.5524
 6573SOL    HW231182   2.930   0.406   6.054 -0.3688  0.0255  0.8984
 6574SOL     OW31183   2.352   1.440   2.696  0.4759  0.9710 -0.0224
 6574SOL    HW131184   2.438   1.433   2.654  0.4878  1.0020 -0.0034
 6574SOL    HW231185   2.327   1.529   2.671 -1.4928  0.6094  0.6262
 6575SOL     OW31186   3.498   0.766   7.428  0.5597  0.5554  0.4679
 6575SOL    HW131187   3.574   0.726   7.470  1.6514 -1.9214 -3.9443
 6575SOL    HW231188   3.543   0.817   7.361 -0.0243 -0.5054 -0.7118
 6576SOL     OW31189   1.474   3.662   8.410  0.0673  0.3936 -0.1327
 6576SOL    HW131190   1.464   3.567   8.409 -0.8952  0.4876  0.8061
 6576SOL    HW231191   1.413   3.680   8.339 -3.5752  0.8828  3.1247
 6577SOL     OW31192   2.471   3.374   1.353  0.3151 -0.2762  0.3590
 6577SOL    HW131193   2.452   3.403   1.263  2.0180  0.0073  0.1040
 6577SOL    HW231194   2.556   3.331   1.342  0.8531  0.6625  0.9315
 6578SOL     OW31195   4.100   2.882   3.730 -0.4073  0.3678 -0.2653
 6578SOL    HW131196   4.008   2.909   3.736  0.1066  1.8401  1.0057
 6578SOL    HW231197   4.090   2.819   3.659  0.9851  0.7474 -0.7887
 6579SOL     OW31198   2.938   1.566   5.063  0.2751  0.4065  0.5131
 6579SOL    HW131199   2.901   1.517   5.136  1.8380 -2.8024 -0.8427
 6579SOL    HW231200   3.029   1.536   5.062  0.4312  0.8062  2.0103
 6580SOL     OW31201   1.727   2.714  16.382  0.4969 -0.6785  0.3293
 6580SOL    HW131202   1.817   2.731  16.357 -0.3376  2.1622 -0.8178
 6580SOL    HW231203   1.671   2.773  16.332  0.2594 -0.5536  0.7391
 6581SOL     OW31204   1.115   1.089   8.199 -0.2203 -0.4767 -0.1911
 6581SOL    HW131205   1.080   1.158   8.256  1.9355  0.2336  0.2576
 6581SOL    HW231206   1.201   1.125   8.181 -0.2628 -0.1479  0.2599
 6582SOL     OW31207   1.029   0.148   3.697  0.7730 -0.2133  0.6270
 6582SOL    HW131208   1.044   0.235   3.734  1.3322 -0.0338 -0.0229
 6582SOL    HW231209   1.085   0.096   3.755  0.7879 -1.6682 -0.7006
 6583SOL     OW31210   3.826   2.332  16.505  0.0423 -0.1809 -0.1296
 6583SOL    HW131211   3.876   2.262  16.546 -0.2348  0.2438  0.9652
 6583SOL    HW231212   3.736   2.299  16.507  1.3122 -3.6665 -0.6682
 6584SOL     OW31213   2.573   4.637   4.848  0.1521  0.5200 -0.3916
 6584SOL    HW131214   2.624   4.631   4.929  1.4303  0.3548 -1.2016
 6584SOL    HW231215   2.489   4.661   4.887  0.5282  0.1847  0.6393
 6585SOL     OW31216   1.303   0.229  10.660  0.1192 -0.2941 -0.1875
 6585SOL    HW131217   1.218   0.228  10.617  0.3395  2.3644 -0.7070
 6585SOL    HW231218   1.298   0.176  10.739 -2.2844  0.8859  0.4443
 6586SOL     OW31219   0.179   0.117   9.381  0.0935  0.0175  0.2389
 6586SOL    HW131220   0.137   0.183   9.437 -1.7311 -0.3117 -0.7345
 6586SOL    HW231221   0.272   0.132   9.397  0.4295 -1.2736 -0.4761
 6587SOL     OW31222   0.032   4.264   1.437 -0.5997 -0.1990  0.1625
 6587SOL    HW131223   4.724   4.313   1.362 -1.7414 -2.9743 -1.1765
 6587SOL    HW231224   4.688   4.281   1.502 -0.9421  0.0783 -0.2776
 6588SOL     OW31225   1.010   1.856   8.739 -0.2507 -0.3849  0.1145
 6588SOL    HW131226   1.016   1.947   8.710  0.0574 -0.6891 -0.7800
 6588SOL    HW231227   1.090   1.824   8.698  0.7313  2.5374 -0.2828
 6589SOL     OW31228   1.556   2.745   6.768  0.3953  0.6156 -0.1504
 6589SOL    HW131229   1.526   2.809   6.832  1.8259 -0.5427  1.6588
 6589SOL    HW231230   1.650   2.747   6.783  0.6042 -2.4886 -0.9308
 6590SOL     OW31231   2.457   4.368  11.899 -0.4278 -0.5173 -0.4182
 6590SOL    HW131232   2.461   4.282  11.942  0.7881 -0.4783 -0.4495
 6590SOL    HW231233   2.528   4.359  11.835 -2.5873  0.4775 -2.9277
 6591SOL     OW31234   1.211   1.849   1.815 -0.0263 -0.1826 -0.4653
 6591SOL    HW131235   1.172   1.781   1.870  0.6979 -1.1090 -1.0975
 6591SOL    HW231236   1.232   1.915   1.882  3.9580 -1.7181 -0.1726
 6592SOL     OW31237   0.783   2.239  15.340 -0.1838 -0.3322  0.4148
 6592SOL    HW131238   0.867   2.195  15.354  0.5666  1.3065  1.1197
 6592SOL    HW231239   0.801   2.288  15.259  1.1891 -1.3390  0.1122
 6593SOL     OW31240   1.870   2.030   8.886  0.5377 -0.0988 -0.0976
 6593SOL    HW131241   1.944   2.088   8.901  1.1676 -0.7729 -0.6099
 6593SOL    HW231242   1.916   1.947   8.898 -2.2021 -1.4406  1.2943
 6594SOL     OW31243   0.599   4.337   5.816 -0.1727  0.1301 -0.7601
 6594SOL    HW131244   0.539   4.271   5.851  0.7003  0.7512  1.9252
 6594SOL    HW231245   0.614   4.298   5.730 -1.6054  0.8021 -1.3185
 6595SOL     OW31246   4.514   0.491  15.881 -0.0809 -0.2277 -0.3864
 6595SOL    HW131247   4.432   0.447  15.858 -0.1867  0.5402 -1.4736
 6595SOL    HW231248   4.472   0.576  15.894 -0.8465 -1.0168  2.3814
 6596SOL     OW31249   1.648   3.354   4.093 -0.5140 -0.0206  0.3873
 6596SOL    HW131250   1.712   3.322   4.157 -0.3396 -2.8061 -1.1989
 6596SOL    HW231251   1.695   3.431   4.062  0.1928 -0.4976  0.2754
 6597SOL     OW31252   3.637   2.207   6.283 -0.3742  0.6438 -0.0119
 6597SOL    HW131253   3.721   2.252   6.286 -0.9137  1.7462 -1.3274
 6597SOL    HW231254   3.590   2.257   6.351  0.2844  1.0352  0.1555
 6598SOL     OW31255   2.637   0.345  12.011  0.2461  0.0505  0.0668
 6598SOL    HW131256   2.650   0.283  11.939  1.3918  1.2002 -0.7173
 6598SOL    HW231257   2.674   0.289  12.078  3.2580  3.2272  1.0385
 6599SOL     OW31258   1.162   1.347   2.554  0.2191  0.4118 -0.5271
 6599SOL    HW131259   1.088   1.405   2.537  1.2584  1.0283 -3.0459
 6599SOL    HW231260   1.192   1.371   2.642  0.1117 -0.3946 -0.2711
 6600SOL     OW31261   0.815   2.144  14.043 -0.8627 -0.2827 -0.1248
 6600SOL    HW131262   0.822   2.173  14.134 -0.0985 -1.4673  0.1940
 6600SOL    HW231263   0.774   2.059  14.062 -0.8142 -0.4651 -0.8232
 6601SOL     OW31264   2.680   3.447   7.051  0.3668  0.0476 -0.2886
 6601SOL    HW131265   2.652   3.530   7.013  0.5204  0.3015  0.1574
 6601SOL    HW231266   2.613   3.387   7.018  0.5233 -0.3349  0.0886
 6602SOL     OW31267   1.155   3.719   7.802  0.4379  0.3388  0.0539
 6602SOL    HW131268   1.069   3.736   7.842  0.1347  1.0645 -0.9241
 6602SOL    HW231269   1.136   3.645   7.743  3.1545 -0.9103  0.7537
 6603SOL     OW31270   4.712   1.087   3.137  0.2751 -0.5381 -0.9555
 6603SOL    HW131271   4.654   1.072   3.063 -1.7326  1.1420  0.3076
 6603SOL    HW231272   0.053   1.025   3.105  1.0771  0.1262 -0.5840
 6604SOL     OW31273   0.212   2.201   8.076  0.3358  0.2899 -0.0601
 6604SOL    HW131274   0.120   2.195   8.050  0.6121 -1.0895 -0.7022
 6604SOL    HW231275   0.207   2.269   8.144 -1.0943 -1.5240  1.6562
 6605SOL     OW31276   4.513   2.972   8.246  0.1063 -0.0014 -0.0709
 6605SOL    HW131277   4.562   2.916   8.306  1.0356  1.8687  0.9073
 6605SOL    HW231278   4.573   3.045   8.233 -0.4227  0.6151  1.0040
 6606SOL     OW31279   3.290   4.450   2.976 -0.8466 -0.8934  0.6224
 6606SOL    HW131280   3.377   4.440   3.015  0.0966 -0.6452 -1.4186
 6606SOL    HW231281   3.297   4.405   2.892  1.1822  0.3445  0.1251
 6607SOL     OW31282   2.881   0.688  11.250 -0.0080  0.5471 -0.1059
 6607SOL    HW131283   2.791   0.688  11.216  0.5249 -2.6833 -1.4658
 6607SOL    HW231284   2.862   0.655  11.338  0.9741 -2.4015 -1.0208
 6608SOL     OW31285   3.939   1.454   6.608  0.0589 -0.2034 -0.2042
 6608SOL    HW131286   3.979   1.439   6.693  1.5119 -0.9444 -1.0165
 6608SOL    HW231287   4.015   1.453   6.550 -0.2028  4.0496 -0.6059
 6609SOL     OW31288   4.140   0.400   0.538  0.2298 -0.0885 -0.1376
 6609SOL    HW131289   4.051   0.417   0.507  0.0140 -0.2805  0.3751
 6609SOL    HW231290   4.116   0.318   0.582  0.8062 -1.6083 -2.6893
 6610SOL     OW31291   1.544   2.934   3.197 -0.1058 -0.0059 -0.4594
 6610SOL    HW131292   1.506   3.013   3.236 -3.4389 -1.9652  0.3193
 6610SOL    HW231293   1.476   2.868   3.211 -0.2103 -0.1259 -1.5324
 6611SOL     OW31294   2.539   0.644   3.922  0.3077 -0.5296 -0.2700
 6611SOL    HW131295   2.573   0.733   3.930  0.7931 -0.8470  1.2612
 6611SOL    HW231296   2.448   0.653   3.951 -0.0133  0.3029 -1.5425
 6612SOL     OW31297   0.096   1.254   6.343  0.3451  0.6742  0.0555
 6612SOL    HW131298   0.173   1.226   6.393  0.0049 -0.2150  0.0835
 6612SOL    HW231299   0.123   1.342   6.316  0.4327 -0.2256 -2.7603
 6613SOL     OW31300   0.389   2.442   7.639 -0.0778  0.0138  0.5234
 6613SOL    HW131301   0.337   2.363   7.626  1.5630 -1.2936  1.8644
 6613SOL    HW231302   0.443   2.411   7.712 -0.5190 -0.4683  0.6510
 6614SOL     OW31303   3.785   1.201   3.726 -0.3436  0.1760  0.6841
 6614SOL    HW131304   3.755   1.285   3.692 -4.1579 -1.7239 -0.7004
 6614SOL    HW231305   3.723   1.183   3.797 -1.3170  1.7600  0.2417
 6615SOL     OW31306   1.145   0.239   7.198  0.3694  0.5095 -0.0330
 6615SOL    HW131307   1.097   0.189   7.132 -2.0949  1.7761  0.7764
 6615SOL    HW231308   1.206   0.169   7.220 -0.0620 -0.2651 -1.2978
 6616SOL     OW31309   1.145   1.021   5.518 -0.1840 -0.0122 -0.4458
 6616SOL    HW131310   1.063   1.005   5.472 -0.8681  1.6323  0.2175
 6616SOL    HW231311   1.168   1.108   5.484  1.3403 -1.0386 -2.0757
 6617SOL     OW31312   3.083   0.916   9.278 -0.6768 -0.1361  0.1091
 6617SOL    HW131313   3.120   0.828   9.277 -1.8491 -0.6441  1.1781
 6617SOL    HW231314   2.990   0.895   9.268 -0.9430  0.1378  2.1317
 6618SOL     OW31315   2.225   2.320   0.954  0.0160  0.2320  0.9077
 6618SOL    HW131316   2.155   2.386   0.952  0.4577  0.6240 -1.1901
 6618SOL    HW231317   2.281   2.354   1.024  0.6248  1.4081 -0.1376
 6619SOL     OW31318   3.005   2.935  10.869 -0.0135 -0.1653 -0.0974
 6619SOL    HW131319   3.015   2.840  10.857 -0.2737 -0.2449  0.3114
 6619SOL    HW231320   2.916   2.923  10.901 -0.0127 -1.0683 -0.4134
 6620SOL     OW31321   1.035   1.357   7.343  0.5449 -0.0816 -0.0118
 6620SOL    HW131322   0.943   1.339   7.360  0.0366  0.0880 -2.5562
 6620SOL    HW231323   1.086   1.345   7.423  0.0395  1.6022  0.5510
 6621SOL     OW31324   3.879   2.671   2.316  0.1528 -0.2434 -0.2486
 6621SOL    HW131325   3.871   2.759   2.281 -3.6390 -1.0347 -1.3327
 6621SOL    HW231326   3.957   2.682   2.370 -0.0274  0.4349 -0.1278
 6622SOL     OW31327   1.469   1.397  15.025  0.0465  0.2807 -0.3332
 6622SOL    HW131328   1.492   1.312  15.061 -0.2443  1.4602  2.6935
 6622SOL    HW231329   1.432   1.438  15.104  0.5508 -0.4923  0.2949
 6623SOL     OW31330   1.897   0.318  11.350 -0.4336  0.0148 -0.1557
 6623SOL    HW131331   1.855   0.361  11.424 -0.3827 -0.0399 -0.0951
 6623SOL    HW231332   1.847   0.237  11.340 -0.0244 -0.2688  0.0715
 6624SOL     OW31333   2.013   3.365  10.462  0.1263  0.5740 -0.3200
 6624SOL    HW131334   1.998   3.412  10.544  1.6844  0.9234 -0.2405
 6624SOL    HW231335   2.100   3.387  10.431  0.6685 -0.5583  0.4050
 6625SOL     OW31336   2.271   0.173   5.961  0.2258 -0.2722 -0.6149
 6625SOL    HW131337   2.193   0.228   5.956 -0.1735 -1.0538 -2.8336
 6625SOL    HW231338   2.323   0.235   5.910  0.6060  0.0847  0.2134
 6626SOL     OW31339   3.706   4.398   6.492  0.2888  0.2920  0.4662
 6626SOL    HW131340   3.718   4.485   6.528  1.2294  1.2147 -2.0433
 6626SOL    HW231341   3.750   4.401   6.406 -0.2723  0.3978  0.1866
 6627SOL     OW31342   2.777   4.233   1.819 -0.6146 -0.0600  0.9568
 6627SOL    HW131343   2.870   4.257   1.815 -0.9237  1.6692  4.5844
 6627SOL    HW231344   2.782   4.139   1.838 -3.6223 -0.1475  1.1880
 6628SOL     OW31345   1.475   0.758  16.023  0.0903  0.2625  0.7262
 6628SOL    HW131346   1.520   0.837  15.994 -1.1364 -0.6535 -3.7767
 6628SOL    HW231347   1.403   0.796  16.074 -0.7165 -3.0791  2.1010
 6629SOL     OW31348   1.225   3.428   3.846 -0.6281  0.1021 -0.5627
 6629SOL    HW131349   1.178   3.502   3.886  0.2395  0.6789 -0.5982
 6629SOL    HW231350   1.286   3.401   3.915  0.6731  1.6812 -1.0964
 6630SOL     OW31351   1.790   3.377   0.958 -0.1130 -0.6513 -0.3580
 6630SOL    HW131352   1.755   3.316   0.892 -3.7419  0.9648  0.0335
 6630SOL    HW231353   1.857   3.320   0.996 -0.1525 -0.3969  0.0945
 6631SOL     OW31354   1.541   0.186  16.641 -0.0497 -0.5603  0.1197
 6631SOL    HW131355   1.567   0.101  16.605 -0.0974 -0.4350 -0.2104
 6631SOL    HW231356   1.503   0.159  16.725  2.1435 -2.7162  0.4290
 6632SOL     OW31357   0.415   3.775   7.132  0.4129 -0.1119 -0.0151
 6632SOL    HW131358   0.386   3.815   7.050 -0.5972 -1.9016 -0.5257
 6632SOL    HW231359   0.390   3.685   7.114  0.4513 -0.0986 -0.1366
 6633SOL     OW31360   0.745   0.264  14.551 -0.2570 -0.1330 -0.3870
 6633SOL    HW131361   0.819   0.208  14.576  0.5048  1.4313  0.8941
 6633SOL    HW231362   0.771   0.280  14.460  1.2807  0.3582  0.1317
 6634SOL     OW31363   0.111   2.594  11.850 -0.0917  0.4554  0.4810
 6634SOL    HW131364   0.061   2.650  11.791  0.4576 -0.1852 -0.5881
 6634SOL    HW231365   0.192   2.645  11.849  1.6362 -2.2924  0.8238
 6635SOL     OW31366   0.871   0.724   1.942 -0.3893 -0.1758  0.1153
 6635SOL    HW131367   0.953   0.704   1.896 -1.2626 -2.0027 -0.6149
 6635SOL    HW231368   0.821   0.645   1.924 -0.9525  0.5262 -1.4273
 6636SOL     OW31369   2.480   2.575   1.345  0.1676  0.2006 -0.0174
 6636SOL    HW131370   2.470   2.547   1.436  1.7091 -1.9965 -0.5409
 6636SOL    HW231371   2.565   2.532   1.336 -0.3400 -0.5848 -1.0480
 6637SOL     OW31372   3.597   2.489   5.711  0.0161 -0.1371 -0.0428
 6637SOL    HW131373   3.692   2.474   5.709 -0.3305 -2.4113  0.5622
 6637SOL    HW231374   3.592   2.583   5.697  0.0748 -0.4022 -1.7646
 6638SOL     OW31375   3.810   0.328   8.115 -0.0711 -1.2844  0.5871
 6638SOL    HW131376   3.859   0.394   8.066 -0.2323 -2.4283 -1.1177
 6638SOL    HW231377   3.806   0.355   8.207  2.0400  1.3387 -0.0783
 6639SOL     OW31378   1.913   0.165   4.718 -0.2652  0.3652  0.0893
 6639SOL    HW131379   1.893   0.158   4.811  0.3790  0.2641  0.2246
 6639SOL    HW231380   1.904   0.259   4.705 -2.0928  0.2224  0.3920
 6640SOL     OW31381   3.419   1.019   8.778 -0.2812 -0.2667  0.3778
 6640SOL    HW131382   3.431   1.077   8.703  1.8759  0.2013  1.0852
 6640SOL    HW231383   3.474   0.945   8.752 -1.6146 -1.2232  0.2524
 6641SOL     OW31384   2.250   1.792   9.187  0.1695  0.2980  0.2445
 6641SOL    HW131385   2.283   1.725   9.126  0.4152  0.5343  0.1135
 6641SOL    HW231386   2.156   1.795   9.170  0.3079  0.0800 -0.5583
 6642SOL     OW31387   4.620   2.252   6.556 -0.2132 -0.0159 -0.3418
 6642SOL    HW131388   4.665   2.319   6.504  0.2144 -0.6092 -0.7436
 6642SOL    HW231389   4.685   2.215   6.616  1.2556 -0.1994 -2.0344
 6643SOL     OW31390   1.345   3.903   8.247  0.4484 -0.8128 -0.4830
 6643SOL    HW131391   1.282   3.929   8.179  0.7185 -0.2203 -0.5072
 6643SOL    HW231392   1.391   3.986   8.259 -0.0172 -1.1186  3.3520
 6644SOL     OW31393   1.720   2.510   6.206  0.0299 -0.0932  0.8046
 6644SOL    HW131394   1.658   2.539   6.139 -0.3298 -2.2384  0.1751
 6644SOL    HW231395   1.794   2.533   6.151 -0.4018 -0.2398  0.1645
 6645SOL     OW31396   0.801   0.959   9.063 -0.2075 -0.2597  0.6067
 6645SOL    HW131397   0.756   1.005   9.134  0.1552  0.6401  0.2517
 6645SOL    HW231398   0.789   1.021   8.992 -0.4235  1.4636  2.1322
 6646SOL     OW31399   1.605   0.301   5.294 -0.2196 -0.6107 -0.5950
 6646SOL    HW131400   1.669   0.344   5.351  0.2777  0.1031 -1.6855
 6646SOL    HW231401   1.531   0.290   5.353 -1.3668 -0.7183 -2.0527
 6647SOL     OW31402   2.115   4.084  13.138 -0.6042 -0.2173  0.2544
 6647SOL    HW131403   2.174   4.009  13.141 -1.1523 -0.6616 -0.2743
 6647SOL    HW231404   2.049   4.060  13.204  0.7118 -1.4836  1.1173
 6648SOL     OW31405   4.371   3.012   3.533  0.1951 -0.0781 -0.4665
 6648SOL    HW131406   4.393   2.948   3.465  1.3860 -0.9163  0.7207
 6648SOL    HW231407   4.448   2.992   3.586  0.5351  0.4925 -0.7468
 6649SOL     OW31408   1.305   0.549   1.893  0.0362  0.0603 -0.2093
 6649SOL    HW131409   1.330   0.564   1.984  0.0030 -2.1089  0.1689
 6649SOL    HW231410   1.354   0.470   1.868 -0.5553 -0.3530 -0.0667
 6650SOL     OW31411   0.606   0.557   2.229  0.5215  0.3428 -0.2301
 6650SOL    HW131412   0.652   0.504   2.165 -1.3541 -0.8541 -0.5931
 6650SOL    HW231413   0.542   0.599   2.172 -1.8934  0.9808  2.9060
 6651SOL     OW31414   0.372   1.310  13.269  0.5462  0.4805  0.4917
 6651SOL    HW131415   0.453   1.361  13.261  1.5241 -0.9300  1.4586
 6651SOL    HW231416   0.387   1.268  13.353  2.2716 -1.7244 -0.8905
 6652SOL     OW31417   4.006   0.721  14.711 -1.0256  0.6139 -0.3540
 6652SOL    HW131418   3.948   0.739  14.637 -1.9357 -0.3774  0.1143
 6652SOL    HW231419   3.970   0.772  14.784  0.5401 -0.0651  0.8875
 6653SOL     OW31420   4.594   2.970   6.784 -0.5157  0.8981 -0.3355
 6653SOL    HW131421   4.544   2.991   6.705 -2.8087 -0.5260  0.7397
 6653SOL    HW231422   4.518   2.956   6.841 -0.7803  1.4013 -0.5614
 6654SOL     OW31423   0.504   4.146  13.665 -0.2501 -0.2040 -0.2702
 6654SOL    HW131424   0.498   4.179  13.755 -2.0833  1.0113 -0.8471
 6654SOL    HW231425   0.554   4.214  13.620  2.1168 -0.8233  1.3784
 6655SOL     OW31426   3.603   4.491  14.707 -0.3478 -0.0197 -0.0060
 6655SOL    HW131427   3.596   4.480  14.802  0.4377 -0.8573 -0.0526
 6655SOL    HW231428   3.595   4.587  14.705 -1.9679 -0.1346  1.2114
 6656SOL     OW31429   1.925   4.454  17.671  0.4423 -0.2501  0.7000
 6656SOL    HW131430   1.968   4.415  17.595  1.3892 -0.6600  1.4636
 6656SOL    HW231431   1.957   4.409   0.047  0.7339 -2.1608 -0.5284
 6657SOL     OW31432   0.872   1.099   5.463 -0.2985  0.0255  0.1459
 6657SOL    HW131433   0.796   1.143   5.427 -0.0033  0.2533 -0.1999
 6657SOL    HW231434   0.876   1.140   5.549 -1.1010  0.4365 -0.0186
 6658SOL     OW31435   4.690   3.080   0.461  0.1618  0.8970  0.0811
 6658SOL    HW131436   0.001   3.014   0.520  0.5216  0.6908 -0.3765
 6658SOL    HW231437   4.695   3.157   0.518 -0.0967  1.3982 -0.5713
 6659SOL     OW31438   1.910   3.659   1.027 -0.3950 -0.3563  0.0875
 6659SOL    HW131439   1.868   3.743   1.009 -1.2318 -0.9584 -0.7724
 6659SOL    HW231440   2.001   3.675   1.000  0.3157 -0.6356  2.3194
 6660SOL     OW31441   4.461   1.789   5.400 -0.4748 -0.4634 -0.5518
 6660SOL    HW131442   4.497   1.872   5.369  0.2568 -1.5044 -2.4159
 6660SOL    HW231443   4.373   1.803   5.364 -0.6460  2.2175  0.8348
 6661SOL     OW31444   0.922   3.703   2.714 -0.4482 -0.4037  0.5048
 6661SOL    HW131445   0.885   3.680   2.799 -2.1173  0.7177  0.0704
 6661SOL    HW231446   1.017   3.693   2.723 -0.7029 -0.8552  2.8039
 6662SOL     OW31447   4.497   4.107   4.776 -0.0601  0.4535 -0.0170
 6662SOL    HW131448   4.478   4.071   4.690 -2.0264 -0.4530  0.7918
 6662SOL    HW231449   4.447   4.188   4.768 -0.3255 -0.0002 -2.8404
 6663SOL     OW31450   2.838   4.363   6.913 -0.2572 -0.2565  0.2011
 6663SOL    HW131451   2.814   4.289   6.857 -0.5586  0.9647 -1.2673
 6663SOL    HW231452   2.918   4.400   6.875 -0.1481 -1.9756 -1.2398
 6664SOL     OW31453   2.395   2.476   2.027 -0.1965  0.0125  0.3358
 6664SOL    HW131454   2.447   2.405   1.989  0.1472 -0.6478  2.0263
 6664SOL    HW231455   2.374   2.439   2.113  1.7670 -1.4102  0.1938
 6665SOL     OW31456   0.371   0.455   3.676 -0.3084 -0.4531 -0.0832
 6665SOL    HW131457   0.296   0.498   3.634  1.8644  2.0513 -1.4044
 6665SOL    HW231458   0.429   0.445   3.600 -0.4794 -1.3667 -0.0859
 6666SOL     OW31459   4.355   0.770   5.247  0.4596  0.1616  0.1214
 6666SOL    HW131460   4.355   0.701   5.314  0.7364 -1.1096 -1.1935
 6666SOL    HW231461   4.280   0.739   5.196  1.2723 -1.3100 -0.1799
 6667SOL     OW31462   2.524   4.344  14.352 -1.0855 -0.4427 -0.2452
 6667SOL    HW131463   2.514   4.342  14.257  2.2636 -0.5516 -0.5953
 6667SOL    HW231464   2.495   4.253  14.366  1.0703 -1.1334 -0.2515
 6668SOL     OW31465   3.520   0.459   1.834  0.1055 -0.0118 -0.1842
 6668SOL    HW131466   3.474   0.391   1.883  0.3643  0.2415  0.4116
 6668SOL    HW231467   3.587   0.408   1.787  2.1205  1.3699  1.1690
 6669SOL     OW31468   1.401   2.320   3.623  0.1324  0.0582 -0.0463
 6669SOL    HW131469   1.439   2.283   3.702  0.0420  1.1020  0.4813
 6669SOL    HW231470   1.426   2.264   3.549 -1.1610 -0.5266 -0.0331
 6670SOL     OW31471   1.197   0.283   8.310  0.2285 -0.4071 -0.1845
 6670SOL    HW131472   1.244   0.360   8.277 -3.3929  2.9119  2.4954
 6670SOL    HW231473   1.110   0.321   8.319  2.0078  3.1241  1.7011
 6671SOL     OW31474   4.604   2.358   0.150  0.2548 -0.0817 -0.6362
 6671SOL    HW131475   4.608   2.367   0.245  1.8811 -2.0124 -0.5303
 6671SOL    HW231476   4.514   2.325   0.144  0.4314 -0.4054 -1.4890
 6672SOL     OW31477   1.063   4.242   5.614  0.3985 -0.0520  0.3425
 6672SOL    HW131478   1.143   4.220   5.664  1.8560  1.4692 -1.3286
 6672SOL    HW231479   1.016   4.159   5.623 -2.1420  1.5964  2.2194
 6673SOL     OW31480   1.734   3.876   3.026 -0.6496  0.1413  0.3513
 6673SOL    HW131481   1.824   3.903   3.007 -0.5273 -1.0938 -0.8688
 6673SOL    HW231482   1.715   3.821   2.950  0.5358  0.5570 -0.2412
 6674SOL     OW31483   3.881   4.060   7.247  0.4691 -0.1325  0.3070
 6674SOL    HW131484   3.875   4.018   7.161  0.1943 -0.1016  0.3100
 6674SOL    HW231485   3.973   4.086   7.251  0.7337 -0.9856 -0.3867
 6675SOL     OW31486   1.731   3.425   5.177  0.2458  0.2572 -0.1635
 6675SOL    HW131487   1.648   3.381   5.159  0.7488 -1.0712  0.7302
 6675SOL    HW231488   1.714   3.446   5.268 -0.5482 -3.4995  0.5764
 6676SOL     OW31489   2.777   3.796   4.841 -0.6084 -0.3183 -0.2294
 6676SOL    HW131490   2.807   3.808   4.751  0.7795  1.5765  0.4703
 6676SOL    HW231491   2.820   3.874   4.878 -1.4912 -0.4684  1.0729
 6677SOL     OW31492   1.981   1.331   0.651  0.0494 -0.6622 -0.0710
 6677SOL    HW131493   1.970   1.376   0.567  1.1810  1.3032  0.8349
 6677SOL    HW231494   1.891   1.327   0.682  0.2928  1.9940  0.9613
 6678SOL     OW31495   1.234   3.556   9.578  0.0221  0.0672  0.0932
 6678SOL    HW131496   1.217   3.623   9.644  0.3913 -1.7201  2.0407
 6678SOL    HW231497   1.198   3.480   9.625  0.4231 -0.2033 -0.0359
 6679SOL     OW31498   4.004   2.577   5.407 -0.1242  0.3615 -0.1215
 6679SOL    HW131499   4.055   2.552   5.330  0.5684 -0.3139  0.5561
 6679SOL    HW231500   4.028   2.666   5.430  1.4794 -0.1017 -0.0137
 6680SOL     OW31501   4.299   4.246   9.041  0.7716  0.1790  0.2618
 6680SOL    HW131502   4.327   4.157   9.021 -0.6883 -0.2908  0.3164
 6680SOL    HW231503   4.212   4.210   9.057 -0.5171  2.5166 -1.4218
 6681SOL     OW31504   3.087   0.104   6.539 -0.1468  0.4572 -0.5285
 6681SOL    HW131505   3.176   0.084   6.510 -0.1632  1.0034 -0.9540
 6681SOL    HW231506   3.107   0.171   6.606 -0.6884 -0.0699  0.1577
 6682SOL     OW31507   3.482   3.015  12.200  0.1619  0.5746  0.4706
 6682SOL    HW131508   3.540   3.091  12.205  2.1905 -0.9473  0.2667
 6682SOL    HW231509   3.426   3.065  12.141 -1.7424  0.0850  1.8445
 6683SOL     OW31510   0.609   3.477   8.382  0.0941 -0.2305  0.0424
 6683SOL    HW131511   0.653   3.537   8.441 -0.4737 -0.3359  0.5640
 6683SOL    HW231512   0.684   3.454   8.327  0.0041  0.3554 -0.3271
 6684SOL     OW31513   3.455   1.080   1.532 -0.2968  0.5098 -0.0759
 6684SOL    HW131514   3.443   0.988   1.554  2.0978  0.5828  1.5860
 6684SOL    HW231515   3.545   1.104   1.556 -1.1944  3.6342  0.1612
 6685SOL     OW31516   3.663   2.676   7.646  0.3318 -0.2243  0.3949
 6685SOL    HW131517   3.710   2.598   7.616 -0.9020 -0.5350 -0.7254
 6685SOL    HW231518   3.602   2.628   7.702  0.4886 -0.5058  0.3239
 6686SOL     OW31519   1.027   2.494   8.081 -0.3595 -0.6376  0.2276
 6686SOL    HW131520   0.956   2.546   8.118  2.4999  3.0293  0.6064
 6686SOL    HW231521   0.989   2.407   8.071  0.1702 -0.9867  1.3086
 6687SOL     OW31522   0.327   2.693   2.832 -0.5148  0.0995  0.7317
 6687SOL    HW131523   0.287   2.770   2.872 -1.2216  0.3428 -0.4715
 6687SOL    HW231524   0.414   2.688   2.873 -0.7530 -1.2259  1.0741
 6688SOL     OW31525   0.364   1.765   3.354  0.4910  0.0840  0.0913
 6688SOL    HW131526   0.321   1.847   3.329  1.0327  0.6973  1.1758
 6688SOL    HW231527   0.368   1.789   3.446  0.6410  2.0398 -0.4220
 6689SOL     OW31528   0.763   2.715   2.725 -0.8336  0.1711  0.2894
 6689SOL    HW131529   0.694   2.728   2.790 -0.0385  2.5369  0.6512
 6689SOL    HW231530   0.786   2.623   2.734  1.1094  0.5909 -0.4076
 6690SOL     OW31531   3.960   4.412   5.347 -0.7303  0.2602 -0.3096
 6690SOL    HW131532   4.052   4.426   5.370 -0.0963 -1.0175 -2.0925
 6690SOL    HW231533   3.912   4.415   5.429  0.6234  0.9918  0.4684
 6691SOL     OW31534   4.005   0.307   2.159 -0.0163 -0.6550 -0.0966
 6691SOL    HW131535   4.037   0.395   2.180  0.9125 -1.2204  0.8500
 6691SOL    HW231536   3.925   0.332   2.113 -0.5421  2.0560  2.2505
 6692SOL     OW31537   4.438   1.224  14.720  0.1392 -0.7170  0.8934
 6692SOL    HW131538   4.462   1.183  14.638 -0.9482 -1.6522  1.0431
 6692SOL    HW231539   4.429   1.316  14.695  1.5051  0.0795  3.2736
 6693SOL     OW31540   1.870   3.305  11.266 -0.4375  0.2167 -0.1428
 6693SOL    HW131541   1.939   3.359  11.306 -2.3317  2.2036  0.4754
 6693SOL    HW231542   1.792   3.355  11.291  0.6561  0.9424  1.7913
 6694SOL     OW31543   0.955   3.417   4.445  0.0513  0.0907  0.4021
 6694SOL    HW131544   0.906   3.491   4.410 -0.5758 -0.2504  0.5474
 6694SOL    HW231545   0.984   3.449   4.530  2.9732  0.4848 -0.7609
 6695SOL     OW31546   0.292   1.536  14.660 -0.5139  0.0845  0.9413
 6695SOL    HW131547   0.342   1.606  14.618  3.3209 -3.5018 -0.4176
 6695SOL    HW231548   0.273   1.579  14.744  2.4632 -0.4486  1.8901
 6696SOL     OW31549   3.070   3.906   9.141  0.2400  0.1784  0.3253
 6696SOL    HW131550   3.125   3.929   9.066 -1.2798  0.4261 -0.7231
 6696SOL    HW231551   3.011   3.981   9.156  0.5497  0.4476  0.2012
 6697SOL     OW31552   1.250   1.792   3.606  0.1893 -0.6342 -0.2874
 6697SOL    HW131553   1.253   1.813   3.512 -0.3150 -0.1353 -0.1931
 6697SOL    HW231554   1.337   1.821   3.633 -0.3739  1.4132 -0.6481
 6698SOL     OW31555   4.572   0.205   5.299  0.2804 -0.7587  0.1614
 6698SOL    HW131556   4.615   0.195   5.384 -0.7420  0.4952  0.8235
 6698SOL    HW231557   4.518   0.127   5.296 -0.0055 -0.5153 -1.1864
 6699SOL     OW31558   2.875   2.274   1.120 -0.2044 -0.3607  0.0926
 6699SOL    HW131559   2.947   2.276   1.057 -0.0519 -0.8671  0.2563
 6699SOL    HW231560   2.813   2.216   1.075 -0.3589 -0.4966  0.4887
 6700SOL     OW31561   2.356   4.447  15.965 -0.0607  0.1808 -0.2471
 6700SOL    HW131562   2.364   4.354  15.943  1.3280 -0.4158  2.7639
 6700SOL    HW231563   2.359   4.446  16.060 -4.5904 -2.5529 -0.1357
 6701SOL     OW31564   1.004   1.246   4.523 -0.2581  0.0824 -0.0654
 6701SOL    HW131565   1.070   1.220   4.459 -0.9834 -0.9028 -0.4065
 6701SOL    HW231566   0.919   1.219   4.488  0.2976 -1.5571 -0.1454
 6702SOL     OW31567   4.623   4.281   1.754  0.3225  0.6150  0.8183
 6702SOL    HW131568   4.600   4.235   1.835 -0.5673  1.1285  0.8601
 6702SOL    HW231569   4.714   4.252   1.754  0.0829 -0.1239  0.9259
 6703SOL     OW31570   3.143   0.997   7.828  0.2524  0.1140 -0.3281
 6703SOL    HW131571   3.192   1.018   7.908 -1.0984  0.1852  0.4907
 6703SOL    HW231572   3.188   0.921   7.791  1.3718 -0.3947  2.0495
 6704SOL     OW31573   4.471   3.191   3.282  0.9261  0.1503 -0.0059
 6704SOL    HW131574   4.455   3.097   3.284  1.1242  0.1533  1.6865
 6704SOL    HW231575   4.439   3.210   3.194  0.5989  2.4267  0.6157
 6705SOL     OW31576   1.529   3.104   9.781 -0.0611  0.2013  0.4314
 6705SOL    HW131577   1.554   3.050   9.855  0.6070 -3.0019 -2.1063
 6705SOL    HW231578   1.603   3.083   9.724 -0.5840 -0.6110  0.0442
 6706SOL     OW31579   3.092   1.888   5.308  0.0689  0.5355  0.3710
 6706SOL    HW131580   3.026   1.822   5.329  0.8993 -0.4794 -0.2483
 6706SOL    HW231581   3.169   1.850   5.350 -0.2866 -1.7906 -1.1193
 6707SOL     OW31582   3.733   1.106  11.054  0.6464 -0.6070 -0.6327
 6707SOL    HW131583   3.730   1.032  11.114  0.1272  1.2408  1.6527
 6707SOL    HW231584   3.677   1.178  11.084  1.9345 -0.6965  1.9525
 6708SOL     OW31585   0.822   3.274   1.676 -0.1618  0.3907 -0.3380
 6708SOL    HW131586   0.870   3.345   1.633  1.8952  0.3376  1.8945
 6708SOL    HW231587   0.890   3.248   1.738 -1.9137  1.7434  2.1522
 6709SOL     OW31588   4.655   1.050  10.683  0.2776  0.3567  0.3337
 6709SOL    HW131589   4.679   1.089  10.767  0.8796 -1.5050  1.0116
 6709SOL    HW231590   4.611   1.121  10.635 -0.9831  1.2839  2.8859
 6710SOL     OW31591   2.871   0.947   9.052  0.7410 -0.2370  0.4665
 6710SOL    HW131592   2.811   1.019   9.072  2.2174  0.4925  2.2942
 6710SOL    HW231593   2.818   0.873   9.080 -2.1127  2.0212  1.1234
 6711SOL     OW31594   4.268   3.449   5.015  0.4768 -0.0617 -0.8781
 6711SOL    HW131595   4.247   3.543   5.019 -1.1063 -0.4519  0.0792
 6711SOL    HW231596   4.229   3.410   5.094 -0.8084  1.8833 -0.5440
 6712SOL     OW31597   1.272   2.988   6.031 -0.1830  0.1372  0.5526
 6712SOL    HW131598   1.239   3.077   6.047 -1.9204 -0.0739 -1.7658
 6712SOL    HW231599   1.299   3.000   5.940 -0.9188  0.6934  0.4004
 6713SOL     OW31600   4.625   4.220   3.674  0.6727 -0.0744 -0.2446
 6713SOL    HW131601   4.550   4.211   3.733  0.6811  0.2624 -0.1822
 6713SOL    HW231602   4.688   4.284   3.708 -0.4889 -0.1294  2.0114
 6714SOL     OW31603   3.903   1.360   7.615  0.4737 -0.7964 -0.8686
 6714SOL    HW131604   3.837   1.427   7.597 -0.4694 -1.6187 -0.4356
 6714SOL    HW231605   3.882   1.287   7.556 -0.8185 -1.3794  0.3217
 6715SOL     OW31606   3.050   0.114   6.018  0.1288  0.4227 -0.2225
 6715SOL    HW131607   3.002   0.123   5.935 -0.6275 -1.5567 -0.0188
 6715SOL    HW231608   3.111   0.187   6.025 -0.5560  1.0050 -0.2852
 6716SOL     OW31609   3.939   4.417   7.187  0.4318 -0.6873  0.1666
 6716SOL    HW131610   3.923   4.323   7.191 -0.5470 -0.5762 -1.0186
 6716SOL    HW231611   3.886   4.447   7.112 -0.2168 -0.3395  0.7641
 6717SOL     OW31612   2.060   1.981   2.674  0.3625  0.0757  0.7590
 6717SOL    HW131613   2.019   2.066   2.658 -0.5215 -0.6276 -0.6755
 6717SOL    HW231614   2.147   2.002   2.641 -0.2998  1.4968 -0.0761
 6718SOL     OW31615   2.711   1.399  13.665  0.4559 -0.3620  0.1638
 6718SOL    HW131616   2.744   1.484  13.636  0.2790 -0.4737 -0.3686
 6718SOL    HW231617   2.781   1.354  13.619  1.0878  2.4434 -1.6122
 6719SOL     OW31618   4.218   2.011  17.153 -0.0220  0.1158 -0.4016
 6719SOL    HW131619   4.174   1.927  17.139 -0.8084  0.2753  1.1210
 6719SOL    HW231620   4.297   1.986  17.201  1.2566  0.7557 -2.1708
 6720SOL     OW31621   1.471   2.549   4.766 -0.1076 -0.2424  0.0578
 6720SOL    HW131622   1.475   2.583   4.677  1.7702  0.0228  0.2404
 6720SOL    HW231623   1.446   2.628   4.815  1.3967  0.5183 -0.3968
 6721SOL     OW31624   3.638   0.344  15.914  0.1507  0.5330  0.0932
 6721SOL    HW131625   3.708   0.279  15.920 -0.8317 -0.5690 -0.5488
 6721SOL    HW231626   3.624   0.345  16.009  0.3658 -0.3962  0.1361
 6722SOL     OW31627   0.839   1.450  13.219 -0.0729  0.0438 -0.3923
 6722SOL    HW131628   0.930   1.472  13.236 -0.3637 -0.1734  1.5551
 6722SOL    HW231629   0.832   1.482  13.129 -0.9465 -0.1571 -0.4026
 6723SOL     OW31630   4.235   4.678   4.205  0.3560  0.0273  0.4633
 6723SOL    HW131631   4.271   4.608   4.150 -1.0893  0.0262 -0.4922
 6723SOL    HW231632   4.159   4.706   4.153  0.0523 -1.6134 -0.0034
 6724SOL     OW31633   4.181   0.631   6.639  0.0341 -0.7042 -0.0763
 6724SOL    HW131634   4.168   0.667   6.551 -0.9994  0.6587  0.6288
 6724SOL    HW231635   4.143   0.706   6.685  1.5356  1.6674 -2.6833
 6725SOL     OW31636   4.110   0.427   4.402 -0.1307  0.3564 -0.2986
 6725SOL    HW131637   4.075   0.461   4.485  0.0268  2.2862 -1.0307
 6725SOL    HW231638   4.204   0.426   4.420 -0.4572 -3.0992  1.3080
 6726SOL     OW31639   1.937   1.249   4.710  0.5407  0.1705 -0.2209
 6726SOL    HW131640   2.001   1.231   4.778  1.4460  1.4758 -0.7348
 6726SOL    HW231641   1.882   1.171   4.701 -0.4344  0.6868  1.1860
 6727SOL     OW31642   4.108   3.221   2.419  0.4380  0.3158 -0.1597
 6727SOL    HW131643   4.083   3.296   2.365 -0.8665 -1.0311 -1.4070
 6727SOL    HW231644   4.144   3.156   2.359  3.1959  1.0734  0.6631
 6728SOL     OW31645   4.278   1.938   1.282 -0.4127  0.2999 -0.0661
 6728SOL    HW131646   4.243   1.977   1.362 -2.0069  0.4409 -0.8340
 6728SOL    HW231647   4.322   1.859   1.315  0.6876  1.2302  0.6735
 6729SOL     OW31648   2.044   3.215   8.364 -0.6969 -0.7939 -0.2252
 6729SOL    HW131649   1.976   3.278   8.387 -1.2719 -0.7241 -2.1398
 6729SOL    HW231650   2.128   3.246   8.397 -0.9153 -1.4746  0.9942
 6730SOL     OW31651   3.807   1.457   8.902  0.0810 -0.0135 -0.1089
 6730SOL    HW131652   3.769   1.545   8.905  3.2027  1.2899  1.1796
 6730SOL    HW231653   3.901   1.471   8.898  0.1059 -0.4453 -1.0292
 6731SOL     OW31654   0.601   1.640   0.189 -0.2425  0.7424  0.3511
 6731SOL    HW131655   0.671   1.673   0.245  0.7215 -0.1098 -0.3460
 6731SOL    HW231656   0.622   1.681   0.105  0.0946  1.0507  0.5887
 6732SOL     OW31657   2.028   4.084   5.156 -0.1172 -0.0678 -0.2710
 6732SOL    HW131658   1.941   4.124   5.152 -0.4542 -0.9070 -1.2691
 6732SOL    HW231659   2.074   4.114   5.235 -1.6281  0.5032  0.3969
 6733SOL     OW31660   3.948   1.237   8.277 -0.1340  0.1126 -0.6079
 6733SOL    HW131661   3.916   1.166   8.221 -1.5335 -0.1917  0.5892
 6733SOL    HW231662   4.030   1.201   8.310  0.9127  0.5930 -2.6538
 6734SOL     OW31663   4.619   0.436  13.490  0.2271 -0.2224 -0.3182
 6734SOL    HW131664   4.531   0.438  13.527  0.3535 -1.2030  0.0355
 6734SOL    HW231665   4.662   0.419  13.574 -0.8475 -2.0835 -0.1498
 6735SOL     OW31666   1.777   0.429   9.768  0.8165  0.6573 -0.1021
 6735SOL    HW131667   1.826   0.401   9.691 -0.1560 -2.5152  0.4284
 6735SOL    HW231668   1.690   0.396   9.748  1.0492  0.6704 -1.1430
 6736SOL     OW31669   1.063   2.785   2.658  0.2343  0.1260  0.2748
 6736SOL    HW131670   0.988   2.746   2.704  0.6474  1.0371  1.7168
 6736SOL    HW231671   1.033   2.800   2.569 -2.0721 -0.8528  0.8687
 6737SOL     OW31672   1.518   1.978   1.420  0.0872  0.0227 -0.4412
 6737SOL    HW131673   1.607   1.994   1.449  0.6187 -0.0704 -2.0094
 6737SOL    HW231674   1.538   1.954   1.329 -0.8100 -1.1641 -0.3364
 6738SOL     OW31675   3.854   0.831   2.296 -0.1014  0.0196 -0.0540
 6738SOL    HW131676   3.937   0.824   2.248  0.4860 -0.7929  1.0975
 6738SOL    HW231677   3.798   0.850   2.221 -0.8820  0.8815  0.7600
 6739SOL     OW31678   0.999   1.159   6.402 -0.0369  0.6617  0.0511
 6739SOL    HW131679   1.017   1.184   6.312 -1.3887  0.3094 -0.3051
 6739SOL    HW231680   0.924   1.215   6.418 -0.1176 -0.6121  4.3813
 6740SOL     OW31681   2.496   1.703   0.497 -0.1072 -0.1804 -0.8618
 6740SOL    HW131682   2.547   1.631   0.534 -2.4668 -1.3128  0.1973
 6740SOL    HW231683   2.462   1.736   0.581 -0.6162  0.4694 -1.3186
 6741SOL     OW31684   4.593   0.958   3.455  0.2862 -0.2377 -0.0501
 6741SOL    HW131685   4.626   1.032   3.404  0.4452 -1.7879 -2.2141
 6741SOL    HW231686   4.500   0.947   3.432 -0.2596 -0.5857  2.3880
 6742SOL     OW31687   2.253   3.540  11.907 -0.0652  0.1257 -0.2556
 6742SOL    HW131688   2.252   3.604  11.978  1.4907  1.2635 -1.2698
 6742SOL    HW231689   2.209   3.463  11.942 -1.1626 -0.3991 -2.7900
 6743SOL     OW31690   1.168   3.926   8.057  0.3611 -0.0228  0.4061
 6743SOL    HW131691   1.101   3.865   8.025  0.5846 -0.5103  0.8651
 6743SOL    HW231692   1.141   4.009   8.018  2.2870  0.0204 -0.8490
 6744SOL     OW31693   1.692   2.680  11.593  0.5479 -0.1226  0.0158
 6744SOL    HW131694   1.731   2.759  11.556 -0.4121  0.6966  0.7296
 6744SOL    HW231695   1.751   2.616  11.554  2.3129  1.3232  0.3251
 6745SOL     OW31696   2.683   2.361   5.259 -0.2217 -0.6738  0.2431
 6745SOL    HW131697   2.619   2.326   5.198 -0.6202  0.3577  0.0695
 6745SOL    HW231698   2.717   2.432   5.204 -3.0729 -0.1611 -0.8271
 6746SOL     OW31699   1.965   1.310  13.215  0.2417 -0.4769 -0.6437
 6746SOL    HW131700   2.003   1.397  13.229 -0.2627  0.0018 -2.1791
 6746SOL    HW231701   1.964   1.319  13.120  0.8503 -1.7954 -0.7772
 6747SOL     OW31702   1.822   0.266  15.344  0.6791  0.6321  0.1745
 6747SOL    HW131703   1.758   0.203  15.378  1.3780 -0.1189  0.0916
 6747SOL    HW231704   1.767   0.314  15.283 -0.7784 -2.4128 -0.9203
 6748SOL     OW31705   4.387   0.763  15.189 -0.5811  0.7922  0.9438
 6748SOL    HW131706   4.305   0.757  15.139  0.2035  0.9852 -0.3703
 6748SOL    HW231707   4.418   0.675  15.170  1.8781  2.4033 -2.5313
 6749SOL     OW31708   0.177   1.948   7.935 -0.4077  0.1692 -0.1803
 6749SOL    HW131709   0.172   2.000   7.855  2.3368  0.5013 -0.1433
 6749SOL    HW231710   0.265   1.975   7.962 -0.8119  0.9606  0.3389
 6750SOL     OW31711   3.725   2.455   1.518  0.7630  0.3109  0.3045
 6750SOL    HW131712   3.768   2.503   1.448  1.4435 -0.4422  0.2064
 6750SOL    HW231713   3.648   2.446   1.462  0.7571  2.2100  0.0259
 6751SOL     OW31714   1.328   2.758   4.551 -1.0178  0.1900  0.2073
 6751SOL    HW131715   1.234   2.767   4.565 -1.2716 -0.0361 -1.2709
 6751SOL    HW231716   1.322   2.723   4.462 -0.8820 -0.7101  0.5505
 6752SOL     OW31717   0.737   3.366  10.439 -0.0377 -0.1906 -0.5299
 6752SOL    HW131718   0.793   3.444  10.439 -0.4323  0.0900 -0.1938
 6752SOL    HW231719   0.647   3.396  10.444 -0.6893 -1.8029 -2.5680
 6753SOL     OW31720   0.125   3.505   3.112  0.6465 -0.2325 -0.1553
 6753SOL    HW131721   0.034   3.478   3.113  0.7693 -0.6879 -1.2770
 6753SOL    HW231722   0.110   3.593   3.077 -0.8147 -0.2573  0.4216
 6754SOL     OW31723   0.767   1.853   8.618 -0.3719 -0.2126  0.6086
 6754SOL    HW131724   0.788   1.890   8.532  0.1948 -0.8224  0.4878
 6754SOL    HW231725   0.849   1.832   8.661  0.4752  0.0656 -0.8678
 6755SOL     OW31726   2.510   2.899   1.694  0.7271 -0.8904 -0.3888
 6755SOL    HW131727   2.457   2.977   1.713  0.9415 -0.9510  0.4291
 6755SOL    HW231728   2.540   2.925   1.607  5.4312 -1.0048  1.2297
 6756SOL     OW31729   4.663   0.123  14.621 -0.4861 -0.3538  0.4068
 6756SOL    HW131730   4.642   0.216  14.632  2.0626  0.1780  0.8231
 6756SOL    HW231731   0.030   0.129  14.596 -0.2347  0.3748  1.4849
 6757SOL     OW31732   4.295   3.922   6.715 -0.1471 -0.4295  0.0208
 6757SOL    HW131733   4.372   3.962   6.675 -0.6853  0.4511 -0.1596
 6757SOL    HW231734   4.228   3.968   6.664 -0.5128  0.9608  1.7583
 6758SOL     OW31735   3.728   0.457   4.599 -0.0028 -0.3025 -0.4501
 6758SOL    HW131736   3.642   0.465   4.639 -1.1098  1.0723 -3.1458
 6758SOL    HW231737   3.786   0.483   4.671 -0.1175  0.7866 -0.7403
 6759SOL     OW31738   1.835   3.228  10.277 -0.1407 -0.6583 -0.1157
 6759SOL    HW131739   1.874   3.259  10.359  1.8469 -0.2522 -1.2147
 6759SOL    HW231740   1.742   3.245  10.292 -0.0985 -1.2233  0.7677
 6760SOL     OW31741   1.865   3.257  10.963  0.1150  0.2108 -0.1552
 6760SOL    HW131742   1.776   3.241  10.930 -0.1216 -0.9435  1.0284
 6760SOL    HW231743   1.860   3.262  11.058  0.6778 -0.9119 -0.0739
 6761SOL     OW31744   2.615   1.794   6.895 -0.3583 -0.1757 -0.4266
 6761SOL    HW131745   2.607   1.777   6.989  0.1665 -2.9222 -0.8877
 6761SOL    HW231746   2.586   1.885   6.893  0.2497 -0.0070 -1.3748
 6762SOL     OW31747   0.269   4.277   5.533  0.3248  0.0459  0.1661
 6762SOL    HW131748   0.347   4.223   5.519 -0.0908 -0.6110  0.3643
 6762SOL    HW231749   0.285   4.351   5.473 -1.6879  0.9751  0.7854
 6763SOL     OW31750   4.012   0.997   4.347 -0.0980  0.1629  0.2038
 6763SOL    HW131751   3.979   0.912   4.319  0.7250 -0.1906  0.3175
 6763SOL    HW231752   4.081   1.012   4.282  2.4725 -0.9597  2.6977
 6764SOL     OW31753   1.055   3.087   5.593  0.0168 -0.0945 -0.2928
 6764SOL    HW131754   1.001   3.068   5.516 -1.7742 -1.4460  1.2766
 6764SOL    HW231755   1.051   3.183   5.598 -0.6826  0.0098 -2.9090
 6765SOL     OW31756   1.206   1.697   4.850  0.0870  0.2072  0.0071
 6765SOL    HW131757   1.152   1.635   4.800  1.0300  1.2444 -2.3070
 6765SOL    HW231758   1.256   1.739   4.779  1.7037 -2.4531 -0.4113
 6766SOL     OW31759   3.900   3.756   7.440  0.2215  0.3515  0.1552
 6766SOL    HW131760   3.862   3.809   7.510  0.0806 -1.2695  1.3091
 6766SOL    HW231761   3.833   3.730   7.377  1.2048  0.3434 -0.8982
 6767SOL     OW31762   1.879   4.068   1.675 -0.5133  0.0960  0.6633
 6767SOL    HW131763   1.788   4.061   1.704 -0.5060  2.1380  1.2195
 6767SOL    HW231764   1.930   4.133   1.723 -0.9515  1.0851 -0.2165
 6768SOL     OW31765   3.522   3.573   4.388  0.1852  0.5161 -0.5547
 6768SOL    HW131766   3.513   3.553   4.481 -2.0247 -1.4513 -1.2009
 6768SOL    HW231767   3.579   3.649   4.398 -0.4727  0.9700 -0.2274
 6769SOL     OW31768   3.219   2.535   1.994  0.1586  0.1759 -0.1560
 6769SOL    HW131769   3.238   2.580   2.076 -0.0496 -0.5422  0.2916
 6769SOL    HW231770   3.152   2.475   2.029  0.1066 -0.1869 -0.8576
 6770SOL     OW31771   2.679   2.368  11.694  0.1211  0.0678  0.0780
 6770SOL    HW131772   2.703   2.279  11.723 -1.1330  0.1576  1.4061
 6770SOL    HW231773   2.666   2.358  11.600 -1.6851  1.9818  0.1322
 6771SOL     OW31774   0.444   1.819   3.609  0.0192  0.3758  0.0864
 6771SOL    HW131775   0.496   1.888   3.651 -0.2621 -0.0405  1.1215
 6771SOL    HW231776   0.381   1.807   3.680  0.5397 -2.8268  0.0044
 6772SOL     OW31777   2.702   4.713   0.724  0.0308 -0.1318 -0.4619
 6772SOL    HW131778   2.614   4.681   0.703 -0.2074  0.5403 -0.4935
 6772SOL    HW231779   2.751   4.636   0.753 -0.5049 -0.4681 -0.4357
 6773SOL     OW31780   0.027   1.070   8.279 -0.1763 -0.4826 -0.0315
 6773SOL    HW131781   4.674   1.108   8.238  0.1193 -1.1667 -1.2363
 6773SOL    HW231782   0.036   0.983   8.239  0.0448 -0.7494  0.6052
 6774SOL     OW31783   4.607   2.912   5.272  0.9531  0.4369  0.2812
 6774SOL    HW131784   4.629   2.944   5.185  0.8549  0.0448  0.1143
 6774SOL    HW231785   4.569   2.825   5.261  0.1490  0.7430  0.6478
 6775SOL     OW31786   0.446   3.345   2.373  0.7159  0.1386  0.5617
 6775SOL    HW131787   0.383   3.407   2.409 -0.3387 -1.3552  1.2716
 6775SOL    HW231788   0.521   3.405   2.365 -0.7717  1.7124 -1.4015
 6776SOL     OW31789   0.339   0.995   6.968 -0.1773 -0.0293 -0.0975
 6776SOL    HW131790   0.367   1.086   6.976 -2.1119  0.5679 -0.0094
 6776SOL    HW231791   0.401   0.944   7.019  0.4696 -0.3085 -1.1489
 6777SOL     OW31792   4.310   0.991  17.457 -0.3167 -0.2111 -0.7278
 6777SOL    HW131793   4.359   0.958  17.532  1.6462  1.1708 -1.4041
 6777SOL    HW231794   4.289   0.917  17.401 -1.3246 -1.1485  0.8977
 6778SOL     OW31795   0.381   4.564   2.741  0.0569 -0.1041 -0.0700
 6778SOL    HW131796   0.424   4.491   2.697  1.6397  0.4437  0.5531
 6778SOL    HW231797   0.432   4.625   2.687 -1.9112 -0.3376 -2.2080
 6779SOL     OW31798   3.731   1.175   9.234 -0.1067 -0.1130 -0.0347
 6779SOL    HW131799   3.675   1.150   9.160  0.9726  0.8445 -1.1932
 6779SOL    HW231800   3.682   1.143   9.309  1.2720 -0.5767  0.6639
 6780SOL     OW31801   0.896   0.309   0.645 -0.1580 -0.0759 -0.4392
 6780SOL    HW131802   0.814   0.340   0.607 -0.1689  1.4599  0.8624
 6780SOL    HW231803   0.873   0.309   0.737  0.8337  0.1280 -0.1860
 6781SOL     OW31804   1.577   2.448   6.719  0.4220 -0.0163 -0.3490
 6781SOL    HW131805   1.665   2.484   6.705 -0.1224  1.0818 -0.9705
 6781SOL    HW231806   1.527   2.525   6.692 -1.0541 -2.2901 -4.1085
 6782SOL     OW31807   3.445   2.645  16.434  0.0909 -0.2699 -0.1636
 6782SOL    HW131808   3.401   2.669  16.352  0.5348  0.6439 -0.1426
 6782SOL    HW231809   3.410   2.565  16.472  1.2728 -1.3515 -1.3237
 6783SOL     OW31810   1.282   0.157   7.599  0.0494 -0.5824  0.5182
 6783SOL    HW131811   1.302   0.086   7.538 -3.4014 -2.0115  1.0528
 6783SOL    HW231812   1.212   0.204   7.554 -0.0967 -1.9227 -0.6662
 6784SOL     OW31813   3.873   2.502   2.099 -0.5897 -0.4299  0.3121
 6784SOL    HW131814   3.951   2.448   2.106 -0.3294 -0.1695 -0.5382
 6784SOL    HW231815   3.875   2.547   2.183 -1.6393  2.6633 -1.3140
 6785SOL     OW31816   4.208   2.495   5.088  0.1405 -1.0216 -0.2708
 6785SOL    HW131817   4.113   2.503   5.083 -0.0337 -2.3922  0.7401
 6785SOL    HW231818   4.240   2.581   5.117 -2.0396 -1.0278  2.1293
 6786SOL     OW31819   0.963   4.100   4.124  0.1047  0.2000 -0.0895
 6786SOL    HW131820   0.964   4.008   4.149  0.5847  0.6526  1.5460
 6786SOL    HW231821   0.920   4.135   4.202  3.7743  0.0832  1.9850
 6787SOL     OW31822   4.630   1.994   1.623  0.0174  0.3578  0.6352
 6787SOL    HW131823   4.573   1.959   1.691 -0.9251 -3.0034 -1.8714
 6787SOL    HW231824   4.607   2.086   1.632  0.2338  0.3866  0.8824
 6788SOL     OW31825   1.434   4.016   7.311 -0.1309 -0.1309  0.9491
 6788SOL    HW131826   1.442   3.927   7.347 -0.9101 -0.3444  0.5873
 6788SOL    HW231827   1.414   3.994   7.220  0.8420 -2.7113  1.3624
 6789SOL     OW31828   2.195   2.851   4.600  0.1678 -0.0097 -0.3679
 6789SOL    HW131829   2.210   2.876   4.691  1.1412  1.7958 -1.0227
 6789SOL    HW231830   2.239   2.917   4.547  0.0405  1.6462  1.6157
 6790SOL     OW31831   4.214   2.093  15.586  0.2187 -0.1037  0.6316
 6790SOL    HW131832   4.212   2.095  15.491 -0.2518  1.7925  0.6795
 6790SOL    HW231833   4.249   2.004  15.595 -3.4754 -1.6758 -0.4351
 6791SOL     OW31834   3.074   3.644   4.090  0.5974 -0.4191 -0.1532
 6791SOL    HW131835   3.077   3.553   4.061  3.4817 -0.0736 -0.9158
 6791SOL    HW231836   3.155   3.653   4.140  1.2382 -1.8946 -0.9330
 6792SOL     OW31837   1.048   1.299   2.096 -0.2770 -0.5465 -0.3559
 6792SOL    HW131838   1.058   1.244   2.174 -0.6484 -0.2019 -0.0621
 6792SOL    HW231839   1.082   1.380   2.134 -0.7822 -0.2525 -0.5252
 6793SOL     OW31840   4.134   2.610   7.909 -0.3869 -0.2679 -0.1195
 6793SOL    HW131841   4.106   2.654   7.989  0.2794 -2.5593  1.3842
 6793SOL    HW231842   4.213   2.657   7.885  0.2508 -1.0335  0.4589
 6794SOL     OW31843   1.834   2.026   8.413 -0.0761  0.0801 -0.1394
 6794SOL    HW131844   1.808   1.939   8.383 -0.6172  1.0182 -2.4132
 6794SOL    HW231845   1.880   2.011   8.495 -1.4978 -0.4806  0.5541
 6795SOL     OW31846   3.311   0.876   5.467  0.3848  0.1306 -0.1165
 6795SOL    HW131847   3.402   0.898   5.490  0.1515 -0.6890  1.5395
 6795SOL    HW231848   3.273   0.908   5.549  0.4544 -0.4828  0.1519
 6796SOL     OW31849   1.567   0.273   5.028  0.5284 -0.3359  0.9795
 6796SOL    HW131850   1.647   0.224   5.012 -0.1002 -1.3945  1.1239
 6796SOL    HW231851   1.577   0.289   5.122 -0.1605 -1.9144  1.3098
 6797SOL     OW31852   1.342   1.613   4.297  0.0372 -0.4232 -0.0902
 6797SOL    HW131853   1.363   1.599   4.205 -0.8825  0.5016 -0.4311
 6797SOL    HW231854   1.263   1.667   4.301  0.0984 -0.2862 -0.7541
 6798SOL     OW31855   4.388   2.901   2.995 -0.7600 -0.0978  0.0986
 6798SOL    HW131856   4.296   2.883   2.976  0.2592 -2.4362 -2.6787
 6798SOL    HW231857   4.428   2.874   2.912  0.1939 -0.1401  0.5793
 6799SOL     OW31858   1.186   1.175   5.093  0.0843 -0.0031 -0.1505
 6799SOL    HW131859   1.123   1.241   5.066 -0.5101  0.2226  1.8001
 6799SOL    HW231860   1.263   1.213   5.051 -0.7635  2.2505  0.3319
 6800SOL     OW31861   0.265   1.237   5.963 -0.5835 -0.0025 -0.0098
 6800SOL    HW131862   0.173   1.225   5.939 -1.2656  0.8218  2.1314
 6800SOL    HW231863   0.306   1.261   5.880  0.4390 -0.3475  0.4013
 6801SOL     OW31864   2.085   2.576   1.114 -0.5796 -0.5393  0.1756
 6801SOL    HW131865   1.994   2.605   1.126 -0.0997  1.2883 -0.6201
 6801SOL    HW231866   2.066   2.486   1.140 -0.9851  0.2622  2.6125
 6802SOL     OW31867   4.170   3.496   5.923  0.0884  0.2314  0.6529
 6802SOL    HW131868   4.080   3.525   5.909 -0.2410 -1.2517 -0.2353
 6802SOL    HW231869   4.221   3.531   5.850 -0.0809 -0.8572  0.0211
 6803SOL     OW31870   2.058   3.783   3.995 -0.0565 -0.4118 -0.5251
 6803SOL    HW131871   2.026   3.731   4.069  2.8708 -1.2846  0.1221
 6803SOL    HW231872   1.998   3.857   3.993 -1.0927 -1.3158 -3.6490
 6804SOL     OW31873   3.583   0.715  12.823 -0.2357 -0.9666  0.7060
 6804SOL    HW131874   3.619   0.645  12.769 -0.2602  0.6902 -1.4423
 6804SOL    HW231875   3.645   0.787  12.806 -1.2832  0.2217  1.8992
 6805SOL     OW31876   3.123   2.323   3.612  0.8039 -0.2535  0.2522
 6805SOL    HW131877   3.187   2.311   3.542  0.4869 -0.7901  0.0615
 6805SOL    HW231878   3.055   2.371   3.566 -0.7389 -1.0914  1.6625
 6806SOL     OW31879   4.231   4.420   0.869  0.2013 -0.2588 -0.3317
 6806SOL    HW131880   4.297   4.471   0.823 -1.7049  1.2293 -1.4554
 6806SOL    HW231881   4.180   4.498   0.891 -2.0275 -2.0038  0.7457
 6807SOL     OW31882   0.652   0.558   8.794  0.7063 -0.0163  0.1440
 6807SOL    HW131883   0.640   0.562   8.889  1.3743 -1.8499  0.3124
 6807SOL    HW231884   0.747   0.547   8.787  0.6234 -0.1570 -0.7480
 6808SOL     OW31885   1.082   1.742  16.848 -0.1180  0.0012 -0.0851
 6808SOL    HW131886   1.167   1.744  16.892  0.0833  0.2127 -0.4868
 6808SOL    HW231887   1.115   1.711  16.764  3.3115 -1.2717  1.7395
 6809SOL     OW31888   1.787   3.000   3.293 -0.0983 -0.0246 -0.0038
 6809SOL    HW131889   1.709   2.949   3.270 -0.9342  0.1138  2.4269
 6809SOL    HW231890   1.745   3.074   3.337 -0.9298 -2.1858  2.8229
 6810SOL     OW31891   1.500   1.979   3.600  0.0912 -0.2723 -0.5198
 6810SOL    HW131892   1.464   1.990   3.512  1.0144 -0.3156 -0.9017
 6810SOL    HW231893   1.572   2.043   3.597  1.1585 -1.4193  1.0081
 6811SOL     OW31894   1.836   3.531   2.900  1.0490 -0.3614  0.2083
 6811SOL    HW131895   1.799   3.443   2.889  0.4879 -0.0092 -0.7476
 6811SOL    HW231896   1.868   3.522   2.990  1.2875 -1.5353  0.0098
 6812SOL     OW31897   4.331   2.310   5.660 -0.3852  0.3338 -0.6196
 6812SOL    HW131898   4.281   2.332   5.739 -0.3620 -2.0901  0.0912
 6812SOL    HW231899   4.405   2.259   5.694  0.9614  1.4432 -1.9135
 6813SOL     OW31900   2.862   0.280   8.370  0.2474 -0.3161 -0.2358
 6813SOL    HW131901   2.945   0.245   8.401  0.4123  2.8224  2.8424
 6813SOL    HW231902   2.897   0.316   8.289 -3.0047  3.3016 -0.0469
 6814SOL     OW31903   2.140   0.919   8.377 -0.1215  0.3615  0.3648
 6814SOL    HW131904   2.179   0.980   8.440  1.1018 -0.0529  0.0070
 6814SOL    HW231905   2.104   0.985   8.318  0.9790  0.2055 -0.4727
 6815SOL     OW31906   4.276   4.104   5.785  0.3588  0.7468 -0.1398
 6815SOL    HW131907   4.365   4.070   5.792  0.0425 -0.1497 -0.4621
 6815SOL    HW231908   4.247   4.037   5.723  1.7340 -0.3810  0.4258
 6816SOL     OW31909   0.680   3.193  10.691 -0.0064 -0.3312 -0.4128
 6816SOL    HW131910   0.676   3.216  10.783 -0.0313 -0.9657 -0.2531
 6816SOL    HW231911   0.706   3.279  10.659  0.3822 -0.0498  0.6874
 6817SOL     OW31912   2.987   3.974   6.577 -0.3248  0.5524  0.3605
 6817SOL    HW131913   2.970   3.993   6.485  0.1382  0.2728  0.2165
 6817SOL    HW231914   2.997   4.066   6.601 -0.7747  1.0782 -1.4528
 6818SOL     OW31915   2.652   0.746   2.053  0.1692 -0.1383 -0.4553
 6818SOL    HW131916   2.644   0.780   1.964  0.3176  0.5734 -0.1919
 6818SOL    HW231917   2.670   0.657   2.021  2.1164  0.1017 -0.0291
 6819SOL     OW31918   0.829   0.374  10.321  0.3709 -0.1434  0.5042
 6819SOL    HW131919   0.751   0.357  10.375  0.8301  0.8018  1.4635
 6819SOL    HW231920   0.855   0.453  10.369  0.2126 -0.7492  1.5988
 6820SOL     OW31921   0.972   4.525  15.738  0.3481  0.1516 -0.1137
 6820SOL    HW131922   1.003   4.460  15.802 -0.3443 -0.0020  0.0676
 6820SOL    HW231923   0.929   4.593  15.789  2.2341  1.5039 -0.3525
 6821SOL     OW31924   3.113   0.873   2.226 -0.5542  0.0842  0.0125
 6821SOL    HW131925   3.172   0.803   2.252 -1.5950 -0.9758 -0.4786
 6821SOL    HW231926   3.171   0.950   2.227 -0.8183  0.2950 -0.4361
 6822SOL     OW31927   3.150   4.255  12.946  0.0437 -0.0596  0.3660
 6822SOL    HW131928   3.173   4.336  12.901 -0.5036  0.5763  1.2427
 6822SOL    HW231929   3.124   4.275  13.036  1.7978  2.5063  0.2973
 6823SOL     OW31930   4.485   0.297  15.581  0.8368  0.4322 -0.0073
 6823SOL    HW131931   4.462   0.346  15.502 -1.5497  0.2632  0.5686
 6823SOL    HW231932   4.486   0.207  15.548 -1.7442  1.0129 -1.6883
 6824SOL     OW31933   2.186   1.139   5.601  0.2121  0.6433  0.3401
 6824SOL    HW131934   2.170   1.195   5.677  0.0898  0.5740  0.3649
 6824SOL    HW231935   2.263   1.179   5.561  0.5579  1.1175  1.4938
 6825SOL     OW31936   2.980   2.730   0.025  0.0562  0.6518 -0.0787
 6825SOL    HW131937   2.966   2.636   0.016 -2.3518  1.2151 -2.4165
 6825SOL    HW231938   3.005   2.747  17.636  0.1494 -0.0480 -0.1798
 6826SOL     OW31939   0.494   1.081  14.866 -0.0972  0.1174  0.2654
 6826SOL    HW131940   0.406   1.118  14.859  0.2748  0.3333 -3.1964
 6826SOL    HW231941   0.546   1.132  14.804  2.4362 -2.8719 -0.0954
 6827SOL     OW31942   2.583   0.354   2.437 -0.3833  0.2591 -0.5709
 6827SOL    HW131943   2.598   0.268   2.478 -0.3348  0.2740 -0.5576
 6827SOL    HW231944   2.488   0.355   2.448 -0.3148  0.8930 -0.0727
 6828SOL     OW31945   1.908   4.460   4.661 -0.2218  0.3577  0.0877
 6828SOL    HW131946   2.003   4.475   4.656  0.3120 -3.5448 -1.2238
 6828SOL    HW231947   1.871   4.547   4.644 -0.5097  0.3492  0.6872
 6829SOL     OW31948   1.495   4.365  14.331 -0.3341 -0.2302  0.4756
 6829SOL    HW131949   1.428   4.380  14.397  0.5205  0.3565  1.2020
 6829SOL    HW231950   1.568   4.416  14.366 -0.2606  0.5623 -0.8079
 6830SOL     OW31951   1.884   1.966  15.952 -0.0310  0.1142 -0.1097
 6830SOL    HW131952   1.846   2.050  15.927 -1.0239  0.2841  1.9760
 6830SOL    HW231953   1.882   1.975  16.048 -0.7039 -0.8142 -0.0395
 6831SOL     OW31954   3.236   4.482   5.782  0.1349  0.0733 -0.0421
 6831SOL    HW131955   3.142   4.490   5.799  0.1702 -0.1684  0.2638
 6831SOL    HW231956   3.250   4.422   5.709 -0.2045 -1.1192  0.8700
 6832SOL     OW31957   0.987   0.804  17.650  0.3105 -0.7861  0.5483
 6832SOL    HW131958   0.963   0.872   0.010  0.0216  1.7237 -2.3331
 6832SOL    HW231959   1.074   0.827  17.616 -0.1936 -0.6160 -0.6434
 6833SOL     OW31960   0.511   3.461  10.565 -0.3528 -0.5740  0.1053
 6833SOL    HW131961   0.429   3.421  10.534 -2.0381  1.3856  2.1191
 6833SOL    HW231962   0.495   3.555  10.574 -0.0218 -0.5826  0.7864
 6834SOL     OW31963   3.612   0.100   3.334  0.3876 -0.3741  0.7725
 6834SOL    HW131964   3.669   0.053   3.273 -1.1261 -0.6606 -0.4123
 6834SOL    HW231965   3.532   0.109   3.283  1.5117  0.4492 -0.8717
 6835SOL     OW31966   1.048   2.834  16.511  0.1591  0.0713 -0.3263
 6835SOL    HW131967   1.137   2.799  16.499 -0.0650 -0.3408 -0.7596
 6835SOL    HW231968   1.056   2.912  16.457 -2.8690 -0.3808 -1.4202
 6836SOL     OW31969   4.146   0.999   3.157  0.2166  0.2621  0.0869
 6836SOL    HW131970   4.218   1.062   3.162 -0.0245  0.4397  1.3408
 6836SOL    HW231971   4.195   0.922   3.186 -1.2463 -0.0326  1.7489
 6837SOL     OW31972   2.400   0.877  12.938  0.3759  0.2584 -0.2127
 6837SOL    HW131973   2.450   0.927  12.873  1.4244  2.4213  2.2921
 6837SOL    HW231974   2.316   0.876  12.891 -0.2743 -0.7361  0.9875
 6838SOL     OW31975   1.165   4.602  12.814 -0.6535  0.5028 -0.1230
 6838SOL    HW131976   1.070   4.588  12.815 -0.4460 -0.6258  2.3666
 6838SOL    HW231977   1.204   4.520  12.843 -0.9619 -0.4871 -2.4376
 6839SOL     OW31978   3.916   4.608   5.574  0.4302  0.7183 -0.2840
 6839SOL    HW131979   3.953   4.649   5.496 -2.5197  0.6021 -1.7607
 6839SOL    HW231980   3.831   4.650   5.587  1.6280  2.9384  0.3204
 6840SOL     OW31981   4.273   1.499   4.267  0.2146  0.2960  0.4960
 6840SOL    HW131982   4.305   1.481   4.179  0.4135  2.2472  0.1667
 6840SOL    HW231983   4.264   1.595   4.262 -1.1903  0.0851 -0.8801
 6841SOL     OW31984   2.503   0.361   3.624 -0.4749  0.2584  0.2362
 6841SOL    HW131985   2.596   0.343   3.631 -0.6609 -0.4587  0.9274
 6841SOL    HW231986   2.492   0.454   3.643 -0.3788  0.1797  0.6623
 6842SOL     OW31987   3.488   1.268   3.801 -0.3830 -0.1382  0.1509
 6842SOL    HW131988   3.444   1.341   3.757 -0.6848  0.9967  2.3507
 6842SOL    HW231989   3.426   1.199   3.778 -1.1054  0.2172  1.0330
 6843SOL     OW31990   3.732   4.503   5.195  0.2865 -0.3617  0.1791
 6843SOL    HW131991   3.735   4.456   5.112  0.5896 -0.4836  0.2580
 6843SOL    HW231992   3.821   4.491   5.228  0.3649  1.9727  0.8614
 6844SOL     OW31993   2.348   0.726   9.257 -0.1642  0.0687  0.2724
 6844SOL    HW131994   2.304   0.810   9.271  0.3665  0.6930 -1.7149
 6844SOL    HW231995   2.411   0.762   9.193 -0.0937 -3.2700 -1.5605
 6845SOL     OW31996   0.717   0.862   0.901  0.2350  0.0227  0.2985
 6845SOL    HW131997   0.807   0.862   0.867  0.6132 -0.5375  1.3026
 6845SOL    HW231998   0.737   0.845   0.993 -2.2155 -1.8688  0.4891
 6846SOL     OW31999   0.815   0.926  17.355  0.0824  0.3565  0.5422
 6846SOL    HW132000   0.749   0.991  17.378  0.5704  1.2447 -0.5415
 6846SOL    HW232001   0.762   0.851  17.329  0.8313 -0.1379  0.4478
 6847SOL     OW32002   4.534   3.345   4.441  0.0577 -0.4642 -0.7444
 6847SOL    HW132003   4.449   3.345   4.396 -0.3492  0.3490  0.0314
 6847SOL    HW232004   4.548   3.254   4.466  2.2732  0.2899  0.7329
 6848SOL     OW32005   1.485   1.278   6.533 -0.1398  0.0089  0.4395
 6848SOL    HW132006   1.411   1.224   6.507 -0.2132  0.0996  0.4580
 6848SOL    HW232007   1.447   1.350   6.584 -0.4288 -0.1218  0.4080
 6849SOL     OW32008   1.432   0.383   8.517 -0.2230 -0.1562  0.0359
 6849SOL    HW132009   1.358   0.401   8.458 -0.9771  1.0475  1.3399
 6849SOL    HW232010   1.509   0.403   8.465 -1.2565 -0.2081 -1.5209
 6850SOL     OW32011   4.544   2.383   8.567 -0.3133 -0.2573 -0.2392
 6850SOL    HW132012   4.506   2.440   8.634  1.0958 -0.4643  0.7185
 6850SOL    HW232013   4.469   2.325   8.550  0.0679 -0.0153 -2.7469
 6851SOL     OW32014   3.132   0.255   6.801  0.1668  0.5524 -0.2472
 6851SOL    HW132015   3.096   0.179   6.848  1.5186  0.1418  0.1204
 6851SOL    HW232016   3.093   0.324   6.854 -0.7293 -0.0624 -0.1158
 6852SOL     OW32017   2.324   2.004   8.206 -0.1364  0.1621  0.2977
 6852SOL    HW132018   2.327   1.910   8.191 -1.2636  0.2033 -0.1479
 6852SOL    HW232019   2.323   2.007   8.302 -0.0736 -2.0629  0.3731
 6853SOL     OW32020   3.898   2.712   6.314 -0.0330  0.1557  0.0550
 6853SOL    HW132021   3.863   2.701   6.225  0.4448  1.8986 -0.3436
 6853SOL    HW232022   3.845   2.785   6.346  0.6183 -0.4009  2.3937
 6854SOL     OW32023   0.906   2.143   8.744  0.5256 -0.5905 -0.4569
 6854SOL    HW132024   0.814   2.143   8.718  0.6600 -1.6899 -0.9535
 6854SOL    HW232025   0.907   2.230   8.783 -0.3930 -0.9557  0.3646
 6855SOL     OW32026   0.267   0.669   4.623 -0.3788  0.0073 -0.4735
 6855SOL    HW132027   0.241   0.595   4.677 -0.4183  0.7314  0.5061
 6855SOL    HW232028   0.267   0.746   4.681 -0.2457  0.4753 -1.1008
 6856SOL     OW32029   0.438   0.560   5.123  0.0878  0.5657  0.5315
 6856SOL    HW132030   0.413   0.499   5.054 -0.1963 -1.3446  2.3158
 6856SOL    HW232031   0.390   0.636   5.091  1.4030  1.2891  0.2622
 6857SOL     OW32032   3.202   0.875  13.021 -0.2038 -0.2661 -0.2035
 6857SOL    HW132033   3.294   0.860  13.002 -0.2738  0.0776 -0.8348
 6857SOL    HW232034   3.165   0.789  13.000 -3.6618  1.1139  0.2696
 6858SOL     OW32035   0.957   3.708   6.447 -0.4373  0.0081 -0.0757
 6858SOL    HW132036   1.008   3.777   6.403  1.3729 -0.2265  1.6386
 6858SOL    HW232037   0.901   3.756   6.508 -0.3683  0.0061 -0.0105
 6859SOL     OW32038   3.040   1.671   7.919  0.1559  0.1910  0.1899
 6859SOL    HW132039   3.100   1.669   7.844  1.3085  0.9098  1.0891
 6859SOL    HW232040   3.082   1.736   7.975  2.7617  0.0819 -1.6437
 6860SOL     OW32041   1.481   3.008   3.731 -0.1126  0.3875  0.4254
 6860SOL    HW132042   1.574   3.012   3.750  0.4711 -1.5899 -2.0366
 6860SOL    HW232043   1.477   2.912   3.729  0.9249  0.3526  0.1880
 6861SOL     OW32044   2.027   2.285   7.339 -0.7295 -0.1013 -0.0876
 6861SOL    HW132045   2.016   2.319   7.428 -0.0850 -0.3202  0.0752
 6861SOL    HW232046   2.117   2.254   7.337 -0.0826  1.4516  3.2203
 6862SOL     OW32047   2.263   1.852   6.725 -0.0274  0.6717  0.3467
 6862SOL    HW132048   2.218   1.767   6.722  2.4940 -0.7026  1.0657
 6862SOL    HW232049   2.216   1.904   6.659 -1.8375  0.0691  1.1640
 6863SOL     OW32050   0.028   1.674   0.713 -0.7099  0.7184 -0.0537
 6863SOL    HW132051   0.003   1.601   0.657  0.0445 -2.1906  3.3572
 6863SOL    HW232052   0.036   1.633   0.799  1.1747 -0.2197 -0.6856
 6864SOL     OW32053   1.469   0.410   5.749 -0.4733  0.2630  0.4119
 6864SOL    HW132054   1.436   0.463   5.677  0.2675  1.2356  0.7781
 6864SOL    HW232055   1.485   0.484   5.808  0.1464 -0.4144  1.0973
 6865SOL     OW32056   3.012   2.096  17.380 -0.5519 -0.6823 -0.0307
 6865SOL    HW132057   3.098   2.124  17.412 -0.9421  0.2208  0.2096
 6865SOL    HW232058   3.014   2.004  17.408 -1.6015 -0.6919  0.0095
 6866SOL     OW32059   3.775   0.130   5.993  0.1455 -0.3768 -0.3362
 6866SOL    HW132060   3.861   0.171   5.986  0.6098 -1.1320  1.1584
 6866SOL    HW232061   3.729   0.205   6.030  1.3800  1.4665 -2.5218
 6867SOL     OW32062   0.188   0.427   3.135 -0.4485 -0.0111  0.2957
 6867SOL    HW132063   0.238   0.366   3.080  0.1684  1.6204 -0.9622
 6867SOL    HW232064   0.111   0.372   3.147  0.9507 -2.0001  0.1881
 6868SOL     OW32065   3.117   1.270   9.134 -0.0621  0.6149 -0.5405
 6868SOL    HW132066   3.161   1.212   9.072  0.7158  0.7401 -0.1030
 6868SOL    HW232067   3.188   1.332   9.153 -0.1841  0.5928 -0.0176
 6869SOL     OW32068   1.274   2.477   2.966  0.7801  0.1384  0.0935
 6869SOL    HW132069   1.252   2.499   2.876  2.6557  1.1876 -0.1175
 6869SOL    HW232070   1.370   2.483   2.963  0.6583  1.9408 -0.2482
 6870SOL     OW32071   3.048   4.699   7.554  0.3048  0.2310 -0.5750
 6870SOL    HW132072   2.975   0.024   7.517  1.3193  1.5086 -0.8318
 6870SOL    HW232073   3.072   0.027   7.629 -1.0685 -0.4883  0.3667
 6871SOL     OW32074   3.283   1.305   9.414 -0.0941 -0.5908  0.0611
 6871SOL    HW132075   3.245   1.389   9.386 -1.3633 -0.3969  2.4330
 6871SOL    HW232076   3.364   1.327   9.461  1.5391 -3.8206 -1.1973
 6872SOL     OW32077   1.963   4.679   5.140  0.2119  0.3783 -0.3917
 6872SOL    HW132078   1.935   4.654   5.228 -3.8897  1.6335 -1.3393
 6872SOL    HW232079   1.929   4.602   5.095 -1.9494 -1.3534  4.1960
 6873SOL     OW32080   1.553   3.790   6.528 -0.8260  0.3063 -0.0284
 6873SOL    HW132081   1.527   3.814   6.617  0.9076  0.3011  0.5004
 6873SOL    HW232082   1.491   3.722   6.504  0.8810 -1.8088  1.4956
 6874SOL     OW32083   4.457   1.574   5.245 -0.1993  0.1170  0.1906
 6874SOL    HW132084   4.546   1.541   5.230  0.1598 -0.3983  3.6667
 6874SOL    HW232085   4.475   1.646   5.305  1.3334 -0.4818  0.4460
 6875SOL     OW32086   0.651   0.761   5.863 -0.7570 -0.0723 -0.2516
 6875SOL    HW132087   0.631   0.704   5.789  3.2595 -2.1697  0.2918
 6875SOL    HW232088   0.629   0.849   5.831  0.0900  0.0484 -0.4975
 6876SOL     OW32089   2.388   4.116  11.988  0.0743  0.0281  0.0434
 6876SOL    HW132090   2.432   4.058  12.052 -1.2583 -0.3138  0.6481
 6876SOL    HW232091   2.324   4.054  11.953  0.0570 -0.4716  0.9482
 6877SOL     OW32092   3.327   1.886  10.143  0.0468  0.4045  0.0312
 6877SOL    HW132093   3.256   1.822  10.141 -0.3464  0.7812  1.7215
 6877SOL    HW232094   3.351   1.874  10.051  0.8783  0.6070  0.2218
 6878SOL     OW32095   2.248   3.611   9.460  0.2204 -0.0418 -0.1094
 6878SOL    HW132096   2.279   3.645   9.544  1.6437  0.1254 -0.7059
 6878SOL    HW232097   2.224   3.692   9.415 -0.3379  0.0934  0.4436
 6879SOL     OW32098   3.744   3.323   7.317  0.0024  0.2004 -0.4270
 6879SOL    HW132099   3.759   3.262   7.389  0.3748  0.2355 -0.4743
 6879SOL    HW232100   3.828   3.371   7.322 -0.0099 -0.0053  1.9579
 6880SOL     OW32101   0.477   0.939   4.537 -0.3420 -0.1174  0.4207
 6880SOL    HW132102   0.486   0.904   4.626  0.1759 -0.1642  0.3516
 6880SOL    HW232103   0.564   0.927   4.499 -0.5973  1.4684 -0.6706
 6881SOL     OW32104   0.220   2.713  17.386  0.1208 -0.1419  0.0326
 6881SOL    HW132105   0.195   2.692  17.296  0.9663 -0.2860 -0.1673
 6881SOL    HW232106   0.270   2.637  17.416  0.1058  0.2884  1.1548
 6882SOL     OW32107   0.504   0.206   8.155 -0.0583  0.5694 -0.0905
 6882SOL    HW132108   0.493   0.279   8.215 -0.3022 -0.7017  1.4194
 6882SOL    HW232109   0.424   0.217   8.103 -1.6676  1.2457  2.5537
 6883SOL     OW32110   2.381   1.264   1.711  0.3424  0.4122  0.3079
 6883SOL    HW132111   2.387   1.190   1.650  3.0578  0.4064  0.5946
 6883SOL    HW232112   2.464   1.256   1.758 -0.1059  1.5554  1.2771
 6884SOL     OW32113   4.184   2.187   9.007 -0.2466 -0.3332 -0.2486
 6884SOL    HW132114   4.156   2.135   9.083 -0.1546 -0.0625 -0.0297
 6884SOL    HW232115   4.189   2.273   9.048  1.0919 -2.3098  3.8254
 6885SOL     OW32116   2.141   4.073   8.762  0.0899  0.2861  0.2333
 6885SOL    HW132117   2.085   4.151   8.762  1.7528  1.4804  1.3323
 6885SOL    HW232118   2.173   4.059   8.851  0.8663 -0.6176 -0.1894
 6886SOL     OW32119   0.330   4.563   7.473 -0.4174 -0.0673 -0.0403
 6886SOL    HW132120   0.315   4.582   7.565  0.3944  0.9563 -0.1268
 6886SOL    HW232121   0.278   4.484   7.460  0.2020 -0.7015  1.2652
 6887SOL     OW32122   2.301   0.198   7.559  0.0873 -0.2409  0.7028
 6887SOL    HW132123   2.385   0.169   7.595  0.2635  0.0019  0.4895
 6887SOL    HW232124   2.245   0.188   7.636 -1.8510  0.6491 -0.6005
 6888SOL     OW32125   3.730   0.110   6.448 -0.3365 -0.0721  0.1992
 6888SOL    HW132126   3.678   0.150   6.378 -0.1906  0.0737  0.1756
 6888SOL    HW232127   3.789   0.050   6.402 -0.6426  1.2680 -1.9551
 6889SOL     OW32128   0.584   0.946   5.097 -0.2651  0.0481 -0.0685
 6889SOL    HW132129   0.521   1.013   5.124 -0.8540  0.5149 -2.6247
 6889SOL    HW232130   0.585   0.896   5.179  2.1537 -1.0914 -0.7937
 6890SOL     OW32131   3.110   2.961  14.112 -1.2607  0.1239  0.7102
 6890SOL    HW132132   3.100   3.035  14.052  1.1801 -0.5904 -0.5696
 6890SOL    HW232133   3.134   2.891  14.052 -1.0366  0.1286  0.7951
 6891SOL     OW32134   0.833   4.464  16.007  0.4556 -0.0810  0.1531
 6891SOL    HW132135   0.917   4.420  16.016  0.0486 -0.5903  1.4731
 6891SOL    HW232136   0.796   4.446  16.093 -0.1267  0.6468  0.0532
 6892SOL     OW32137   2.490   1.317   8.944  0.0716 -0.4228  0.0949
 6892SOL    HW132138   2.512   1.329   9.037 -2.7919 -1.2935  0.8784
 6892SOL    HW232139   2.548   1.378   8.898 -0.1742  0.2147  0.6395
 6893SOL     OW32140   1.159   0.915   4.069  0.4996 -0.3010 -0.1872
 6893SOL    HW132141   1.233   0.861   4.042  0.8065  0.9952 -1.9268
 6893SOL    HW232142   1.177   0.998   4.025 -1.3744  0.2497  0.1153
 6894SOL     OW32143   4.637   1.541   6.315  0.1520  0.1890 -0.1307
 6894SOL    HW132144   4.605   1.514   6.228 -0.2173 -0.7026  0.2787
 6894SOL    HW232145   4.573   1.496   6.371  1.5584 -0.1097  1.2131
 6895SOL     OW32146   2.675   4.097   4.326  0.1531 -0.1547  0.0360
 6895SOL    HW132147   2.725   4.061   4.253 -1.4302 -3.1585  0.4328
 6895SOL    HW232148   2.747   4.145   4.368  0.2073 -1.3727  1.3196
 6896SOL     OW32149   1.928   0.455   6.567  0.2570 -0.8477 -0.3415
 6896SOL    HW132150   1.862   0.429   6.632  1.2982  0.5559  1.2696
 6896SOL    HW232151   2.004   0.462   6.624  1.6029 -0.3161 -2.1859
 6897SOL     OW32152   1.853   1.060   4.395 -0.5468 -0.2886 -0.0237
 6897SOL    HW132153   1.813   1.014   4.469 -0.8021 -2.0179 -1.2300
 6897SOL    HW232154   1.914   0.992   4.366  1.0172  0.4208  1.6714
 6898SOL     OW32155   4.274   2.132   3.248  0.3915  0.1146 -0.6876
 6898SOL    HW132156   4.359   2.176   3.248  0.6634 -0.4190  2.2479
 6898SOL    HW232157   4.294   2.057   3.193  1.1764 -0.5538  0.5154
 6899SOL     OW32158   1.433   0.887   2.611 -0.2083 -0.0532 -0.1571
 6899SOL    HW132159   1.515   0.914   2.651  0.1416 -0.7697 -0.3879
 6899SOL    HW232160   1.391   0.973   2.620  1.8238  0.9358 -0.0534
 6900SOL     OW32161   3.170   0.484   1.943  0.2061 -0.0091 -0.1437
 6900SOL    HW132162   3.222   0.552   1.986  2.1649  0.3181 -3.0005
 6900SOL    HW232163   3.146   0.419   2.009  0.8115 -0.5836 -0.4908
 6901SOL     OW32164   3.784   2.349  14.993  0.5851 -0.3128 -0.4085
 6901SOL    HW132165   3.716   2.368  14.928  0.7328 -0.3217 -0.5675
 6901SOL    HW232166   3.725   2.330  15.065 -0.8902 -0.5930 -1.6932
 6902SOL     OW32167   3.578   0.209   8.289  0.0035 -0.4904 -0.2218
 6902SOL    HW132168   3.571   0.271   8.217  0.3611 -0.5791 -0.3305
 6902SOL    HW232169   3.659   0.242   8.328 -0.0205  0.3432 -0.8630
 6903SOL     OW32170   0.603   4.322   1.285 -0.0178 -0.5854 -0.8286
 6903SOL    HW132171   0.635   4.241   1.245 -1.1903 -1.0698 -0.7905
 6903SOL    HW232172   0.684   4.371   1.297 -1.0100  0.7262  0.4409
 6904SOL     OW32173   0.705   4.107  15.942  0.1354  0.4150 -0.3863
 6904SOL    HW132174   0.716   4.135  15.851 -0.5602 -0.2981 -0.6945
 6904SOL    HW232175   0.610   4.119  15.944  0.0757 -0.1629  0.1297
 6905SOL     OW32176   2.531   3.045  17.279 -0.2568 -0.1652  0.3927
 6905SOL    HW132177   2.589   3.023  17.206 -1.2504  1.9980 -1.0575
 6905SOL    HW232178   2.534   2.966  17.333  3.0310 -1.0356 -1.0418
 6906SOL     OW32179   2.382   0.018   7.885 -0.9220 -0.5892 -0.2240
 6906SOL    HW132180   2.453   0.011   7.949 -0.0701 -0.7938 -1.1994
 6906SOL    HW232181   2.430   4.707   7.811 -1.4646 -3.0167  0.6059
 6907SOL     OW32182   1.532   2.876   5.364 -0.5737 -0.8034  0.2012
 6907SOL    HW132183   1.534   2.868   5.459 -0.6280 -1.9223  0.1135
 6907SOL    HW232184   1.564   2.960   5.332  0.2455 -1.5818 -1.0472
 6908SOL     OW32185   4.494   1.384   7.749  0.0923  0.0698  0.0794
 6908SOL    HW132186   4.492   1.328   7.672 -1.2123 -0.4027  0.4714
 6908SOL    HW232187   4.441   1.457   7.719  0.6445  0.5039  0.1551
 6909SOL     OW32188   0.892   3.124   5.899 -0.1763 -0.3335 -0.1934
 6909SOL    HW132189   0.936   3.110   5.816 -1.5252  0.8336 -1.1003
 6909SOL    HW232190   0.886   3.031   5.920 -2.0507 -0.5925 -1.8847
 6910SOL     OW32191   4.513   3.020  13.565  0.1855  0.0865 -0.6271
 6910SOL    HW132192   4.517   3.092  13.628 -0.2412  0.3750 -0.9301
 6910SOL    HW232193   4.582   2.959  13.592  0.5906  0.1443 -1.5240
 6911SOL     OW32194   1.464   1.560   3.634  0.2933 -0.5214 -0.0525
 6911SOL    HW132195   1.411   1.565   3.714  0.7322  0.5732  0.1736
 6911SOL    HW232196   1.424   1.491   3.581  2.7870 -0.2191 -2.3208
 6912SOL     OW32197   2.895   2.042   7.018  0.2804 -0.3870  0.8397
 6912SOL    HW132198   2.814   2.093   7.023  1.2487  1.2037  0.4938
 6912SOL    HW232199   2.876   1.987   6.942 -1.1908  0.0556  0.8813
 6913SOL     OW32200   3.773   3.214  17.327 -0.3882 -0.1161 -0.0319
 6913SOL    HW132201   3.755   3.199  17.235  0.9000 -0.0505 -0.3041
 6913SOL    HW232202   3.698   3.264  17.360 -0.1840 -0.7955  1.4859
 6914SOL     OW32203   3.712   0.920   2.052  0.2894 -0.0380  0.3579
 6914SOL    HW132204   3.655   0.844   2.038  0.1861 -0.0071  0.6148
 6914SOL    HW232205   3.751   0.929   1.965 -0.2112 -0.1539  0.1177
 6915SOL     OW32206   3.382   1.181  14.891  0.6224  0.3065 -0.4091
 6915SOL    HW132207   3.399   1.262  14.843  4.0085  0.7838  1.5966
 6915SOL    HW232208   3.420   1.209  14.974 -0.5269 -2.2937  1.0080
 6916SOL     OW32209   4.084   2.156   2.656 -0.6243 -0.3971  0.1422
 6916SOL    HW132210   4.040   2.240   2.665  2.1767  0.9588  0.8900
 6916SOL    HW232211   4.016   2.095   2.686  1.3603 -1.2238  2.9524
 6917SOL     OW32212   3.407   2.499   9.063  0.0417  0.0324 -0.0920
 6917SOL    HW132213   3.473   2.430   9.057  0.2224  0.2377 -0.4345
 6917SOL    HW232214   3.454   2.570   9.107 -0.1558  0.8195 -1.1688
 6918SOL     OW32215   2.891   1.603  14.795 -0.1520  0.2369  1.0718
 6918SOL    HW132216   2.893   1.567  14.706 -1.9140  0.3821  0.9846
 6918SOL    HW232217   2.981   1.616  14.825  0.3404 -2.7166  0.8405
 6919SOL     OW32218   4.151   1.944   3.693  0.3776 -0.3542 -0.1765
 6919SOL    HW132219   4.246   1.947   3.702 -0.0253  4.1763  2.3718
 6919SOL    HW232220   4.140   1.919   3.602 -1.9596 -1.1588  0.3213
 6920SOL     OW32221   4.567   2.338  14.002 -0.3765  0.2398  0.1108
 6920SOL    HW132222   4.635   2.390  13.959 -0.9627  0.2206 -0.8472
 6920SOL    HW232223   4.533   2.283  13.931 -0.5386  0.1103  0.2874
 6921SOL     OW32224   4.222   4.421   3.513  0.4914 -0.6198 -0.1317
 6921SOL    HW132225   4.254   4.361   3.446 -2.2987 -1.6904 -0.5021
 6921SOL    HW232226   4.243   4.366   3.588  1.1999 -1.9623 -1.3105
 6922SOL     OW32227   2.547   3.157   3.935  0.5505 -0.0649  0.6392
 6922SOL    HW132228   2.598   3.227   3.895  0.4009 -1.0845 -1.3009
 6922SOL    HW232229   2.572   3.157   4.028  3.5634 -1.3442 -0.1828
 6923SOL     OW32230   0.929   3.845   6.851 -0.3065 -0.8427 -0.2954
 6923SOL    HW132231   0.882   3.772   6.891 -0.1456 -1.2532 -0.8439
 6923SOL    HW232232   0.938   3.913   6.918  2.0761 -3.2156  1.8279
 6924SOL     OW32233   4.314   2.319   7.362  0.3451 -0.3480 -0.7554
 6924SOL    HW132234   4.330   2.264   7.286 -0.0597 -0.4015 -0.7991
 6924SOL    HW232235   4.398   2.313   7.409 -0.6837  3.4128  1.6034
 6925SOL     OW32236   3.312   3.830   3.092  0.6980 -0.3675  0.5587
 6925SOL    HW132237   3.292   3.886   3.017  1.8820  0.0922  0.5909
 6925SOL    HW232238   3.336   3.894   3.159 -0.0719 -0.5510  1.0038
 6926SOL     OW32239   3.191   4.157   8.588  0.4233  0.1772  0.5576
 6926SOL    HW132240   3.263   4.110   8.629  0.4508 -0.7343 -0.5286
 6926SOL    HW232241   3.184   4.110   8.505  2.2192 -2.4161  1.8566
 6927SOL     OW32242   2.030   4.138   9.268 -0.5044 -0.4839  0.2339
 6927SOL    HW132243   1.955   4.191   9.293 -0.0563  1.2393 -2.0624
 6927SOL    HW232244   2.036   4.154   9.174  0.8585  1.0436  0.5694
 6928SOL     OW32245   0.172   1.776   8.424  0.0319 -0.0228  0.0700
 6928SOL    HW132246   0.170   1.711   8.494 -0.2409  0.9339  0.9524
 6928SOL    HW232247   0.217   1.726   8.356 -0.5307  0.4447 -0.6562
 6929SOL     OW32248   2.895   1.973  15.167  0.1463  0.0974  0.4012
 6929SOL    HW132249   2.894   1.882  15.199 -0.2731  0.0191  0.1666
 6929SOL    HW232250   2.928   1.970  15.077  1.9115 -1.4008  1.0928
 6930SOL     OW32251   1.932   2.887   2.377  0.0157 -0.1649 -0.2443
 6930SOL    HW132252   1.912   2.794   2.374  1.2858 -0.4469  0.0144
 6930SOL    HW232253   1.846   2.921   2.351  0.9542  0.2045 -2.8571
 6931SOL     OW32254   2.170   4.234   4.432  0.8801 -0.5869  0.5175
 6931SOL    HW132255   2.224   4.296   4.482  0.3568  0.0279  0.3230
 6931SOL    HW232256   2.216   4.227   4.348 -0.9261 -0.7930 -0.4573
 6932SOL     OW32257   2.623   2.308   8.354 -0.2667  0.5430 -0.4834
 6932SOL    HW132258   2.663   2.329   8.438 -1.8902 -0.0056  0.4100
 6932SOL    HW232259   2.685   2.339   8.287 -2.7472  2.5294 -1.8438
 6933SOL     OW32260   4.494   0.785  16.997 -0.1223 -0.4758 -0.1041
 6933SOL    HW132261   4.475   0.874  17.027  2.9669  0.1689 -0.1547
 6933SOL    HW232262   4.546   0.808  16.921 -1.5202  1.5642 -0.4381
 6934SOL     OW32263   3.803   1.748   8.608  0.4743 -0.2207 -0.0656
 6934SOL    HW132264   3.849   1.759   8.525 -0.1638 -1.4206 -0.5761
 6934SOL    HW232265   3.826   1.824   8.662 -1.0880  0.3858 -0.2463
 6935SOL     OW32266   1.742   1.164   9.141 -0.2059  0.1688  0.0259
 6935SOL    HW132267   1.664   1.152   9.195 -1.1204 -1.6548 -1.7037
 6935SOL    HW232268   1.780   1.242   9.181  0.8417 -0.0144 -0.6073
 6936SOL     OW32269   3.637   2.226   5.965 -0.3940  0.4470 -0.1100
 6936SOL    HW132270   3.614   2.160   6.031 -0.3228 -0.8945 -1.4330
 6936SOL    HW232271   3.677   2.169   5.899 -1.9436  0.6532 -1.2164
 6937SOL     OW32272   4.389   0.219   1.882  0.2742 -0.2571  0.3783
 6937SOL    HW132273   4.348   0.267   1.809  1.9643 -1.1764 -1.1726
 6937SOL    HW232274   4.336   0.140   1.868 -0.0836 -0.2159  1.5309
 6938SOL     OW32275   2.225   4.623   8.173  0.2825  0.5141  0.1216
 6938SOL    HW132276   2.189   4.653   8.089  0.7176 -0.2861 -0.3537
 6938SOL    HW232277   2.141   4.588   8.200 -0.5106 -0.6311 -3.7465
 6939SOL     OW32278   3.044   4.717  13.072  0.5787 -0.0545 -0.2650
 6939SOL    HW132279   3.005   4.634  13.099  0.1734 -0.6941 -2.8600
 6939SOL    HW232280   3.124   4.700  13.024  1.9555  0.0447  1.9825
 6940SOL     OW32281   4.206   0.097  16.057 -0.1564  0.1118 -0.1832
 6940SOL    HW132282   4.224   0.184  16.093 -0.2598  1.2772 -3.0031
 6940SOL    HW232283   4.273   0.093  15.988  0.2524 -0.4674  0.2403
 6941SOL     OW32284   4.059   1.821  10.228  0.4933 -0.0205 -0.5053
 6941SOL    HW132285   4.151   1.841  10.213  0.3352  1.7005  0.8693
 6941SOL    HW232286   4.016   1.905  10.244 -0.2877 -0.3487 -0.8365
 6942SOL     OW32287   2.527   3.153   8.031 -0.5444 -0.3286 -0.2748
 6942SOL    HW132288   2.524   3.096   8.109  0.5744  0.4031  0.2992
 6942SOL    HW232289   2.468   3.226   8.050  0.7818  0.0508  2.3561
 6943SOL     OW32290   1.476   1.958  16.316  0.8430  0.1399 -0.1469
 6943SOL    HW132291   1.555   1.911  16.289  0.3014  0.4159 -2.2059
 6943SOL    HW232292   1.481   2.025  16.248 -1.7035  3.1924  2.6567
 6944SOL     OW32293   3.990   2.973  10.403  0.3036  0.3733  0.2748
 6944SOL    HW132294   3.975   2.949  10.312  0.5228  1.7816 -0.1386
 6944SOL    HW232295   3.904   2.990  10.442 -1.1203 -2.5556 -1.5906
 6945SOL     OW32296   2.188   0.142   5.080 -0.2226 -0.4455 -0.2103
 6945SOL    HW132297   2.201   0.148   5.175 -0.0690  0.8535 -0.3121
 6945SOL    HW232298   2.112   0.083   5.084 -1.5844  1.4429  1.8326
 6946SOL     OW32299   1.274   1.488   2.815 -0.1776 -0.4623  0.0025
 6946SOL    HW132300   1.258   1.582   2.815  0.8833 -0.2894 -3.3819
 6946SOL    HW232301   1.355   1.490   2.867  0.3807  0.6039 -0.9196
 6947SOL     OW32302   4.672   0.410   6.011  0.5677 -0.0633 -0.8227
 6947SOL    HW132303   0.012   0.469   5.974  0.6711  1.4575  1.7662
 6947SOL    HW232304   4.721   0.383   6.089  1.4132  1.1651 -0.9301
 6948SOL     OW32305   3.175   4.480   5.437  0.1467  0.0957  0.0762
 6948SOL    HW132306   3.226   4.419   5.489  2.3793  1.8285 -0.0844
 6948SOL    HW232307   3.245   4.511   5.379  1.5351  1.7548  2.6522
 6949SOL     OW32308   2.277   0.231  15.275 -0.0988 -0.2598  0.6802
 6949SOL    HW132309   2.237   0.282  15.205 -1.7450 -1.1466  0.9846
 6949SOL    HW232310   2.199   0.225  15.331 -2.1333  2.0140 -1.8877
 6950SOL     OW32311   4.313   4.144   2.766  0.4994 -0.2689  0.0070
 6950SOL    HW132312   4.251   4.127   2.837  0.7438  1.5209  0.6319
 6950SOL    HW232313   4.252   4.119   2.696 -1.9268  2.1185  1.2573
 6951SOL     OW32314   1.698   4.003  14.106 -0.1473 -0.3628 -0.3272
 6951SOL    HW132315   1.643   4.081  14.101  2.4017  1.4187 -0.9676
 6951SOL    HW232316   1.732   4.000  14.196  0.7729  2.3925 -0.5866
 6952SOL     OW32317   0.958   0.483   9.437 -0.5763 -0.2601  0.6538
 6952SOL    HW132318   0.879   0.537   9.428 -0.4033  0.0297  0.8834
 6952SOL    HW232319   0.959   0.452   9.527  3.3571  0.8251  1.0028
 6953SOL     OW32320   3.610   2.280   2.024 -0.1344 -0.4141  0.1045
 6953SOL    HW132321   3.526   2.261   1.983  0.1498  1.0622 -1.1587
 6953SOL    HW232322   3.589   2.242   2.109 -0.8363  1.1751  0.6191
 6954SOL     OW32323   1.782   2.941   7.349  0.0910 -0.2779  0.6706
 6954SOL    HW132324   1.796   2.909   7.438 -1.3648 -2.8286 -0.0251
 6954SOL    HW232325   1.853   3.005   7.350 -0.1468  0.0106 -0.6352
 6955SOL     OW32326   0.294   4.223   7.379  0.9663 -0.3961  0.1825
 6955SOL    HW132327   0.271   4.216   7.472  2.3951  3.0432  0.8025
 6955SOL    HW232328   0.245   4.303   7.362 -0.7984 -1.3231  0.8777
 6956SOL     OW32329   4.145   4.353  15.927  0.4193  0.6382 -0.1673
 6956SOL    HW132330   4.233   4.341  15.962 -0.2128 -2.2924  0.4341
 6956SOL    HW232331   4.157   4.353  15.832 -0.8180  0.8506 -0.3314
 6957SOL     OW32332   3.771   2.960   5.225  0.2534  0.1899  0.4907
 6957SOL    HW132333   3.700   2.960   5.288  0.1009  1.6339  0.3185
 6957SOL    HW232334   3.835   3.005   5.280 -0.3167  2.9778 -1.1222
 6958SOL     OW32335   3.140   2.441  10.825  0.0926 -0.2390 -0.0045
 6958SOL    HW132336   3.234   2.449  10.811  0.0872 -1.1387 -0.5400
 6958SOL    HW232337   3.157   2.358  10.869 -0.8847  0.4533  1.6597
 6959SOL     OW32338   3.422   0.328  11.257 -0.1701 -0.3055 -0.0245
 6959SOL    HW132339   3.473   0.301  11.333 -1.4778  1.9136  1.6659
 6959SOL    HW232340   3.349   0.355  11.313 -0.1638 -2.6820  1.1243
 6960SOL     OW32341   4.348   1.634   7.742  0.5182  0.1102 -0.3077
 6960SOL    HW132342   4.302   1.618   7.660 -0.7638  0.7067  0.2785
 6960SOL    HW232343   4.428   1.671   7.705  1.0829 -1.4875 -0.7014
 6961SOL     OW32344   0.677   0.788   7.434 -0.0529  0.1819 -0.3817
 6961SOL    HW132345   0.750   0.735   7.466 -0.7649 -1.6210 -1.7465
 6961SOL    HW232346   0.619   0.728   7.386  2.3797 -0.4170 -2.6182
 6962SOL     OW32347   1.155   1.592   9.105 -0.9270  0.5216  0.1691
 6962SOL    HW132348   1.173   1.662   9.043 -3.7563  3.4509  2.6740
 6962SOL    HW232349   1.241   1.567   9.139 -2.0327 -2.9041  0.5222
 6963SOL     OW32350   3.440   0.051   3.589  0.1385  0.0844  0.3150
 6963SOL    HW132351   3.530   0.059   3.558  0.4867 -2.0683  0.7364
 6963SOL    HW232352   3.426   4.681   3.593  1.2596 -0.2450 -3.0710
 6964SOL     OW32353   0.213   1.730   4.163  0.7181 -0.1351  0.3986
 6964SOL    HW132354   0.141   1.765   4.216 -0.3375 -1.1234 -0.4053
 6964SOL    HW232355   0.230   1.809   4.112  1.8533 -0.0412  0.9256
 6965SOL     OW32356   4.259   3.546   5.385  0.1112 -0.2692  0.6681
 6965SOL    HW132357   4.276   3.630   5.341 -0.3392 -0.7646 -0.4401
 6965SOL    HW232358   4.342   3.528   5.429  1.0828  0.1399 -1.0228
 6966SOL     OW32359   0.048   3.237  13.653 -0.7076 -0.1579  0.2365
 6966SOL    HW132360   0.085   3.151  13.634 -1.8749 -0.8401  1.0523
 6966SOL    HW232361   4.683   3.214  13.678 -1.2388 -1.0557 -2.5629
 6967SOL     OW32362   2.495   1.115   5.773  0.0822 -0.1651  0.1020
 6967SOL    HW132363   2.539   1.072   5.847  0.7742 -0.9871 -0.7791
 6967SOL    HW232364   2.553   1.104   5.697  0.5161  0.7571  0.3057
 6968SOL     OW32365   2.466   2.699   9.899 -0.2195 -0.2922 -0.0009
 6968SOL    HW132366   2.534   2.766   9.905 -1.0250  0.4016  1.4731
 6968SOL    HW232367   2.485   2.656   9.983  4.0563 -1.0955 -1.3843
 6969SOL     OW32368   3.262   3.326  17.512  0.5408 -0.1702 -0.4097
 6969SOL    HW132369   3.294   3.408  17.550 -0.1064  0.7286 -1.8268
 6969SOL    HW232370   3.178   3.312  17.557 -0.3466  1.7829 -1.4629
 6970SOL     OW32371   2.783   1.758   0.438  0.1370  0.0803  0.1588
 6970SOL    HW132372   2.744   1.683   0.394 -0.3555 -1.0409  2.4846
 6970SOL    HW232373   2.702   1.798   0.470 -0.7628 -1.8198  0.2549
 6971SOL     OW32374   4.025   2.044  17.625 -0.2183 -0.1352  0.4350
 6971SOL    HW132375   4.088   2.096  17.575  1.4329 -0.6592  1.9704
 6971SOL    HW232376   4.057   1.956  17.608  1.1415  0.5952 -0.8897
 6972SOL     OW32377   3.352   2.651  14.741 -0.0643 -0.1690 -0.5479
 6972SOL    HW132378   3.350   2.637  14.646  0.6127  2.7772 -0.9944
 6972SOL    HW232379   3.405   2.730  14.744  1.0524 -0.8827 -1.4584
 6973SOL     OW32380   4.364   1.890   4.663  0.5354 -0.3442  0.2564
 6973SOL    HW132381   4.382   1.981   4.686 -1.6931 -0.2463  1.5480
 6973SOL    HW232382   4.273   1.877   4.688  0.6333  2.3342  2.0757
 6974SOL     OW32383   1.693   3.437   4.425  0.2788 -0.1095  0.4872
 6974SOL    HW132384   1.620   3.401   4.476 -0.6408  0.0131 -0.7514
 6974SOL    HW232385   1.717   3.354   4.384 -1.9836 -0.1634 -0.7439
 6975SOL     OW32386   0.425   0.580   6.751  0.0422  0.2585 -0.5484
 6975SOL    HW132387   0.465   0.661   6.719  0.6031  1.0157  2.0817
 6975SOL    HW232388   0.506   0.532   6.769  0.1896  0.0036 -1.9026
 6976SOL     OW32389   3.484   2.887   5.550 -0.2523  0.2229 -0.0786
 6976SOL    HW132390   3.486   2.923   5.639  0.5115  1.6004 -0.6405
 6976SOL    HW232391   3.554   2.944   5.517  0.8107 -0.8089  0.3570
 6977SOL     OW32392   1.178   4.161   6.806 -0.6544  0.3344  0.2364
 6977SOL    HW132393   1.251   4.218   6.780  0.4407 -0.8082  0.8522
 6977SOL    HW232394   1.207   4.086   6.754 -0.6570 -0.2241  1.0491
 6978SOL     OW32395   0.320   1.625   8.268  0.4641 -0.5539  0.0014
 6978SOL    HW132396   0.351   1.538   8.295  0.5620  0.3089  2.6591
 6978SOL    HW232397   0.404   1.670   8.275 -0.0292  0.0566  1.8909
 6979SOL     OW32398   2.388   3.237   7.205  0.4022 -0.0887 -0.5627
 6979SOL    HW132399   2.342   3.211   7.126 -1.1495 -0.0795  0.3402
 6979SOL    HW232400   2.349   3.176   7.268 -0.2156  0.7715 -0.1180
 6980SOL     OW32401   3.514   2.211   4.884 -0.4012  0.0269 -0.0466
 6980SOL    HW132402   3.478   2.141   4.830  1.3881 -0.1307 -1.0109
 6980SOL    HW232403   3.434   2.262   4.901  0.3619  1.9931 -2.4178
 6981SOL     OW32404   3.482   0.082   6.944 -0.1979 -0.0737  0.4377
 6981SOL    HW132405   3.424   0.008   6.926 -0.1113 -0.1169  0.3378
 6981SOL    HW232406   3.506   0.108   6.855 -2.0289 -1.5058 -0.4708
 6982SOL     OW32407   1.110   0.397  10.429  0.1696  0.7950 -0.1337
 6982SOL    HW132408   1.051   0.466  10.398 -0.1629  1.3404  1.7397
 6982SOL    HW232409   1.058   0.317  10.437 -1.7423  1.8343 -2.1688
 6983SOL     OW32410   3.528   3.751  15.879 -0.0278  0.3771 -0.7575
 6983SOL    HW132411   3.518   3.778  15.971 -1.5995 -0.6116 -0.6379
 6983SOL    HW232412   3.525   3.835  15.833 -0.2721  1.0415  0.4507
 6984SOL     OW32413   4.103   0.689   1.891 -0.0803  0.1661  0.0059
 6984SOL    HW132414   4.192   0.700   1.856  0.2394 -0.1432  0.7163
 6984SOL    HW232415   4.050   0.657   1.818  0.1842 -0.8038  0.2382
 6985SOL     OW32416   3.553   2.792   8.295 -0.5503  0.1474 -0.0386
 6985SOL    HW132417   3.637   2.782   8.340 -0.5630 -1.1637 -0.3112
 6985SOL    HW232418   3.519   2.703   8.308 -3.5038  1.5591  1.8601
 6986SOL     OW32419   1.606   4.242   6.724  0.2568  0.7215 -0.1511
 6986SOL    HW132420   1.617   4.271   6.814 -1.2926  0.9113 -0.0107
 6986SOL    HW232421   1.620   4.148   6.733  1.2930  0.9999  1.0732
 6987SOL     OW32422   0.981   2.507   6.483 -0.4730  0.2178  0.0484
 6987SOL    HW132423   0.942   2.420   6.487  0.8015 -0.3963 -1.2523
 6987SOL    HW232424   1.032   2.497   6.564 -1.3137  0.2261  0.5809
 6988SOL     OW32425   0.035   0.881   6.647  0.0496  0.7442 -0.0655
 6988SOL    HW132426   0.092   0.946   6.688 -0.1231  1.4748 -0.9682
 6988SOL    HW232427   4.704   0.933   6.590 -2.0139 -0.5786  0.7782
 6989SOL     OW32428   3.231   2.231   6.350  0.6225  0.1805 -0.0429
 6989SOL    HW132429   3.246   2.318   6.314 -2.9280  0.4664 -0.8583
 6989SOL    HW232430   3.234   2.254   6.442  0.6274 -1.5077  0.3839
 6990SOL     OW32431   4.485   2.087   2.824  0.0399 -0.2372  0.0241
 6990SOL    HW132432   4.426   2.153   2.859 -0.6932 -0.8971  0.0381
 6990SOL    HW232433   4.433   2.062   2.748 -1.9633  2.2505  0.5883
 6991SOL     OW32434   3.926   2.105   8.927  0.3144 -0.1332 -0.6570
 6991SOL    HW132435   3.940   2.186   8.976  0.0508  0.6230 -1.8298
 6991SOL    HW232436   3.924   2.046   9.002 -4.5268 -0.9916 -1.4559
 6992SOL     OW32437   1.138   2.925  12.918  0.0691  0.6290  0.2412
 6992SOL    HW132438   1.202   2.994  12.898  2.1489 -1.2124  0.4672
 6992SOL    HW232439   1.053   2.957  12.889 -0.0210 -1.5993 -1.9066
 6993SOL     OW32440   2.910   0.875   4.581  0.0942  0.0872 -0.4136
 6993SOL    HW132441   2.984   0.888   4.521 -0.7042  0.7671 -1.2490
 6993SOL    HW232442   2.885   0.783   4.576 -1.3543  0.5137 -1.0361
 6994SOL     OW32443   2.756   2.923   8.496  0.7963 -0.0946  0.0748
 6994SOL    HW132444   2.728   2.915   8.587 -1.3494  1.3958 -0.4608
 6994SOL    HW232445   2.852   2.921   8.501  0.8694  0.7687 -0.8596
 6995SOL     OW32446   2.813   3.173   8.134  0.1050 -0.1669  0.0103
 6995SOL    HW132447   2.794   3.252   8.085  1.1628 -0.0588 -0.2131
 6995SOL    HW232448   2.749   3.116   8.091 -0.8328 -0.3294  1.5990
 6996SOL     OW32449   4.061   1.952   2.942  1.1701  0.0690 -0.2302
 6996SOL    HW132450   3.992   1.987   2.886  0.2148 -1.4713 -0.0087
 6996SOL    HW232451   4.131   2.017   2.947  0.0504  1.3334 -0.6864
 6997SOL     OW32452   2.661   2.272   2.498  0.5331  0.0970  0.0326
 6997SOL    HW132453   2.643   2.338   2.431  0.6471  1.8095  1.6874
 6997SOL    HW232454   2.749   2.248   2.468  0.5964  1.0628 -0.5860
 6998SOL     OW32455   4.631   2.574   7.237  0.4015 -0.5574 -0.1312
 6998SOL    HW132456   4.660   2.601   7.325 -0.7269 -0.8878  0.3432
 6998SOL    HW232457   4.600   2.657   7.201 -0.2937 -1.6976 -2.1145
 6999SOL     OW32458   0.654   4.087   1.156 -0.0547 -1.3131 -0.2266
 6999SOL    HW132459   0.669   4.048   1.242 -0.6236 -0.2812  0.3418
 6999SOL    HW232460   0.642   4.007   1.105 -0.4361 -1.1360 -0.4107
 7000SOL     OW32461   0.679   0.894   2.804  0.3089  0.2362 -0.4618
 7000SOL    HW132462   0.685   0.944   2.886 -1.7754  0.2304 -0.3028
 7000SOL    HW232463   0.615   0.947   2.756  0.1434  1.5588  1.2121
 7001SOL     OW32464   2.044   1.946   7.539  0.4921 -0.6031  0.3561
 7001SOL    HW132465   1.998   1.942   7.622 -1.1030 -0.7430 -0.5212
 7001SOL    HW232466   2.132   1.972   7.565  0.2710 -0.6471  1.1503
 7002SOL     OW32467   0.041   3.489   2.511 -0.5308  0.2782 -0.2011
 7002SOL    HW132468   4.686   3.501   2.461 -1.2342 -0.1122  0.8329
 7002SOL    HW232469   0.096   3.555   2.469  0.8132 -0.1188  0.9154
 7003SOL     OW32470   1.779   2.876   6.305  0.2321  0.3072 -0.4538
 7003SOL    HW132471   1.774   2.803   6.366  1.9828  1.1559  0.7183
 7003SOL    HW232472   1.857   2.847   6.256 -1.1672 -1.0200 -1.9109
 7004SOL     OW32473   0.968   3.297   2.786 -0.2230 -0.2305  0.3631
 7004SOL    HW132474   1.056   3.331   2.803 -1.6485  1.7428  3.7822
 7004SOL    HW232475   0.998   3.240   2.715 -0.9411 -0.3089  0.1201
 7005SOL     OW32476   3.057   2.884   2.350 -0.8083 -0.5088  0.1792
 7005SOL    HW132477   2.999   2.949   2.390 -1.5042 -0.9520 -0.1261
 7005SOL    HW232478   3.033   2.886   2.258 -0.5316  1.7419  0.1490
 7006SOL     OW32479   0.092   3.559  15.447  0.5012 -0.0345  0.7711
 7006SOL    HW132480   0.094   3.623  15.377  1.9729 -0.0578  0.7929
 7006SOL    HW232481   0.100   3.606  15.530 -1.9259  2.9242 -0.6933
 7007SOL     OW32482   4.186   4.669  12.165 -0.0350 -0.6918 -0.2317
 7007SOL    HW132483   4.173   4.667  12.070 -0.9337 -0.9734 -0.1079
 7007SOL    HW232484   4.246   0.018  12.175 -1.2768 -0.0339  2.3445
 7008SOL     OW32485   0.265   3.242   3.097  0.2300 -0.1152 -0.1328
 7008SOL    HW132486   0.222   3.327   3.088  3.2816  1.7521  2.9445
 7008SOL    HW232487   0.262   3.237   3.193 -1.9013  0.3931 -0.1656
 7009SOL     OW32488   1.371   1.301   9.311 -0.8294 -0.3478 -0.5744
 7009SOL    HW132489   1.400   1.209   9.305 -2.6031 -1.0829  2.2428
 7009SOL    HW232490   1.452   1.347   9.291  0.1205 -0.5861  2.7056
 7010SOL     OW32491   2.503   3.309   8.334  0.2216  0.5911  0.2877
 7010SOL    HW132492   2.480   3.299   8.427  2.3505 -1.7700  0.5389
 7010SOL    HW232493   2.516   3.218   8.309  0.7009  0.8490 -0.4043
 7011SOL     OW32494   3.916   0.122   3.392  0.0454 -0.1355 -0.1488
 7011SOL    HW132495   3.909   0.152   3.302 -1.6951  0.5236  0.1999
 7011SOL    HW232496   3.992   0.064   3.385  0.2984  0.3368 -1.2471
 7012SOL     OW32497   0.873   3.972   5.101  0.3822 -0.8872  0.3115
 7012SOL    HW132498   0.865   4.067   5.094  0.3353 -0.6004  4.4365
 7012SOL    HW232499   0.907   3.955   5.013  0.6459  1.5672 -0.0450
 7013SOL     OW32500   1.071   0.319   6.276 -0.5792  0.4641  0.2072
 7013SOL    HW132501   1.117   0.291   6.355  0.2748  2.3184  0.3548
 7013SOL    HW232502   1.069   0.411   6.299  0.8196  0.5715 -0.1019
 7014SOL     OW32503   4.666   2.386   4.957 -0.2706  0.0809 -0.5387
 7014SOL    HW132504   4.575   2.362   4.939 -0.4742  0.6229 -0.2404
 7014SOL    HW232505   4.703   2.317   5.012  0.1461  0.6511 -0.1027
 7015SOL     OW32506   0.783   1.631   4.971  0.2184  0.1970 -0.0330
 7015SOL    HW132507   0.756   1.657   5.059 -1.3288  0.4091 -0.5704
 7015SOL    HW232508   0.845   1.698   4.941 -1.0361  0.7836 -1.2861
 7016SOL     OW32509   0.696   1.068   3.024 -0.4616 -0.1528 -0.2061
 7016SOL    HW132510   0.644   1.127   2.969 -0.2858 -1.8426 -2.1816
 7016SOL    HW232511   0.627   1.041   3.084  0.2229 -1.7641 -0.1544
 7017SOL     OW32512   3.598   0.302   1.622 -0.6842 -0.5723 -0.2349
 7017SOL    HW132513   3.664   0.246   1.581 -1.4186  0.1856 -2.4592
 7017SOL    HW232514   3.566   0.362   1.555 -0.6278 -0.6126 -0.2985
 7018SOL     OW32515   2.851   2.665   1.206 -0.1087 -0.4544 -0.1692
 7018SOL    HW132516   2.812   2.700   1.126  0.2212 -2.1566 -1.0669
 7018SOL    HW232517   2.832   2.572   1.193 -0.0721 -0.4236 -0.4484
 7019SOL     OW32518   1.436   1.260   5.026 -0.2068  0.3484  0.7517
 7019SOL    HW132519   1.478   1.342   5.003 -0.3878  0.5987  1.3147
 7019SOL    HW232520   1.491   1.240   5.101  2.0154  0.3164 -0.8934
 7020SOL     OW32521   4.489   0.618   0.979  0.1062  0.0661  0.3025
 7020SOL    HW132522   4.525   0.620   0.890 -1.5855 -2.6589 -0.4435
 7020SOL    HW232523   4.550   0.672   1.030  1.7359 -1.6975  0.2531
 7021SOL     OW32524   3.894   1.733   6.288  1.3707  0.5032 -0.3132
 7021SOL    HW132525   3.903   1.825   6.264 -0.5844  0.9873  0.8128
 7021SOL    HW232526   3.968   1.697   6.239 -0.8267 -1.8167 -1.8971
 7022SOL     OW32527   2.381   1.937   5.760 -0.0234 -0.8164 -0.2134
 7022SOL    HW132528   2.463   1.940   5.710 -0.0401 -0.8187 -0.2413
 7022SOL    HW232529   2.349   2.026   5.749  0.7705 -0.3878  0.9838
 7023SOL     OW32530   1.220   1.017  14.279 -0.2515  0.0045  0.5800
 7023SOL    HW132531   1.180   1.056  14.357 -1.6968  0.0919 -0.2255
 7023SOL    HW232532   1.308   1.003  14.316 -0.4621 -0.6540  0.8369
 7024SOL     OW32533   0.987   4.367   7.970  0.5145 -0.2540 -0.1900
 7024SOL    HW132534   0.994   4.456   8.003 -0.6123 -0.7266  1.3478
 7024SOL    HW232535   1.071   4.325   7.989 -0.4335 -2.1623 -0.1820
 7025SOL     OW32536   0.970   4.248   4.744 -0.2483 -0.0740  0.3945
 7025SOL    HW132537   0.943   4.247   4.836 -0.8295 -0.3176  0.2233
 7025SOL    HW232538   0.935   4.335   4.723 -1.8435 -0.3783  1.7863
 7026SOL     OW32539   3.137   1.617   2.780  0.1258  0.3488  0.1933
 7026SOL    HW132540   3.069   1.684   2.780  1.1623  1.3980 -1.8822
 7026SOL    HW232541   3.208   1.679   2.797  2.1803 -2.3743  1.5782
 7027SOL     OW32542   2.614   4.510   1.817 -0.2458 -0.1193 -0.2684
 7027SOL    HW132543   2.642   4.424   1.850 -1.3826 -0.7221 -0.8605
 7027SOL    HW232544   2.699   4.551   1.829 -0.7572  1.2342 -1.3350
 7028SOL     OW32545   3.173   0.645  11.081  0.3067  0.2887  0.4840
 7028SOL    HW132546   3.269   0.644  11.085  0.1205 -3.4755  4.3110
 7028SOL    HW232547   3.160   0.658  10.987  1.7348  1.9780  0.5076
 7029SOL     OW32548   1.423   0.752   8.631  0.2021  0.0777  0.0677
 7029SOL    HW132549   1.497   0.741   8.691 -0.1168  0.9956  0.6280
 7029SOL    HW232550   1.347   0.738   8.688 -0.5653  1.1002 -0.7225
 7030SOL     OW32551   1.884   2.306   7.097 -0.1285  0.7328  0.3941
 7030SOL    HW132552   1.878   2.400   7.114 -3.4173  1.0431 -2.4739
 7030SOL    HW232553   1.959   2.286   7.152 -1.6494 -0.5850  1.9924
 7031SOL     OW32554   1.864   2.778   2.819  0.3761  0.1032  0.1711
 7031SOL    HW132555   1.788   2.768   2.876  0.6472  0.8407  0.6588
 7031SOL    HW232556   1.927   2.721   2.862  0.2484 -0.5311 -0.4758
 7032SOL     OW32557   3.012   3.114   7.448 -0.0106  0.5346  0.1747
 7032SOL    HW132558   3.015   3.069   7.364  0.7190  1.7186 -0.4344
 7032SOL    HW232559   2.995   3.035   7.499  1.3389  0.8982  1.1631
 7033SOL     OW32560   2.887   1.096  11.999  0.2608  0.3566 -0.3189
 7033SOL    HW132561   2.908   1.042  12.075 -0.8204 -0.2246 -0.4401
 7033SOL    HW232562   2.969   1.078  11.952  0.0838  0.0144 -0.4960
 7034SOL     OW32563   2.367   4.681   2.706  0.4914 -0.3655 -0.3139
 7034SOL    HW132564   2.299   4.667   2.772  0.9365 -0.2242  0.1746
 7034SOL    HW232565   2.414   4.599   2.711 -1.2910 -1.2890  1.3404
 7035SOL     OW32566   3.387   0.541   9.434 -0.0760 -0.0351 -0.1749
 7035SOL    HW132567   3.413   0.475   9.369 -1.2842  0.2342 -0.9407
 7035SOL    HW232568   3.467   0.564   9.481 -0.6075 -0.2343  0.8242
 7036SOL     OW32569   3.886   2.331   0.024  0.1563 -0.2333  0.4823
 7036SOL    HW132570   3.900   2.348   0.117  1.9616 -1.1453  0.3891
 7036SOL    HW232571   3.805   2.380   0.016 -0.7917 -2.3299 -3.1855
 7037SOL     OW32572   2.386   2.946   3.941 -0.5788  0.6259  0.2918
 7037SOL    HW132573   2.444   3.017   3.910  0.4642 -1.6584 -3.0476
 7037SOL    HW232574   2.435   2.919   4.018  0.5625 -0.1815 -0.7071
 7038SOL     OW32575   1.801   2.774   5.322  0.2959 -0.6401  0.1860
 7038SOL    HW132576   1.755   2.698   5.287  1.1720 -0.7640 -0.7110
 7038SOL    HW232577   1.723   2.825   5.343 -0.4506 -1.2108 -1.1741
 7039SOL     OW32578   3.777   3.728   3.049 -0.1114  1.0479 -0.2761
 7039SOL    HW132579   3.820   3.774   2.977  0.4122  2.8879  1.2265
 7039SOL    HW232580   3.733   3.796   3.099  0.9951  0.3314  1.6590
 7040SOL     OW32581   4.042   2.761   1.124  0.2426 -0.5376 -0.3253
 7040SOL    HW132582   4.113   2.780   1.063 -2.0756  1.0103 -2.4941
 7040SOL    HW232583   3.966   2.744   1.070  0.2127 -3.2671  0.5827
 7041SOL     OW32584   1.075   3.711   9.201  0.2089  0.1407  0.5105
 7041SOL    HW132585   1.125   3.751   9.130 -0.5534  1.7593  0.8654
 7041SOL    HW232586   1.154   3.673   9.239  0.4942 -1.3069 -1.5730
 7042SOL     OW32587   3.213   1.221  17.592 -0.0460 -0.1672 -0.2234
 7042SOL    HW132588   3.263   1.303  17.585 -1.8334  0.8834 -0.6257
 7042SOL    HW232589   3.161   1.236  17.671 -0.1956 -0.7796 -0.2063
 7043SOL     OW32590   2.312   3.164   5.263  0.7117  0.2753  0.0496
 7043SOL    HW132591   2.305   3.259   5.249 -0.3271  0.2539  0.4149
 7043SOL    HW232592   2.391   3.162   5.317  0.7872 -0.3607 -0.0828
 7044SOL     OW32593   1.396   2.645   8.258  0.0783 -0.1547 -0.5622
 7044SOL    HW132594   1.395   2.579   8.328  0.1456  0.5682  0.1113
 7044SOL    HW232595   1.309   2.683   8.257 -0.9764 -2.4451  1.6949
 7045SOL     OW32596   2.410   1.357   3.682  0.4168 -0.2344  0.6221
 7045SOL    HW132597   2.359   1.432   3.712  1.2096  0.6194 -0.1383
 7045SOL    HW232598   2.501   1.365   3.711  0.7623 -3.6550  0.5500
 7046SOL     OW32599   3.849   2.227  15.628  0.2304  0.0791  0.2493
 7046SOL    HW132600   3.756   2.218  15.647  0.0518  2.1597  0.4145
 7046SOL    HW232601   3.870   2.299  15.688 -0.9555  0.4772  0.1969
 7047SOL     OW32602   2.702   2.619  14.162 -0.3104 -0.0389 -0.4150
 7047SOL    HW132603   2.633   2.654  14.219  0.0808  0.0492 -0.0003
 7047SOL    HW232604   2.759   2.696  14.157 -1.2301  0.6376 -0.4665
 7048SOL     OW32605   2.569   3.460  11.939 -0.1821  0.5502 -0.6530
 7048SOL    HW132606   2.582   3.518  12.014  0.3435 -2.2490  1.4211
 7048SOL    HW232607   2.504   3.512  11.892  1.0758  1.6981 -1.1249
 7049SOL     OW32608   2.785   3.295  12.041  0.1909 -0.2552 -0.0379
 7049SOL    HW132609   2.707   3.337  12.006 -0.1066 -0.5669  0.2460
 7049SOL    HW232610   2.778   3.327  12.131 -0.7485  0.9927 -0.5676
 7050SOL     OW32611   2.701   0.897   6.487 -0.3707 -0.1038 -0.4865
 7050SOL    HW132612   2.663   0.983   6.475  1.7205  0.7194 -1.3138
 7050SOL    HW232613   2.696   0.862   6.398  0.7647  0.2636 -0.6932
 7051SOL     OW32614   2.162   2.290   9.205  0.0379 -0.4013  0.1213
 7051SOL    HW132615   2.112   2.358   9.248 -0.4835 -1.0040  0.4722
 7051SOL    HW232616   2.123   2.308   9.120 -1.7762 -0.2546  0.9980
 7052SOL     OW32617   0.679   4.113   4.633  0.5699 -0.0490 -0.4822
 7052SOL    HW132618   0.594   4.099   4.677  1.8047  1.5303  2.4279
 7052SOL    HW232619   0.667   4.206   4.613 -1.1156  0.4303  2.7510
 7053SOL     OW32620   0.290   4.009   3.875 -0.1583 -0.3364  0.0642
 7053SOL    HW132621   0.358   3.942   3.879 -2.3984 -2.5939  0.4903
 7053SOL    HW232622   0.237   3.961   3.811 -1.5355  2.0313 -0.5905
 7054SOL     OW32623   3.722   4.511  14.969  0.2186 -0.2468 -0.0843
 7054SOL    HW132624   3.771   4.434  14.940 -0.3655 -1.0243  1.0136
 7054SOL    HW232625   3.783   4.585  14.971 -0.8995  0.6023  1.9470
 7055SOL     OW32626   4.373   0.249   4.175 -0.1222  0.3542 -0.1604
 7055SOL    HW132627   4.373   0.161   4.215 -2.6356 -0.4758 -1.9822
 7055SOL    HW232628   4.282   0.257   4.146 -0.0749  0.5124 -0.2607
 7056SOL     OW32629   1.811   1.445   5.026  0.3481 -0.4168 -0.0567
 7056SOL    HW132630   1.720   1.457   4.999  0.3866  1.7396  0.7555
 7056SOL    HW232631   1.791   1.468   5.117  1.8169  1.6183 -0.2605
 7057SOL     OW32632   1.747   0.543   4.996  0.1695 -0.3308 -0.2344
 7057SOL    HW132633   1.789   0.625   5.021  2.5081 -1.0807 -1.6788
 7057SOL    HW232634   1.706   0.562   4.911 -1.1837  2.7578  1.1089
 7058SOL     OW32635   2.327   3.368  11.529  0.3664  0.0240  0.4017
 7058SOL    HW132636   2.268   3.430  11.571  0.1007  0.2987 -0.3634
 7058SOL    HW232637   2.333   3.308  11.603 -2.0230 -1.5459 -0.6733
 7059SOL     OW32638   1.264   2.736   6.977  0.1029  0.4094 -0.7294
 7059SOL    HW132639   1.327   2.666   6.990 -0.6726  0.1411  1.7303
 7059SOL    HW232640   1.298   2.813   7.024  0.6886 -0.8894  0.9529
 7060SOL     OW32641   3.092   3.267   4.329  0.4612 -0.4623  0.1320
 7060SOL    HW132642   2.998   3.259   4.349  0.6626 -1.5134  0.6589
 7060SOL    HW232643   3.116   3.301   4.415  2.2080 -0.9535 -0.1614
 7061SOL     OW32644   2.250   3.739   0.723  0.1626  0.0002 -0.7596
 7061SOL    HW132645   2.156   3.753   0.729  0.3368  1.0256 -0.4310
 7061SOL    HW232646   2.253   3.739   0.627 -1.7951 -2.4352 -0.8376
 7062SOL     OW32647   0.014   2.227   2.155 -0.2521 -0.1571  0.2394
 7062SOL    HW132648   0.079   2.160   2.136 -1.4968 -1.7321  1.5483
 7062SOL    HW232649   4.673   2.194   2.095  1.7290 -0.4087 -1.8000
 7063SOL     OW32650   3.768   4.413  14.496 -0.1836 -0.0068  0.2496
 7063SOL    HW132651   3.687   4.397  14.448  0.1155 -0.3076 -0.1585
 7063SOL    HW232652   3.729   4.438  14.580  0.7053  2.0577  0.0468
 7064SOL     OW32653   2.593   1.806  10.347  0.3487 -0.4458 -0.1359
 7064SOL    HW132654   2.545   1.882  10.380 -0.4969 -1.4187  0.8379
 7064SOL    HW232655   2.680   1.846  10.337  0.5812 -0.3749  2.0829
 7065SOL     OW32656   4.594   4.226  15.075 -0.0556  0.1404 -0.1027
 7065SOL    HW132657   4.543   4.243  14.996 -0.0522  0.5468 -0.0175
 7065SOL    HW232658   4.567   4.136  15.095  0.1571  0.3958  1.2981
 7066SOL     OW32659   3.752   4.136   2.446 -0.1748  0.8602 -0.1484
 7066SOL    HW132660   3.732   4.073   2.377 -1.3868  1.6706 -0.5219
 7066SOL    HW232661   3.848   4.140   2.452 -0.0995  1.7653 -2.0249
 7067SOL     OW32662   2.232   3.450   8.253 -0.0877 -0.3731 -0.4271
 7067SOL    HW132663   2.139   3.432   8.240 -0.5023  1.3788  0.1061
 7067SOL    HW232664   2.249   3.440   8.347  1.5370  1.8502 -0.4590
 7068SOL     OW32665   0.126   2.610   7.526 -0.0733  0.6313 -0.0189
 7068SOL    HW132666   0.143   2.653   7.442  0.5461 -1.7707 -1.1114
 7068SOL    HW232667   0.205   2.639   7.573 -0.1232 -0.5333  0.8008
 7069SOL     OW32668   2.416   0.657  13.122  0.3242 -0.5302 -0.6505
 7069SOL    HW132669   2.398   0.732  13.067  1.7373 -2.2769 -3.4886
 7069SOL    HW232670   2.509   0.638  13.107 -0.0759 -0.3849 -3.2325
 7070SOL     OW32671   0.854   4.083   3.586  0.3452 -0.2124 -0.3367
 7070SOL    HW132672   0.874   4.159   3.641  1.0373 -0.8703  0.3265
 7070SOL    HW232673   0.786   4.118   3.530 -1.0712 -1.2009  0.7790
 7071SOL     OW32674   1.642   0.944   6.493  0.1301  0.0697  0.0536
 7071SOL    HW132675   1.607   0.859   6.464  1.6010  0.0822 -1.7521
 7071SOL    HW232676   1.562   0.986   6.526 -0.0357 -1.0424  1.0593
 7072SOL     OW32677   0.731   2.332   5.614  0.1453  0.3125 -0.5944
 7072SOL    HW132678   0.802   2.384   5.578 -0.4904  1.2092 -0.5478
 7072SOL    HW232679   0.729   2.355   5.707 -1.2791 -1.1917 -0.2468
 7073SOL     OW32680   3.752   4.425   3.973  0.0615  0.0416 -0.7766
 7073SOL    HW132681   3.752   4.509   4.020  1.8716 -0.5467  0.2790
 7073SOL    HW232682   3.667   4.390   3.998  0.4696 -0.9645 -0.8090
 7074SOL     OW32683   0.459   3.607   3.038 -0.2245 -0.3057 -0.1667
 7074SOL    HW132684   0.522   3.542   3.070  0.5940  1.0058  0.8726
 7074SOL    HW232685   0.402   3.631   3.111 -0.3422 -0.4815 -0.2010
 7075SOL     OW32686   2.033   0.347   4.339  0.8528  0.1527  0.1847
 7075SOL    HW132687   2.000   0.258   4.353 -1.0968  0.7168 -0.7876
 7075SOL    HW232688   2.006   0.389   4.421  0.9018  1.7450 -0.6126
 7076SOL     OW32689   4.254   0.158   3.416  0.0482 -0.0150 -0.1157
 7076SOL    HW132690   4.289   0.101   3.484  0.7303 -0.9348 -1.2396
 7076SOL    HW232691   4.264   0.095   3.344  0.6872 -0.3563  0.2718
 7077SOL     OW32692   0.660   3.190   2.054  0.3898  0.7833 -0.4273
 7077SOL    HW132693   0.644   3.284   2.047 -0.3421  0.7174  0.4659
 7077SOL    HW232694   0.658   3.154   1.965 -1.2287  1.2088 -0.5560
 7078SOL     OW32695   4.449   3.381   8.630  0.3240  0.1909 -0.4401
 7078SOL    HW132696   4.391   3.346   8.698  2.7736  0.0914  1.5863
 7078SOL    HW232697   4.455   3.473   8.653 -0.3160  0.7907 -2.6026
 7079SOL     OW32698   3.482   1.222   9.028 -0.2839 -0.1395  0.0647
 7079SOL    HW132699   3.504   1.241   8.936  0.6257  0.9148  0.4941
 7079SOL    HW232700   3.433   1.301   9.050 -0.1656 -0.1088  0.2155
 7080SOL     OW32701   0.187   2.855   6.453 -0.3911  0.0474 -0.4672
 7080SOL    HW132702   0.226   2.936   6.487  0.8009 -0.6056 -0.2849
 7080SOL    HW232703   0.131   2.888   6.383  0.6521 -1.3182 -1.9355
 7081SOL     OW32704   0.457   3.644  15.519  0.5360  0.1303 -0.4756
 7081SOL    HW132705   0.418   3.722  15.478  1.5810  0.4345 -0.9037
 7081SOL    HW232706   0.421   3.585  15.453 -0.0648 -0.1300  0.0829
 7082SOL     OW32707   2.933   0.688   8.940 -0.5784  0.4219  0.2153
 7082SOL    HW132708   2.844   0.715   8.964 -0.5599  1.5118 -0.9894
 7082SOL    HW232709   2.942   0.596   8.967  2.0121  1.6188  3.2807
 7083SOL     OW32710   1.989   1.235   5.251 -0.5752 -0.1192 -0.0067
 7083SOL    HW132711   1.935   1.313   5.255  0.3897  0.6747 -2.3804
 7083SOL    HW232712   2.018   1.237   5.343  1.6801 -0.1707 -0.7042
 7084SOL     OW32713   3.663   3.290  12.948 -0.0093  0.2881  0.5412
 7084SOL    HW132714   3.644   3.289  12.855  1.4345  0.9180  0.2499
 7084SOL    HW232715   3.680   3.383  12.960 -1.2035  0.3696  1.6604
 7085SOL     OW32716   1.858   1.077  11.191  0.8564  0.1882 -0.3563
 7085SOL    HW132717   1.948   1.048  11.177  0.8435 -0.4849  0.8912
 7085SOL    HW232718   1.818   1.015  11.130  1.9696  0.8949 -1.7980
 7086SOL     OW32719   2.391   4.351   1.986  0.6929 -0.1416  0.3565
 7086SOL    HW132720   2.401   4.446   1.974 -1.1233 -0.0572 -0.4792
 7086SOL    HW232721   2.364   4.344   2.078  0.4457  1.4999  0.4054
 7087SOL     OW32722   3.433   3.404   3.490  0.1285  0.1748  0.1817
 7087SOL    HW132723   3.498   3.368   3.430  0.6432  0.1991  0.7336
 7087SOL    HW232724   3.367   3.435   3.427 -0.2923 -1.9671 -0.4220
 7088SOL     OW32725   4.048   0.241   5.992 -0.0127 -0.4662 -0.3068
 7088SOL    HW132726   4.032   0.212   5.902 -1.4165  0.1606 -0.2513
 7088SOL    HW232727   4.132   0.200   6.013  0.2159 -0.8775 -2.0626
 7089SOL     OW32728   0.232   0.318  12.030 -0.0352  0.2041 -0.2513
 7089SOL    HW132729   0.165   0.300  11.964 -0.6383  0.3028  0.3341
 7089SOL    HW232730   0.304   0.342  11.972  1.2892 -0.5453  1.0686
 7090SOL     OW32731   1.586   4.561   5.116  0.2200  0.8059  0.1328
 7090SOL    HW132732   1.545   4.647   5.127  2.3319  1.4954  2.6573
 7090SOL    HW232733   1.677   4.582   5.138  0.8367 -0.0136 -1.6076
 7091SOL     OW32734   2.847   0.305   7.759  0.3588 -0.0834  0.0631
 7091SOL    HW132735   2.799   0.222   7.767  1.4686 -0.6370  0.9728
 7091SOL    HW232736   2.899   0.307   7.840  0.6449 -0.8823 -0.1055
 7092SOL     OW32737   0.903   0.674   0.528 -0.7193 -0.0116  0.1431
 7092SOL    HW132738   0.837   0.743   0.540  1.3318  1.6886  1.6923
 7092SOL    HW232739   0.965   0.739   0.494 -1.4911  0.2938 -0.7097
 7093SOL     OW32740   2.055   2.469   8.984  0.7039 -0.1698 -0.1320
 7093SOL    HW132741   1.983   2.486   9.046  1.2774  1.8193 -0.0126
 7093SOL    HW232742   2.123   2.536   8.989  0.9272 -0.2490 -2.4669
 7094SOL     OW32743   2.594   0.089  14.031  0.4229  1.1717 -0.3371
 7094SOL    HW132744   2.640   0.168  14.061  0.0754  1.2769 -0.0767
 7094SOL    HW232745   2.558   0.129  13.952 -1.9617  1.0535  0.6956
 7095SOL     OW32746   2.672   4.017   1.283 -0.3321 -0.1600 -0.1056
 7095SOL    HW132747   2.693   3.984   1.370  2.2357 -0.6477 -0.9145
 7095SOL    HW232748   2.736   3.963   1.237  1.3756  0.9515  1.0159
 7096SOL     OW32749   2.347   3.816   5.259 -0.0183 -0.1282  0.1941
 7096SOL    HW132750   2.408   3.887   5.239  0.0674  0.1626  1.5098
 7096SOL    HW232751   2.320   3.793   5.170 -0.1267  0.6235  0.0332
 7097SOL     OW32752   0.578   1.354  17.492 -0.1076 -0.1438  0.1635
 7097SOL    HW132753   0.661   1.327  17.531  2.1177  4.3583 -1.4392
 7097SOL    HW232754   0.519   1.345  17.567  0.7361 -2.9087  0.4908
 7098SOL     OW32755   0.538   0.597   6.376 -0.3153 -0.1404  0.0347
 7098SOL    HW132756   0.535   0.618   6.283 -1.3458 -0.1911  0.0580
 7098SOL    HW232757   0.630   0.610   6.399 -0.9094  0.3017  2.1816
 7099SOL     OW32758   3.841   3.770   3.852 -0.4129  0.5789 -0.2881
 7099SOL    HW132759   3.781   3.748   3.924  0.1113 -0.3244 -0.1165
 7099SOL    HW232760   3.842   3.687   3.803 -2.4746 -0.7567  1.9023
 7100SOL     OW32761   4.020   3.621   0.156 -0.2409  0.4785  0.6480
 7100SOL    HW132762   3.947   3.633   0.096  0.3323 -2.1305 -0.5528
 7100SOL    HW232763   4.013   3.532   0.189  0.9769  0.2734  0.3673
 7101SOL     OW32764   2.303   4.041  10.181  0.4797  0.3403 -0.9399
 7101SOL    HW132765   2.354   3.968  10.146  0.5984 -0.0157 -0.0454
 7101SOL    HW232766   2.348   4.120  10.154  3.8058 -0.7521  1.3487
 7102SOL     OW32767   3.820   3.310   8.672  0.6325  0.1023  0.1720
 7102SOL    HW132768   3.755   3.356   8.620 -0.1168 -1.1424  0.0131
 7102SOL    HW232769   3.768   3.298   8.752  1.8265 -3.6526  0.3801
 7103SOL     OW32770   4.616   0.603   4.019  0.0791  0.3164  0.3975
 7103SOL    HW132771   4.675   0.641   4.083  1.1390  0.1675 -0.4971
 7103SOL    HW232772   4.640   0.664   3.950 -2.9821  0.2148 -0.7874
 7104SOL     OW32773   3.168   2.367   6.570 -0.0589 -0.4926  0.6079
 7104SOL    HW132774   3.143   2.457   6.590 -1.7129 -0.8217 -0.0417
 7104SOL    HW232775   3.111   2.320   6.630  1.0255 -2.2171  0.3015
 7105SOL     OW32776   1.901   2.426   5.977  0.1013 -0.2863  0.4449
 7105SOL    HW132777   1.995   2.437   5.967  0.2223 -3.6555 -2.5222
 7105SOL    HW232778   1.883   2.422   5.883 -0.6351 -1.3428  0.6273
 7106SOL     OW32779   0.899   0.947   9.469 -0.4474 -0.5309 -0.8583
 7106SOL    HW132780   0.814   0.905   9.484 -0.2233 -0.6974 -0.0551
 7106SOL    HW232781   0.938   0.926   9.554  0.7245 -0.9450 -1.5061
 7107SOL     OW32782   2.983   4.210   0.486  0.2333  0.4783  0.1838
 7107SOL    HW132783   3.019   4.171   0.406 -2.6232  0.0064 -0.8745
 7107SOL    HW232784   2.890   4.197   0.467  0.2722 -0.2298  0.5053
 7108SOL     OW32785   2.216   0.147   3.377  0.4536  0.4176 -0.4565
 7108SOL    HW132786   2.235   0.182   3.464  1.1112 -3.0162  0.7973
 7108SOL    HW232787   2.127   0.180   3.364  0.0265 -0.5773 -0.0664
 7109SOL     OW32788   3.721   1.209   4.884  0.0607  0.3557  0.2550
 7109SOL    HW132789   3.795   1.184   4.938 -1.3857 -2.7269  0.7879
 7109SOL    HW232790   3.761   1.251   4.808  2.6813 -1.5787  0.5782
 7110SOL     OW32791   4.200   1.099   4.180  0.1311 -0.3655 -0.4061
 7110SOL    HW132792   4.288   1.137   4.187  0.8248 -2.1074  0.1787
 7110SOL    HW232793   4.143   1.151   4.124 -0.6606  1.9309  2.5241
 7111SOL     OW32794   1.587   3.142  10.926  0.0850 -0.3418  0.4752
 7111SOL    HW132795   1.536   3.062  10.910  0.9039 -0.8260  0.3129
 7111SOL    HW232796   1.555   3.169  11.012 -1.7333 -1.9990  0.3277
 7112SOL     OW32797   3.223   1.264   9.957  0.4812 -0.1548  0.2221
 7112SOL    HW132798   3.184   1.201   9.896 -0.3509  1.6565 -1.1107
 7112SOL    HW232799   3.141   1.293   9.997 -0.2048 -1.2740 -0.3793
 7113SOL     OW32800   2.565   4.631   3.556  0.3371 -0.3544  0.3974
 7113SOL    HW132801   2.502   4.561   3.572  0.3692 -0.5789 -0.4959
 7113SOL    HW232802   2.589   4.608   3.467  1.8597 -1.4106  1.0722
 7114SOL     OW32803   1.801   1.075   7.719  0.3739  0.1019 -0.0565
 7114SOL    HW132804   1.833   1.013   7.654 -2.0099 -0.1020 -1.0502
 7114SOL    HW232805   1.719   1.030   7.740 -0.5390  2.8636  2.4561
 7115SOL     OW32806   2.211   4.594   1.389 -0.5470  0.5816 -0.0326
 7115SOL    HW132807   2.181   4.607   1.299  0.2792 -1.0336 -0.5464
 7115SOL    HW232808   2.142   4.534   1.415  0.5064 -1.0267 -0.8965
 7116SOL     OW32809   4.227   4.499   5.480 -0.4218 -0.2285 -0.0131
 7116SOL    HW132810   4.296   4.563   5.495 -0.7402  0.1654 -0.2683
 7116SOL    HW232811   4.187   4.496   5.567 -2.9483  1.1846 -1.1383
 7117SOL     OW32812   0.402   3.181   8.813  0.3408  0.2580 -0.2838
 7117SOL    HW132813   0.367   3.097   8.840 -0.3049  0.8084  0.5999
 7117SOL    HW232814   0.380   3.238   8.887  0.3625 -1.2402  0.8721
 7118SOL     OW32815   3.725   3.108   4.836 -0.4989 -0.3095  0.3412
 7118SOL    HW132816   3.747   3.036   4.776  0.3885 -1.2533  1.8109
 7118SOL    HW232817   3.669   3.060   4.896 -1.2635  0.5101  0.2711
 7119SOL     OW32818   1.391   0.024   4.128  0.5296 -0.1498 -0.0325
 7119SOL    HW132819   1.361   0.063   4.046  0.6900  0.0799  0.0176
 7119SOL    HW232820   1.314   4.703   4.163  1.4325 -0.7172  1.2124
 7120SOL     OW32821   2.330   3.350   0.691  0.1216 -0.0575  0.1599
 7120SOL    HW132822   2.267   3.320   0.756  0.7447 -0.5346  0.5437
 7120SOL    HW232823   2.325   3.293   0.615  1.5830  1.5642 -1.1594
 7121SOL     OW32824   3.217   2.133   7.841  0.3476 -0.4438  0.0283
 7121SOL    HW132825   3.235   2.204   7.779 -4.0204 -1.2310 -2.0639
 7121SOL    HW232826   3.205   2.179   7.924 -1.1767  0.3877 -0.6675
 7122SOL     OW32827   0.261   4.141   7.637  0.6863  0.0618 -0.1312
 7122SOL    HW132828   0.350   4.127   7.669  1.1443  0.1080 -1.3882
 7122SOL    HW232829   0.212   4.160   7.717 -0.5827 -3.6049 -0.0548
 7123SOL     OW32830   3.795   2.819  14.788  0.2048  0.2337 -0.3082
 7123SOL    HW132831   3.800   2.738  14.737 -2.0192 -0.3987  0.5149
 7123SOL    HW232832   3.754   2.791  14.870  0.2513  1.6687  0.2092
 7124SOL     OW32833   1.381   2.514  16.892 -0.5712 -0.2137  0.0053
 7124SOL    HW132834   1.390   2.460  16.814  0.5230  1.0878 -0.7875
 7124SOL    HW232835   1.380   2.449  16.962 -1.7238  0.1833  0.3650
 7125SOL     OW32836   2.127   0.971   6.877 -0.2187  0.0449  0.0366
 7125SOL    HW132837   2.160   0.882   6.862 -1.2262  0.0575 -2.2172
 7125SOL    HW232838   2.096   0.965   6.967  0.1008 -0.5415  0.1078
 7126SOL     OW32839   4.380   4.111   6.457  0.2808 -0.1723 -0.1797
 7126SOL    HW132840   4.391   4.137   6.366 -0.7761  2.3166  0.4045
 7126SOL    HW232841   4.345   4.191   6.496  2.6155  1.4382 -1.3502
 7127SOL     OW32842   0.819   3.085  11.678 -0.2014  0.3179 -0.0292
 7127SOL    HW132843   0.909   3.075  11.710 -0.1417 -0.2956 -0.3846
 7127SOL    HW232844   0.826   3.033  11.598 -1.2657 -1.8891  1.3101
 7128SOL     OW32845   3.708   2.833   4.713 -0.4680 -0.3223 -0.0581
 7128SOL    HW132846   3.639   2.848   4.648 -0.5557  0.4108  0.2011
 7128SOL    HW232847   3.781   2.878   4.670 -0.8345 -0.2558 -0.6173
 7129SOL     OW32848   0.900   1.994   3.517 -0.3768  0.6941 -0.2705
 7129SOL    HW132849   0.911   1.936   3.442  0.4236  0.3823  0.0882
 7129SOL    HW232850   0.941   2.070   3.476 -1.4287  1.5049  0.1862
 7130SOL     OW32851   4.377   1.933   0.280 -0.1306 -0.3449  0.1226
 7130SOL    HW132852   4.468   1.906   0.270 -0.1335  0.3383 -1.8750
 7130SOL    HW232853   4.326   1.853   0.290 -1.5062  0.5588  0.3336
 7131SOL     OW32854   1.798   2.484   9.721 -0.2526  0.5958  0.1103
 7131SOL    HW132855   1.727   2.543   9.747 -0.5091  0.3362 -0.0064
 7131SOL    HW232856   1.751   2.416   9.673  1.1638  0.3073 -0.8870
 7132SOL     OW32857   2.284   0.454   6.911  0.2399  0.3929  0.4319
 7132SOL    HW132858   2.350   0.415   6.967  1.5403  1.6066 -0.2627
 7132SOL    HW232859   2.330   0.445   6.828  0.0841  0.0855  0.3764
 7133SOL     OW32860   2.106   3.686   2.349  0.6841 -0.1289  0.6540
 7133SOL    HW132861   2.036   3.715   2.290  1.4393  0.7670  0.1888
 7133SOL    HW232862   2.169   3.747   2.310 -1.4937  0.3417 -2.1064
 7134SOL     OW32863   3.308   3.785  11.941  0.4998  0.0158 -0.4552
 7134SOL    HW132864   3.336   3.700  11.976  0.6630  1.7094  3.5031
 7134SOL    HW232865   3.388   3.793  11.890 -0.0158  1.6490 -1.0034
 7135SOL     OW32866   1.664   4.149  11.638  0.2118  0.2664  0.0612
 7135SOL    HW132867   1.626   4.108  11.715  0.9255 -2.4734 -1.0131
 7135SOL    HW232868   1.719   4.080  11.601  2.4114  1.7737  0.4865
 7136SOL     OW32869   4.010   2.974  15.476 -0.3358  0.1148 -0.3000
 7136SOL    HW132870   4.072   3.042  15.504 -0.3625  0.3182 -0.7406
 7136SOL    HW232871   4.009   2.911  15.548  3.9659  2.1227  1.5154
 7137SOL     OW32872   4.109   1.599   3.592 -0.5275 -0.3071 -0.3126
 7137SOL    HW132873   4.022   1.585   3.555  0.0770  0.4327 -1.9942
 7137SOL    HW232874   4.131   1.682   3.550  0.0660  1.0297  2.6035
 7138SOL     OW32875   0.271   1.555   3.966 -0.1472  0.2504  0.2230
 7138SOL    HW132876   0.250   1.603   4.047 -0.2575 -1.4870  1.2182
 7138SOL    HW232877   0.359   1.591   3.954 -0.9500  1.4777 -1.9177
 7139SOL     OW32878   2.917   2.439   5.574  0.1533  0.1309  0.1108
 7139SOL    HW132879   2.995   2.401   5.612 -0.4069 -0.7877  0.3354
 7139SOL    HW232880   2.966   2.494   5.512 -0.3757  0.9742  0.4376
 7140SOL     OW32881   3.871   3.392   7.965 -0.0875  0.4700 -0.7138
 7140SOL    HW132882   3.825   3.417   7.885 -1.0331 -0.6775 -0.5355
 7140SOL    HW232883   3.925   3.468   7.984 -0.8729  0.4399  1.5530
 7141SOL     OW32884   4.703   1.693  12.884  0.1318  0.0965 -0.3296
 7141SOL    HW132885   4.682   1.705  12.977  1.1832  1.4880 -0.2740
 7141SOL    HW232886   4.615   1.717  12.856 -0.9797 -2.6919  0.8193
 7142SOL     OW32887   1.090   3.235  12.959 -0.6755  0.2341 -0.1348
 7142SOL    HW132888   1.121   3.320  12.990  1.1791 -0.2777 -0.5559
 7142SOL    HW232889   1.017   3.218  13.019 -0.5283 -0.7599 -0.2354
 7143SOL     OW32890   0.302   3.243  13.476 -0.1107  0.3493 -0.6095
 7143SOL    HW132891   0.236   3.192  13.523  1.2363 -0.5532  0.3016
 7143SOL    HW232892   0.244   3.268  13.404 -1.4440  0.6099  0.5531
 7144SOL     OW32893   4.543   2.833  14.376 -0.2654 -0.1247 -0.4756
 7144SOL    HW132894   4.604   2.776  14.330  0.8362 -0.5514  1.5276
 7144SOL    HW232895   4.603   2.897  14.413 -1.5866  0.6507  0.3273
 7145SOL     OW32896   1.951   1.715  10.214  0.4658 -0.5940 -0.5019
 7145SOL    HW132897   1.923   1.625  10.225 -0.6613 -0.2574 -0.6020
 7145SOL    HW232898   2.014   1.719  10.286 -0.2746  0.5603  0.0958
 7146SOL     OW32899   1.230   2.305   3.931  0.5131 -0.0940 -0.1256
 7146SOL    HW132900   1.263   2.327   4.018 -0.2335 -0.9822  0.3897
 7146SOL    HW232901   1.290   2.234   3.912  0.1345 -0.6033  0.5582
 7147SOL     OW32902   0.327   2.421   6.596  0.1387 -0.4122  0.2203
 7147SOL    HW132903   0.351   2.506   6.631 -0.7493 -0.9400  2.0948
 7147SOL    HW232904   0.299   2.444   6.507 -0.6562 -0.6013  0.4233
 7148SOL     OW32905   1.632   1.183   1.769 -0.1948 -0.2301  0.0105
 7148SOL    HW132906   1.538   1.165   1.771  0.0375 -1.3727  1.3401
 7148SOL    HW232907   1.653   1.144   1.854 -0.9091 -0.4998  0.0591
 7149SOL     OW32908   3.864   1.237  11.346  0.0257  0.0155 -0.3611
 7149SOL    HW132909   3.855   1.289  11.426  1.9851  0.2473 -0.2983
 7149SOL    HW232910   3.776   1.229  11.311  0.2927  2.0275 -1.4702
 7150SOL     OW32911   1.625   0.308  12.871  0.1332 -0.2054  0.1242
 7150SOL    HW132912   1.636   0.403  12.882 -1.3680 -0.0875  0.5665
 7150SOL    HW232913   1.699   0.279  12.925 -1.0218 -1.2621  1.1372
 7151SOL     OW32914   4.533   3.837   0.635  0.5554  0.7359  0.3877
 7151SOL    HW132915   4.468   3.829   0.565  1.5108 -1.3381 -0.2556
 7151SOL    HW232916   4.559   3.747   0.653 -1.8730  0.0148  0.3069
 7152SOL     OW32917   1.348   3.034  14.572  0.2251 -0.2913 -0.0701
 7152SOL    HW132918   1.322   2.957  14.624  0.3545  1.9723  3.3144
 7152SOL    HW232919   1.303   3.015  14.490 -1.1454 -0.5129  0.7247
 7153SOL     OW32920   4.163   3.754   7.427 -0.5375 -0.2759 -0.1495
 7153SOL    HW132921   4.181   3.829   7.484 -1.5590 -0.8434  0.9227
 7153SOL    HW232922   4.068   3.766   7.415 -0.6673 -0.2716  0.9023
 7154SOL     OW32923   3.279   4.105  13.657  0.0325  0.7796 -0.7076
 7154SOL    HW132924   3.263   4.125  13.749  2.1122 -0.0081 -0.1810
 7154SOL    HW232925   3.367   4.142  13.654  0.6073 -0.4479  1.1656
 7155SOL     OW32926   4.119   3.127   3.543 -0.5965 -0.6440 -0.2358
 7155SOL    HW132927   4.206   3.088   3.537  1.0191  2.9604 -0.5349
 7155SOL    HW232928   4.072   3.044   3.541 -3.0559  0.7095  0.6894
 7156SOL     OW32929   2.116   4.015   2.488 -0.5865  0.1261 -0.3945
 7156SOL    HW132930   2.136   4.103   2.455  2.0233 -0.9859 -1.8196
 7156SOL    HW232931   2.144   3.956   2.417  2.4173  2.3301 -1.0424
 7157SOL     OW32932   0.813   3.030   3.777 -0.7813  0.1341  0.1778
 7157SOL    HW132933   0.811   3.031   3.681  1.4885  3.1993  0.1902
 7157SOL    HW232934   0.842   3.119   3.793 -2.3342  0.6254  0.2075
 7158SOL     OW32935   0.261   1.979   4.028  0.0399  0.0035 -0.1579
 7158SOL    HW132936   0.213   2.060   4.016  0.3986  0.2425  0.0204
 7158SOL    HW232937   0.351   2.009   4.016  0.2387 -0.8638 -0.8477
 7159SOL     OW32938   1.544   2.179   6.608  0.0542  0.6485  0.3863
 7159SOL    HW132939   1.533   2.239   6.535  1.5633  1.1518  0.5784
 7159SOL    HW232940   1.537   2.248   6.674  1.1067  0.3259  0.8430
 7160SOL     OW32941   1.121   2.510   8.908 -0.3748 -0.2885  0.0079
 7160SOL    HW132942   1.182   2.512   8.981  0.5514 -1.9625 -0.7347
 7160SOL    HW232943   1.099   2.602   8.893  2.7276  0.3269 -0.7903
 7161SOL     OW32944   3.061   1.612   1.008 -0.0149 -0.0407  0.5350
 7161SOL    HW132945   3.144   1.577   1.040  0.7464  1.2451  0.0247
 7161SOL    HW232946   3.043   1.562   0.929  1.7102  1.4460 -0.8193
 7162SOL     OW32947   3.572   3.569  15.123  0.0268  0.5348  0.0776
 7162SOL    HW132948   3.534   3.528  15.201 -0.5679  0.4751 -0.2375
 7162SOL    HW232949   3.664   3.542  15.128  0.1718  0.4804 -2.7981
 7163SOL     OW32950   2.384   3.954   1.307 -0.3920  0.2009 -0.1463
 7163SOL    HW132951   2.464   3.996   1.275  0.0568  0.2838  1.0979
 7163SOL    HW232952   2.427   3.870   1.321 -1.0235 -0.0796  0.0888
 7164SOL     OW32953   1.668   2.581  10.508 -0.4836 -0.1533 -0.4266
 7164SOL    HW132954   1.763   2.594  10.505 -0.7396  1.6992 -0.3179
 7164SOL    HW232955   1.679   2.488  10.529 -0.4934 -0.2619 -0.9189
 7165SOL     OW32956   4.652   0.676   7.849 -0.0166  0.2892  0.4281
 7165SOL    HW132957   4.599   0.598   7.832 -1.1631  1.2243 -0.2781
 7165SOL    HW232958   4.700   0.688   7.767 -0.2252  2.5799  0.6255
 7166SOL     OW32959   0.564   3.053   6.815  0.5987  0.5375 -0.3666
 7166SOL    HW132960   0.659   3.053   6.827  0.7175  0.1399 -1.3075
 7166SOL    HW232961   0.563   3.004   6.733  1.1017 -0.3784  0.1783
 7167SOL     OW32962   0.361   0.981   2.021  0.4664 -0.6425  0.2594
 7167SOL    HW132963   0.407   1.047   2.074  1.6487 -1.2483 -0.0117
 7167SOL    HW232964   0.356   1.018   1.933 -2.0732 -0.5975  0.4248
 7168SOL     OW32965   0.788   4.043   0.809  0.2316  0.5562  0.0088
 7168SOL    HW132966   0.724   4.104   0.846 -0.3725  0.2097 -0.4725
 7168SOL    HW232967   0.728   3.983   0.765  2.6204 -1.4662 -0.5217
 7169SOL     OW32968   3.193   0.758   1.372 -0.2270 -0.4325  0.2233
 7169SOL    HW132969   3.158   0.714   1.449 -0.8040  1.5749  1.1029
 7169SOL    HW232970   3.287   0.760   1.386 -0.1716  2.0773 -0.4019
 7170SOL     OW32971   3.222   2.511   0.862  0.0582  0.0270  0.1003
 7170SOL    HW132972   3.228   2.416   0.855 -1.1583 -0.1442  1.3333
 7170SOL    HW232973   3.313   2.529   0.838 -0.1236  1.8597  0.8149
 7171SOL     OW32974   4.521   4.440   4.336  0.4997 -0.9253 -0.4159
 7171SOL    HW132975   4.616   4.446   4.323  0.3041  1.1861 -0.8650
 7171SOL    HW232976   4.513   4.476   4.424 -3.4623 -2.2349 -0.2764
 7172SOL     OW32977   0.084   4.494   4.274 -0.2327  0.5335 -0.4206
 7172SOL    HW132978   0.065   4.457   4.188 -1.9604  3.1943 -1.1506
 7172SOL    HW232979   0.180   4.489   4.273 -0.1946  0.6308  1.5239
 7173SOL     OW32980   0.811   1.981  12.964 -0.6552  0.1073  0.4992
 7173SOL    HW132981   0.779   1.925  12.893  0.3145  0.3657 -0.1351
 7173SOL    HW232982   0.750   2.055  12.957 -2.2540 -1.3975 -1.5334
 7174SOL     OW32983   3.414   2.539   6.278 -0.1883 -0.6905 -0.0328
 7174SOL    HW132984   3.449   2.508   6.362 -0.9313 -3.0949 -0.5937
 7174SOL    HW232985   3.467   2.523   6.201 -1.3766  0.3083 -1.0586
 7175SOL     OW32986   2.749   1.308  11.908  0.2580 -0.2304  0.3869
 7175SOL    HW132987   2.816   1.247  11.938  2.3857  1.1623 -1.5298
 7175SOL    HW232988   2.689   1.245  11.867 -0.5733 -0.1980  1.5618
 7176SOL     OW32989   0.565   4.690   5.425  0.6640 -0.0126  0.3822
 7176SOL    HW132990   0.611   4.608   5.410 -0.7307 -0.8139  0.4647
 7176SOL    HW232991   0.491   4.693   5.365  1.5584  0.6076 -0.6694
 7177SOL     OW32992   3.919   0.951   7.633 -0.4203  0.1249  0.9450
 7177SOL    HW132993   3.846   0.941   7.694 -0.7668 -2.0438  0.1977
 7177SOL    HW232994   3.991   0.990   7.683  0.7173 -0.4034 -0.2587
 7178SOL     OW32995   3.623   0.784   2.788  0.0836  0.6126  0.0169
 7178SOL    HW132996   3.647   0.702   2.832 -0.8192 -0.7451 -2.0120
 7178SOL    HW232997   3.661   0.772   2.701 -1.2093  0.1501 -0.4700
 7179SOL     OW32998   2.790   3.960   7.059 -0.2796  0.0971 -0.7017
 7179SOL    HW132999   2.851   3.906   7.009  0.8514  0.3770  0.3847
 7179SOL    HW233000   2.835   3.950   7.143  2.5281 -0.5602 -2.3156
 7180SOL     OW33001   2.414   0.264   4.935  0.2556 -0.4245 -0.4536
 7180SOL    HW133002   2.346   0.211   4.975 -0.8852  1.8195  0.5868
 7180SOL    HW233003   2.492   0.236   4.983  0.6056  1.0457 -0.1354
 7181SOL     OW33004   1.854   2.308   4.620  0.8133  0.5378  0.2419
 7181SOL    HW133005   1.870   2.332   4.712 -0.2549  1.6910  0.1260
 7181SOL    HW233006   1.898   2.224   4.616 -2.3189 -1.1427  0.7049
 7182SOL     OW33007   2.711   2.547   6.828  0.4511 -0.1638 -0.6749
 7182SOL    HW133008   2.748   2.635   6.836  2.9489 -1.0671 -2.0265
 7182SOL    HW233009   2.666   2.555   6.744  0.1475  0.5151 -0.4429
 7183SOL     OW33010   1.682   2.927   2.068  0.1743  0.5679  0.2681
 7183SOL    HW133011   1.704   3.013   2.032  1.9092  0.0697  0.1150
 7183SOL    HW233012   1.696   2.954   2.159 -1.3472  0.1375  0.6162
 7184SOL     OW33013   3.143   2.127   7.094 -0.0965 -0.5236  0.7794
 7184SOL    HW133014   3.061   2.089   7.062  0.2885  0.1747 -1.0464
 7184SOL    HW233015   3.150   2.201   7.035 -2.1933 -0.7974  0.1800
 7185SOL     OW33016   2.178   1.936   2.324 -0.1559  0.3817  0.1627
 7185SOL    HW133017   2.088   1.907   2.341  0.3545  0.5467  3.2054
 7185SOL    HW233018   2.215   1.863   2.374 -0.5389 -1.4205 -2.1856
 7186SOL     OW33019   3.646   0.596  17.534 -0.6469  0.2916  0.7038
 7186SOL    HW133020   3.560   0.575  17.570 -0.0890 -0.1875  1.7735
 7186SOL    HW233021   3.635   0.585  17.440 -0.7890  1.6495  0.5635
 7187SOL     OW33022   0.239   3.648   2.354 -0.0868  0.8847 -0.1980
 7187SOL    HW133023   0.181   3.718   2.322  0.3665  1.4989  0.3204
 7187SOL    HW233024   0.228   3.588   2.280  2.8796 -0.9553  0.8821
 7188SOL     OW33025   3.429   3.262   6.640  0.4644  0.7851  0.1910
 7188SOL    HW133026   3.411   3.256   6.734 -0.8617  1.4070 -0.0199
 7188SOL    HW233027   3.523   3.250   6.650  0.6538  1.7434 -0.4561
 7189SOL     OW33028   4.155   1.684   2.906  0.1737  0.2244  0.0368
 7189SOL    HW133029   4.127   1.775   2.896  2.5570  1.0612  0.9269
 7189SOL    HW233030   4.109   1.652   2.984 -1.5886 -2.1843 -1.9866
 7190SOL     OW33031   4.655   2.683   6.885 -0.5457 -0.3771  0.2890
 7190SOL    HW133032   4.565   2.704   6.860  0.2661  1.7518 -0.8090
 7190SOL    HW233033   4.701   2.704   6.803  0.9106 -0.0075  1.2054
 7191SOL     OW33034   2.102   0.410   3.754  0.3598  0.7022 -0.2197
 7191SOL    HW133035   2.056   0.416   3.670 -0.2718  1.0986  0.1508
 7191SOL    HW233036   2.100   0.504   3.774 -0.0835  1.0305 -1.7733
 7192SOL     OW33037   4.706   2.766   4.572  0.2261  0.1934  0.1883
 7192SOL    HW133038   0.051   2.760   4.506  0.5635  2.3007  0.3711
 7192SOL    HW233039   4.697   2.672   4.591 -2.1938  0.2155 -0.8274
 7193SOL     OW33040   3.458   3.144  17.518  0.2090 -0.1367  0.0641
 7193SOL    HW133041   3.526   3.202  17.551  1.7767  0.0745 -3.4836
 7193SOL    HW233042   3.382   3.202  17.513 -0.8267 -1.6221 -1.4672
 7194SOL     OW33043   2.085   1.734   4.241 -0.2145 -0.1877  0.7166
 7194SOL    HW133044   2.020   1.682   4.193 -0.0971  0.8664 -0.5682
 7194SOL    HW233045   2.051   1.711   4.328 -0.4281  0.6905  0.8581
 7195SOL     OW33046   3.109   2.231   2.600  0.6039  0.3019  0.3223
 7195SOL    HW133047   3.176   2.253   2.535  0.4990 -0.1986  0.0410
 7195SOL    HW233048   3.075   2.157   2.550 -0.5400  2.3585 -1.9427
 7196SOL     OW33049   4.435   0.959   4.008  0.5650 -0.7183  0.2212
 7196SOL    HW133050   4.424   1.051   4.032  1.6951 -0.6469  0.5122
 7196SOL    HW233051   4.372   0.947   3.938  2.3081 -4.0984 -0.7717
 7197SOL     OW33052   1.669   2.712   9.759 -0.4852 -0.2780 -0.2707
 7197SOL    HW133053   1.762   2.726   9.776 -0.9813 -0.4111  2.5870
 7197SOL    HW233054   1.642   2.772   9.829 -0.6440 -0.1671 -0.4267
 7198SOL     OW33055   1.119   4.670  10.530 -0.5553  0.2428 -0.2067
 7198SOL    HW133056   1.126   4.651  10.624  0.0103 -0.5258 -0.4029
 7198SOL    HW233057   1.118   0.040  10.519  0.5421  0.2882  0.0406
 7199SOL     OW33058   0.087   4.075  10.033  0.1254  0.3267 -0.1601
 7199SOL    HW133059   0.135   3.995  10.055  1.2753  0.7766 -1.0228
 7199SOL    HW233060   4.724   4.041  10.047 -0.1349  1.6099  1.3115
 7200SOL     OW33061   1.377   0.229   2.399  0.1935  0.5579 -0.8644
 7200SOL    HW133062   1.378   0.297   2.467 -2.9034 -0.8075  0.5615
 7200SOL    HW233063   1.306   0.269   2.348 -0.3649 -0.2671 -0.7318
 7201SOL     OW33064   1.049   3.762   1.287  0.2096 -0.2577  0.2075
 7201SOL    HW133065   1.055   3.756   1.192  0.3270 -0.7340  0.2413
 7201SOL    HW233066   0.995   3.689   1.318  0.1433 -0.1839  0.2679
 7202SOL     OW33067   0.599   1.601   3.186  0.7787  0.2080  0.2013
 7202SOL    HW133068   0.541   1.601   3.109 -1.4797 -1.3934  1.8883
 7202SOL    HW233069   0.686   1.620   3.152  1.9806  0.5194  3.5108
 7203SOL     OW33070   3.849   0.230   3.152  0.5869  0.0798  0.0268
 7203SOL    HW133071   3.810   0.317   3.144 -0.8798 -0.4682  1.0732
 7203SOL    HW233072   3.787   0.171   3.110  1.4320  0.0546 -1.1660
 7204SOL     OW33073   1.238   4.280   4.378  0.3120  0.0546 -0.1020
 7204SOL    HW133074   1.302   4.341   4.343 -0.3367  1.4452  1.1192
 7204SOL    HW233075   1.289   4.246   4.452 -1.5558  0.3850  1.3469
 7205SOL     OW33076   1.008   4.544   7.129  0.4780 -0.4535 -0.4976
 7205SOL    HW133077   1.061   4.482   7.078 -2.4771 -3.1276 -0.2785
 7205SOL    HW233078   0.988   4.490   7.205 -3.1689  1.9306  0.2339
 7206SOL     OW33079   2.903   0.827  11.572 -0.0669  0.5013 -0.3276
 7206SOL    HW133080   2.879   0.800  11.661 -0.0018  0.1349 -0.4208
 7206SOL    HW233081   2.856   0.758  11.525 -0.9438  1.4260 -0.7949
 7207SOL     OW33082   3.134   0.396   0.439  0.0974 -0.3557 -0.2866
 7207SOL    HW133083   3.106   0.480   0.477  0.9724 -0.8968  1.5761
 7207SOL    HW233084   3.120   0.412   0.346 -2.8037  2.2503  0.5996
 7208SOL     OW33085   0.733   0.809   9.614  0.2359 -0.5367 -0.4716
 7208SOL    HW133086   0.743   0.768   9.700 -1.2618  1.6881  0.7210
 7208SOL    HW233087   0.660   0.869   9.624 -0.4059 -1.9006  2.9657
 7209SOL     OW33088   1.997   3.561   7.795 -0.1057  0.9003  0.2436
 7209SOL    HW133089   2.084   3.600   7.785 -0.0009 -0.2438 -3.3427
 7209SOL    HW233090   1.992   3.590   7.886  0.3358  0.1409  0.5088
 7210SOL     OW33091   2.067   1.866   6.523  0.1059 -0.1061 -0.9646
 7210SOL    HW133092   2.115   1.802   6.471 -0.9470 -0.1201 -1.9228
 7210SOL    HW233093   2.077   1.947   6.473  0.6671  0.2286 -0.3021
 7211SOL     OW33094   2.029   4.628   1.087 -0.0821 -0.2221  0.7735
 7211SOL    HW133095   1.936   4.634   1.107 -0.3629  0.5130 -0.7312
 7211SOL    HW233096   2.050   4.703   1.031 -0.2769 -1.6744 -1.2687
 7212SOL     OW33097   2.682   2.589   6.201  0.4295  0.5597  0.4781
 7212SOL    HW133098   2.746   2.646   6.156 -2.6286  2.0518 -2.0318
 7212SOL    HW233099   2.631   2.660   6.240  1.8538  0.2021  2.9948
 7213SOL     OW33100   0.936   2.100   7.268 -0.0439  0.3579 -0.2388
 7213SOL    HW133101   0.906   2.168   7.209 -2.6508 -3.2992 -3.1455
 7213SOL    HW233102   0.855   2.068   7.308  0.3766 -1.0291 -0.5075
 7214SOL     OW33103   1.464   3.804   7.456  0.2287 -0.1142 -0.7779
 7214SOL    HW133104   1.476   3.710   7.448  1.9623 -0.2304  3.4292
 7214SOL    HW233105   1.537   3.835   7.510  1.6364 -1.3673 -1.9685
 7215SOL     OW33106   3.084   1.178   0.126  0.2258  0.4336 -0.1975
 7215SOL    HW133107   3.076   1.121   0.202 -3.1911  0.9814 -0.1237
 7215SOL    HW233108   3.089   1.261   0.175  1.7198 -0.1090  0.5584
 7216SOL     OW33109   1.306   2.671   6.221 -0.1586  0.3653  0.1140
 7216SOL    HW133110   1.329   2.633   6.306  0.6671  0.0008 -0.2694
 7216SOL    HW233111   1.220   2.629   6.212 -1.0908  2.6482 -1.6004
 7217SOL     OW33112   2.958   2.915   6.274 -0.2620  0.2790  0.1942
 7217SOL    HW133113   3.023   2.867   6.222 -0.5235  1.0939 -0.8815
 7217SOL    HW233114   2.887   2.916   6.211 -0.4976  2.6436  0.5013
 7218SOL     OW33115   3.305   4.465   4.165  0.7016 -0.4364 -0.2451
 7218SOL    HW133116   3.283   4.513   4.245  2.4238  2.0381 -1.2688
 7218SOL    HW233117   3.225   4.493   4.121  0.3716  0.6172  1.0328
 7219SOL     OW33118   1.061   0.268  11.983  0.8570 -0.0596 -0.1973
 7219SOL    HW133119   0.990   0.267  12.048  2.3882 -1.4729  1.4654
 7219SOL    HW233120   0.997   0.276  11.912  0.3050  2.3823  0.5831
 7220SOL     OW33121   1.500   0.506  13.138 -0.4841 -0.6699 -0.0609
 7220SOL    HW133122   1.587   0.540  13.117  0.9084 -2.1071  3.4054
 7220SOL    HW233123   1.444   0.581  13.115  0.0080 -0.5520 -0.8623
 7221SOL     OW33124   3.228   0.344   6.037 -0.1369 -0.7324 -0.6041
 7221SOL    HW133125   3.151   0.393   6.068  1.2322  2.1932 -1.8011
 7221SOL    HW233126   3.290   0.365   6.107 -0.7279  2.8975 -1.1248
 7222SOL     OW33127   4.297   4.722   7.227 -0.0270  0.0124 -0.0995
 7222SOL    HW133128   4.382   0.040   7.238  1.1058 -2.0664 -0.5971
 7222SOL    HW233129   4.284   4.725   7.132  0.4754 -1.3827 -0.2182
 7223SOL     OW33130   0.549   3.371   6.507 -0.1721  0.4491  0.2668
 7223SOL    HW133131   0.554   3.279   6.483  0.1608  0.1564  1.4570
 7223SOL    HW233132   0.643   3.391   6.512 -0.0926  0.3627 -0.8490
 7224SOL     OW33133   4.424   0.647   9.105  0.1774  0.4811 -0.3988
 7224SOL    HW133134   4.355   0.707   9.134 -0.8484 -0.0643 -1.7060
 7224SOL    HW233135   4.499   0.704   9.126  1.2035 -1.9811  2.6484
 7225SOL     OW33136   3.081   4.262   8.257  0.2519 -0.6956  0.0108
 7225SOL    HW133137   3.045   4.186   8.211  0.9485 -1.3865  0.6091
 7225SOL    HW233138   3.171   4.243   8.284  0.3026  0.1230  0.4179
 7226SOL     OW33139   1.346   2.158   8.783  0.1590 -0.2076  0.0177
 7226SOL    HW133140   1.266   2.161   8.835 -0.4514 -0.1449 -0.9395
 7226SOL    HW233141   1.384   2.077   8.818  0.2067 -0.9495 -1.7713
 7227SOL     OW33142   2.294   4.521   1.034 -0.0921 -0.1235 -0.6905
 7227SOL    HW133143   2.297   4.475   0.950 -0.8303 -0.6498 -0.4269
 7227SOL    HW233144   2.204   4.553   1.039  1.1342  2.9374  1.9047
 7228SOL     OW33145   1.037   0.401  16.533  0.6894 -0.1127 -0.1350
 7228SOL    HW133146   1.092   0.368  16.462  1.1762 -1.5437  0.9225
 7228SOL    HW233147   1.018   0.321  16.581  1.4259 -0.4276 -0.3698
 7229SOL     OW33148   2.226   4.469  13.873  0.0222  0.0234  0.5064
 7229SOL    HW133149   2.264   4.554  13.897  0.3263  0.4487 -1.4604
 7229SOL    HW233150   2.134   4.495  13.862 -0.6951 -3.2368 -1.2390
 7230SOL     OW33151   2.392   2.581  15.466 -0.5235  0.4168 -0.4545
 7230SOL    HW133152   2.420   2.537  15.386  0.8293  0.0129  0.2541
 7230SOL    HW233153   2.297   2.568  15.462 -0.4652  0.9652 -3.1371
 7231SOL     OW33154   3.553   3.508  17.253  0.1279  0.0775 -0.1847
 7231SOL    HW133155   3.519   3.471  17.172 -0.3440  0.9407 -0.3773
 7231SOL    HW233156   3.470   3.541  17.287  0.4330  0.5007  0.1415
 7232SOL     OW33157   3.198   1.079   1.857 -0.6694  0.6537 -0.0481
 7232SOL    HW133158   3.267   1.135   1.892 -0.7791 -1.6732  3.8413
 7232SOL    HW233159   3.233   0.991   1.871  2.4736  1.6761 -1.4178
 7233SOL     OW33160   3.023   1.844   8.959 -0.3980 -0.1990 -0.1043
 7233SOL    HW133161   3.053   1.875   9.045  0.0050  0.7913 -0.6046
 7233SOL    HW233162   3.109   1.835   8.919  0.9980 -2.0798  3.2302
 7234SOL     OW33163   0.117   1.515   3.749 -0.7472  0.3650 -0.1828
 7234SOL    HW133164   0.171   1.501   3.827 -1.4919 -0.5134  0.1645
 7234SOL    HW233165   0.147   1.453   3.683 -2.5831 -2.1943  1.4035
 7235SOL     OW33166   1.403   1.575  17.254 -0.4159 -0.3006 -0.2898
 7235SOL    HW133167   1.378   1.559  17.345 -0.9447 -1.4403 -0.6312
 7235SOL    HW233168   1.488   1.531  17.248 -0.5076 -0.5930  0.6026
 7236SOL     OW33169   2.802   0.191   3.259  0.5644 -0.0402  0.5081
 7236SOL    HW133170   2.891   0.209   3.230  0.3808  3.4529  2.1640
 7236SOL    HW233171   2.773   0.111   3.215  0.6093 -1.1140  2.4169
 7237SOL     OW33172   3.632   1.818   6.261 -0.2489  0.0359  0.0943
 7237SOL    HW133173   3.656   1.757   6.192  1.0651  1.3248 -0.5893
 7237SOL    HW233174   3.719   1.847   6.290 -1.1497  1.5834  1.3140
 7238SOL     OW33175   2.231   2.645   5.272 -0.1950  0.0619  0.0341
 7238SOL    HW133176   2.165   2.714   5.267 -0.0279  0.2932  0.8840
 7238SOL    HW233177   2.265   2.655   5.361 -0.7707  0.1288  0.2436
 7239SOL     OW33178   3.134   0.848   4.080  0.0424 -0.5707  0.4417
 7239SOL    HW133179   3.229   0.845   4.064 -0.1004 -2.5065 -0.0467
 7239SOL    HW233180   3.121   0.942   4.093 -2.4538 -1.0453  1.3459
 7240SOL     OW33181   2.303   2.283   9.455 -0.7545  0.1959 -0.1855
 7240SOL    HW133182   2.253   2.274   9.373  0.4902 -0.5474 -0.8667
 7240SOL    HW233183   2.268   2.209   9.505  1.4010 -0.8417 -0.2226
 7241SOL     OW33184   1.469   0.235  12.275  0.4932  0.4044  0.4683
 7241SOL    HW133185   1.491   0.203  12.362  1.0373  0.7030  0.4441
 7241SOL    HW233186   1.505   0.324  12.279 -0.6232  0.8574  0.3218
 7242SOL     OW33187   1.764   3.892   0.772 -0.0038  0.3302 -0.1922
 7242SOL    HW133188   1.841   3.898   0.715 -0.0530 -3.5005 -0.7000
 7242SOL    HW233189   1.705   3.853   0.708 -0.0796 -0.0837  0.1322
 7243SOL     OW33190   4.236   4.250  16.737 -0.0687 -0.3547  0.1125
 7243SOL    HW133191   4.216   4.225  16.647  0.6267  1.3869 -0.5307
 7243SOL    HW233192   4.268   4.340  16.726 -1.7139  0.3106  0.7996
 7244SOL     OW33193   2.570   3.869   2.851 -0.2465  0.1679 -0.0652
 7244SOL    HW133194   2.645   3.810   2.847 -1.4467 -1.2867 -0.8389
 7244SOL    HW233195   2.562   3.885   2.945  1.4922 -1.8634  0.4181
 7245SOL     OW33196   4.629   4.656   7.450  0.2910  0.0693  0.6788
 7245SOL    HW133197   4.544   4.639   7.490 -0.1635  1.8813  0.4649
 7245SOL    HW233198   4.611   4.625   7.361  1.4285 -2.6181  1.3772
 7246SOL     OW33199   4.487   1.504   4.481 -0.2373 -0.0638 -0.5585
 7246SOL    HW133200   4.523   1.419   4.456  2.0611  0.4762  0.8813
 7246SOL    HW233201   4.455   1.530   4.394 -1.5831 -1.1740 -0.3891
 7247SOL     OW33202   2.542   0.601  16.133 -0.3185 -0.3792  0.5618
 7247SOL    HW133203   2.473   0.667  16.139 -1.0744 -1.1960  0.7929
 7247SOL    HW233204   2.498   0.518  16.115 -0.8663  0.1161 -0.3952
 7248SOL     OW33205   3.735   3.674  11.602 -0.4051  0.1047 -0.1693
 7248SOL    HW133206   3.724   3.589  11.644  0.6230  0.7225  1.3572
 7248SOL    HW233207   3.822   3.659  11.564 -1.3503 -0.0878 -2.2423
 7249SOL     OW33208   3.734   2.648   6.078  0.1645 -0.3657  0.5569
 7249SOL    HW133209   3.664   2.582   6.077 -0.6209  0.4954 -0.7988
 7249SOL    HW233210   3.783   2.632   5.998 -2.9489  0.0141 -1.4320
 7250SOL     OW33211   3.505   0.995   2.448 -0.0554 -0.0337 -0.0613
 7250SOL    HW133212   3.486   1.071   2.503  2.2431  0.1476  0.5013
 7250SOL    HW233213   3.556   1.047   2.386 -0.2247 -1.2195 -1.1707
 7251SOL     OW33214   0.841   3.319   8.644 -0.0174  0.1573  0.5745
 7251SOL    HW133215   0.764   3.275   8.680  2.5650 -2.6828  2.5162
 7251SOL    HW233216   0.881   3.331   8.730 -1.8380 -2.7576  1.8179
 7252SOL     OW33217   4.447   2.731   4.906 -0.0097  0.0785  0.4749
 7252SOL    HW133218   4.505   2.764   4.975 -0.5838  0.6744  0.6750
 7252SOL    HW233219   4.373   2.692   4.951 -0.5692 -0.0730 -0.5740
 7253SOL     OW33220   3.666   4.322   5.872  0.0521 -0.4680  0.5284
 7253SOL    HW133221   3.626   4.260   5.811 -0.2511  0.2108  0.0398
 7253SOL    HW233222   3.619   4.313   5.955  1.2926  0.8285  1.3572
 7254SOL     OW33223   3.871   1.557   2.268 -0.2710  0.1373  0.4702
 7254SOL    HW133224   3.861   1.526   2.178 -0.5085  1.3317  0.0792
 7254SOL    HW233225   3.924   1.636   2.253  1.4614 -1.2774 -0.9369
 7255SOL     OW33226   4.681   3.507   3.552  0.8983 -0.6028  0.7130
 7255SOL    HW133227   4.682   3.563   3.475 -0.0640 -3.6397 -1.5096
 7255SOL    HW233228   0.047   3.507   3.581  1.0653  0.0565  0.1755
 7256SOL     OW33229   4.235   2.886   8.295 -0.1660  0.5929  0.0360
 7256SOL    HW133230   4.162   2.939   8.262 -0.6086 -1.3764 -2.1499
 7256SOL    HW233231   4.308   2.927   8.249  1.0245 -0.3998  1.0495
 7257SOL     OW33232   0.361   1.480  12.245 -0.6009 -0.4878  0.1452
 7257SOL    HW133233   0.339   1.514  12.332 -0.0608 -1.7060  0.7672
 7257SOL    HW233234   0.275   1.498  12.208 -1.7161 -2.3538  1.8047
 7258SOL     OW33235   2.209   4.481  16.701 -0.1630 -0.0509  0.2478
 7258SOL    HW133236   2.240   4.521  16.783 -2.0235  0.3969  0.7208
 7258SOL    HW233237   2.131   4.430  16.724 -0.4166  0.4981  0.5967
 7259SOL     OW33238   1.519   0.162  15.536  0.1640  0.4540  0.0663
 7259SOL    HW133239   1.581   0.089  15.527 -1.4026 -0.9454  0.4188
 7259SOL    HW233240   1.484   0.148  15.624  0.1808 -2.1621 -0.3230
 7260SOL     OW33241   0.829   4.711   4.873 -0.3630  0.1495  0.0666
 7260SOL    HW133242   0.805   0.054   4.936 -0.9131  0.1885 -0.1891
 7260SOL    HW233243   0.898   0.035   4.828  0.0297 -1.3013 -0.9069
 7261SOL     OW33244   3.163   3.790   7.179  0.3681 -1.0696 -0.4570
 7261SOL    HW133245   3.234   3.726   7.172  0.8218 -0.4379 -1.7868
 7261SOL    HW233246   3.202   3.878   7.177  2.3832 -1.9870 -1.5714
 7262SOL     OW33247   0.893   4.480   5.146 -0.2802 -0.1090  0.2922
 7262SOL    HW133248   0.862   4.441   5.228 -1.1682 -0.7695 -0.3587
 7262SOL    HW233249   0.878   4.574   5.157 -1.4219 -0.3836  1.0796
 7263SOL     OW33250   0.205   3.307  13.865 -0.1760 -0.3283 -0.1128
 7263SOL    HW133251   0.167   3.394  13.880  0.0704  0.0211 -1.5466
 7263SOL    HW233252   0.141   3.273  13.803 -0.9749 -0.3429  0.7078
 7264SOL     OW33253   3.283   3.975  13.335 -0.3018  0.7448 -0.1431
 7264SOL    HW133254   3.368   4.000  13.299  0.2677 -0.4416  0.3780
 7264SOL    HW233255   3.233   4.039  13.284  1.7969  1.5982 -1.1184
 7265SOL     OW33256   1.060   0.439   4.961 -0.2807  0.2712  0.5528
 7265SOL    HW133257   1.112   0.518   4.949  0.0815 -0.0460  0.0133
 7265SOL    HW233258   0.979   0.482   4.987  0.6111  2.2648  0.0379
 7266SOL     OW33259   2.681   1.313   5.444  0.7460  0.1411  0.0634
 7266SOL    HW133260   2.628   1.381   5.485  1.7993  1.8964 -1.4780
 7266SOL    HW233261   2.708   1.264   5.521  0.3361  0.0315  0.1361
 7267SOL     OW33262   0.532   0.482   2.899 -0.5498  0.1755 -0.3347
 7267SOL    HW133263   0.518   0.399   2.853  3.2808  0.5008 -2.1143
 7267SOL    HW233264   0.593   0.518   2.835  0.9829 -2.8832 -0.5881
 7268SOL     OW33265   2.899   0.896   8.532 -0.5257 -0.2303  0.3375
 7268SOL    HW133266   2.826   0.840   8.505 -1.1317 -0.2024  1.9520
 7268SOL    HW233267   2.956   0.878   8.457  0.6345 -0.8596  1.3820
 7269SOL     OW33268   2.856   1.101   9.978  0.4051 -0.1442 -0.0385
 7269SOL    HW133269   2.910   1.036  10.024  1.0233  2.1079  2.4415
 7269SOL    HW233270   2.907   1.179  10.001 -0.1880 -0.6057  2.9267
 7270SOL     OW33271   2.232   1.137   7.503  0.5784 -0.5617  0.2700
 7270SOL    HW133272   2.213   1.150   7.410 -0.1271 -0.4724  0.4258
 7270SOL    HW233273   2.146   1.106   7.531  0.5269 -0.2979  0.4063
 7271SOL     OW33274   0.768   0.345   5.442 -0.4948 -0.4182  0.3643
 7271SOL    HW133275   0.762   0.351   5.537 -0.4928 -1.7076  0.4481
 7271SOL    HW233276   0.851   0.389   5.423 -0.9183  1.4588  2.8366
 7272SOL     OW33277   0.715   1.727   0.616  0.1486  0.2862  0.2763
 7272SOL    HW133278   0.658   1.672   0.669  0.6351  0.4672  0.9818
 7272SOL    HW233279   0.689   1.810   0.655 -1.1125  0.6059 -1.2187
 7273SOL     OW33280   2.240   0.085   8.749 -0.1216  0.3833  0.4620
 7273SOL    HW133281   2.219   0.128   8.666 -1.6193 -1.1534  0.0427
 7273SOL    HW233282   2.325   0.124   8.766  0.0842 -0.3796  1.1759
 7274SOL     OW33283   4.601   1.108   4.703  0.7112  0.0434  0.3442
 7274SOL    HW133284   4.535   1.045   4.732  1.3752 -1.4850 -1.4331
 7274SOL    HW233285   4.599   1.169   4.777  0.5491  0.3968  0.0461
 7275SOL     OW33286   3.699   2.167   3.200 -0.2433 -0.2019 -0.3640
 7275SOL    HW133287   3.631   2.124   3.252 -0.6826 -0.4123 -1.1024
 7275SOL    HW233288   3.781   2.138   3.238 -0.1373  0.6564  0.0684
 7276SOL     OW33289   2.650   1.700   5.296  0.8370  0.8236  0.1548
 7276SOL    HW133290   2.649   1.748   5.213  1.6710  1.1621  0.3435
 7276SOL    HW233291   2.560   1.690   5.327  0.4922  0.9619 -0.8330
 7277SOL     OW33292   1.395   1.546   9.574 -0.1508 -0.0250  0.1272
 7277SOL    HW133293   1.367   1.624   9.527  2.8551  0.9213 -0.1452
 7277SOL    HW233294   1.482   1.542   9.534  0.5819  1.6300  1.5574
 7278SOL     OW33295   3.550   3.633   3.632  0.1892 -0.0919  0.2167
 7278SOL    HW133296   3.513   3.563   3.579 -1.8119  0.5211  0.7785
 7278SOL    HW233297   3.572   3.583   3.711  0.1274 -0.0288  0.2746
 7279SOL     OW33298   3.873   3.609   7.027 -0.4554  0.0471  0.4204
 7279SOL    HW133299   3.954   3.658   7.042 -2.1243  1.9183  3.2171
 7279SOL    HW233300   3.815   3.639   7.097  0.1699  1.1143  0.4657
 7280SOL     OW33301   1.337   1.856   6.866 -0.6344  0.6016  0.2360
 7280SOL    HW133302   1.414   1.875   6.919 -1.0517 -1.7053  1.6443
 7280SOL    HW233303   1.320   1.947   6.841 -0.6986  0.0945 -1.5719
 7281SOL     OW33304   1.693   2.266   7.374  0.5448 -0.0384 -0.3627
 7281SOL    HW133305   1.764   2.213   7.338 -0.1399 -0.9398 -0.3952
 7281SOL    HW233306   1.668   2.205   7.444 -0.2079 -0.5807 -1.0979
 7282SOL     OW33307   1.573   4.400   1.567  0.2891  0.1579 -0.0943
 7282SOL    HW133308   1.502   4.348   1.604  1.1626 -0.1133  1.1944
 7282SOL    HW233309   1.618   4.426   1.647  0.3966 -0.3858  0.0211
 7283SOL     OW33310   4.539   1.813   6.314  0.4292  0.6297  0.3671
 7283SOL    HW133311   4.609   1.751   6.338  1.3241  1.7168  0.5684
 7283SOL    HW233312   4.459   1.763   6.332 -1.7998  3.9188 -0.4764
 7284SOL     OW33313   4.341   4.034  10.486 -0.1372 -0.3016  0.7415
 7284SOL    HW133314   4.271   4.098  10.498  0.2959  0.5350 -1.1952
 7284SOL    HW233315   4.292   3.959  10.520  0.2161 -0.7573  0.2438
 7285SOL     OW33316   2.893   1.437  15.674 -0.2579  0.1052  0.0111
 7285SOL    HW133317   2.812   1.424  15.623  1.0503 -1.8170 -1.5661
 7285SOL    HW233318   2.928   1.522  15.650 -2.2780  0.5237 -1.5446
 7286SOL     OW33319   3.073   1.932   9.223 -0.2574  0.2745 -0.2228
 7286SOL    HW133320   3.095   2.023   9.242  0.1537  0.7693 -3.0256
 7286SOL    HW233321   3.101   1.889   9.304  1.7276 -1.1036 -1.6485
 7287SOL     OW33322   0.155   3.112   5.164 -0.1245 -0.1680  0.7228
 7287SOL    HW133323   0.085   3.065   5.119 -0.3851 -0.4258  1.3993
 7287SOL    HW233324   0.231   3.094   5.108 -1.4158  0.4651 -1.2308
 7288SOL     OW33325   1.717   3.934   1.046 -0.2723 -0.5077 -0.3304
 7288SOL    HW133326   1.738   3.917   0.954  1.5008  0.7558 -0.1710
 7288SOL    HW233327   1.628   3.967   1.037  0.8774  2.6224 -0.2551
 7289SOL     OW33328   2.758   2.921   4.046  0.1608 -0.2872  0.8193
 7289SOL    HW133329   2.672   2.912   4.088 -1.2716  2.0273 -1.6062
 7289SOL    HW233330   2.739   2.928   3.952  0.9354  1.9758  0.8462
 7290SOL     OW33331   3.545   1.349   7.002 -0.7813  0.0696 -0.6437
 7290SOL    HW133332   3.570   1.405   6.929 -0.5096  1.0498  0.1909
 7290SOL    HW233333   3.571   1.408   7.073  0.4474 -1.3373  0.0710
 7291SOL     OW33334   3.095   2.038   5.086  0.5802  0.2427  0.0781
 7291SOL    HW133335   3.100   1.992   5.170  0.3184  0.5037  0.2379
 7291SOL    HW233336   3.094   1.957   5.035 -1.5022 -0.7489  1.6635
 7292SOL     OW33337   0.678   3.336   6.849 -0.2228 -0.2802 -0.5963
 7292SOL    HW133338   0.672   3.253   6.800 -0.4131 -1.0731  0.7628
 7292SOL    HW233339   0.756   3.372   6.808 -0.5992  1.3944  0.1438
 7293SOL     OW33340   3.903   4.622   6.417 -0.2321 -0.5821 -0.3757
 7293SOL    HW133341   3.911   4.545   6.361  0.0596 -0.7212 -0.1478
 7293SOL    HW233342   3.996   4.646   6.410 -0.0071 -0.9597  1.3400
 7294SOL     OW33343   2.470   3.844   8.754 -0.5485  0.2537  0.6296
 7294SOL    HW133344   2.541   3.906   8.739 -0.3919 -0.3662 -1.2104
 7294SOL    HW233345   2.482   3.781   8.683  0.2511  0.4152  0.6262
 7295SOL     OW33346   1.754   2.281   8.324 -0.2325 -0.3501 -0.0964
 7295SOL    HW133347   1.822   2.339   8.358  1.3675 -2.1620 -0.2208
 7295SOL    HW233348   1.784   2.197   8.358  1.9685  1.4170  2.3167
 7296SOL     OW33349   0.995   0.821   5.748 -0.5222 -0.0660  0.1761
 7296SOL    HW133350   0.925   0.869   5.705 -0.3359  0.3452  0.3394
 7296SOL    HW233351   0.984   0.841   5.841 -0.3117 -1.9724  0.6301
 7297SOL     OW33352   0.053   4.234  16.146  0.3713  0.4117  0.3661
 7297SOL    HW133353   4.699   4.256  16.195 -0.8817 -1.9607 -0.5895
 7297SOL    HW233354   0.110   4.201  16.215  0.5618 -0.6752 -0.3171
 7298SOL     OW33355   0.403   0.892   7.346  0.3365 -0.0245 -0.0506
 7298SOL    HW133356   0.405   0.966   7.407 -0.4400 -1.2005  1.4058
 7298SOL    HW233357   0.463   0.826   7.380  1.0291  0.1899 -0.8619
 7299SOL     OW33358   2.299   3.770  10.874  0.1036  0.6165  0.1591
 7299SOL    HW133359   2.378   3.768  10.819  0.4694  2.5738  0.6114
 7299SOL    HW233360   2.308   3.685  10.918  2.2747  0.9427  0.3547
 7300SOL     OW33361   1.979   1.345   7.478  0.5186 -0.7011 -0.1259
 7300SOL    HW133362   1.958   1.410   7.412 -1.1065  0.1093  1.1936
 7300SOL    HW233363   1.944   1.270   7.431  0.1296 -0.9331  0.5259
 7301SOL     OW33364   2.777   1.353   5.716  0.0971 -0.3310  0.2794
 7301SOL    HW133365   2.821   1.437   5.729 -0.1622  0.1304 -1.9158
 7301SOL    HW233366   2.741   1.341   5.804  2.8155  1.3942  1.6284
 7302SOL     OW33367   0.456   4.383  10.090 -0.0036 -0.4749  0.0491
 7302SOL    HW133368   0.371   4.340  10.084  1.3758 -3.7927  4.2980
 7302SOL    HW233369   0.433   4.456  10.147 -2.7074 -0.6838 -0.7624
 7303SOL     OW33370   0.849   1.829   3.315 -0.1360  0.3420  0.2918
 7303SOL    HW133371   0.852   1.760   3.249  2.6516  2.9196 -2.2828
 7303SOL    HW233372   0.777   1.801   3.371 -1.0748  0.1873 -0.9920
 7304SOL     OW33373   2.098   4.297   3.001 -0.5017  0.2732 -0.3651
 7304SOL    HW133374   2.007   4.300   2.973 -0.4396  0.0181 -0.5982
 7304SOL    HW233375   2.080   4.299   3.095  2.4117 -0.5196  0.2229
 7305SOL     OW33376   2.616   3.126  11.860  0.3173  0.5027 -0.2033
 7305SOL    HW133377   2.674   3.170  11.922 -1.7222  1.4408  1.0212
 7305SOL    HW233378   2.536   3.177  11.863 -0.2351 -0.2907 -1.4697
 7306SOL     OW33379   0.455   0.074  13.097 -0.4884 -0.4874 -0.3340
 7306SOL    HW133380   0.517   0.028  13.153  0.1682 -0.2833 -0.8978
 7306SOL    HW233381   0.501   0.066  13.014  1.8920  1.8740  0.7667
 7307SOL     OW33382   1.330   1.501  15.546 -0.2270  0.0162  0.7010
 7307SOL    HW133383   1.237   1.521  15.554 -0.0211  1.6613 -0.9449
 7307SOL    HW233384   1.338   1.429  15.609 -2.5369  0.4927  1.5336
 7308SOL     OW33385   1.266   3.544  14.405  0.2967  0.3579 -0.3185
 7308SOL    HW133386   1.305   3.559  14.319 -2.7538  2.3423 -1.3698
 7308SOL    HW233387   1.341   3.539  14.465  0.7567  0.6901 -0.8645
 7309SOL     OW33388   1.578   2.748   1.146  0.0743  0.1467 -0.4699
 7309SOL    HW133389   1.574   2.819   1.210  0.2069 -1.3582  1.1878
 7309SOL    HW233390   1.597   2.792   1.063  2.8324 -0.3137 -0.0810
 7310SOL     OW33391   1.690   2.109   3.237  0.2320 -0.1777 -0.7614
 7310SOL    HW133392   1.762   2.130   3.177 -0.9589  1.1932 -1.7140
 7310SOL    HW233393   1.674   2.017   3.217  0.0177 -0.4706  0.8016
 7311SOL     OW33394   0.736   1.060   7.664  0.1678 -0.3565 -0.4665
 7311SOL    HW133395   0.661   1.099   7.619  2.0156  0.7486 -2.5934
 7311SOL    HW233396   0.716   0.967   7.673 -0.2605 -0.0518  1.6697
 7312SOL     OW33397   4.078   4.389   6.120 -0.3032 -0.1646  0.1380
 7312SOL    HW133398   4.032   4.313   6.154  2.2120 -2.4244 -1.5536
 7312SOL    HW233399   4.013   4.431   6.064 -1.0238 -0.3462  0.8342
 7313SOL     OW33400   4.324   3.863   3.648  0.1276  0.2072 -0.4195
 7313SOL    HW133401   4.353   3.884   3.737  2.2349  0.5287 -1.1784
 7313SOL    HW233402   4.264   3.789   3.661  1.8367 -1.1167 -0.0207
 7314SOL     OW33403   2.575   4.303   5.412  0.1012 -0.4156 -0.1844
 7314SOL    HW133404   2.597   4.347   5.494  0.4617  0.5675 -0.8076
 7314SOL    HW233405   2.535   4.220   5.436 -2.3417  0.8441  0.0853
 7315SOL     OW33406   2.578   4.658  11.517 -0.1138 -0.5784  0.1531
 7315SOL    HW133407   2.599   4.644  11.609  0.5870 -1.0602 -0.0804
 7315SOL    HW233408   2.494   4.611  11.513  1.1357 -2.6677 -1.1939
 7316SOL     OW33409   1.808   4.010   6.547 -0.3241 -0.2753  0.2729
 7316SOL    HW133410   1.882   3.950   6.552 -1.6924 -1.9332  0.4785
 7316SOL    HW233411   1.754   3.956   6.604 -0.6306  0.9116  1.1284
 7317SOL     OW33412   2.595   4.492  14.952  0.1281  0.2887  0.4184
 7317SOL    HW133413   2.623   4.525  14.867 -1.5044  0.2457 -0.1264
 7317SOL    HW233414   2.603   4.569  15.008 -0.5705  0.0973  0.7789
 7318SOL     OW33415   2.059   4.572  12.306  0.0364  0.2331 -0.3748
 7318SOL    HW133416   2.037   4.575  12.213  0.3452  0.2226 -0.4504
 7318SOL    HW233417   2.080   4.478  12.313 -2.6548 -0.3559 -0.1837
 7319SOL     OW33418   0.636   4.392   6.189 -0.4326  0.3033  0.1085
 7319SOL    HW133419   0.557   4.446   6.179  0.2819  1.5484  1.3043
 7319SOL    HW233420   0.608   4.300   6.192  0.0993  0.1933  1.4498
 7320SOL     OW33421   3.915   0.232   4.738  0.9265 -0.1783 -0.7892
 7320SOL    HW133422   3.975   0.175   4.690  2.0458 -0.9053  1.4786
 7320SOL    HW233423   3.889   0.294   4.670  1.3385  0.5269 -0.3079
 7321SOL     OW33424   2.439   2.835   6.963  0.3070 -0.4765  0.1977
 7321SOL    HW133425   2.456   2.895   6.890  2.2227 -1.9427 -0.5541
 7321SOL    HW233426   2.503   2.767   6.942  0.4518  0.2540 -1.7224
 7322SOL     OW33427   1.673   0.435   8.424  0.3336  0.0913  0.7807
 7322SOL    HW133428   1.668   0.531   8.420 -0.1858  0.1234  1.9431
 7322SOL    HW233429   1.753   0.425   8.475 -0.1411 -0.3908  1.4235
 7323SOL     OW33430   0.851   3.421   5.347 -0.9101  0.5248  0.1838
 7323SOL    HW133431   0.917   3.439   5.280 -0.5026  0.5313  0.5861
 7323SOL    HW233432   0.783   3.370   5.302  0.2825  1.9975 -3.3368
 7324SOL     OW33433   1.167   0.536   4.116  0.7862 -0.2554 -0.5452
 7324SOL    HW133434   1.131   0.592   4.185  0.6121 -0.2157 -0.6713
 7324SOL    HW233435   1.197   0.453   4.153  2.3469  0.5044 -0.0727
 7325SOL     OW33436   4.528   4.689   5.103 -1.0105  0.5447 -0.0161
 7325SOL    HW133437   4.487   4.678   5.017 -0.0058 -0.9775 -0.3087
 7325SOL    HW233438   4.622   4.687   5.083 -0.6815 -1.4051  1.7547
 7326SOL     OW33439   2.417   1.972   1.626  0.4085  0.0571  0.2615
 7326SOL    HW133440   2.355   1.952   1.697 -2.2549  2.2482 -1.4320
 7326SOL    HW233441   2.387   2.050   1.580 -1.8468 -0.4310  0.8575
 7327SOL     OW33442   4.708   2.697   3.991  0.2083 -0.7315  0.1656
 7327SOL    HW133443   4.658   2.775   4.015  0.7079 -0.3358 -0.0657
 7327SOL    HW233444   0.057   2.737   3.944 -1.0244 -0.3608 -1.4703
 7328SOL     OW33445   3.899   1.776   0.287 -0.3228  0.2202  0.1743
 7328SOL    HW133446   3.964   1.806   0.223  1.5248  0.6125  2.2382
 7328SOL    HW233447   3.822   1.788   0.231 -1.3554  2.1541  2.0347
 7329SOL     OW33448   0.730   2.989  10.543  0.5532  0.0908  0.3819
 7329SOL    HW133449   0.773   2.933  10.608 -0.4760 -0.2270  0.7892
 7329SOL    HW233450   0.705   3.063  10.598 -1.2351 -0.6748  0.5827
 7330SOL     OW33451   3.931   2.367   2.691 -0.5370  0.6786  0.5775
 7330SOL    HW133452   3.974   2.453   2.692 -1.6736  1.2447  0.6313
 7330SOL    HW233453   3.852   2.396   2.645  0.1099 -0.2287 -1.1043
 7331SOL     OW33454   0.171   2.320   3.254  0.1008  0.3002  0.5511
 7331SOL    HW133455   0.213   2.326   3.339 -0.6801 -1.1509  1.0384
 7331SOL    HW233456   0.164   2.410   3.221  2.3151 -0.1036 -0.9834
 7332SOL     OW33457   4.584   2.927   9.906 -0.1187 -0.1725 -0.3348
 7332SOL    HW133458   4.580   3.023   9.910 -0.1411 -0.2579  1.5437
 7332SOL    HW233459   4.664   2.918   9.854 -0.2037 -2.0391 -0.1157
 7333SOL     OW33460   0.155   1.504   4.510 -0.8042 -0.4874  1.1575
 7333SOL    HW133461   0.131   1.411   4.514 -1.5544 -0.3665 -0.4504
 7333SOL    HW233462   0.208   1.512   4.589 -1.3712  0.6742  1.4164
 7334SOL     OW33463   0.577   0.519   8.545  0.4298 -0.1645 -0.2494
 7334SOL    HW133464   0.587   0.531   8.639 -0.1127  2.1348 -0.4945
 7334SOL    HW233465   0.608   0.605   8.519 -0.1962 -0.1724 -1.0224
 7335SOL     OW33466   3.586   2.516   8.348 -0.7049  0.4523  0.6921
 7335SOL    HW133467   3.571   2.423   8.330 -1.9250  0.6727  0.5402
 7335SOL    HW233468   3.613   2.505   8.439 -2.2714 -1.9183  0.8788
 7336SOL     OW33469   3.312   3.128   5.403  1.0358  0.1344 -0.4218
 7336SOL    HW133470   3.253   3.095   5.471  2.3105  0.6447  0.9207
 7336SOL    HW233471   3.379   3.167   5.459 -0.5249  1.6451  0.4004
 7337SOL     OW33472   2.160   0.509   4.725 -0.8665  0.0226 -0.4308
 7337SOL    HW133473   2.175   0.558   4.644  2.2762 -1.5953 -0.8395
 7337SOL    HW233474   2.170   0.577   4.791 -2.7123  0.1714 -0.3109
 7338SOL     OW33475   2.553   3.244  15.418 -0.1446  0.5931 -0.1719
 7338SOL    HW133476   2.506   3.191  15.482  4.3170 -1.0600  1.7169
 7338SOL    HW233477   2.494   3.319  15.415 -0.8622  0.0326 -0.0775
 7339SOL     OW33478   4.040   0.236   6.283  0.1932 -0.9799 -0.1198
 7339SOL    HW133479   4.106   0.300   6.307  0.1397 -1.0290  0.1525
 7339SOL    HW233480   4.036   0.231   6.187 -1.2989 -2.5783  0.0329
 7340SOL     OW33481   3.357   3.152   1.213  0.9456 -0.2428  0.1832
 7340SOL    HW133482   3.365   3.088   1.284 -1.4052 -0.0547  0.6394
 7340SOL    HW233483   3.285   3.128   1.154  1.2713  1.5641 -0.9315
 7341SOL     OW33484   3.747   1.864   2.594 -0.3949 -0.3878 -0.3860
 7341SOL    HW133485   3.725   1.777   2.559  0.3807 -0.3325 -1.0048
 7341SOL    HW233486   3.815   1.890   2.532  1.1147  1.3974  1.9845
 7342SOL     OW33487   4.134   3.526   3.467 -0.2758 -0.5011  0.0038
 7342SOL    HW133488   4.068   3.457   3.466 -2.1359  1.2925 -1.0213
 7342SOL    HW233489   4.208   3.465   3.467 -0.6487 -0.9662 -1.5812
 7343SOL     OW33490   0.900   0.693   7.531  0.4658  0.0764  0.3905
 7343SOL    HW133491   0.987   0.708   7.496  0.5963 -0.5108  0.4638
 7343SOL    HW233492   0.907   0.712   7.625  1.0931 -1.4204  0.6443
 7344SOL     OW33493   3.909   2.773   3.077 -0.6034 -0.3887 -0.1122
 7344SOL    HW133494   3.906   2.679   3.096  3.3934 -0.4370  0.2304
 7344SOL    HW233495   3.818   2.803   3.073 -0.0840  1.0668 -1.0719
 7345SOL     OW33496   0.460   0.811   0.354  0.2474 -0.2029 -0.2492
 7345SOL    HW133497   0.494   0.828   0.266  0.7727  0.5580  0.1054
 7345SOL    HW233498   0.372   0.846   0.339 -0.4270 -1.5253  0.6539
 7346SOL     OW33499   0.745   1.918   9.249  0.1659 -0.5826 -0.4117
 7346SOL    HW133500   0.771   2.007   9.223 -2.5509  1.1818  2.9857
 7346SOL    HW233501   0.711   1.880   9.168  0.8683 -0.2182 -0.8769
 7347SOL     OW33502   3.332   4.453   2.673 -0.2272  0.3457  0.4872
 7347SOL    HW133503   3.402   4.509   2.641  0.9366 -0.1583  2.1291
 7347SOL    HW233504   3.249   4.496   2.652  0.4782  1.5460  0.1638
 7348SOL     OW33505   1.341   4.304   1.716  0.1059  0.6897 -0.5930
 7348SOL    HW133506   1.283   4.366   1.760 -1.5324 -0.0898 -1.6806
 7348SOL    HW233507   1.280   4.237   1.686  0.0843  0.5831 -0.3181
 7349SOL     OW33508   2.970   1.755   3.236  0.1466 -0.1729 -0.5036
 7349SOL    HW133509   2.997   1.687   3.298  1.6052  0.0081 -0.9375
 7349SOL    HW233510   3.039   1.745   3.170 -0.1811  0.9850 -1.0171
 7350SOL     OW33511   3.740   4.279   4.967 -0.3935  0.2679  0.0913
 7350SOL    HW133512   3.789   4.289   4.885  0.8484  1.0923  0.9394
 7350SOL    HW233513   3.813   4.249   5.021 -0.9846  0.2106  0.8539
 7351SOL     OW33514   2.924   4.477  13.096  0.4395 -0.3751 -0.1007
 7351SOL    HW133515   2.907   4.391  13.057  0.4191 -0.3972 -0.0422
 7351SOL    HW233516   2.844   4.483  13.147  0.0465  0.0286 -0.7647
 7352SOL     OW33517   4.632   1.108   6.455  0.7092 -0.5008 -0.2438
 7352SOL    HW133518   4.695   1.175   6.431  0.0905  0.3365  0.4457
 7352SOL    HW233519   4.638   1.043   6.385  1.1892  0.1910 -0.8428
 7353SOL     OW33520   4.042   4.623   3.637 -0.1273 -0.2513 -0.1662
 7353SOL    HW133521   4.109   4.571   3.593  0.8848  0.2102  0.8432
 7353SOL    HW233522   4.058   4.598   3.728  0.3077  1.0174  0.0963
 7354SOL     OW33523   4.249   3.908   5.608  0.1321 -0.3516  0.0287
 7354SOL    HW133524   4.235   3.863   5.525  2.4729  1.1653 -1.1771
 7354SOL    HW233525   4.331   3.868   5.635  0.2817  1.5942  2.4659
 7355SOL     OW33526   2.350   3.357  11.222 -0.0800  0.1113 -0.2636
 7355SOL    HW133527   2.424   3.411  11.249 -0.8550  0.4949  1.1262
 7355SOL    HW233528   2.300   3.354  11.304 -0.1227 -2.0541 -0.3599
 7356SOL     OW33529   1.073   0.375   4.635 -0.2942  0.4091  0.0595
 7356SOL    HW133530   1.034   0.458   4.663 -0.3751 -0.0613  1.3536
 7356SOL    HW233531   1.162   0.397   4.608 -0.3845  1.4147  0.5655
 7357SOL     OW33532   2.861   4.687   6.153  0.2708 -0.0918  0.1257
 7357SOL    HW133533   2.853   4.716   6.244 -0.8697 -1.4827  0.4876
 7357SOL    HW233534   2.945   4.723   6.124  1.9052 -2.1591  2.2040
 7358SOL     OW33535   1.645   1.341   8.391 -0.2875  0.3684  0.2964
 7358SOL    HW133536   1.627   1.393   8.312  0.8044 -0.4399 -0.4720
 7358SOL    HW233537   1.597   1.384   8.462 -0.5460 -2.8775  2.0805
 7359SOL     OW33538   1.916   2.060   5.006  0.1216 -0.6728  0.2280
 7359SOL    HW133539   1.966   2.012   5.073  2.5476  2.3815  0.5906
 7359SOL    HW233540   1.975   2.133   4.987 -2.3760  1.4952  0.8216
 7360SOL     OW33541   0.892   4.252   2.911 -0.0255  0.3419  0.0253
 7360SOL    HW133542   0.980   4.218   2.928 -0.8328 -1.8504 -0.0693
 7360SOL    HW233543   0.903   4.331   2.858  0.9070  0.8661  1.0017
 7361SOL     OW33544   3.621   0.510   9.576  0.0315 -0.2063  0.4124
 7361SOL    HW133545   3.713   0.496   9.597  0.2458  3.2785  1.7952
 7361SOL    HW233546   3.583   0.500   9.663  0.8952 -0.0343  0.8046
 7362SOL     OW33547   0.673   4.315   8.578 -0.1487 -0.0111  0.2820
 7362SOL    HW133548   0.597   4.359   8.616  0.0272  0.2536  0.3270
 7362SOL    HW233549   0.745   4.378   8.583  0.3213 -0.4923 -0.5999
 7363SOL     OW33550   1.870   1.276   2.914  0.2676 -0.2968 -0.0459
 7363SOL    HW133551   1.924   1.257   2.991 -1.6147  1.0465  1.6163
 7363SOL    HW233552   1.888   1.370   2.910  0.4606 -0.4072 -1.9782
 7364SOL     OW33553   3.724   2.131  15.239 -0.0805 -0.4097  0.1624
 7364SOL    HW133554   3.810   2.122  15.199 -0.3484  0.2125 -0.5681
 7364SOL    HW233555   3.685   2.056  15.194  1.2892 -0.3345 -1.1473
 7365SOL     OW33556   3.122   3.234   6.212  0.1153 -0.6781 -0.7993
 7365SOL    HW133557   3.198   3.191   6.174  1.0731  1.8593 -1.7328
 7365SOL    HW233558   3.154   3.256   6.299 -0.8697 -0.7453 -0.4184
 7366SOL     OW33559   4.629   2.366   5.880  0.5794  0.2452  0.5059
 7366SOL    HW133560   4.649   2.375   5.973  2.2783 -1.3638  0.2790
 7366SOL    HW233561   4.568   2.440   5.868 -0.3831 -0.2384  2.3748
 7367SOL     OW33562   2.508   3.398   2.434 -0.1638 -0.0066 -0.3178
 7367SOL    HW133563   2.495   3.457   2.507  2.8183  1.6721 -1.1198
 7367SOL    HW233564   2.436   3.336   2.447 -1.3111  1.2064 -0.8907
 7368SOL     OW33565   2.844   1.640  13.535 -0.2880 -0.0976  0.4039
 7368SOL    HW133566   2.852   1.583  13.458 -0.6979 -1.8281  1.6512
 7368SOL    HW233567   2.880   1.719  13.495 -0.1493 -0.4530 -0.1841
 7369SOL     OW33568   1.828   3.363  12.690 -0.1844  0.7384  0.4959
 7369SOL    HW133569   1.896   3.333  12.751  1.2675  2.3172 -0.3378
 7369SOL    HW233570   1.766   3.399  12.754  0.7798  0.6864  1.4754
 7370SOL     OW33571   2.830   1.210   7.778 -0.1029 -0.0814 -0.1086
 7370SOL    HW133572   2.776   1.285   7.754 -0.4732 -1.0829 -2.4388
 7370SOL    HW233573   2.916   1.250   7.791  0.5235 -1.8794  1.1904
 7371SOL     OW33574   0.867   3.437   2.260 -0.0351  0.7608 -0.3136
 7371SOL    HW133575   0.783   3.481   2.246 -0.1808 -0.3955 -3.0650
 7371SOL    HW233576   0.873   3.451   2.355  0.1124  0.6769 -0.3107
 7372SOL     OW33577   3.530   0.449   7.199  0.3410 -0.1086  0.9845
 7372SOL    HW133578   3.569   0.444   7.286 -0.3083 -1.8450  1.1783
 7372SOL    HW233579   3.596   0.407   7.143  1.8049  2.8516  0.5085
 7373SOL     OW33580   2.771   3.347   9.912  0.1621  0.1747 -0.2654
 7373SOL    HW133581   2.732   3.284   9.851 -1.2619 -0.0635  0.8875
 7373SOL    HW233582   2.743   3.424   9.863  0.7325  0.6600  0.1583
 7374SOL     OW33583   1.111   1.223   1.851  0.1170 -0.1116 -0.4658
 7374SOL    HW133584   1.169   1.299   1.843  0.3558 -0.1839  0.5535
 7374SOL    HW233585   1.062   1.261   1.925  0.3693  0.1885 -0.4505
 7375SOL     OW33586   3.266   0.838   1.923  0.1287  0.2896 -0.1702
 7375SOL    HW133587   3.337   0.802   1.976  1.3688  0.2440 -1.8757
 7375SOL    HW233588   3.198   0.787   1.966  0.3046 -1.3222 -1.7684
 7376SOL     OW33589   3.511   3.771   9.578  0.3557  0.3264 -0.1416
 7376SOL    HW133590   3.462   3.839   9.531  2.2485  0.8051 -1.4369
 7376SOL    HW233591   3.507   3.800   9.669  2.0461 -3.0473  0.9881
 7377SOL     OW33592   2.577   0.996   0.798 -0.5591 -0.4755 -0.0522
 7377SOL    HW133593   2.653   0.939   0.803 -1.6058 -1.7248  1.7776
 7377SOL    HW233594   2.518   0.955   0.862 -1.1440 -0.8249 -0.8258
 7378SOL     OW33595   4.084   0.574   4.165  0.1830  0.4120  0.1273
 7378SOL    HW133596   4.171   0.568   4.125  0.1460  1.9862 -0.2054
 7378SOL    HW233597   4.096   0.525   4.246  0.1286 -1.1269 -0.7958
 7379SOL     OW33598   4.633   3.393  10.398 -0.6212  0.0278  0.1223
 7379SOL    HW133599   4.692   3.337  10.449 -1.2814 -1.9919 -1.3145
 7379SOL    HW233600   4.546   3.385  10.436 -0.7167 -2.5228 -0.5776
 7380SOL     OW33601   4.602   3.238   5.695 -0.3339 -0.4943 -0.0540
 7380SOL    HW133602   4.652   3.196   5.765 -0.7610  0.8745  1.0789
 7380SOL    HW233603   4.516   3.242   5.738  0.1539  0.9288  0.7953
 7381SOL     OW33604   4.270   2.943  13.462 -0.1816  0.2976  0.7214
 7381SOL    HW133605   4.360   2.963  13.487 -0.3812  1.2295  0.6823
 7381SOL    HW233606   4.250   2.895  13.542 -0.3743  1.5018  1.3954
 7382SOL     OW33607   1.754   2.661   6.463 -0.0210 -0.1333 -0.1529
 7382SOL    HW133608   1.774   2.601   6.391  0.0986 -0.0722 -0.1706
 7382SOL    HW233609   1.783   2.620   6.544  0.9867 -1.2998 -1.1017
 7383SOL     OW33610   1.644   1.349  12.005 -0.3407 -0.0356  0.1212
 7383SOL    HW133611   1.555   1.351  12.040 -0.4332  0.8004 -0.1554
 7383SOL    HW233612   1.654   1.424  11.947  0.6677 -0.1804  0.1079
 7384SOL     OW33613   1.565   4.064   1.622  0.3054 -0.4621  0.0260
 7384SOL    HW133614   1.558   4.140   1.563  0.9684 -1.3431 -1.1756
 7384SOL    HW233615   1.609   4.093   1.702 -0.2346  0.3367  0.0300
 7385SOL     OW33616   2.465   1.384   5.885  0.9088 -0.3618  0.5695
 7385SOL    HW133617   2.558   1.402   5.893  0.7409  0.3474  0.9384
 7385SOL    HW233618   2.462   1.300   5.840  0.1935 -0.0213 -0.0328
 7386SOL     OW33619   1.402   0.831  11.490  0.2636 -0.2888  0.1821
 7386SOL    HW133620   1.368   0.774  11.558 -2.5477  0.1178 -0.8740
 7386SOL    HW233621   1.440   0.898  11.547  1.9162  1.1606 -2.6291
 7387SOL     OW33622   1.596   1.902   6.997  0.2564 -0.7767  0.4567
 7387SOL    HW133623   1.635   1.978   6.955 -0.2954 -0.5444  0.3755
 7387SOL    HW233624   1.620   1.897   7.090  1.6012  1.4810  0.2163
 7388SOL     OW33625   3.342   0.671  14.481  0.3036 -0.6006  0.2148
 7388SOL    HW133626   3.353   0.579  14.457 -1.0367 -0.2171 -1.8593
 7388SOL    HW233627   3.434   0.696  14.482  0.8006 -2.4201 -1.2408
 7389SOL     OW33628   2.121   2.093   6.351 -0.1110 -0.1635  0.2962
 7389SOL    HW133629   2.076   2.052   6.278  1.9349 -0.2639 -0.9159
 7389SOL    HW233630   2.082   2.180   6.348  0.6035  0.1402 -0.2749
 7390SOL     OW33631   2.288   3.713  12.116  0.3183  0.3928  1.0023
 7390SOL    HW133632   2.353   3.780  12.135 -0.0760  0.2935  2.7093
 7390SOL    HW233633   2.324   3.636  12.160 -1.4275 -0.7192  0.5120
 7391SOL     OW33634   0.160   0.215   6.912  0.3556 -0.6588 -0.1253
 7391SOL    HW133635   0.226   0.147   6.926  1.4176  0.1223 -1.3164
 7391SOL    HW233636   0.175   0.222   6.818  0.2800  0.8078 -0.0341
 7392SOL     OW33637   4.093   0.621   8.317  0.5323  0.1656 -0.1062
 7392SOL    HW133638   4.022   0.663   8.366  0.5431  0.4513 -0.3342
 7392SOL    HW233639   4.163   0.685   8.306 -1.7200  2.4190 -1.2550
 7393SOL     OW33640   4.117   4.635   9.829  0.4406 -0.1123  0.2363
 7393SOL    HW133641   4.179   4.658   9.760 -2.3396 -0.0922 -2.3126
 7393SOL    HW233642   4.044   4.591   9.785 -0.4782  2.8873 -1.2547
 7394SOL     OW33643   0.663   4.321   0.798  0.2375  0.2884  0.5605
 7394SOL    HW133644   0.585   4.376   0.806  0.6538  0.8424  0.8253
 7394SOL    HW233645   0.710   4.339   0.880  0.8221 -2.8878  0.9278
 7395SOL     OW33646   2.413   4.621   1.990  0.2129  0.2658 -0.8306
 7395SOL    HW133647   2.499   4.635   1.950  0.5411 -1.1937 -0.6419
 7395SOL    HW233648   2.387   4.713   1.999  2.7063  0.8858  0.0920
 7396SOL     OW33649   3.275   2.637   0.051 -0.0596  0.4648 -0.0672
 7396SOL    HW133650   3.219   2.662   0.125 -0.2941 -1.1110  0.2838
 7396SOL    HW233651   3.301   2.725   0.023  0.5835  0.2170 -0.2474
 7397SOL     OW33652   0.582   3.760   5.540 -0.2203  0.2897 -0.4789
 7397SOL    HW133653   0.527   3.701   5.592  0.1297  1.6364  1.4281
 7397SOL    HW233654   0.669   3.720   5.550 -1.0659 -1.8089 -1.4041
 7398SOL     OW33655   4.560   0.548  10.100  0.4465  0.1070  0.0542
 7398SOL    HW133656   4.498   0.478  10.120  0.5260 -0.6689 -2.3205
 7398SOL    HW233657   4.517   0.612  10.044 -0.3640  0.3541  0.9707
 7399SOL     OW33658   4.510   3.885   4.524 -0.0511 -0.2274  0.5889
 7399SOL    HW133659   4.509   3.973   4.487 -0.5603 -0.7048 -0.5090
 7399SOL    HW233660   4.502   3.837   4.442  0.1032  2.0593 -0.7579
 7400SOL     OW33661   3.998   2.351   2.383 -0.2702 -0.0645 -0.1626
 7400SOL    HW133662   4.010   2.266   2.424 -0.7217 -1.0157 -2.0040
 7400SOL    HW233663   3.925   2.388   2.433 -0.0662  1.9541 -1.3174
 7401SOL     OW33664   4.006   3.051   5.683 -0.4449 -0.1110  0.1074
 7401SOL    HW133665   3.934   3.043   5.746  0.5740 -1.0926  1.1399
 7401SOL    HW233666   3.962   3.052   5.599  0.8067 -0.4552 -0.5444
 7402SOL     OW33667   3.265   2.952   2.532  0.0339 -0.2918  0.2119
 7402SOL    HW133668   3.207   2.964   2.457  0.2547 -0.3356  0.0329
 7402SOL    HW233669   3.234   2.870   2.571 -2.6753  0.2709 -0.7406
 7403SOL     OW33670   1.722   4.288   6.995 -0.1034 -0.1925 -0.2641
 7403SOL    HW133671   1.780   4.225   7.039  1.1771  0.9347 -0.3374
 7403SOL    HW233672   1.784   4.315   6.927  1.0671 -0.2748  0.7647
 7404SOL     OW33673   1.451   2.097   5.365 -0.1006  0.3871  0.0847
 7404SOL    HW133674   1.481   2.007   5.377  0.6923  0.5879 -0.4150
 7404SOL    HW233675   1.358   2.089   5.345  0.3830 -1.0547 -1.5823
 7405SOL     OW33676   4.394   4.470   4.085  0.8872 -0.3855 -0.4625
 7405SOL    HW133677   4.429   4.462   4.174 -0.7637  0.4076  0.2666
 7405SOL    HW233678   4.429   4.386   4.055  2.1370  0.3340 -1.0158
 7406SOL     OW33679   4.353   0.834  16.411  0.0063  0.4043  0.5622
 7406SOL    HW133680   4.410   0.890  16.462  1.7609  1.4055 -2.4991
 7406SOL    HW233681   4.275   0.855  16.463 -1.7290 -2.2851 -0.9473
 7407SOL     OW33682   0.276   3.868   0.861 -0.1633  0.4498 -0.0930
 7407SOL    HW133683   0.326   3.790   0.887 -1.0675 -0.6314 -1.6143
 7407SOL    HW233684   0.187   3.840   0.878 -0.2044  1.1460  0.8780
 7408SOL     OW33685   0.424   0.916  16.646 -0.5239  0.1355  0.0596
 7408SOL    HW133686   0.445   0.944  16.735  1.5735  0.8329 -0.6471
 7408SOL    HW233687   0.418   0.822  16.663  0.8646 -0.2754 -1.7429
 7409SOL     OW33688   2.461   4.032   5.441 -0.0810 -0.2641 -0.5708
 7409SOL    HW133689   2.381   3.990   5.473 -1.0398  1.7912 -0.2604
 7409SOL    HW233690   2.528   3.964   5.441 -0.7898 -1.0043  3.1688
 7410SOL     OW33691   3.396   3.847   9.213 -0.0236  0.3042 -0.1867
 7410SOL    HW133692   3.319   3.796   9.187  0.4732 -0.7323  0.3624
 7410SOL    HW233693   3.368   3.869   9.302  1.1935 -0.4015  0.3797
 7411SOL     OW33694   1.099   1.103   8.996 -0.2209 -0.3140  0.2632
 7411SOL    HW133695   1.098   1.069   9.086 -1.8876 -0.8784  0.0445
 7411SOL    HW233696   1.081   1.192   9.028 -0.3045  0.4126 -1.8507
 7412SOL     OW33697   1.873   3.421   3.751  0.3593  0.2602 -0.3017
 7412SOL    HW133698   1.829   3.379   3.677  0.0761 -0.0396  0.0325
 7412SOL    HW233699   1.957   3.378   3.736 -0.1013 -1.3755  1.7083
 7413SOL     OW33700   0.549   3.682   0.862  0.2572 -0.4347 -0.6307
 7413SOL    HW133701   0.587   3.596   0.840 -0.9139 -1.0186 -0.3877
 7413SOL    HW233702   0.570   3.733   0.784 -0.1369 -2.4323 -2.0405
 7414SOL     OW33703   1.861   4.641   8.822 -0.9174 -0.1412 -0.1041
 7414SOL    HW133704   1.855   4.696   8.901 -2.1886  0.6103 -0.7251
 7414SOL    HW233705   1.781   4.589   8.830 -1.1799  0.6898  3.0259
 7415SOL     OW33706   2.545   1.122   4.651  0.7900  0.2699  0.4414
 7415SOL    HW133707   2.554   1.146   4.559  1.7238  0.8348  0.6711
 7415SOL    HW233708   2.638   1.112   4.672  1.1104 -2.2591 -2.1621
 7416SOL     OW33709   4.123   3.618  11.046  0.3031  0.4705  0.0817
 7416SOL    HW133710   4.072   3.556  10.993  0.4444 -0.0870  0.6103
 7416SOL    HW233711   4.109   3.702  11.001 -1.6749 -0.1960 -0.5636
 7417SOL     OW33712   2.654   0.397   3.071 -0.0465 -0.8021  0.0255
 7417SOL    HW133713   2.731   0.366   3.118  0.1109  0.1004  0.3691
 7417SOL    HW233714   2.588   0.333   3.099  0.8778 -0.5298  2.8935
 7418SOL     OW33715   0.202   3.113   8.288  0.0839 -0.0713  0.0756
 7418SOL    HW133716   0.135   3.173   8.252 -2.5625 -1.7838  2.1563
 7418SOL    HW233717   0.168   3.081   8.371 -0.0088  2.4801  1.0088
 7419SOL     OW33718   3.410   3.248   8.453 -0.0240 -0.0264 -0.5918
 7419SOL    HW133719   3.373   3.235   8.366  0.5912 -0.0271 -0.8509
 7419SOL    HW233720   3.480   3.183   8.448 -1.3659 -1.3057 -2.6034
 7420SOL     OW33721   3.353   3.800   8.247  0.2394  0.2497 -0.2300
 7420SOL    HW133722   3.413   3.776   8.176  0.3020  1.7004 -0.6521
 7420SOL    HW233723   3.320   3.711   8.261 -2.3647  1.2943  0.0501
 7421SOL     OW33724   0.326   4.592   9.003  1.0050 -0.4334  0.4357
 7421SOL    HW133725   0.268   4.667   9.013  0.3889 -0.9144  0.4617
 7421SOL    HW233726   0.368   4.616   8.920 -1.0563  3.6000  0.5723
 7422SOL     OW33727   3.163   1.209   2.239 -0.4739 -0.3848  0.0502
 7422SOL    HW133728   3.103   1.240   2.171 -0.9638 -1.0312  0.1892
 7422SOL    HW233729   3.108   1.231   2.315 -0.8517  0.6406 -0.5199
 7423SOL     OW33730   3.579   4.123  16.507 -0.5617 -0.5222  0.3918
 7423SOL    HW133731   3.540   4.190  16.451  1.8208  1.7189  1.3650
 7423SOL    HW233732   3.547   4.150  16.593  0.4718 -0.1219  0.6545
 7424SOL     OW33733   0.132   3.255  10.488 -0.3426 -0.1507 -0.8649
 7424SOL    HW133734   0.171   3.235  10.573 -1.2999 -2.6752 -1.0163
 7424SOL    HW233735   0.092   3.173  10.460  0.4523 -0.2097 -1.8299
 7425SOL     OW33736   1.267   1.140   6.438 -0.1976  0.2090  0.2320
 7425SOL    HW133737   1.172   1.126   6.437 -0.0261 -0.7248 -2.2445
 7425SOL    HW233738   1.299   1.058   6.476  0.6126  0.3199 -0.2091
 7426SOL     OW33739   0.352   2.104   5.149  0.1310 -0.1455 -0.1596
 7426SOL    HW133740   0.368   2.121   5.056 -0.5522  0.0023 -0.2475
 7426SOL    HW233741   0.441   2.101   5.183  0.2167 -2.0147 -0.5659
 7427SOL     OW33742   1.990   3.367   5.245  0.5902 -0.1379 -0.0448
 7427SOL    HW133743   2.010   3.277   5.221  1.3309  0.1097 -0.3777
 7427SOL    HW233744   1.915   3.386   5.188 -0.0158 -1.2765  0.3782
 7428SOL     OW33745   2.249   3.340  12.112 -0.6304  0.4074 -0.2606
 7428SOL    HW133746   2.269   3.258  12.068  1.2738 -0.9343  3.0703
 7428SOL    HW233747   2.333   3.345  12.158 -0.4596 -1.0546 -0.4318
 7429SOL     OW33748   1.063   4.709   1.448  0.0656  0.0233 -0.0884
 7429SOL    HW133749   1.042   0.033   1.527  1.6448  1.9010 -0.8394
 7429SOL    HW233750   1.084   0.054   1.387  1.8071 -0.2439  0.2048
 7430SOL     OW33751   0.743   1.700   4.354  0.0312 -0.2646  0.2500
 7430SOL    HW133752   0.695   1.760   4.296  1.9705 -0.6685 -1.7416
 7430SOL    HW233753   0.815   1.676   4.297 -1.1445  0.0451 -1.3625
 7431SOL     OW33754   0.489   3.805   3.871 -0.2903 -0.1148 -0.1997
 7431SOL    HW133755   0.445   3.736   3.920  0.0239 -0.5540 -0.5306
 7431SOL    HW233756   0.522   3.743   3.806  2.7771  0.1145  1.1528
 7432SOL     OW33757   2.797   1.847   4.062  0.1200  0.1794 -0.1320
 7432SOL    HW133758   2.790   1.768   4.116 -1.3093 -0.2704 -0.9703
 7432SOL    HW233759   2.725   1.827   4.002 -0.3412  0.5355  0.3060
 7433SOL     OW33760   4.250   1.927  16.783 -0.6605  0.3123 -0.0544
 7433SOL    HW133761   4.159   1.904  16.802 -0.5907 -2.3438 -2.7911
 7433SOL    HW233762   4.243   1.960  16.693 -0.8867  2.2160  0.6594
 7434SOL     OW33763   0.040   3.532   8.418  0.4935  0.7270 -0.3283
 7434SOL    HW133764   0.091   3.601   8.460  1.0160  0.2515 -0.1796
 7434SOL    HW233765   4.677   3.570   8.419  0.8585  1.5024  2.4226
 7435SOL     OW33766   1.422   3.266  17.650 -0.3136  0.7252  0.5089
 7435SOL    HW133767   1.337   3.222  17.656  0.0791 -0.1906 -0.5832
 7435SOL    HW233768   1.426   3.316   0.029 -2.8584 -2.7572  2.7300
 7436SOL     OW33769   2.403   1.987   1.026 -0.4829 -0.0736 -0.1989
 7436SOL    HW133770   2.405   1.895   1.054  0.1233  0.4044  1.3045
 7436SOL    HW233771   2.371   2.032   1.104 -1.9345 -0.5060 -0.5300
 7437SOL     OW33772   2.597   3.445   9.710 -0.3683  0.3168  0.1361
 7437SOL    HW133773   2.607   3.470   9.618 -1.4472  0.5495  0.0732
 7437SOL    HW233774   2.567   3.354   9.698 -0.6408  0.3399  0.6289
 7438SOL     OW33775   4.379   0.997   6.247  0.4937 -0.0647  0.1316
 7438SOL    HW133776   4.474   0.983   6.245  0.4434 -0.2763 -0.9403
 7438SOL    HW233777   4.360   0.950   6.165  0.7219  0.3862 -0.1744
 7439SOL     OW33778   0.077   0.859   8.018 -0.0183  0.2213  0.5298
 7439SOL    HW133779   0.104   0.886   7.930  1.3490  0.7397  1.1124
 7439SOL    HW233780   0.004   0.804   7.988  1.5173 -1.6260  0.2195
 7440SOL     OW33781   3.912   2.011   6.221  0.7407 -0.1227  0.2586
 7440SOL    HW133782   3.851   2.084   6.230 -0.7649 -1.2756 -0.4465
 7440SOL    HW233783   3.994   2.058   6.208  0.9165 -0.4423  0.2216
 7441SOL     OW33784   0.766   4.185   1.944 -0.1349 -0.1515 -0.6015
 7441SOL    HW133785   0.832   4.166   1.877 -0.6565  0.0382 -1.1707
 7441SOL    HW233786   0.801   4.135   2.017 -0.4205 -0.8228 -0.9264
 7442SOL     OW33787   1.283   3.403   8.551  0.0794 -0.4007  0.2133
 7442SOL    HW133788   1.268   3.327   8.607  0.6356 -2.3493 -2.2749
 7442SOL    HW233789   1.196   3.441   8.546 -0.5022 -1.6048  1.1758
 7443SOL     OW33790   0.740   2.072   3.886  0.1955  0.6361  0.1492
 7443SOL    HW133791   0.823   2.115   3.867  0.4986  0.5102  1.1740
 7443SOL    HW233792   0.766   1.997   3.939 -0.6220  1.2693  1.4618
 7444SOL     OW33793   3.793   2.451   4.002  0.7026  0.1222  0.0150
 7444SOL    HW133794   3.799   2.506   4.081 -1.5386 -1.2200  1.1270
 7444SOL    HW233795   3.883   2.427   3.982  1.0036  0.1131  1.3305
 7445SOL     OW33796   2.897   3.180   2.283  0.2223  0.6745  0.1913
 7445SOL    HW133797   2.980   3.203   2.241  0.3038  1.0112  0.5287
 7445SOL    HW233798   2.847   3.159   2.204 -0.5598  1.2206  0.5386
 7446SOL     OW33799   0.810   3.953   4.469  0.5690  0.5100 -0.0660
 7446SOL    HW133800   0.756   4.021   4.508 -0.4752  0.5604 -1.5606
 7446SOL    HW233801   0.888   3.998   4.437  0.4361  0.0529 -1.0480
 7447SOL     OW33802   0.118   4.151   3.047  0.5964  0.3437 -0.0794
 7447SOL    HW133803   0.132   4.057   3.052 -1.9549 -0.0492 -0.5916
 7447SOL    HW233804   0.129   4.168   2.954 -0.8367  2.6882  0.1753
 7448SOL     OW33805   2.417   1.424  13.778  0.0201  0.3349 -0.0539
 7448SOL    HW133806   2.447   1.467  13.698  2.4347  1.0674  1.2348
 7448SOL    HW233807   2.343   1.478  13.805  0.1851  1.4102 -1.7811
 7449SOL     OW33808   4.112   3.541   7.990  0.2967 -0.5432 -0.4335
 7449SOL    HW133809   4.197   3.520   8.028  0.3050 -0.2094 -0.2656
 7449SOL    HW233810   4.123   3.634   7.970  0.0841 -0.6502 -1.0614
 7450SOL     OW33811   0.326   3.479   5.156  0.2027 -0.1089 -0.1789
 7450SOL    HW133812   0.330   3.567   5.194  1.6253 -0.1938 -0.1476
 7450SOL    HW233813   0.412   3.447   5.183 -0.5325 -0.5284  1.6771
 7451SOL     OW33814   3.535   4.260   6.096  0.3043 -0.0277  0.1697
 7451SOL    HW133815   3.531   4.168   6.121  0.1503 -0.3942 -1.2082
 7451SOL    HW233816   3.457   4.299   6.135  0.9288  0.9913  0.3849
 7452SOL     OW33817   1.659   0.961   2.775  0.3474 -0.5331  0.1749
 7452SOL    HW133818   1.634   1.046   2.812  1.9615 -0.0446  0.1566
 7452SOL    HW233819   1.695   0.989   2.691 -0.3484 -0.2927 -0.0355
 7453SOL     OW33820   2.963   1.937   4.565 -0.4919 -0.2790 -0.1527
 7453SOL    HW133821   2.983   1.916   4.474  3.6777  0.4606  0.5859
 7453SOL    HW233822   2.892   1.878   4.591 -1.0793  0.4743 -0.0480
 7454SOL     OW33823   2.059   3.856  10.641  0.4466  0.4325 -0.2469
 7454SOL    HW133824   2.103   3.887  10.562  0.1399 -0.2441 -0.6804
 7454SOL    HW233825   2.036   3.945  10.670 -0.5710  0.0529  0.1087
 7455SOL     OW33826   0.659   3.693   7.225 -0.1878 -0.0001 -0.0129
 7455SOL    HW133827   0.676   3.707   7.318  0.4047 -0.1134 -0.1044
 7455SOL    HW233828   0.572   3.728   7.208  0.0989  0.5978 -0.2406
 7456SOL     OW33829   4.116   3.674   4.111 -0.1876 -1.0021 -0.1861
 7456SOL    HW133830   4.159   3.614   4.051  0.1706  2.2831 -3.1921
 7456SOL    HW233831   4.087   3.617   4.182 -4.6220 -0.6064 -1.7281
 7457SOL     OW33832   2.157   0.304  12.905  0.3010 -0.3209 -0.3197
 7457SOL    HW133833   2.114   0.219  12.911  1.3513 -0.8392 -0.1014
 7457SOL    HW233834   2.187   0.310  12.814 -2.1062 -1.0675 -1.1587
 7458SOL     OW33835   3.116   1.181   8.167 -0.8126 -0.0099 -0.3151
 7458SOL    HW133836   3.182   1.198   8.100 -0.3415  0.0854  0.1632
 7458SOL    HW233837   3.165   1.163   8.248 -1.5554  0.7110  0.2920
 7459SOL     OW33838   1.058   2.394   4.274  0.2155  0.0205  0.0194
 7459SOL    HW133839   1.097   2.368   4.357 -1.6868 -0.5265  0.7465
 7459SOL    HW233840   1.138   2.383   4.222  1.3371 -0.7188  1.9280
 7460SOL     OW33841   2.846   2.857  10.337 -0.5337  0.2380  0.3690
 7460SOL    HW133842   2.842   2.826  10.428  1.2571  0.0565  0.3792
 7460SOL    HW233843   2.752   2.866  10.324 -0.3436  2.5677  0.6392
 7461SOL     OW33844   1.566   1.509   4.959 -0.1855 -0.3648 -0.0099
 7461SOL    HW133845   1.558   1.586   5.014 -0.9567  0.7115 -1.6568
 7461SOL    HW233846   1.502   1.520   4.889  0.9177  0.3537 -0.9058
 7462SOL     OW33847   4.668   3.251   8.558  0.3605 -0.1863 -0.0926
 7462SOL    HW133848   4.680   3.341   8.527  2.6537 -0.5518 -0.2370
 7462SOL    HW233849   4.573   3.253   8.571  0.5901 -0.2209  1.6490
 7463SOL     OW33850   1.592   1.377   8.120  0.3422 -0.6072 -0.0276
 7463SOL    HW133851   1.643   1.333   8.052 -0.8317  1.0323 -1.9925
 7463SOL    HW233852   1.560   1.445   8.060 -2.1339 -0.2936  1.6223
 7464SOL     OW33853   2.796   0.597  12.657  0.6963 -0.1824 -0.3119
 7464SOL    HW133854   2.886   0.563  12.663  1.2754  1.1854 -1.2265
 7464SOL    HW233855   2.815   0.690  12.646  1.6230 -0.5292 -1.7334
 7465SOL     OW33856   3.492   0.560   3.347  0.0407 -0.2021  0.2333
 7465SOL    HW133857   3.405   0.549   3.385 -0.2053 -2.0853 -0.8840
 7465SOL    HW233858   3.505   0.652   3.368 -2.3053 -0.6562  3.6740
 7466SOL     OW33859   1.611   2.559   3.185  0.0310  0.2612 -0.0917
 7466SOL    HW133860   1.635   2.600   3.268 -0.9858 -1.8775  1.2812
 7466SOL    HW233861   1.538   2.505   3.217 -0.3499 -0.0466 -1.4874
 7467SOL     OW33862   1.189   1.365   3.135  0.0839  0.4029 -0.4627
 7467SOL    HW133863   1.186   1.292   3.074 -2.8397  0.5972 -0.5360
 7467SOL    HW233864   1.119   1.338   3.194  1.0394  0.3645  0.6516
 7468SOL     OW33865   4.300   1.129   8.775 -0.5312  0.0790 -0.1345
 7468SOL    HW133866   4.262   1.107   8.860  1.8119 -1.3382  0.5498
 7468SOL    HW233867   4.386   1.088   8.784 -1.4129 -1.8246 -0.2201
 7469SOL     OW33868   4.601   3.261   7.941 -0.2754 -0.0576 -0.0509
 7469SOL    HW133869   4.683   3.211   7.945  0.2072  1.0031  3.2342
 7469SOL    HW233870   4.630   3.352   7.950  0.7757 -0.4986  1.1704
 7470SOL     OW33871   2.848   1.762   2.596 -0.3753  0.1529  0.2567
 7470SOL    HW133872   2.781   1.826   2.621  0.4264  0.7955  0.7847
 7470SOL    HW233873   2.923   1.795   2.645 -0.5914  0.2893  0.4963
 7471SOL     OW33874   1.426   0.921   7.536  0.3605  0.0764  0.1658
 7471SOL    HW133875   1.500   0.873   7.499  1.1154  0.5321  1.0871
 7471SOL    HW233876   1.411   0.994   7.477  0.7490 -0.2015 -0.2722
 7472SOL     OW33877   0.341   1.166   9.097  0.3292  0.6276  0.3767
 7472SOL    HW133878   0.274   1.217   9.051 -0.2767  1.3955  2.1099
 7472SOL    HW233879   0.414   1.203   9.048  0.1720  2.2430  1.3578
 7473SOL     OW33880   1.358   1.694   7.625  0.3785 -0.1816 -0.2936
 7473SOL    HW133881   1.295   1.746   7.675  0.9355  1.2000 -1.0204
 7473SOL    HW233882   1.410   1.770   7.597  1.1129 -1.0991 -1.3861
 7474SOL     OW33883   3.149   3.813  13.057 -0.1754 -0.3780 -0.0946
 7474SOL    HW133884   3.104   3.847  13.135  0.4957 -0.0824  0.1656
 7474SOL    HW233885   3.236   3.798  13.094 -0.6227 -0.6056  0.8707
 7475SOL     OW33886   4.411   3.325   2.180 -0.1300  1.0129  0.2632
 7475SOL    HW133887   4.370   3.304   2.264 -0.8277 -0.0712 -0.3407
 7475SOL    HW233888   4.430   3.238   2.142 -0.8301  2.0013 -2.3921
 7476SOL     OW33889   2.667   4.348   5.734  0.2534 -0.3454  0.8711
 7476SOL    HW133890   2.628   4.435   5.724  2.9549  0.5755 -1.6643
 7476SOL    HW233891   2.595   4.289   5.757 -0.4084  1.2733  2.9456
 7477SOL     OW33892   2.034   2.789   8.128  0.0212 -0.8292  0.3422
 7477SOL    HW133893   2.064   2.877   8.108 -3.7577  0.5766  0.8312
 7477SOL    HW233894   1.966   2.803   8.194 -0.7137 -0.7302 -0.4292
 7478SOL     OW33895   0.688   3.737   4.582 -0.0116 -0.6612 -0.5492
 7478SOL    HW133896   0.617   3.783   4.627  0.3815 -0.1215 -0.4821
 7478SOL    HW233897   0.741   3.809   4.549 -1.3799  0.4220 -0.3907
 7479SOL     OW33898   2.797   4.646   3.954 -0.3812  0.3896 -0.0137
 7479SOL    HW133899   2.765   0.004   3.917 -0.7830  0.7718  1.2144
 7479SOL    HW233900   2.793   4.664   4.048 -0.9199 -1.3766  0.3027
 7480SOL     OW33901   0.746   2.578   8.430 -0.8111 -0.0248 -0.3776
 7480SOL    HW133902   0.697   2.592   8.510 -0.4175  0.9541 -0.3141
 7480SOL    HW233903   0.835   2.564   8.464 -1.3953  0.7710  1.4523
 7481SOL     OW33904   2.111   4.023   9.821 -0.6211 -0.1784 -0.4659
 7481SOL    HW133905   2.017   4.040   9.822 -0.4787  0.5670  0.1493
 7481SOL    HW233906   2.125   4.030   9.727  0.4328  2.8737 -0.0663
 7482SOL     OW33907   2.620   0.005   9.910  0.3412 -0.3756 -0.1193
 7482SOL    HW133908   2.714   4.715   9.924  0.2858 -0.4173  0.2115
 7482SOL    HW233909   2.603   0.090   9.871  0.7523 -0.5833 -0.7460
 7483SOL     OW33910   1.801   0.721   9.863  0.6122 -0.0681  0.3427
 7483SOL    HW133911   1.740   0.794   9.875 -0.3545 -1.1472  1.9222
 7483SOL    HW233912   1.752   0.668   9.800  0.4956  0.9663 -0.4511
 7484SOL     OW33913   2.375   3.453  15.470 -0.0034 -0.0830 -0.1003
 7484SOL    HW133914   2.311   3.523  15.479  0.5441  0.1963  1.6754
 7484SOL    HW233915   2.448   3.489  15.521  0.9165 -1.4588 -0.4242
 7485SOL     OW33916   3.550   1.740   2.222  0.3813  0.0352  0.3214
 7485SOL    HW133917   3.622   1.803   2.218  0.8521 -0.4196  1.5843
 7485SOL    HW233918   3.585   1.672   2.165  1.2408 -0.1969  1.1311
 7486SOL     OW33919   0.361   2.485   5.129 -0.0232  0.3330  0.3646
 7486SOL    HW133920   0.335   2.459   5.041 -1.2375 -1.4946  1.2576
 7486SOL    HW233921   0.290   2.453   5.185  0.1061  0.1249  0.4091
 7487SOL     OW33922   1.659   0.108   0.959  0.4140 -0.6629 -0.5133
 7487SOL    HW133923   1.720   0.046   0.998 -0.0684 -0.5103  0.4672
 7487SOL    HW233924   1.658   0.070   0.871  0.7724 -1.1833 -0.2938
 7488SOL     OW33925   3.692   0.607   9.094  0.0488  0.6775  0.1124
 7488SOL    HW133926   3.715   0.611   9.187  0.3304 -0.8185  0.0974
 7488SOL    HW233927   3.636   0.685   9.087  1.8594  1.9575 -0.1233
 7489SOL     OW33928   0.235   4.311   0.217 -0.3431  0.7549  0.2420
 7489SOL    HW133929   0.307   4.257   0.186 -2.8372 -0.4321 -3.4223
 7489SOL    HW233930   0.164   4.282   0.159 -0.9123  2.9278 -0.1915
 7490SOL     OW33931   2.844   0.125  16.636 -0.6825 -0.0679 -0.5987
 7490SOL    HW133932   2.791   0.201  16.657  0.7202  0.7353  0.0097
 7490SOL    HW233933   2.925   0.173  16.620 -1.1486  0.8270 -0.2520
 7491SOL     OW33934   4.301   3.391   3.710 -0.1961 -0.8826 -0.4047
 7491SOL    HW133935   4.206   3.392   3.715 -0.2749 -1.8149 -1.6537
 7491SOL    HW233936   4.317   3.349   3.625  1.4442  0.1767 -0.6300
 7492SOL     OW33937   3.464   1.499   3.596  0.0577  0.2462  0.7108
 7492SOL    HW133938   3.408   1.509   3.519 -0.5473  0.7151  1.2147
 7492SOL    HW233939   3.451   1.584   3.638  1.2636  0.3043  0.9714
 7493SOL     OW33940   0.821   2.903  10.043  0.5777  0.1271  0.0090
 7493SOL    HW133941   0.780   2.923  10.127  2.9143 -0.8462  1.3687
 7493SOL    HW233942   0.896   2.855  10.077 -0.6899  1.1016  4.1840
 7494SOL     OW33943   4.432   0.180  17.264 -0.6394 -0.4176 -0.0456
 7494SOL    HW133944   4.489   0.180  17.187 -0.7903 -0.5484 -0.1569
 7494SOL    HW233945   4.489   0.166  17.340 -1.4623 -1.1843  0.4345
 7495SOL     OW33946   4.533   3.975   5.360 -0.0349 -0.2625  0.4339
 7495SOL    HW133947   4.624   3.967   5.332 -0.1685 -1.1538  0.2523
 7495SOL    HW233948   4.538   4.036   5.433  2.0663  0.4297 -0.2874
 7496SOL     OW33949   2.363   0.511   2.018 -0.4743  0.4538  0.4002
 7496SOL    HW133950   2.314   0.517   2.100 -1.2395 -1.1993  0.0816
 7496SOL    HW233951   2.421   0.587   2.023  0.5502 -0.3849  1.4496
 7497SOL     OW33952   3.158   3.686   2.728 -0.2540  0.1756  0.5634
 7497SOL    HW133953   3.160   3.780   2.748 -1.8763  0.5723 -1.1331
 7497SOL    HW233954   3.192   3.681   2.639 -3.1961 -0.8790 -0.4922
 7498SOL     OW33955   0.252   3.900  11.488 -0.2456 -0.0570 -0.3067
 7498SOL    HW133956   0.206   3.936  11.412 -0.0340 -2.3096 -1.5216
 7498SOL    HW233957   0.340   3.884  11.452 -0.8409 -1.3516 -1.1854
 7499SOL     OW33958   0.379   4.496   8.424  0.6078  0.1545 -0.3457
 7499SOL    HW133959   0.412   4.455   8.504  1.2706  0.7271 -0.3269
 7499SOL    HW233960   0.326   4.432   8.378 -1.4678  1.4793  0.2155
 7500SOL     OW33961   2.871   0.969   6.107 -0.2179 -0.1335 -0.3310
 7500SOL    HW133962   2.873   1.055   6.149 -0.6564  0.7496 -2.1208
 7500SOL    HW233963   2.910   0.923   6.182  0.6020  0.9479 -0.0814
 7501SOL     OW33964   0.290   0.508   0.323  0.8076 -0.6478  0.0825
 7501SOL    HW133965   0.363   0.453   0.350  1.0272 -0.7348 -0.6758
 7501SOL    HW233966   0.331   0.552   0.249 -2.2288  0.6623 -0.8420
 7502SOL     OW33967   3.379   0.563   6.677  0.4035 -0.3064  0.6063
 7502SOL    HW133968   3.342   0.623   6.742 -1.1756  1.3404 -1.8018
 7502SOL    HW233969   3.471   0.581   6.697  0.1444 -1.9832  3.3277
 7503SOL     OW33970   3.191   1.722   3.077 -0.9667 -0.4547  0.3581
 7503SOL    HW133971   3.214   1.815   3.077  0.3489 -0.7842 -0.0614
 7503SOL    HW233972   3.274   1.677   3.070  0.4265  2.0000  1.0100
 7504SOL     OW33973   1.870   4.236   4.363  0.0613  0.1902  0.3577
 7504SOL    HW133974   1.964   4.243   4.379  0.1993 -0.0857 -0.3753
 7504SOL    HW233975   1.834   4.325   4.371  0.0149  0.2073 -0.0324
 7505SOL     OW33976   1.306   1.684  16.992 -0.2629  0.3696  0.1794
 7505SOL    HW133977   1.290   1.613  17.053  1.8195  0.0718  0.3671
 7505SOL    HW233978   1.348   1.750  17.047 -0.5969  2.3486 -1.9410
 7506SOL     OW33979   4.185   1.809   5.325  0.4276 -0.0414  0.2854
 7506SOL    HW133980   4.165   1.810   5.232  1.2286 -0.8334  0.1095
 7506SOL    HW233981   4.140   1.890   5.348  0.1456 -0.3007  0.6537
 7507SOL     OW33982   4.586   0.606  15.388  0.0287  0.4434 -0.1406
 7507SOL    HW133983   4.508   0.553  15.380 -1.6065  2.8510 -0.2865
 7507SOL    HW233984   4.645   0.558  15.446  0.4139  0.2531 -0.6868
 7508SOL     OW33985   1.873   1.294   6.265  0.1270  0.5104  0.9134
 7508SOL    HW133986   1.842   1.216   6.219 -0.1687  0.2315  1.5811
 7508SOL    HW233987   1.816   1.290   6.343 -0.0422 -0.1774  0.7579
 7509SOL     OW33988   3.767   2.205   4.861 -0.3130 -0.7476  0.1177
 7509SOL    HW133989   3.672   2.214   4.872  0.2489  2.2339  2.4041
 7509SOL    HW233990   3.767   2.160   4.776  2.5518  1.1517 -0.8749
 7510SOL     OW33991   3.687   0.019  16.991  0.7659 -0.1097  0.2786
 7510SOL    HW133992   3.717   4.701  17.071  2.9735 -0.3901 -0.6962
 7510SOL    HW233993   3.624   0.078  17.032 -0.2460  0.8844 -2.7143
 7511SOL     OW33994   2.100   4.547   4.256  0.0860  0.1415 -0.4002
 7511SOL    HW133995   2.055   4.533   4.339 -0.0497  1.1447 -0.3074
 7511SOL    HW233996   2.042   4.505   4.193  1.6896  1.2741 -2.6665
 7512SOL     OW33997   4.306   0.335   2.125  0.5949 -0.0425  0.0799
 7512SOL    HW133998   4.385   0.356   2.175  0.1932  1.9415 -0.1379
 7512SOL    HW233999   4.345   0.295   2.047 -0.8052 -1.4403  0.0869
 7513SOL     OW34000   4.687   0.622  14.120  0.3228 -0.0964  0.2904
 7513SOL    HW134001   4.625   0.665  14.061  0.9760  1.7372  0.9544
 7513SOL    HW234002   4.710   0.552  14.059 -1.9234 -0.0756 -0.6055
 7514SOL     OW34003   3.787   1.971   2.262  0.4327  0.1517 -0.2549
 7514SOL    HW134004   3.861   2.030   2.244  2.7695 -1.8400  2.7932
 7514SOL    HW234005   3.709   2.026   2.265  1.4366  1.5907 -0.3657
 7515SOL     OW34006   4.517   1.275  10.273 -0.2831 -0.2227  0.9170
 7515SOL    HW134007   4.445   1.302  10.331  0.6379  1.6209  1.2028
 7515SOL    HW234008   4.578   1.236  10.336 -1.2627 -1.0888  1.3246
 7516SOL     OW34009   0.765   0.836   4.528 -0.4129 -0.1406  0.4062
 7516SOL    HW134010   0.726   0.749   4.521  0.8590 -0.6120 -0.8392
 7516SOL    HW234011   0.809   0.835   4.443  1.3254 -0.5291  1.3119
 7517SOL     OW34012   3.013   0.439   2.438  0.0521  0.0827 -0.0669
 7517SOL    HW134013   3.088   0.388   2.469 -0.4795 -1.4675 -1.2752
 7517SOL    HW234014   2.939   0.430   2.499 -0.0987 -2.9501 -0.6632
 7518SOL     OW34015   4.031   3.015  16.770  0.2422  0.9515 -0.0992
 7518SOL    HW134016   4.025   3.102  16.811 -0.2315  0.4390  0.8973
 7518SOL    HW234017   3.940   2.999  16.745 -0.0342  1.7759  0.3588
 7519SOL     OW34018   2.993   1.989  14.917 -0.5236  0.1198  0.4103
 7519SOL    HW134019   3.015   2.067  14.865 -3.4996 -0.2249 -1.3743
 7519SOL    HW234020   2.914   1.961  14.872 -0.5696  0.5718  0.2112
 7520SOL     OW34021   4.587   2.052   0.036 -0.1933  0.2507  0.0752
 7520SOL    HW134022   4.618   2.028   0.124  1.4188 -0.6294 -0.7349
 7520SOL    HW234023   4.519   2.114   0.062  0.1428  0.4449  0.4884
 7521SOL     OW34024   3.901   3.926  14.583 -0.1910 -0.0964  0.2073
 7521SOL    HW134025   3.991   3.927  14.614 -0.5170 -0.3928  1.1699
 7521SOL    HW234026   3.859   3.989  14.642 -1.5765  1.8763 -2.8805
 7522SOL     OW34027   3.868   3.476   4.849  0.4864 -0.2873  0.1415
 7522SOL    HW134028   3.857   3.506   4.939  1.4805  0.7010 -0.0671
 7522SOL    HW234029   3.912   3.550   4.807  1.2995 -0.6054  0.4324
 7523SOL     OW34030   2.778   1.025   5.174  0.3163  0.5148 -0.3369
 7523SOL    HW134031   2.769   1.120   5.172 -0.4047  0.4229 -2.1665
 7523SOL    HW234032   2.872   1.025   5.156  0.2991 -0.2021 -0.4290
 7524SOL     OW34033   4.074   2.052   9.253 -0.2210 -0.0889 -0.0492
 7524SOL    HW134034   3.997   2.003   9.224 -0.5362 -0.1562  0.9280
 7524SOL    HW234035   4.140   1.987   9.276  1.0994 -0.5096 -4.9328
 7525SOL     OW34036   2.541   3.542   1.870 -0.7204  0.1281 -0.4364
 7525SOL    HW134037   2.470   3.546   1.935  0.8791 -0.8852  1.3593
 7525SOL    HW234038   2.484   3.521   1.796  1.3526  1.4043 -2.3928
 7526SOL     OW34039   0.522   3.106   2.899 -0.0246 -0.1094  0.7420
 7526SOL    HW134040   0.553   3.149   2.979  0.5316 -2.0054  1.5282
 7526SOL    HW234041   0.602   3.059   2.876 -1.7208 -1.6981 -1.8399
 7527SOL     OW34042   0.336   2.384  12.282  0.0381 -0.2982 -0.1509
 7527SOL    HW134043   0.272   2.425  12.339  0.3344 -0.3937  0.2464
 7527SOL    HW234044   0.413   2.439  12.292  0.0001 -0.2751  0.0157
 7528SOL     OW34045   1.552   4.668  15.005 -0.2676  0.3110 -0.1066
 7528SOL    HW134046   1.626   4.644  15.060 -0.8822 -1.9793 -0.2783
 7528SOL    HW234047   1.550   0.038  15.020  0.1423  0.4077 -0.6218
 7529SOL     OW34048   3.752   3.154   7.529  0.1504 -0.5803  0.4338
 7529SOL    HW134049   3.746   3.060   7.513 -0.3049 -0.7745  1.7451
 7529SOL    HW234050   3.679   3.177   7.586  1.3216 -1.3604  2.2909
 7530SOL     OW34051   3.446   1.642  17.016  0.1646  0.0750  0.2368
 7530SOL    HW134052   3.400   1.722  17.041  1.3159  0.9577 -0.4328
 7530SOL    HW234053   3.380   1.590  16.969 -0.2577 -0.4653  1.4374
 7531SOL     OW34054   0.043   1.555   2.607  0.1013 -0.2824  0.3115
 7531SOL    HW134055   0.053   1.559   2.703 -0.0961  1.1886  0.2595
 7531SOL    HW234056   4.682   1.515   2.602 -0.6003  1.3098  0.0200
 7532SOL     OW34057   2.639   4.617  14.714 -0.0077  0.5481 -0.1145
 7532SOL    HW134058   2.637   4.712  14.721  1.1325  0.6878 -1.9131
 7532SOL    HW234059   2.731   4.600  14.696  0.3695  0.2085  2.0414
 7533SOL     OW34060   3.632   1.851   0.155 -0.6790  0.6401 -0.5569
 7533SOL    HW134061   3.689   1.926   0.136 -1.3697  1.4039  0.3445
 7533SOL    HW234062   3.544   1.888   0.142 -1.1484  0.0959  0.9984
 7534SOL     OW34063   2.888   1.848  13.766 -0.3595 -0.0101 -0.2475
 7534SOL    HW134064   2.860   1.757  13.762 -1.9512  0.3283  3.0857
 7534SOL    HW234065   2.964   1.832  13.821  0.2391  0.0593 -1.0581
 7535SOL     OW34066   3.345   3.615  11.224 -0.0103 -0.1844  0.1384
 7535SOL    HW134067   3.373   3.527  11.251  2.7075  0.4677 -0.6233
 7535SOL    HW234068   3.390   3.622  11.140 -0.8292 -4.1331 -0.6699
 7536SOL     OW34069   0.607   1.339  11.581  0.4052  0.2563  0.3024
 7536SOL    HW134070   0.591   1.404  11.650 -0.0877  0.9070 -0.4265
 7536SOL    HW234071   0.698   1.312  11.593  0.8635  0.8395 -1.9721
 7537SOL     OW34072   4.045   0.489   8.070  0.4015  0.2108 -0.0917
 7537SOL    HW134073   4.067   0.527   8.155 -1.1420  3.4006 -1.1110
 7537SOL    HW234074   4.133   0.481   8.032  1.2175  1.7433  1.4865
 7538SOL     OW34075   0.863   0.093   2.812 -0.3019  0.1585 -0.5057
 7538SOL    HW134076   0.893   0.135   2.893  1.6596  0.4270 -1.3802
 7538SOL    HW234077   0.916   0.144   2.751  1.1661 -1.4675 -0.5832
 7539SOL     OW34078   3.968   2.155  14.885 -0.3661  0.5870 -0.1783
 7539SOL    HW134079   3.912   2.221  14.927 -1.6948  0.3573 -1.5950
 7539SOL    HW234080   3.904   2.091  14.853 -1.6672  0.9661  1.6418
 7540SOL     OW34081   4.370   2.738  11.004 -0.5602 -0.3780 -0.1576
 7540SOL    HW134082   4.389   2.736  10.911 -0.9140 -1.4319 -0.2039
 7540SOL    HW234083   4.393   2.651  11.038 -2.1702 -0.8691 -0.3138
 7541SOL     OW34084   0.696   4.110   2.314  0.0692 -0.0581  0.3264
 7541SOL    HW134085   0.605   4.082   2.324  0.2632 -0.5400  0.8046
 7541SOL    HW234086   0.695   4.205   2.326 -0.7752  0.0924 -1.0081
 7542SOL     OW34087   3.957   0.769   3.251  0.4480 -0.4614  0.1735
 7542SOL    HW134088   4.021   0.838   3.234  0.5075 -0.0431  2.0877
 7542SOL    HW234089   3.877   0.822   3.250 -0.0069 -1.1487 -0.3883
 7543SOL     OW34090   2.710   3.784  12.097  0.1236  0.2284 -0.2065
 7543SOL    HW134091   2.766   3.860  12.113 -1.5489  1.1134  1.4959
 7543SOL    HW234092   2.767   3.723  12.050  0.1792  2.2329 -2.7347
 7544SOL     OW34093   0.423   4.569   5.733  0.1147  0.0184  0.3623
 7544SOL    HW134094   0.474   4.650   5.721 -0.7416  0.7465  1.5973
 7544SOL    HW234095   0.486   4.497   5.740  0.7776  0.4367 -1.3445
 7545SOL     OW34096   2.610   2.674   5.550 -0.1952 -0.0400  0.0002
 7545SOL    HW134097   2.539   2.614   5.568  0.7091 -0.2246  2.8750
 7545SOL    HW234098   2.628   2.646   5.460  0.9107  0.3477  0.1010
 7546SOL     OW34099   0.195   0.035  14.042  1.1355 -0.2368  0.4338
 7546SOL    HW134100   0.105   0.006  14.026  1.0565  0.2052  0.0767
 7546SOL    HW234101   0.219   4.711  14.121  1.2249 -1.1082 -0.1356
 7547SOL     OW34102   0.102   1.678  14.463 -0.2551 -0.2082  0.1143
 7547SOL    HW134103   0.194   1.699  14.479 -0.2049 -0.8352  0.6443
 7547SOL    HW234104   0.064   1.744  14.521 -0.1422  0.7150 -0.8589
 7548SOL     OW34105   3.995   3.773   7.760 -0.1040 -0.1184  0.1686
 7548SOL    HW134106   3.916   3.825   7.744  0.7378  0.4384 -2.2327
 7548SOL    HW234107   4.043   3.835   7.814  2.4049  0.6853 -2.9863
 7549SOL     OW34108   0.728   1.790  12.787  0.0585  1.0475  0.1930
 7549SOL    HW134109   0.659   1.769  12.850  0.1358  2.8277  0.8435
 7549SOL    HW234110   0.673   1.802  12.710 -0.5671 -0.8756  0.3430
 7550SOL     OW34111   3.448   0.629   4.433  0.0352  0.4085 -0.0586
 7550SOL    HW134112   3.515   0.628   4.365  0.5164  2.1058  0.3839
 7550SOL    HW234113   3.474   0.555   4.488  0.9498  1.7915  1.4040
 7551SOL     OW34114   0.991   2.146  14.920  0.4440 -0.4665  0.0128
 7551SOL    HW134115   1.039   2.065  14.938 -0.5581 -0.8617  0.8825
 7551SOL    HW234116   1.028   2.159  14.833  2.2291  1.8376  1.1356
 7552SOL     OW34117   2.045   2.953   8.428  0.2633 -0.4400 -0.5916
 7552SOL    HW134118   2.046   3.049   8.418  0.1955 -0.5054 -1.2299
 7552SOL    HW234119   1.952   2.934   8.414  0.2724  0.5704 -2.0081
 7553SOL     OW34120   3.358   1.059   9.228  0.6387  0.2759  0.6350
 7553SOL    HW134121   3.402   1.131   9.184  1.1671 -1.2602 -1.3192
 7553SOL    HW234122   3.404   0.978   9.207  0.1421  0.3321 -0.6680
 7554SOL     OW34123   2.152   2.940   5.517 -0.1755  0.2293  0.0048
 7554SOL    HW134124   2.066   2.977   5.533 -0.4822 -0.6117  0.2744
 7554SOL    HW234125   2.210   3.017   5.523 -1.1510  0.8330  1.6753
 7555SOL     OW34126   3.102   0.646  15.582 -0.2618  0.0482 -0.0820
 7555SOL    HW134127   3.185   0.694  15.572 -0.4615  0.4208  0.0666
 7555SOL    HW234128   3.094   0.603  15.497 -0.2811 -0.2870  0.0923
 7556SOL     OW34129   2.914   2.876   4.535  0.0223 -0.1579  0.5649
 7556SOL    HW134130   2.989   2.877   4.595 -0.7890  0.9207  1.5583
 7556SOL    HW234131   2.861   2.810   4.579 -0.5836  0.3890  0.6556
 7557SOL     OW34132   1.625   3.890   9.671 -0.1525 -0.2731 -0.2739
 7557SOL    HW134133   1.661   3.842   9.746 -0.4145 -0.8906 -0.5366
 7557SOL    HW234134   1.637   3.977   9.707 -1.1499 -1.1761  2.2024
 7558SOL     OW34135   2.081   1.628   8.657  0.1332 -0.1890  0.0420
 7558SOL    HW134136   2.073   1.584   8.741  0.7127  0.1851  0.2958
 7558SOL    HW234137   2.175   1.645   8.652  0.3755 -1.5315  0.2244
 7559SOL     OW34138   3.837   1.904  14.074 -0.4217 -0.1386  0.1085
 7559SOL    HW134139   3.854   1.821  14.120  0.0859  0.3812  0.8520
 7559SOL    HW234140   3.758   1.877  14.027  0.6137  1.9399 -2.7898
 7560SOL     OW34141   0.255   3.869   7.341 -0.0532  0.2707 -0.1078
 7560SOL    HW134142   0.282   3.815   7.266 -0.0519  2.7168 -1.8720
 7560SOL    HW234143   0.252   3.954   7.297  0.5584  0.4077  0.1033
 7561SOL     OW34144   0.731   3.973   7.969  0.3756  0.0449  0.1043
 7561SOL    HW134145   0.670   3.979   8.043 -0.3360 -0.7614 -0.4204
 7561SOL    HW234146   0.664   3.969   7.900 -0.1822  2.0432  0.5075
 7562SOL     OW34147   3.970   4.322   0.129  0.4863  0.1816 -0.6670
 7562SOL    HW134148   3.963   4.277   0.045  1.1806 -1.5006  0.1731
 7562SOL    HW234149   4.065   4.333   0.126  0.3184  1.8926  0.4216
 7563SOL     OW34150   4.152   3.357   3.137  0.1029 -0.5185  0.1901
 7563SOL    HW134151   4.107   3.360   3.221 -0.4826 -0.4989 -0.1309
 7563SOL    HW234152   4.138   3.450   3.121 -2.1601 -0.8085  0.5006
 7564SOL     OW34153   3.384   0.869   6.630  0.8312 -0.3387 -0.2012
 7564SOL    HW134154   3.320   0.935   6.657  1.5697 -0.1655  1.1383
 7564SOL    HW234155   3.332   0.805   6.582  2.4207 -1.2075 -0.7734
 7565SOL     OW34156   2.539   3.403   4.374  0.4295  0.6447 -0.0099
 7565SOL    HW134157   2.519   3.430   4.463  1.0651  0.2953  0.2393
 7565SOL    HW234158   2.504   3.482   4.334  0.0115  2.0440  3.1414
 7566SOL     OW34159   2.184   1.724   2.680  0.0926 -0.2263 -0.0222
 7566SOL    HW134160   2.134   1.805   2.667  0.0143 -0.1199  0.9573
 7566SOL    HW234161   2.194   1.713   2.775  1.3737 -2.4166 -0.4162
 7567SOL     OW34162   3.260   0.141   3.983  0.1685 -0.3179 -0.7299
 7567SOL    HW134163   3.268   0.054   4.022  0.9009 -0.0414 -0.2587
 7567SOL    HW234164   3.232   0.109   3.897  0.0065 -1.9175 -0.0891
 7568SOL     OW34165   0.767   2.518  17.279 -0.0979  0.3898  0.4527
 7568SOL    HW134166   0.809   2.442  17.240 -0.0438  1.6761 -2.0146
 7568SOL    HW234167   0.747   2.495  17.370  0.5428 -0.3121  0.4060
 7569SOL     OW34168   1.806   4.235   8.779 -0.5608 -0.2840 -0.8302
 7569SOL    HW134169   1.711   4.238   8.765 -0.6178  2.4529  0.0865
 7569SOL    HW234170   1.820   4.194   8.694  1.4127 -1.5596  0.1306
 7570SOL     OW34171   1.007   3.624   4.787  0.1100  0.3981  0.2198
 7570SOL    HW134172   1.102   3.638   4.785  0.1471  0.0509 -0.3644
 7570SOL    HW234173   0.985   3.717   4.788  0.4148  0.4972 -1.7722
 7571SOL     OW34174   2.592   3.374  11.452  0.1074 -0.8596 -0.1443
 7571SOL    HW134175   2.500   3.392  11.472  0.3952 -0.0163  0.3938
 7571SOL    HW234176   2.636   3.436  11.509  1.4087 -2.8641  1.0254
 7572SOL     OW34177   1.919   4.657   0.585  0.0635  0.0400 -0.1953
 7572SOL    HW134178   1.924   0.027   0.575  1.4207 -0.1273 -1.1641
 7572SOL    HW234179   1.854   4.636   0.519 -0.2256  0.5570 -0.0715
 7573SOL     OW34180   0.177   2.982  16.053  0.3357  0.1010 -0.4112
 7573SOL    HW134181   0.236   3.058  16.056  0.5374 -0.0275 -1.0776
 7573SOL    HW234182   0.226   2.911  16.094  0.7089  1.0108  0.7277
 7574SOL     OW34183   0.841   3.442   7.313 -0.2804 -0.3616 -0.2398
 7574SOL    HW134184   0.749   3.460   7.332  0.3298  1.7603  0.7226
 7574SOL    HW234185   0.878   3.527   7.338 -0.2577 -1.1756  2.4900
 7575SOL     OW34186   2.677   3.315   1.831 -0.2853 -0.5310  0.6106
 7575SOL    HW134187   2.613   3.384   1.851  1.9325  1.7274 -0.0360
 7575SOL    HW234188   2.734   3.365   1.773  0.2445 -0.2927  1.3250
 7576SOL     OW34189   1.392   0.531   7.678  0.1736 -0.3024  0.2322
 7576SOL    HW134190   1.301   0.508   7.659 -0.2366  0.7017  0.9758
 7576SOL    HW234191   1.437   0.509   7.597  0.0792  0.9898 -0.1624
 7577SOL     OW34192   1.990   4.071   6.802 -0.2797  0.3211 -0.2414
 7577SOL    HW134193   2.014   4.115   6.721  1.4306  3.2228  1.8591
 7577SOL    HW234194   2.068   4.016   6.809  0.7107  1.7045 -0.5606
 7578SOL     OW34195   3.147   2.769   5.982 -0.2607  0.3091 -0.4623
 7578SOL    HW134196   3.122   2.861   5.972 -1.0376  0.2885  1.2956
 7578SOL    HW234197   3.231   2.776   6.028  0.3457  0.0876 -1.5496
 7579SOL     OW34198   1.957   4.274   2.602 -0.7415  0.1149 -0.2417
 7579SOL    HW134199   1.924   4.207   2.663 -2.7089 -0.1484 -1.6095
 7579SOL    HW234200   2.047   4.248   2.579  0.1146  1.8208  1.2380
 7580SOL     OW34201   0.510   2.161   3.408 -0.1305  0.3405 -0.0436
 7580SOL    HW134202   0.598   2.173   3.373  0.3651 -1.4812  0.5661
 7580SOL    HW234203   0.534   2.110   3.486  1.8158  0.3725 -0.6449
 7581SOL     OW34204   3.092   1.972  14.538 -0.2712 -0.2585 -0.0442
 7581SOL    HW134205   3.048   2.014  14.612  0.0158  1.4644 -0.8399
 7581SOL    HW234206   3.043   2.004  14.462  1.0139  1.7697 -0.0313
 7582SOL     OW34207   0.413   0.708  11.789 -0.2083 -0.1219 -0.8691
 7582SOL    HW134208   0.457   0.783  11.749  1.5227  0.2308  1.6900
 7582SOL    HW234209   0.424   0.740  11.879  2.0589 -1.0087 -0.8241
 7583SOL     OW34210   3.306   1.546   9.856  0.1548  0.3008 -0.0891
 7583SOL    HW134211   3.279   1.604   9.926 -0.7875  1.0126 -1.0463
 7583SOL    HW234212   3.281   1.460   9.890  1.4680 -0.0493 -0.0225
 7584SOL     OW34213   4.305   3.459  10.175  0.0951 -0.0898 -0.0611
 7584SOL    HW134214   4.313   3.532  10.237 -3.0831 -0.1481  0.4330
 7584SOL    HW234215   4.222   3.474  10.130 -0.1501  0.5909  0.6252
 7585SOL     OW34216   1.837   3.164   9.791 -0.2774 -0.2796  0.0566
 7585SOL    HW134217   1.766   3.225   9.809  0.0552 -0.3592  1.6820
 7585SOL    HW234218   1.878   3.166   9.878  0.2922 -3.4236 -0.1410
 7586SOL     OW34219   3.819   2.930  17.194  0.1880  0.2693 -0.0361
 7586SOL    HW134220   3.821   3.017  17.152 -0.9726 -0.3766 -1.4301
 7586SOL    HW234221   3.816   2.957  17.286  1.7138 -1.2774  0.4567
 7587SOL     OW34222   2.793   2.179   3.078  0.2796  0.1009 -0.5103
 7587SOL    HW134223   2.865   2.145   3.026  1.3685  0.6647  0.6389
 7587SOL    HW234224   2.783   2.109   3.142  0.6273 -3.0560 -3.8816
 7588SOL     OW34225   3.007   3.246   6.689  0.5102  0.4850 -0.3369
 7588SOL    HW134226   3.078   3.305   6.661 -0.8023  2.3680  0.2810
 7588SOL    HW234227   2.935   3.308   6.698 -0.8086 -1.1950  0.5260
 7589SOL     OW34228   1.959   4.345   6.850 -0.7151  0.2976 -0.0434
 7589SOL    HW134229   2.047   4.312   6.865 -1.1839 -1.2778 -0.7577
 7589SOL    HW234230   1.943   4.315   6.760 -0.8080 -0.4899  0.2339
 7590SOL     OW34231   1.181   1.597   3.999 -0.2954 -0.5244 -0.5927
 7590SOL    HW134232   1.212   1.516   4.038  0.4687 -1.3499 -2.8811
 7590SOL    HW234233   1.164   1.571   3.908  1.2345  0.6378 -1.2130
 7591SOL     OW34234   1.598   0.466   9.980  0.4406  0.7025  0.3115
 7591SOL    HW134235   1.679   0.473   9.930  0.7511  3.1011  1.1425
 7591SOL    HW234236   1.597   0.556  10.011 -0.8140  1.7259 -2.6382
 7592SOL     OW34237   3.423   0.522   2.560 -0.0873  0.9048  0.1989
 7592SOL    HW134238   3.379   0.550   2.639  0.1413  0.7925  0.3676
 7592SOL    HW234239   3.394   0.434   2.534  1.2560  0.5000  0.0357
 7593SOL     OW34240   2.282   2.055   1.304 -0.3214 -0.2654  0.4967
 7593SOL    HW134241   2.226   2.112   1.357 -0.9521 -1.0690  0.6830
 7593SOL    HW234242   2.238   1.974   1.328 -0.2294  0.1543  2.0683
 7594SOL     OW34243   3.579   3.345   9.271  0.4172  0.1030  0.0460
 7594SOL    HW134244   3.496   3.345   9.224  0.8783  0.5638 -0.7866
 7594SOL    HW234245   3.594   3.437   9.294 -2.3072  0.8393 -1.1398
 7595SOL     OW34246   1.603   2.099   7.562 -0.1337  0.3607 -1.2059
 7595SOL    HW134247   1.672   2.036   7.578 -0.4146 -0.1989 -2.1893
 7595SOL    HW234248   1.525   2.043   7.558 -1.0608  1.6244 -0.8734
 7596SOL     OW34249   0.446   0.067   2.576  0.1345  0.3502 -0.9933
 7596SOL    HW134250   0.533   0.055   2.538  1.1996  2.5247  0.7443
 7596SOL    HW234251   0.402   0.110   2.502  1.8696  5.1940  0.7619
 7597SOL     OW34252   0.157   4.666   8.688  0.6557 -0.8360 -0.3129
 7597SOL    HW134253   0.092   4.598   8.675  0.6248 -0.9176  0.2734
 7597SOL    HW234254   0.114   0.009   8.635  0.0525 -1.0696 -0.1168
 7598SOL     OW34255   0.214   3.080   4.504  0.4215 -0.3375 -0.2297
 7598SOL    HW134256   0.303   3.102   4.532  0.1709  1.9410 -1.2220
 7598SOL    HW234257   0.229   3.029   4.425  1.0911  1.3772 -1.2124
 7599SOL     OW34258   2.628   3.283  10.667 -0.5140  0.0656  0.1226
 7599SOL    HW134259   2.692   3.229  10.713 -0.6630 -0.9468 -0.8576
 7599SOL    HW234260   2.613   3.364  10.715 -1.1970  1.1491 -1.9261
 7600SOL     OW34261   4.183   2.056   6.553  0.1162 -0.0551 -0.4022
 7600SOL    HW134262   4.115   2.012   6.604  0.8977 -0.8386 -0.0360
 7600SOL    HW234263   4.155   2.027   6.466  0.4506 -2.2615  0.2281
 7601SOL     OW34264   0.890   0.533   3.193  0.2409  0.4925  0.2794
 7601SOL    HW134265   0.893   0.591   3.116 -1.4966  0.1157 -0.0645
 7601SOL    HW234266   0.801   0.500   3.200  1.4258 -2.6143  0.5551
 7602SOL     OW34267   2.863   1.137   1.765 -0.2114 -0.3542  0.2232
 7602SOL    HW134268   2.911   1.055   1.749  1.6904  1.0424 -1.1682
 7602SOL    HW234269   2.886   1.181   1.683  1.6582  0.2352  1.0599
 7603SOL     OW34270   0.037   0.654   6.317 -0.5417  0.0585  0.2537
 7603SOL    HW134271   4.681   0.704   6.308  1.1028  2.2339 -2.6080
 7603SOL    HW234272   0.101   0.714   6.278  0.2112  0.2450  1.7749
 7604SOL     OW34273   2.854   0.989   3.770 -0.3273  0.3444 -0.2985
 7604SOL    HW134274   2.834   1.070   3.724 -0.8329  0.7625  0.6602
 7604SOL    HW234275   2.942   0.974   3.736 -0.6896 -1.1050 -0.5985
 7605SOL     OW34276   0.219   3.367   2.704  0.1003  0.2125  0.0144
 7605SOL    HW134277   0.157   3.401   2.640 -2.6362 -1.3751  1.8062
 7605SOL    HW234278   0.286   3.435   2.718 -0.6977  1.1827 -0.8732
 7606SOL     OW34279   3.983   1.177  10.038  0.4230 -0.1702  0.1694
 7606SOL    HW134280   4.023   1.260  10.012 -0.5941  0.1920 -0.2493
 7606SOL    HW234281   4.023   1.103   9.993 -0.7760  0.1502 -1.4469
 7607SOL     OW34282   2.736   0.185  12.195  0.0540 -0.2515  0.0322
 7607SOL    HW134283   2.667   0.153  12.253 -1.4465  1.0759 -1.0009
 7607SOL    HW234284   2.792   0.223  12.263  1.7325 -0.8499 -1.0056
 7608SOL     OW34285   1.032   1.337   6.679  0.2510 -0.8354 -0.1694
 7608SOL    HW134286   0.989   1.374   6.602  0.7972 -1.3510 -0.7230
 7608SOL    HW234287   1.115   1.378   6.654 -0.8790  2.2541  1.0733
 7609SOL     OW34288   3.271   3.504   1.897 -0.1502  0.1757 -0.2868
 7609SOL    HW134289   3.217   3.532   1.824  1.6185 -0.0287 -1.6822
 7609SOL    HW234290   3.292   3.415   1.869  1.2816  0.4963 -0.2416
 7610SOL     OW34291   3.419   0.523  12.978 -0.0409  0.5307  0.2989
 7610SOL    HW134292   3.480   0.517  12.904  1.0305  1.3126  1.1061
 7610SOL    HW234293   3.477   0.559  13.045  0.1662 -1.4234  1.1472
 7611SOL     OW34294   0.326   3.543   4.837  0.4460 -0.0365 -0.4976
 7611SOL    HW134295   0.393   3.480   4.862  0.4470 -0.8154 -2.4370
 7611SOL    HW234296   0.373   3.625   4.854  1.1624 -0.5912  0.1681
 7612SOL     OW34297   2.383   3.079  15.553  0.0712 -0.0831  0.0637
 7612SOL    HW134298   2.305   3.026  15.538  0.0041 -0.5880  2.1906
 7612SOL    HW234299   2.381   3.090  15.648  0.5431  0.2041  0.0382
 7613SOL     OW34300   0.380   0.860   4.784  0.0918  0.1656  0.0765
 7613SOL    HW134301   0.351   0.951   4.783 -1.0206 -0.1784  1.4161
 7613SOL    HW234302   0.392   0.845   4.878 -2.2620  0.6106  0.4421
 7614SOL     OW34303   3.125   0.584  15.328  0.6615  0.2295 -0.1035
 7614SOL    HW134304   3.211   0.544  15.318  0.5948  0.3043 -0.9486
 7614SOL    HW234305   3.109   0.598  15.235 -0.3076  3.5104  0.5261
 7615SOL     OW34306   1.004   4.503   9.396  0.6446  0.6285  0.1172
 7615SOL    HW134307   1.043   4.422   9.363 -1.5347 -1.2595  2.2161
 7615SOL    HW234308   1.029   4.564   9.327  2.1287 -0.0366  0.0625
 7616SOL     OW34309   3.348   1.687   3.732 -0.1325  0.3314 -0.4418
 7616SOL    HW134310   3.426   1.714   3.779 -0.5129 -0.5827  0.7178
 7616SOL    HW234311   3.286   1.683   3.805 -0.1556 -3.1071 -0.6459
 7617SOL     OW34312   2.479   0.376  12.958  0.4572 -0.3374  0.8754
 7617SOL    HW134313   2.574   0.381  12.943  0.3907 -1.0955  0.1868
 7617SOL    HW234314   2.455   0.425  12.880 -1.2965 -0.7460  1.1693
 7618SOL     OW34315   4.132   4.713   4.616  0.2600  0.1293 -0.2074
 7618SOL    HW134316   4.056   4.720   4.558 -0.0534  0.8287  0.2952
 7618SOL    HW234317   4.096   4.658   4.685 -1.2125  1.5981  0.1829
 7619SOL     OW34318   3.302   0.262   5.120  0.1875 -0.3273 -0.3042
 7619SOL    HW134319   3.271   0.307   5.199 -1.4189 -0.1936 -1.0180
 7619SOL    HW234320   3.303   0.337   5.061  2.3406  1.4183  1.9555
 7620SOL     OW34321   3.833   2.141  11.381  0.2875  0.7052 -1.1839
 7620SOL    HW134322   3.849   2.235  11.395  1.2667  0.7127 -2.3913
 7620SOL    HW234323   3.910   2.125  11.327 -0.3226 -2.0707 -1.2100
 7621SOL     OW34324   2.450   0.516  11.292 -0.3128  0.0186  0.0020
 7621SOL    HW134325   2.501   0.573  11.235  2.4560 -1.3058  1.1367
 7621SOL    HW234326   2.519   0.506  11.359 -0.6367  1.1460  0.4997
 7622SOL     OW34327   0.626   3.856  13.178  0.3938 -0.3643  0.6670
 7622SOL    HW134328   0.555   3.918  13.169  1.2948  0.7140  1.0458
 7622SOL    HW234329   0.647   3.866  13.270 -1.0383 -0.1529  0.9647
 7623SOL     OW34330   0.729   2.703   6.798 -0.3147  0.3042  0.4479
 7623SOL    HW134331   0.749   2.766   6.867 -1.8614  1.1859  0.0878
 7623SOL    HW234332   0.786   2.730   6.725 -0.0249  1.7224  1.1968
 7624SOL     OW34333   2.691   4.690   2.075 -0.1768  0.2481 -0.4366
 7624SOL    HW134334   2.781   4.700   2.044  0.5708 -2.0100  0.9970
 7624SOL    HW234335   2.705   4.597   2.094  0.0518  0.2922 -0.3808
 7625SOL     OW34336   2.918   3.415   3.316  0.4681  0.6128 -0.2833
 7625SOL    HW134337   3.000   3.384   3.277  0.8021  0.9713  0.1334
 7625SOL    HW234338   2.862   3.357   3.264  0.6167 -0.5257  0.8310
 7626SOL     OW34339   4.433   3.652  16.948 -0.5949  0.0271 -0.1113
 7626SOL    HW134340   4.404   3.586  16.884  0.3511  2.0753 -2.6789
 7626SOL    HW234341   4.528   3.661  16.937 -0.8757  1.2360 -1.5481
 7627SOL     OW34342   0.253   0.893  11.626  0.7775  0.0217 -0.9430
 7627SOL    HW134343   0.278   0.944  11.702 -0.3672 -2.4464  1.0827
 7627SOL    HW234344   0.327   0.832  11.628  0.3620 -0.4404  0.0518
 7628SOL     OW34345   3.655   4.360   3.363 -0.0595  0.2780 -0.2063
 7628SOL    HW134346   3.703   4.306   3.299  0.9888 -2.1950  2.6752
 7628SOL    HW234347   3.732   4.406   3.396 -0.4345  1.2238 -0.6571
 7629SOL     OW34348   1.856   4.698   8.219  0.3683  0.0075  0.4957
 7629SOL    HW134349   1.778   4.649   8.191 -0.5864  3.4410 -2.7814
 7629SOL    HW234350   1.817   0.060   8.222 -0.6916 -0.5035  1.5015
 7630SOL     OW34351   0.172   4.676  11.834 -0.0770  0.0654  0.3363
 7630SOL    HW134352   0.121   0.029  11.857 -0.7998  0.1825 -1.6670
 7630SOL    HW234353   0.140   4.645  11.750 -1.7840 -0.0012  0.9997
 7631SOL     OW34354   1.393   3.129  17.138  0.6535  0.2539  0.3742
 7631SOL    HW134355   1.434   3.202  17.091  1.5346 -0.0150  0.7343
 7631SOL    HW234356   1.417   3.056  17.080 -1.9912  0.5270 -1.0547
 7632SOL     OW34357   2.811   0.682   6.830 -0.1856 -0.0558  0.0358
 7632SOL    HW134358   2.809   0.777   6.847 -0.2659  0.1373 -1.0332
 7632SOL    HW234359   2.776   0.668   6.917  0.5202 -4.0693 -0.3310
 7633SOL     OW34360   1.897   3.598   0.737  0.1258  0.4624  0.2304
 7633SOL    HW134361   1.885   3.507   0.708 -1.0273  0.4659  0.6933
 7633SOL    HW234362   1.873   3.599   0.829  2.6519  0.5017  0.8986
 7634SOL     OW34363   1.202   3.581   6.231 -0.2345 -0.1692  0.2899
 7634SOL    HW134364   1.129   3.625   6.187 -0.7194  0.8251  2.1165
 7634SOL    HW234365   1.176   3.489   6.240  0.2961 -0.3986 -0.5201
 7635SOL     OW34366   3.600   1.662   1.585  0.3894 -0.3251 -0.0950
 7635SOL    HW134367   3.603   1.702   1.497 -0.7546 -0.4703 -0.2002
 7635SOL    HW234368   3.587   1.742   1.635 -0.2330 -0.3391 -0.2326
 7636SOL     OW34369   2.431   0.770   4.732 -0.4820  0.3181 -0.2926
 7636SOL    HW134370   2.356   0.730   4.688 -1.2613  1.9142 -0.4166
 7636SOL    HW234371   2.457   0.692   4.779  1.8098  0.9642 -0.4735
 7637SOL     OW34372   2.801   4.575   2.592 -0.0720 -0.3391 -0.3377
 7637SOL    HW134373   2.747   4.632   2.537  0.2529  1.0896  0.8093
 7637SOL    HW234374   2.829   4.503   2.537  0.4197 -0.0938 -0.4046
 7638SOL     OW34375   1.667   1.611   7.155  0.7530  0.6898 -0.2215
 7638SOL    HW134376   1.644   1.628   7.064  1.3743 -1.1990 -0.7270
 7638SOL    HW234377   1.579   1.598   7.190  0.1272  0.6461 -1.8346
 7639SOL     OW34378   0.181   0.026   6.601  0.3943  0.0023  0.1496
 7639SOL    HW134379   0.141   4.668   6.627  3.0662 -1.2843  0.1914
 7639SOL    HW234380   0.181   0.011   6.506  0.9432 -1.1352  0.3275
 7640SOL     OW34381   3.450   4.644   5.851 -0.5770 -0.4275  0.0071
 7640SOL    HW134382   3.426   4.680   5.937 -0.7571  0.7147 -0.5244
 7640SOL    HW234383   3.377   4.584   5.835 -1.1248  0.4394 -0.7472
 7641SOL     OW34384   1.521   3.223  11.192  0.0664 -0.6745 -0.5712
 7641SOL    HW134385   1.576   3.290  11.232 -1.8451  1.2189 -1.1569
 7641SOL    HW234386   1.444   3.223  11.249  0.4793  0.5284 -0.0306
 7642SOL     OW34387   2.523   2.078   3.445 -0.2190  0.2085 -0.1238
 7642SOL    HW134388   2.530   2.128   3.527  0.0220  0.4858 -0.3155
 7642SOL    HW234389   2.428   2.066   3.440  0.1937 -1.5126 -3.6287
 7643SOL     OW34390   2.243   2.380   3.388 -0.3153  0.0232 -0.1822
 7643SOL    HW134391   2.275   2.406   3.474  1.0440  0.1209 -0.7182
 7643SOL    HW234392   2.327   2.358   3.348 -0.0553  0.6364  0.0331
 7644SOL     OW34393   4.527   3.587   5.543 -0.2289  0.4572  0.5818
 7644SOL    HW134394   4.589   3.658   5.560 -3.2815  3.8266 -2.2329
 7644SOL    HW234395   4.570   3.539   5.471 -0.5416  0.6969  0.2334
 7645SOL     OW34396   3.945   4.038   3.416  0.2216 -0.0097 -0.1669
 7645SOL    HW134397   3.893   3.971   3.460  0.5022 -1.4077 -1.9542
 7645SOL    HW234398   4.021   4.040   3.474  1.8625 -1.2655 -2.2725
 7646SOL     OW34399   2.378   0.882   0.937  0.1791 -0.5883 -0.9602
 7646SOL    HW134400   2.319   0.951   0.967  0.5394 -0.1666 -1.2113
 7646SOL    HW234401   2.361   0.811   0.999 -0.0823  0.7071  0.4605
 7647SOL     OW34402   2.507   0.086   3.102  0.3350 -0.0611 -0.1988
 7647SOL    HW134403   2.448   0.020   3.137  1.4551 -0.6620  0.5403
 7647SOL    HW234404   2.586   0.035   3.084  1.9304  2.3566 -0.2235
 7648SOL     OW34405   4.072   2.212   3.410  0.0031 -0.6540  0.4514
 7648SOL    HW134406   4.124   2.237   3.487  0.6934  2.9152 -1.1765
 7648SOL    HW234407   4.139   2.171   3.356 -0.5460 -1.3870  0.3396
 7649SOL     OW34408   2.057   3.334  12.838 -0.8067  0.0432  0.2475
 7649SOL    HW134409   2.047   3.430  12.838  2.0517  0.3661  0.5681
 7649SOL    HW234410   2.110   3.319  12.916 -0.1661  2.1535  0.2259
 7650SOL     OW34411   4.605   2.724   8.775  0.1086  0.4010 -0.2969
 7650SOL    HW134412   4.527   2.714   8.721  0.3761 -0.4130 -0.5324
 7650SOL    HW234413   4.604   2.819   8.781 -1.5869  0.3756 -0.2964
 7651SOL     OW34414   0.302   3.060  14.359  0.3329  0.3112  1.0564
 7651SOL    HW134415   0.282   2.976  14.317 -2.1000  1.3199  0.1712
 7651SOL    HW234416   0.370   3.100  14.305 -0.1346  0.3782  0.5166
 7652SOL     OW34417   1.005   2.055   8.302 -0.8163  0.1755 -0.7065
 7652SOL    HW134418   1.065   2.094   8.366 -1.9014  0.2300  0.3005
 7652SOL    HW234419   0.995   2.129   8.242  0.1823 -0.7544 -2.0245
 7653SOL     OW34420   3.080   1.797   4.902  0.2936  0.6022 -0.1325
 7653SOL    HW134421   3.125   1.740   4.839  0.7136  0.2599  0.4695
 7653SOL    HW234422   3.004   1.741   4.918  1.3512 -0.6367  0.5901
 7654SOL     OW34423   0.431   1.453   3.332  0.0708 -0.1827  0.1799
 7654SOL    HW134424   0.343   1.486   3.311  1.5121  0.5434 -4.6651
 7654SOL    HW234425   0.487   1.492   3.266  1.1931 -2.3570 -0.1417
 7655SOL     OW34426   2.454   1.708   1.021 -0.1341  0.4773 -0.1137
 7655SOL    HW134427   2.510   1.687   1.095  1.7575  1.4076 -1.3049
 7655SOL    HW234428   2.374   1.662   1.048 -0.5276  1.2528  0.0592
 7656SOL     OW34429   2.793   0.156   2.529  0.1703 -0.7460 -0.8290
 7656SOL    HW134430   2.708   0.186   2.562  0.6498 -1.9862  1.5369
 7656SOL    HW234431   2.854   0.183   2.597 -0.4383 -0.8088 -0.2522
 7657SOL     OW34432   0.738   4.719   7.172  0.3719 -0.9131 -0.6796
 7657SOL    HW134433   0.779   4.641   7.208  0.7724 -0.7784 -0.8482
 7657SOL    HW234434   0.697   0.032   7.249 -1.0356 -0.4431 -1.6604
 7658SOL     OW34435   0.787   2.948   9.409  0.5371  0.2642 -0.4967
 7658SOL    HW134436   0.836   2.866   9.415  1.9390  1.1214 -0.1547
 7658SOL    HW234437   0.706   2.927   9.364  0.6600 -4.1142  1.3452
 7659SOL     OW34438   2.063   0.226  15.460  0.0984  0.8109 -0.3790
 7659SOL    HW134439   2.021   0.173  15.528  1.3358 -1.5742 -1.4749
 7659SOL    HW234440   1.981   0.238  15.412  0.8546  3.0563 -1.1113
 7660SOL     OW34441   3.441   1.643   7.970 -0.0390 -0.2540 -0.3124
 7660SOL    HW134442   3.443   1.608   8.059 -1.1259  3.4433  1.1583
 7660SOL    HW234443   3.399   1.728   7.978 -0.8512 -0.7734  0.8359
 7661SOL     OW34444   1.866   2.087  10.557  0.1388 -0.5440 -0.1382
 7661SOL    HW134445   1.908   2.062  10.639  0.4209  0.7244  0.1165
 7661SOL    HW234446   1.820   2.004  10.544  2.1335 -1.6670  0.0132
 7662SOL     OW34447   4.089   0.587  11.543 -0.2647 -0.8381 -0.5930
 7662SOL    HW134448   4.022   0.625  11.486  0.7048 -0.0597 -1.1936
 7662SOL    HW234449   4.154   0.566  11.477 -1.6945  0.8073 -2.5188
 7663SOL     OW34450   1.175   1.061   9.466 -0.1963  0.2317 -0.0517
 7663SOL    HW134451   1.136   1.072   9.380  0.7129  0.7652 -0.3886
 7663SOL    HW234452   1.101   1.075   9.525  0.1884  2.1586 -0.0406
 7664SOL     OW34453   0.740   4.709   9.290 -0.3065  0.1590 -0.7449
 7664SOL    HW134454   0.803   4.704   9.218  0.2264  1.4889 -0.3796
 7664SOL    HW234455   0.728   0.079   9.290  1.9095  0.4480  0.4964
 7665SOL     OW34456   0.731   0.018  16.953 -0.6699 -0.2268 -0.6702
 7665SOL    HW134457   0.811   0.067  16.972 -0.7896  0.8511 -2.9132
 7665SOL    HW234458   0.668   0.090  16.951 -0.7768 -0.2569  2.3252
 7666SOL     OW34459   1.202   1.753   2.778 -0.1812  0.2739  0.2203
 7666SOL    HW134460   1.160   1.817   2.721 -1.4746 -0.8346 -0.0646
 7666SOL    HW234461   1.292   1.776   2.755  0.3278 -1.0065  0.9764
 7667SOL     OW34462   0.980   0.073   7.059 -0.2617 -0.3937 -0.5999
 7667SOL    HW134463   1.002   4.708   7.084 -0.1369  0.3097  1.8333
 7667SOL    HW234464   0.893   0.078   7.098  0.0206  1.5307 -0.2269
 7668SOL     OW34465   1.198   4.440  14.322  0.3674  0.4635 -0.3006
 7668SOL    HW134466   1.120   4.384  14.327  0.1630  0.7015 -0.8805
 7668SOL    HW234467   1.160   4.523  14.292 -2.4369 -1.0272 -0.9339
 7669SOL     OW34468   3.875   3.608   2.512  0.8710 -0.0156  0.2374
 7669SOL    HW134469   3.857   3.627   2.420  0.3969  1.7492  0.6982
 7669SOL    HW234470   3.795   3.627   2.559 -0.8257 -1.2481 -2.1598
 7670SOL     OW34471   4.011   0.893  10.698  0.2795 -0.0530 -0.6231
 7670SOL    HW134472   3.925   0.896  10.655 -0.8659 -1.6713  1.5731
 7670SOL    HW234473   3.977   0.888  10.787  2.4993 -3.5426  0.0471
 7671SOL     OW34474   4.603   2.505  10.873  0.1845  0.0504  0.6426
 7671SOL    HW134475   4.626   2.577  10.814 -1.5466  0.9159  1.0072
 7671SOL    HW234476   4.692   2.486  10.902  0.4295 -2.9399 -1.9855
 7672SOL     OW34477   1.217   0.571   9.222 -0.2042 -0.0643  0.7805
 7672SOL    HW134478   1.219   0.517   9.301  0.6257 -3.5730 -1.6273
 7672SOL    HW234479   1.218   0.659   9.259 -2.6580  0.2847 -0.0193
 7673SOL     OW34480   4.149   0.283   1.383  0.0721  0.1346  0.5498
 7673SOL    HW134481   4.054   0.297   1.383  0.4464  2.6317 -0.0609
 7673SOL    HW234482   4.176   0.374   1.372 -0.5870  0.1172 -1.3646
 7674SOL     OW34483   4.285   1.046   0.080  0.4058 -0.1087 -0.0230
 7674SOL    HW134484   4.307   1.053   0.173  2.1704  0.4036 -0.4721
 7674SOL    HW234485   4.337   0.970   0.056 -0.4582 -0.7394  0.1405
 7675SOL     OW34486   2.063   2.295  10.976  0.3884 -0.2554  0.3293
 7675SOL    HW134487   2.030   2.342  10.900  1.4538 -0.4750 -0.2751
 7675SOL    HW234488   2.032   2.205  10.970  2.0510 -0.8049 -0.2280
 7676SOL     OW34489   4.592   4.225   7.635 -0.4427  0.0693 -0.0950
 7676SOL    HW134490   4.588   4.257   7.545 -1.9729 -0.4732 -0.2214
 7676SOL    HW234491   4.531   4.285   7.679 -0.9058 -0.5583  0.1245
 7677SOL     OW34492   3.095   4.707  11.510 -0.5183  0.0191 -0.1515
 7677SOL    HW134493   3.139   4.666  11.435  0.2818 -1.3796  1.0825
 7677SOL    HW234494   3.001   4.697  11.493 -0.6115 -0.1785  0.4754
 7678SOL     OW34495   0.767   4.563   1.549  0.0931  0.2986 -0.0288
 7678SOL    HW134496   0.780   4.514   1.468 -1.7933  1.1651 -0.8669
 7678SOL    HW234497   0.711   4.630   1.511 -2.4600 -2.1982 -0.7352
 7679SOL     OW34498   1.692   2.776   9.453  0.4238 -0.6043 -0.4266
 7679SOL    HW134499   1.613   2.778   9.508  0.2313 -0.4950 -0.7049
 7679SOL    HW234500   1.765   2.752   9.509  0.4811 -0.4171 -0.4201
 7680SOL     OW34501   3.649   3.239  10.578 -0.3325 -0.2581 -0.0145
 7680SOL    HW134502   3.661   3.146  10.595  2.0595  0.2980  1.3444
 7680SOL    HW234503   3.613   3.267  10.663 -0.1424  0.6947 -0.2431
 7681SOL     OW34504   2.853   3.213  10.391  0.4457  0.3002  0.4306
 7681SOL    HW134505   2.842   3.140  10.451  1.1475 -0.1132  0.0629
 7681SOL    HW234506   2.831   3.284  10.451 -2.7195  0.6605 -1.1338
 7682SOL     OW34507   2.634   3.179   9.710  0.5283 -0.2905  0.3814
 7682SOL    HW134508   2.700   3.178   9.641 -1.2169  1.1193 -1.3068
 7682SOL    HW234509   2.652   3.098   9.758 -0.4406 -2.5419 -3.0014
 7683SOL     OW34510   4.455   1.409   0.770  0.7091  0.0574 -0.3139
 7683SOL    HW134511   4.530   1.360   0.805 -0.0586 -0.4022  0.7001
 7683SOL    HW234512   4.482   1.406   0.678 -1.8701  1.1754 -1.1039
 7684SOL     OW34513   1.930   3.080   5.192  0.1904 -0.5129  0.1452
 7684SOL    HW134514   1.960   2.992   5.217 -0.5976 -0.9478 -0.4411
 7684SOL    HW234515   1.836   3.075   5.208  0.2916 -1.9783  0.2931
 7685SOL     OW34516   0.069   4.708   4.029  0.2108  0.0958  0.1434
 7685SOL    HW134517   0.033   0.028   4.106 -1.6163  1.5149 -1.5329
 7685SOL    HW234518   0.013   0.021   3.961 -0.0157  2.1434  1.4874
 7686SOL     OW34519   4.338   2.152   9.638 -0.3037 -0.3675  0.1718
 7686SOL    HW134520   4.301   2.100   9.709 -1.8082  0.7689  0.2097
 7686SOL    HW234521   4.398   2.207   9.690  1.2841  0.4687 -2.5059
 7687SOL     OW34522   4.391   3.985   3.891 -0.1693 -0.2836  0.0833
 7687SOL    HW134523   4.408   4.076   3.915 -0.1998 -0.2296 -0.0984
 7687SOL    HW234524   4.446   3.935   3.952  1.3079  1.5612  0.2691
 7688SOL     OW34525   4.512   1.021  17.114 -0.0249 -0.2767 -0.4432
 7688SOL    HW134526   4.562   1.021  17.196  0.9299 -1.3436 -1.0342
 7688SOL    HW234527   4.568   1.078  17.060 -0.3564  1.7883  1.4086
 7689SOL     OW34528   3.284   3.780   5.417  0.1362 -0.0570 -0.0052
 7689SOL    HW134529   3.215   3.758   5.354 -0.1512  0.0993  0.2510
 7689SOL    HW234530   3.236   3.841   5.473 -0.6766 -0.8894  0.2104
 7690SOL     OW34531   1.117   2.601  12.273  0.3037  0.1501  0.2161
 7690SOL    HW134532   1.145   2.516  12.239  1.0556 -0.3501  2.0910
 7690SOL    HW234533   1.109   2.657  12.196  1.3451 -3.7171 -2.7460
 7691SOL     OW34534   1.047   4.252  14.583  0.1738  0.1343 -0.1666
 7691SOL    HW134535   1.057   4.233  14.490 -3.1820  1.4280 -0.7761
 7691SOL    HW234536   1.138   4.253  14.614 -0.2819  0.5455  1.1594
 7692SOL     OW34537   3.871   2.045   3.401 -0.2528 -0.1180  0.3429
 7692SOL    HW134538   3.818   2.078   3.473  0.2258  1.2384  0.0895
 7692SOL    HW234539   3.937   2.114   3.408  0.1229 -0.5516  1.0790
 7693SOL     OW34540   3.985   0.189   3.664  0.2131 -0.2742  0.7785
 7693SOL    HW134541   3.936   0.182   3.583  2.7901 -1.1359 -0.6978
 7693SOL    HW234542   4.027   0.103   3.656  0.1806 -0.3760  1.6302
 7694SOL     OW34543   2.394   1.248   3.266  0.7382  0.1066 -0.5825
 7694SOL    HW134544   2.487   1.240   3.287  0.3505 -0.1634  0.9655
 7694SOL    HW234545   2.396   1.203   3.181 -0.1904 -0.0244 -0.5356
 7695SOL     OW34546   2.188   1.606   0.796 -0.7197  0.3114 -0.2649
 7695SOL    HW134547   2.237   1.688   0.795  1.3514 -0.9329 -0.4826
 7695SOL    HW234548   2.254   1.539   0.775 -0.5845 -0.1900  1.8156
 7696SOL     OW34549   4.164   4.491   6.359 -0.1275  0.1463 -0.3904
 7696SOL    HW134550   4.138   4.463   6.271  0.2160 -2.4271  0.3217
 7696SOL    HW234551   4.241   4.544   6.339  0.3065 -0.1011  0.5919
 7697SOL     OW34552   1.647   1.943   6.641  0.1157  0.1007 -0.2239
 7697SOL    HW134553   1.608   2.029   6.628 -4.0412 -1.7409  0.0337
 7697SOL    HW234554   1.736   1.960   6.673  1.2457  0.6970 -3.7514
 7698SOL     OW34555   4.257   2.793   5.284  0.5018  0.2502  0.0060
 7698SOL    HW134556   4.228   2.793   5.192 -1.7104 -0.4802  0.7047
 7698SOL    HW234557   4.327   2.727   5.274  1.6581  1.6873 -1.3943
 7699SOL     OW34558   3.268   1.039   6.300  0.5171  0.0115 -0.3189
 7699SOL    HW134559   3.204   1.109   6.317  0.3153 -0.6279  1.6409
 7699SOL    HW234560   3.319   1.068   6.225  1.3973 -0.0517  0.2607
 7700SOL     OW34561   4.346   3.884   2.138 -0.0649 -0.6219 -0.1662
 7700SOL    HW134562   4.257   3.849   2.142 -0.1122 -0.1883  2.3538
 7700SOL    HW234563   4.399   3.804   2.137  0.9527  0.0441  0.0787
 7701SOL     OW34564   2.915   2.591  12.400  0.1189  1.0657  0.0100
 7701SOL    HW134565   2.827   2.598  12.364 -0.1000  0.6113  0.4576
 7701SOL    HW234566   2.960   2.633  12.327 -1.1271  0.5158 -1.0625
 7702SOL     OW34567   4.486   3.985  10.270  0.3776  0.1321  0.1155
 7702SOL    HW134568   4.449   4.016  10.352  0.0586 -0.6907  0.2822
 7702SOL    HW234569   4.524   3.900  10.292 -1.8252 -1.1070 -0.9026
 7703SOL     OW34570   2.933   0.034   1.461  0.2408  0.6894 -0.5093
 7703SOL    HW134571   2.989   4.715   1.398 -0.0699 -0.0527 -0.2606
 7703SOL    HW234572   2.904   4.678   1.502  0.2216  1.1174  0.3293
 7704SOL     OW34573   4.242   1.573   7.468 -0.3898 -0.5048 -0.0837
 7704SOL    HW134574   4.219   1.481   7.481 -0.2851 -0.8578 -2.4382
 7704SOL    HW234575   4.327   1.564   7.426 -0.6122 -0.2791 -0.5685
 7705SOL     OW34576   0.154   0.976  16.663 -0.1762  0.2598  0.1400
 7705SOL    HW134577   0.246   0.978  16.636  0.6524  1.2114  3.1070
 7705SOL    HW234578   0.118   1.009  16.580 -0.8495 -3.4396 -1.0368
 7706SOL     OW34579   1.140   4.079   7.804  0.2971 -0.0255 -0.3427
 7706SOL    HW134580   1.187   4.011   7.756 -0.5148 -1.4448  0.8427
 7706SOL    HW234581   1.053   4.074   7.764 -0.6172 -1.9842  1.8822
 7707SOL     OW34582   3.284   1.977   7.246 -0.6182 -0.0309 -0.0491
 7707SOL    HW134583   3.268   1.904   7.187 -1.2632  0.1864 -0.1363
 7707SOL    HW234584   3.229   2.039   7.199 -2.0277 -1.5737 -0.4200
 7708SOL     OW34585   2.111   2.687   8.388  0.0374 -0.4654 -0.2443
 7708SOL    HW134586   2.071   2.680   8.301  1.0498  0.8552 -0.7998
 7708SOL    HW234587   2.123   2.778   8.412  0.7600 -0.5461 -0.3027
 7709SOL     OW34588   0.340   3.358  10.126 -0.0609 -0.2153  0.2042
 7709SOL    HW134589   0.247   3.364  10.149 -0.1824  0.2594 -0.4243
 7709SOL    HW234590   0.341   3.433  10.067  0.2326 -0.0754  0.3847
 7710SOL     OW34591   2.279   4.684   3.199 -0.3192 -0.5256  0.3216
 7710SOL    HW134592   2.240   0.017   3.264  0.4244  1.9874 -1.5026
 7710SOL    HW234593   2.194   4.639   3.197 -0.7928  0.4194 -0.7806
 7711SOL     OW34594   0.560   1.350   9.260  0.5824  0.5218  0.4251
 7711SOL    HW134595   0.482   1.406   9.256  0.1444 -0.1334 -0.2124
 7711SOL    HW234596   0.622   1.420   9.241  3.1312 -1.9980 -0.5460
 7712SOL     OW34597   0.488   1.028   5.862  0.5674  0.1114 -0.5623
 7712SOL    HW134598   0.516   1.025   5.770  0.3614 -0.3908 -0.6090
 7712SOL    HW234599   0.409   0.975   5.855  0.3895 -0.1706  3.4416
 7713SOL     OW34600   0.910   2.614   9.927  0.0389 -0.5558  0.0963
 7713SOL    HW134601   0.864   2.534   9.954 -0.9818  0.3656  1.1176
 7713SOL    HW234602   0.926   2.663  10.007 -0.2359 -0.9811  0.4117
 7714SOL     OW34603   2.401   3.483  14.130 -0.6892 -0.5549  0.7837
 7714SOL    HW134604   2.386   3.572  14.161 -3.1488 -0.8919  0.5780
 7714SOL    HW234605   2.435   3.501  14.042 -0.0483  1.5475  1.4662
 7715SOL     OW34606   3.580   0.221   5.491  0.5516  0.1041  0.4654
 7715SOL    HW134607   3.550   0.238   5.580  0.8807  0.7619  0.4510
 7715SOL    HW234608   3.607   0.131   5.507 -2.9560 -0.9119  0.5783
 7716SOL     OW34609   0.298   3.538   3.374 -0.0922  0.2559 -0.0233
 7716SOL    HW134610   0.251   3.527   3.291 -0.1186 -1.6622  0.2390
 7716SOL    HW234611   0.341   3.622   3.361  0.0607  0.2021  0.1469
 7717SOL     OW34612   3.797   2.848   8.462  0.3020 -0.6811  0.1708
 7717SOL    HW134613   3.841   2.827   8.544 -0.1971  2.1727  1.1790
 7717SOL    HW234614   3.862   2.802   8.409  0.4043  0.7096 -0.8948
 7718SOL     OW34615   1.587   0.448  14.081 -0.0903 -0.0022  0.9496
 7718SOL    HW134616   1.534   0.456  14.160 -2.0880 -1.5021 -0.2471
 7718SOL    HW234617   1.665   0.462  14.135  1.8760 -1.4377 -1.5085
 7719SOL     OW34618   0.563   4.230   9.172 -0.1899  0.3456  0.2731
 7719SOL    HW134619   0.615   4.301   9.209  0.2919  0.6651 -1.0299
 7719SOL    HW234620   0.561   4.258   9.081  1.0030 -1.8484 -0.4421
 7720SOL     OW34621   4.600   0.619   8.668  0.1481 -0.0719 -0.2511
 7720SOL    HW134622   4.543   0.594   8.595  1.8724 -1.9949 -0.9462
 7720SOL    HW234623   4.565   0.562   8.736 -3.8409  0.5599 -1.7296
 7721SOL     OW34624   3.366   1.977   6.890 -0.2506  0.2377  0.0828
 7721SOL    HW134625   3.391   2.047   6.829  2.0387  0.9724  1.8894
 7721SOL    HW234626   3.362   2.025   6.972  0.7869  1.7072 -0.7195
 7722SOL     OW34627   0.532   0.373   6.044  0.6594  0.0269 -0.4914
 7722SOL    HW134628   0.605   0.362   6.104  1.8956  3.4270 -1.3841
 7722SOL    HW234629   0.527   0.287   6.003 -3.5111  0.4216 -0.8398
 7723SOL     OW34630   2.720   1.936   9.907 -0.3237 -0.7632  0.4471
 7723SOL    HW134631   2.629   1.958   9.926  0.4664  1.6871  1.4552
 7723SOL    HW234632   2.758   2.017   9.942  0.5572 -1.4094  0.9981
 7724SOL     OW34633   2.607   2.439   0.993  0.4479 -0.4834 -0.7656
 7724SOL    HW134634   2.609   2.415   0.900 -0.4888 -0.9372 -0.6599
 7724SOL    HW234635   2.568   2.363   1.036  0.3410  0.5796  0.9674
 7725SOL     OW34636   4.214   1.508   0.857  0.3293  0.3997 -0.0699
 7725SOL    HW134637   4.198   1.419   0.890  2.3028 -0.5459 -1.6399
 7725SOL    HW234638   4.292   1.492   0.805  0.6564 -0.6160  0.7148
 7726SOL     OW34639   0.649   0.444   3.136  0.0350 -0.0250 -0.1019
 7726SOL    HW134640   0.609   0.443   3.048 -0.2479 -0.3515  0.0305
 7726SOL    HW234641   0.618   0.361   3.171 -0.1135 -0.0605 -0.3173
 7727SOL     OW34642   2.095   4.222   6.314  0.0447 -0.0017 -0.1138
 7727SOL    HW134643   2.004   4.249   6.297  0.5511  1.1245 -1.0776
 7727SOL    HW234644   2.102   4.141   6.264 -0.4666  0.9363 -1.7240
 7728SOL     OW34645   1.638   1.219   5.201  0.3364 -0.4648  0.3518
 7728SOL    HW134646   1.703   1.277   5.241 -0.9649  2.0968 -1.3308
 7728SOL    HW234647   1.618   1.169   5.281  1.7533 -1.4549  0.0895
 7729SOL     OW34648   1.486   3.400  10.009 -0.3455 -0.0181 -0.6255
 7729SOL    HW134649   1.401   3.357  10.004 -0.7122  0.8079 -1.5559
 7729SOL    HW234650   1.465   3.490  10.036  0.9155  0.4664 -1.2525
 7730SOL     OW34651   3.119   4.634   4.073  0.2091  0.5106  0.1098
 7730SOL    HW134652   3.095   4.647   3.981  0.2362 -0.2471 -0.0060
 7730SOL    HW234653   3.034   4.633   4.117 -0.2521  2.9480 -0.7364
 7731SOL     OW34654   4.375   2.537   1.992 -0.7914 -0.0317 -0.0772
 7731SOL    HW134655   4.455   2.536   2.045  0.0124  1.1557 -1.2610
 7731SOL    HW234656   4.418   2.562   1.910  1.2951 -0.2944  0.9347
 7732SOL     OW34657   1.194   0.250   6.016 -0.2715  0.6935  0.3908
 7732SOL    HW134658   1.208   0.340   5.985  0.6361  0.3952 -0.0692
 7732SOL    HW234659   1.139   0.269   6.092 -0.1291  0.0806  0.6452
 7733SOL     OW34660   0.676   4.559   6.398 -0.7152 -0.2368 -0.0753
 7733SOL    HW134661   0.685   4.490   6.332 -1.0079  0.4765 -0.8686
 7733SOL    HW234662   0.657   4.631   6.337 -0.0649 -0.7125 -0.8391
 7734SOL     OW34663   3.021   4.446   2.039  0.2538  0.1759 -0.9925
 7734SOL    HW134664   2.991   4.496   1.964 -2.8604 -1.1083 -0.6236
 7734SOL    HW234665   2.976   4.482   2.116 -0.2928  1.7296 -2.0524
 7735SOL     OW34666   3.365   2.966  16.974 -0.3351 -0.0028  0.6960
 7735SOL    HW134667   3.404   3.024  17.040  2.5646 -1.4871  0.2541
 7735SOL    HW234668   3.290   2.937  17.027 -1.6870  1.0268 -0.6598
 7736SOL     OW34669   2.294   0.901   1.906 -0.7898 -0.0810  0.5757
 7736SOL    HW134670   2.259   0.859   1.984 -1.7251  1.4196  0.9758
 7736SOL    HW234671   2.383   0.915   1.937 -1.5373 -0.0998  2.7042
 7737SOL     OW34672   3.330   0.316   4.404  0.4221  0.5805  0.4223
 7737SOL    HW134673   3.314   0.237   4.353 -3.8707  1.5360  0.3004
 7737SOL    HW234674   3.420   0.336   4.378  0.1522  1.6872  0.3198
 7738SOL     OW34675   2.975   0.293   5.307  0.2155  0.2050  0.0774
 7738SOL    HW134676   3.054   0.346   5.319 -1.2126  2.3220  0.0716
 7738SOL    HW234677   2.964   0.233   5.381 -0.3384 -0.5671 -0.6391
 7739SOL     OW34678   2.311   0.466   9.346 -0.2223 -0.1382 -0.0666
 7739SOL    HW134679   2.313   0.554   9.309 -0.7665 -0.8157 -1.7161
 7739SOL    HW234680   2.320   0.404   9.274  1.8727  1.1040 -0.8853
 7740SOL     OW34681   0.561   3.947  15.242 -0.3630 -0.0528  0.5097
 7740SOL    HW134682   0.549   3.867  15.191  1.9887 -0.5697  0.7610
 7740SOL    HW234683   0.568   4.017  15.178 -0.9362 -0.6194 -0.1748
 7741SOL     OW34684   2.976   2.927   7.051 -0.0176  0.0813  0.0514
 7741SOL    HW134685   3.014   2.917   7.138 -1.6234 -0.0367  0.7460
 7741SOL    HW234686   3.022   3.009   7.032 -0.0972  0.7740  2.9053
 7742SOL     OW34687   3.185   2.164   2.190 -0.2484  0.1975  0.3160
 7742SOL    HW134688   3.222   2.217   2.261 -0.8434 -1.0739  1.5857
 7742SOL    HW234689   3.151   2.223   2.123 -1.0457  1.9302  2.2262
 7743SOL     OW34690   3.816   2.391  17.068  0.7825  0.3430  0.6300
 7743SOL    HW134691   3.909   2.415  17.061  0.9580 -0.2732  0.9044
 7743SOL    HW234692   3.772   2.474  17.049 -0.8542 -1.0829 -1.8009
 7744SOL     OW34693   4.259   2.831  11.797 -0.2888  0.5386  0.3300
 7744SOL    HW134694   4.203   2.843  11.874 -1.7841 -1.4506 -0.4749
 7744SOL    HW234695   4.293   2.919  11.779 -2.6484  1.0211 -1.7398
 7745SOL     OW34696   0.404   3.993   5.388  0.4088  0.1256  0.3036
 7745SOL    HW134697   0.468   4.023   5.323  1.5579 -1.3488  0.7501
 7745SOL    HW234698   0.371   3.918   5.338 -0.0219  0.0018  0.7769
 7746SOL     OW34699   2.640   3.688   5.870  0.3217 -0.4482  0.2840
 7746SOL    HW134700   2.567   3.707   5.929  0.5661 -0.4084  0.5769
 7746SOL    HW234701   2.622   3.598   5.843 -2.2431 -0.2687  1.4521
 7747SOL     OW34702   1.750   3.732   2.781  0.5832 -0.0038  0.3809
 7747SOL    HW134703   1.779   3.656   2.832 -0.4473  1.1279  2.6317
 7747SOL    HW234704   1.774   3.720   2.689 -0.3378 -0.6841  0.2293
 7748SOL     OW34705   2.442   3.151  13.511 -0.9446 -0.3968 -0.2844
 7748SOL    HW134706   2.460   3.073  13.564 -1.0520  1.1776  2.0394
 7748SOL    HW234707   2.433   3.115  13.423 -1.2773  0.4003 -0.5699
 7749SOL     OW34708   0.498   0.276   9.736 -0.2713 -0.4823 -0.0406
 7749SOL    HW134709   0.454   0.359   9.720  0.4361 -0.7532 -3.4508
 7749SOL    HW234710   0.453   0.211   9.681  0.0985 -0.4231 -0.4149
 7750SOL     OW34711   3.718   1.252   6.225 -0.5890  0.1137 -0.3217
 7750SOL    HW134712   3.731   1.303   6.304  1.2423 -1.0272  0.1422
 7750SOL    HW234713   3.806   1.217   6.208  0.1979  0.7808  2.4044
 7751SOL     OW34714   1.723   0.873   2.135  0.3186 -0.8519  0.5231
 7751SOL    HW134715   1.793   0.893   2.198  1.2102  1.6491 -1.2582
 7751SOL    HW234716   1.643   0.876   2.188 -0.6653 -1.4839 -0.9434
 7752SOL     OW34717   0.326   1.913   8.596  0.0101  0.5530 -0.0034
 7752SOL    HW134718   0.294   1.867   8.518 -1.4789  0.9860  0.3462
 7752SOL    HW234719   0.325   2.002   8.560 -1.9988  0.8190  0.7419
 7753SOL     OW34720   0.833   4.405   5.952  0.0517 -0.2025 -0.5542
 7753SOL    HW134721   0.781   4.439   6.025 -1.5021 -0.4758 -1.5542
 7753SOL    HW234722   0.773   4.358   5.895 -0.3091  0.6323 -0.8727
 7754SOL     OW34723   3.545   3.525   6.476  0.0326  0.0428  0.0676
 7754SOL    HW134724   3.515   3.513   6.566  0.2029 -0.3421  0.0717
 7754SOL    HW234725   3.544   3.437   6.438 -1.1576 -0.2633  0.8199
 7755SOL     OW34726   0.944   2.906   6.211 -0.0346 -0.6366  0.5365
 7755SOL    HW134727   0.956   2.909   6.116  1.4840 -2.4593  0.6781
 7755SOL    HW234728   0.984   2.820   6.224 -1.2083 -1.0505  1.4091
 7756SOL     OW34729   4.149   4.720  12.546 -0.2050  0.4997 -0.0724
 7756SOL    HW134730   4.059   4.694  12.529 -0.2643  1.2540 -0.8809
 7756SOL    HW234731   4.205   4.660  12.497 -4.2164 -4.2945  1.2046
 7757SOL     OW34732   1.764   0.929   3.304  0.4577 -0.0949  0.2253
 7757SOL    HW134733   1.725   0.843   3.293 -0.7587  0.4834 -0.0713
 7757SOL    HW234734   1.808   0.925   3.389  1.0331 -1.5072 -0.1409
 7758SOL     OW34735   1.447   3.303   2.784  0.2274 -0.0371  1.0421
 7758SOL    HW134736   1.471   3.235   2.848  0.1018 -1.2065 -0.1373
 7758SOL    HW234737   1.407   3.251   2.713  0.8575  0.2724  0.4620
 7759SOL     OW34738   2.437   1.816   2.925  0.6551 -0.0545  0.4602
 7759SOL    HW134739   2.415   1.884   2.989  3.1974 -0.0245  1.2950
 7759SOL    HW234740   2.390   1.746   2.970  2.5919 -0.5732  1.6763
 7760SOL     OW34741   2.125   2.144   8.907  0.4132 -0.2987  0.0349
 7760SOL    HW134742   2.193   2.211   8.898 -0.4694  0.4445 -1.0452
 7760SOL    HW234743   2.169   2.084   8.967  0.2537  0.5624  1.0265
 7761SOL     OW34744   1.867   2.154   5.296 -0.4438  0.2219  0.4875
 7761SOL    HW134745   1.933   2.203   5.246 -0.1799  0.3613  0.9688
 7761SOL    HW234746   1.907   2.069   5.275 -1.9127 -0.9278  2.3372
 7762SOL     OW34747   3.262   2.125  17.143  0.0948  0.5448  0.3912
 7762SOL    HW134748   3.276   2.188  17.214 -0.9741  0.0520  1.0406
 7762SOL    HW234749   3.318   2.163  17.074  1.1682  3.6708  3.0074
 7763SOL     OW34750   0.729   3.782   3.345  0.3555 -0.2839  0.1877
 7763SOL    HW134751   0.822   3.782   3.324 -0.2726 -1.3045 -2.4934
 7763SOL    HW234752   0.704   3.863   3.301  1.0114  0.4240  1.1031
 7764SOL     OW34753   3.750   1.732   0.680  0.3979 -0.3478 -0.6286
 7764SOL    HW134754   3.720   1.647   0.648 -2.3946 -0.5792  2.6401
 7764SOL    HW234755   3.726   1.799   0.617 -3.6579 -1.3755 -0.1924
 7765SOL     OW34756   2.221   1.658   6.405  0.3437  0.1966  0.7311
 7765SOL    HW134757   2.309   1.670   6.368  0.2600 -2.0649 -0.2215
 7765SOL    HW234758   2.183   1.603   6.337 -0.3512  0.5544  0.8316
 7766SOL     OW34759   3.649   0.806  11.089  0.2420 -0.1215 -0.2472
 7766SOL    HW134760   3.573   0.749  11.093 -0.0059  0.0606 -2.4362
 7766SOL    HW234761   3.685   0.805  11.178  1.3933  0.2735 -0.6995
 7767SOL     OW34762   4.520   0.135  10.119 -0.4115 -0.5445  0.0544
 7767SOL    HW134763   4.589   0.124  10.185 -0.3589 -0.7936 -0.0408
 7767SOL    HW234764   4.537   0.065  10.057  1.1184 -0.1289  0.0166
 7768SOL     OW34765   3.827   1.382   2.817  0.2051 -0.0385  0.7477
 7768SOL    HW134766   3.795   1.316   2.755 -1.7296 -0.1075  1.8137
 7768SOL    HW234767   3.915   1.396   2.782  0.1264 -0.1324  0.5059
 7769SOL     OW34768   4.512   0.339   3.097 -0.3298  0.2715 -0.1500
 7769SOL    HW134769   4.556   0.362   3.179 -0.9146  0.6126  0.0724
 7769SOL    HW234770   4.558   0.397   3.035  0.1685  1.6536  1.5054
 7770SOL     OW34771   0.233   4.432   3.668  0.1288  0.1244  0.2084
 7770SOL    HW134772   0.153   4.464   3.625 -1.9055 -4.0102  0.9187
 7770SOL    HW234773   0.232   4.346   3.626  0.4598 -0.2772  1.0360
 7771SOL     OW34774   3.873   1.448   2.027 -0.1519 -0.3730 -0.3863
 7771SOL    HW134775   3.819   1.370   2.021 -1.5914  0.6307 -0.6334
 7771SOL    HW234776   3.959   1.408   2.040  0.6576  1.3285 -0.4815
 7772SOL     OW34777   0.005   4.231   4.615  0.3341  0.0421  0.2652
 7772SOL    HW134778   4.656   4.233   4.555 -0.0923 -0.6662  0.7601
 7772SOL    HW234779   4.673   4.216   4.690 -1.4427  0.5793 -1.0029
 7773SOL     OW34780   2.747   2.989   1.203 -0.3801 -0.3914 -0.1525
 7773SOL    HW134781   2.819   2.938   1.166 -3.0023 -4.6676  0.6632
 7773SOL    HW234782   2.670   2.933   1.192 -1.1785  0.2487  2.1534
 7774SOL     OW34783   3.836   1.898  14.479 -0.6313 -0.0556  0.3166
 7774SOL    HW134784   3.768   1.922  14.542 -1.4831 -2.5367  0.3510
 7774SOL    HW234785   3.818   1.965  14.413  0.3474  1.1669  1.3067
 7775SOL     OW34786   1.947   2.802   7.179  0.2462 -0.4648 -0.3752
 7775SOL    HW134787   1.886   2.864   7.220  0.5818  0.7287 -1.6821
 7775SOL    HW234788   2.027   2.854   7.177  0.3147 -0.5486  0.1242
 7776SOL     OW34789   4.417   3.327  10.557  0.2064  0.4122  0.1004
 7776SOL    HW134790   4.405   3.249  10.611  1.2976  0.7586  0.8278
 7776SOL    HW234791   4.342   3.381  10.582 -0.0623  0.4562 -0.7879
 7777SOL     OW34792   2.295   0.653   5.588 -0.1512 -0.0010  0.5818
 7777SOL    HW134793   2.299   0.562   5.560  0.3904  0.0373  0.5425
 7777SOL    HW234794   2.295   0.696   5.503 -0.6032  0.5424  0.8529
 7778SOL     OW34795   1.965   0.284   8.381 -0.2628  0.0010 -0.0821
 7778SOL    HW134796   2.057   0.260   8.371 -0.9088 -2.5167 -0.1330
 7778SOL    HW234797   1.971   0.362   8.435 -0.1707  1.0940 -1.6797
 7779SOL     OW34798   1.744   3.300   7.775  0.3363  0.1925 -0.2939
 7779SOL    HW134799   1.758   3.211   7.744 -0.7948 -0.6043  1.4516
 7779SOL    HW234800   1.649   3.297   7.788  0.2491  0.6337 -0.8275
 7780SOL     OW34801   3.633   0.270   4.865  0.3437 -0.0906 -0.1163
 7780SOL    HW134802   3.725   0.269   4.839  0.0662  0.9857 -1.1287
 7780SOL    HW234803   3.642   0.304   4.954  1.1120 -0.0685 -0.2028
 7781SOL     OW34804   2.673   4.496   8.365  0.0980  0.1255  0.3794
 7781SOL    HW134805   2.730   4.420   8.354 -1.0787 -0.9374  1.7173
 7781SOL    HW234806   2.601   4.468   8.309  0.5636  0.0178 -0.1717
 7782SOL     OW34807   3.729   0.864   2.540 -0.4865  0.1157  0.3929
 7782SOL    HW134808   3.647   0.910   2.520 -1.1271 -1.7162 -1.2172
 7782SOL    HW234809   3.774   0.859   2.456 -0.4664  1.1217  0.3470
 7783SOL     OW34810   4.632   0.634   6.689 -0.0224  0.2145 -0.1536
 7783SOL    HW134811   4.689   0.701   6.653  1.9731 -0.8346  1.0845
 7783SOL    HW234812   4.700   0.575   6.722  0.3096 -0.3443 -1.8553
 7784SOL     OW34813   0.877   3.563   3.846 -0.2270 -0.2415  0.0720
 7784SOL    HW134814   0.928   3.642   3.828 -0.9383  0.7798  2.5782
 7784SOL    HW234815   0.796   3.586   3.800 -0.0236 -2.4136 -1.3510
 7785SOL     OW34816   1.108   1.986  16.608 -0.0980 -0.4352 -0.2991
 7785SOL    HW134817   1.108   1.893  16.631  3.1623 -0.4062 -0.2072
 7785SOL    HW234818   1.081   2.034  16.686 -0.5957 -0.2222 -0.6027
 7786SOL     OW34819   0.316   3.155   6.475  0.3883 -0.2405  0.1979
 7786SOL    HW134820   0.224   3.182   6.471 -0.0620 -1.5564  1.6427
 7786SOL    HW234821   0.315   3.160   6.571  0.7620  0.7017  0.1450
 7787SOL     OW34822   2.338   1.555   3.045 -0.5832 -0.0258 -0.6031
 7787SOL    HW134823   2.397   1.494   3.001 -0.9736 -1.1385  0.4216
 7787SOL    HW234824   2.281   1.569   2.969  0.8142 -1.7222 -1.9859
 7788SOL     OW34825   4.368   3.015   8.538 -0.2755 -0.2245 -0.1956
 7788SOL    HW134826   4.438   3.030   8.474  0.7322  0.5747  1.0968
 7788SOL    HW234827   4.301   3.001   8.470 -0.4380 -0.9965  0.1288
 7789SOL     OW34828   2.910   0.906   0.271 -0.1075 -0.1602 -0.3605
 7789SOL    HW134829   2.839   0.949   0.319  0.5657  0.0155  0.4905
 7789SOL    HW234830   2.891   0.814   0.288  2.1261 -0.5143  0.2666
 7790SOL     OW34831   1.949   1.836   2.336  0.1420 -0.5161 -0.7761
 7790SOL    HW134832   1.917   1.782   2.263  1.0504 -1.0291 -0.7952
 7790SOL    HW234833   1.882   1.903   2.350  0.4885 -0.5076  0.8459
 7791SOL     OW34834   4.519   0.280   8.334 -0.0226  0.1561 -0.1756
 7791SOL    HW134835   4.502   0.200   8.384  1.5482 -0.9441 -1.3938
 7791SOL    HW234836   4.605   0.263   8.294  0.4471 -0.2501  1.0149
 7792SOL     OW34837   1.659   0.587   2.120  0.2967 -0.3838  0.4979
 7792SOL    HW134838   1.687   0.599   2.029  1.9753 -2.5719  0.7156
 7792SOL    HW234839   1.696   0.668   2.155  0.8230 -0.1815 -0.5243
 7793SOL     OW34840   3.684   2.915   4.178 -0.2717 -0.1587 -0.2279
 7793SOL    HW134841   3.666   2.960   4.261 -0.3319 -1.7539  0.6199
 7793SOL    HW234842   3.687   2.822   4.200  1.6347  0.5237  2.4464
 7794SOL     OW34843   0.888   3.085   5.390 -0.4395  0.4189 -0.6135
 7794SOL    HW134844   0.862   3.168   5.351  1.6305  0.6761 -1.4643
 7794SOL    HW234845   0.888   3.033   5.309  1.0436  1.4283 -1.2656
 7795SOL     OW34846   0.544   2.480   0.810  0.1103  0.3741 -0.1230
 7795SOL    HW134847   0.533   2.434   0.727 -1.3303  0.2809  0.1211
 7795SOL    HW234848   0.599   2.413   0.851  0.9025  0.7625 -0.5643
 7796SOL     OW34849   2.847   0.743   5.357 -0.1272  0.0051 -0.7360
 7796SOL    HW134850   2.811   0.792   5.284 -0.6088  1.0149  0.1742
 7796SOL    HW234851   2.783   0.673   5.366  0.1659  0.1424  2.4220
 7797SOL     OW34852   3.708   0.932   3.159  0.1132  0.0078  0.3063
 7797SOL    HW134853   3.713   0.946   3.064  4.1105 -0.1724  0.4612
 7797SOL    HW234854   3.736   1.020   3.182 -0.6879  0.2173  0.4684
 7798SOL     OW34855   3.200   1.539   6.300 -0.8688 -0.0194 -0.2256
 7798SOL    HW134856   3.294   1.529   6.284 -0.6593  1.1490  0.2478
 7798SOL    HW234857   3.194   1.613   6.361 -0.0337  1.1772 -1.5855
 7799SOL     OW34858   2.802   0.049   6.957  0.4994 -0.0536 -0.8580
 7799SOL    HW134859   2.813   4.697   7.013  0.5441  1.8597  1.7132
 7799SOL    HW234860   2.889   0.087   6.968  1.1426 -0.9829 -2.6164
 7800SOL     OW34861   2.941   1.916   9.559  0.3769  0.6868 -0.2272
 7800SOL    HW134862   2.953   1.989   9.619  2.3985 -0.7286  1.0792
 7800SOL    HW234863   3.026   1.896   9.520  0.3440 -0.3206  0.2016
 7801SOL     OW34864   0.330   0.645   7.703  0.2313 -0.2219 -0.1240
 7801SOL    HW134865   0.330   0.585   7.778  1.5552 -0.9102 -0.6758
 7801SOL    HW234866   0.380   0.597   7.637 -0.8929 -1.4292 -0.0902
 7802SOL     OW34867   1.685   2.286   3.828  0.0709  0.2327  0.2639
 7802SOL    HW134868   1.702   2.264   3.736  0.5801 -1.6544  0.7981
 7802SOL    HW234869   1.677   2.195   3.856 -0.7649  0.3961  0.5310
 7803SOL     OW34870   0.580   2.584   7.016  0.2530 -0.5155  0.4892
 7803SOL    HW134871   0.600   2.585   7.110 -3.2842 -3.0667  1.2646
 7803SOL    HW234872   0.640   2.654   6.989 -1.4024  0.2183 -1.2567
 7804SOL     OW34873   3.993   4.698   4.064  0.2258 -0.1620  0.6179
 7804SOL    HW134874   3.986   4.634   3.993 -0.1062  2.4241 -1.7044
 7804SOL    HW234875   3.906   0.012   4.076  0.6307  0.8924  0.1256
 7805SOL     OW34876   3.696   4.682   4.031  0.6269 -0.5414 -0.0849
 7805SOL    HW134877   3.668   0.036   3.986  0.4308  0.3836  1.6841
 7805SOL    HW234878   3.634   4.668   4.102  1.6634 -1.4914  0.6376
 7806SOL     OW34879   4.516   0.791   7.391  0.2859  0.1803  0.0530
 7806SOL    HW134880   4.430   0.820   7.421  0.8077  1.5219  0.2623
 7806SOL    HW234881   4.568   0.850   7.446  1.8774 -0.6473 -0.5716
 7807SOL     OW34882   3.207   4.515   4.717  0.2190  0.1828 -0.0515
 7807SOL    HW134883   3.120   4.548   4.699  0.3250  0.0371 -0.8106
 7807SOL    HW234884   3.234   4.562   4.796  0.0304  1.7369 -0.9197
 7808SOL     OW34885   0.968   0.775  16.543  0.2065 -0.7328 -0.6520
 7808SOL    HW134886   0.887   0.737  16.509 -0.5698  0.7980 -0.5178
 7808SOL    HW234887   0.992   0.829  16.468 -0.0006  1.3430  0.7604
 7809SOL     OW34888   4.112   1.370  12.673  0.4355  0.8207  0.2151
 7809SOL    HW134889   4.078   1.459  12.661 -0.0198  0.6794  0.4529
 7809SOL    HW234890   4.202   1.383  12.645  0.4778 -0.1361 -0.0955
 7810SOL     OW34891   2.174   3.600   0.949  0.1469 -0.2390 -0.0039
 7810SOL    HW134892   2.218   3.630   0.870 -0.1530 -1.4646 -0.6176
 7810SOL    HW234893   2.178   3.506   0.931  0.7267 -0.3533  0.7121
 7811SOL     OW34894   1.588   4.038  13.334  0.3416  0.4213  0.3339
 7811SOL    HW134895   1.631   4.027  13.249  1.7931 -0.4349  1.1848
 7811SOL    HW234896   1.560   3.949  13.353  0.2030  0.0840 -1.4464
 7812SOL     OW34897   1.370   2.125   1.589 -0.9883 -0.0566  0.2811
 7812SOL    HW134898   1.452   2.093   1.628 -0.7344  0.4313  0.1477
 7812SOL    HW234899   1.398   2.111   1.499 -1.1880 -0.7750  0.3321
 7813SOL     OW34900   1.027   3.451   5.126 -0.4471 -0.5017 -0.6614
 7813SOL    HW134901   1.079   3.530   5.113 -2.9551  1.2848  0.1809
 7813SOL    HW234902   1.020   3.412   5.039  1.2166  2.0230 -1.9437
 7814SOL     OW34903   4.643   1.503   6.795  0.0830 -0.0651  0.4085
 7814SOL    HW134904   4.607   1.445   6.728  0.9827  0.2360 -0.3306
 7814SOL    HW234905   4.605   1.590   6.777 -1.4255  0.1406  4.5129
 7815SOL     OW34906   1.385   0.966   1.110  0.2134  0.4921  0.5819
 7815SOL    HW134907   1.430   1.012   1.039  0.2506  0.9273  0.8848
 7815SOL    HW234908   1.461   0.929   1.154  0.0684 -1.5803 -0.9502
 7816SOL     OW34909   1.995   3.788   6.517 -0.0082 -0.1456  0.4530
 7816SOL    HW134910   1.968   3.714   6.463 -0.1940  0.3873 -0.1769
 7816SOL    HW234911   2.075   3.820   6.475 -1.0768  1.1084 -0.6143
 7817SOL     OW34912   3.793   2.313  17.458  0.0860  0.5619  0.0990
 7817SOL    HW134913   3.868   2.316  17.517  0.8486 -0.2715 -0.8266
 7817SOL    HW234914   3.821   2.373  17.389  2.6697 -1.2338 -0.3942
 7818SOL     OW34915   4.004   2.141   2.164  0.0943 -0.0150 -0.9001
 7818SOL    HW134916   3.943   2.164   2.094  1.0427  1.7741 -1.1414
 7818SOL    HW234917   4.065   2.215   2.167  0.7088 -0.4419 -2.8660
 7819SOL     OW34918   2.746   1.590   4.152  0.2994  0.3343 -0.0354
 7819SOL    HW134919   2.790   1.510   4.178  0.4389 -0.1787 -1.8215
 7819SOL    HW234920   2.670   1.587   4.210  2.4831  2.0618  2.9235
 7820SOL     OW34921   3.802   0.153   1.522  0.1723 -0.3448  0.3370
 7820SOL    HW134922   3.814   0.078   1.580  1.5615 -0.7046 -0.3805
 7820SOL    HW234923   3.853   0.115   1.450 -0.4536 -0.5742  0.0156
 7821SOL     OW34924   3.028   2.193   8.838 -0.0944  0.1324  0.0324
 7821SOL    HW134925   3.102   2.144   8.803 -1.0002 -0.1805 -1.4712
 7821SOL    HW234926   3.078   2.262   8.882 -1.0161  1.8361 -1.5510
 7822SOL     OW34927   1.984   3.537   3.137 -0.1526  0.5558 -0.0092
 7822SOL    HW134928   2.042   3.595   3.089  0.7053  0.0595  0.4291
 7822SOL    HW234929   1.942   3.595   3.201  1.5249  1.7797 -0.0226
 7823SOL     OW34930   0.985   3.171   9.456  0.1916  0.3457 -0.4521
 7823SOL    HW134931   0.896   3.175   9.420 -1.0190  0.5060  2.5516
 7823SOL    HW234932   0.986   3.087   9.502 -0.4428 -0.3666 -1.7365
 7824SOL     OW34933   2.909   1.536   9.724  0.1958  0.7927 -0.2351
 7824SOL    HW134934   2.818   1.526   9.696  0.6552  2.0463 -2.2144
 7824SOL    HW234935   2.908   1.613   9.781  0.2413  2.2762 -2.2287
 7825SOL     OW34936   0.293   1.450  14.207  0.2010  1.1451  0.0050
 7825SOL    HW134937   0.368   1.391  14.195 -0.0268  0.9264 -0.3576
 7825SOL    HW234938   0.269   1.440  14.299  3.4562  1.6658  0.9332
 7826SOL     OW34939   1.145   2.064  14.419 -0.2114 -0.0802  0.3484
 7826SOL    HW134940   1.139   1.986  14.364  1.8531  0.2318 -0.3062
 7826SOL    HW234941   1.156   2.130  14.351  2.3120  0.1748  1.0388
 7827SOL     OW34942   1.023   1.560   6.283  0.0163 -0.4032  0.0516
 7827SOL    HW134943   1.040   1.466   6.268 -2.4389 -0.5671 -1.7085
 7827SOL    HW234944   1.024   1.595   6.194 -0.8998 -1.4232 -0.3666
 7828SOL     OW34945   2.857   2.763  17.297  0.4003  0.8058  0.0649
 7828SOL    HW134946   2.877   2.670  17.301  2.0178  1.2260  1.5756
 7828SOL    HW234947   2.761   2.759  17.304  0.4283 -0.2039 -0.2046
 7829SOL     OW34948   0.128   0.742   4.109  0.1517  0.5223  0.1159
 7829SOL    HW134949   0.072   0.804   4.061  1.9404  2.5880  0.6685
 7829SOL    HW234950   0.104   0.761   4.199  0.2475 -1.3616  0.5191
 7830SOL     OW34951   0.931   2.817   1.140 -0.1082  0.0886 -0.3816
 7830SOL    HW134952   0.989   2.801   1.065  0.9067 -1.0247  0.6309
 7830SOL    HW234953   0.862   2.753   1.126 -0.1641  0.5012 -2.0287
 7831SOL     OW34954   2.986   0.890   1.732  0.2440  0.0693 -0.2750
 7831SOL    HW134955   3.065   0.941   1.751  1.2714 -1.1293 -1.3834
 7831SOL    HW234956   3.018   0.807   1.698  1.2442 -0.5777  2.2407
 7832SOL     OW34957   0.673   2.366   4.175  0.2797  0.2260  0.5021
 7832SOL    HW134958   0.622   2.353   4.095  0.8289 -0.1784  0.2178
 7832SOL    HW234959   0.760   2.338   4.145  0.2447 -0.2989  0.9053
 7833SOL     OW34960   4.327   2.300   2.920 -0.0874 -0.3213  0.4504
 7833SOL    HW134961   4.232   2.308   2.932  0.1333  1.1554  1.2481
 7833SOL    HW234962   4.355   2.391   2.915  1.9330 -1.0098 -0.5311
 7834SOL     OW34963   3.570   1.511   5.848  0.6006 -0.0880 -0.2244
 7834SOL    HW134964   3.618   1.467   5.777  0.5780  0.6570 -0.7035
 7834SOL    HW234965   3.485   1.535   5.812  0.6742  0.8036  0.2149
 7835SOL     OW34966   2.911   4.702   4.244 -0.0596 -0.2771 -0.6452
 7835SOL    HW134967   2.850   4.660   4.306  2.8802 -4.5750 -0.7300
 7835SOL    HW234968   2.847   0.037   4.206 -0.7767 -0.2887  0.5172
 7836SOL     OW34969   3.456   4.724  11.873  0.3363  0.3435 -0.3152
 7836SOL    HW134970   3.438   0.092  11.884 -1.4832  0.0176 -0.5596
 7836SOL    HW234971   3.417   4.712  11.786  0.9973 -1.9814 -0.2760
 7837SOL     OW34972   0.899   3.828   2.476  0.4829 -0.1817  0.7324
 7837SOL    HW134973   0.865   3.913   2.504  0.2199 -0.6320  1.7965
 7837SOL    HW234974   0.901   3.784   2.561 -1.4649  3.0441  2.4267
 7838SOL     OW34975   3.328   4.449   7.782 -0.2797  0.4389  0.1731
 7838SOL    HW134976   3.237   4.469   7.759  0.5093  1.9930 -1.6417
 7838SOL    HW234977   3.326   4.402   7.865 -1.3297  0.6328  0.2540
 7839SOL     OW34978   3.545   4.421   3.075  0.0409  0.0651  0.3489
 7839SOL    HW134979   3.640   4.408   3.080 -0.2554 -1.7423  1.2367
 7839SOL    HW234980   3.518   4.335   3.109 -0.9795  0.3506  0.2648
 7840SOL     OW34981   0.350   2.115   8.781 -0.1017  0.5227  0.1812
 7840SOL    HW134982   0.341   2.038   8.724  0.8712 -1.0176  2.1061
 7840SOL    HW234983   0.260   2.122   8.813  0.1921  1.6198  0.7758
 7841SOL     OW34984   0.824   0.232   4.535 -0.4380  0.0820  0.0361
 7841SOL    HW134985   0.829   0.299   4.603  0.7650 -0.6938  0.7183
 7841SOL    HW234986   0.899   0.178   4.558 -0.5880 -0.5120 -0.8940
 7842SOL     OW34987   3.645   4.493   7.276  0.2903  0.3912 -0.0029
 7842SOL    HW134988   3.592   4.428   7.229  2.0455 -2.0376  1.3904
 7842SOL    HW234989   3.720   4.450   7.316  2.7054  2.1404 -2.6087
 7843SOL     OW34990   4.105   2.859   6.022 -0.5368  0.1065 -0.2342
 7843SOL    HW134991   4.034   2.910   5.982  0.1866  0.7068 -0.7562
 7843SOL    HW234992   4.163   2.928   6.052  0.1166 -0.4118 -0.3172
 7844SOL     OW34993   3.636   2.585   4.821  0.1279  0.4404  0.0974
 7844SOL    HW134994   3.557   2.549   4.781 -1.4061  0.0665  3.4137
 7844SOL    HW234995   3.656   2.670   4.782  1.1121  0.0520 -0.2275
 7845SOL     OW34996   2.492   2.309   4.776 -0.1755  0.1230  0.7606
 7845SOL    HW134997   2.556   2.355   4.722 -0.6992  2.2757  1.9721
 7845SOL    HW234998   2.422   2.375   4.769 -0.5759 -0.1646  2.0416
 7846SOL     OW34999   2.736   1.498   3.156 -0.8030  0.2067 -0.8518
 7846SOL    HW135000   2.731   1.585   3.117 -0.6901 -0.1131 -1.5813
 7846SOL    HW235001   2.829   1.486   3.140 -1.2988 -0.0052 -3.5626
 7847SOL     OW35002   1.396   3.194   5.583  0.0307 -0.1083 -0.2497
 7847SOL    HW135003   1.437   3.259   5.641 -2.2624  0.1261  1.1090
 7847SOL    HW235004   1.364   3.125   5.641  1.6898 -0.6068  0.0570
 7848SOL     OW35005   3.664   0.370   6.098  0.1526  0.1241 -0.1906
 7848SOL    HW135006   3.751   0.409   6.105  0.6941 -1.4247  1.5020
 7848SOL    HW235007   3.635   0.408   6.014  1.4253  1.3674 -0.0816
 7849SOL     OW35008   1.090   0.678   1.817 -0.4011 -0.2339  0.4763
 7849SOL    HW135009   1.176   0.646   1.841 -0.5458 -0.1819  1.0581
 7849SOL    HW235010   1.087   0.657   1.724 -0.3592  0.6455  0.2754
 7850SOL     OW35011   2.102   3.230   3.095  0.3231 -0.9179 -0.5687
 7850SOL    HW135012   2.013   3.253   3.122  0.7182 -0.4934  0.3691
 7850SOL    HW235013   2.125   3.321   3.077  1.5624 -0.8726  1.2571
 7851SOL     OW35014   3.371   1.070   3.017  0.2179  0.2238 -0.4846
 7851SOL    HW135015   3.283   1.040   3.038  0.3748 -0.5393 -0.9149
 7851SOL    HW235016   3.364   1.036   2.928 -0.4012 -1.8624  0.3670
 7852SOL     OW35017   1.768   3.714   8.675  0.2418  0.1513  0.0822
 7852SOL    HW135018   1.685   3.685   8.713  0.4544  1.8986  1.8442
 7852SOL    HW235019   1.738   3.755   8.594  2.0973 -0.9758 -1.1760
 7853SOL     OW35020   0.836   1.142   7.885  0.0511 -0.3005  0.8639
 7853SOL    HW135021   0.794   1.098   7.959 -1.7357  1.3848  0.8481
 7853SOL    HW235022   0.790   1.102   7.811  0.5879 -0.1223  0.4359
 7854SOL     OW35023   0.139   1.028   7.765 -0.4649  0.0653  0.0819
 7854SOL    HW135024   0.070   1.065   7.821  1.9476  1.1071  2.3385
 7854SOL    HW235025   0.172   1.106   7.720  0.3724 -0.2274  0.1974
 7855SOL     OW35026   1.003   0.820   8.253  0.3642 -0.2345 -0.0036
 7855SOL    HW135027   1.093   0.798   8.279  0.6380 -0.0044 -0.7737
 7855SOL    HW235028   1.000   0.915   8.258  1.0241 -0.2810  1.5501
 7856SOL     OW35029   3.309   4.154   2.537  0.2362  0.1195  0.1380
 7856SOL    HW135030   3.363   4.211   2.590 -0.1609  0.7352 -0.1256
 7856SOL    HW235031   3.227   4.203   2.534  1.8550  2.7331 -1.8302
 7857SOL     OW35032   3.162   2.661   4.612  0.1248  0.0935  0.2866
 7857SOL    HW135033   3.199   2.736   4.658  1.4694 -1.2570  1.3888
 7857SOL    HW235034   3.180   2.691   4.522  0.9379 -1.0393  0.0709
 7858SOL     OW35035   3.738   1.224   4.185 -0.4118 -0.4151  0.0189
 7858SOL    HW135036   3.678   1.296   4.202  0.0057 -0.1772  0.4970
 7858SOL    HW235037   3.806   1.265   4.238 -0.1719 -1.1863  0.3110
 7859SOL     OW35038   1.914   3.918   5.831 -0.0908  0.2310 -0.4858
 7859SOL    HW135039   1.887   4.009   5.841  0.4969  0.3190  0.2415
 7859SOL    HW235040   1.922   3.885   5.920 -0.2617 -1.1711 -0.9851
 7860SOL     OW35041   1.790   0.516   7.206 -0.1573 -0.0673 -0.7254
 7860SOL    HW135042   1.775   0.422   7.215  3.5826 -0.9069 -3.3761
 7860SOL    HW235043   1.854   0.525   7.276 -0.8098  2.3280 -0.4375
 7861SOL     OW35044   2.105   2.976   3.915  0.2850  0.2963 -0.0129
 7861SOL    HW135045   2.199   2.991   3.926 -0.1124  2.0080  1.2019
 7861SOL    HW235046   2.109   2.881   3.916  1.4796  0.3385 -0.6366
 7862SOL     OW35047   0.524   1.273   6.779  0.5478 -0.4914 -0.0758
 7862SOL    HW135048   0.451   1.289   6.839 -0.3066  1.5840 -1.6305
 7862SOL    HW235049   0.589   1.225   6.830 -1.6429 -2.3701  0.9689
 7863SOL     OW35050   2.397   3.484  13.851  0.0696 -0.1889  0.1633
 7863SOL    HW135051   2.307   3.514  13.836  0.1127 -0.4208 -0.5522
 7863SOL    HW235052   2.443   3.548  13.797  1.0286 -0.4186  0.7086
 7864SOL     OW35053   2.408   3.484   9.281  0.1640 -0.1035 -0.8102
 7864SOL    HW135054   2.361   3.495   9.364  0.2680  1.3533 -0.9431
 7864SOL    HW235055   2.412   3.389   9.272  0.6747 -0.1320 -0.2796
 7865SOL     OW35056   4.078   3.152  10.909 -0.2248  0.1050 -0.1499
 7865SOL    HW135057   4.138   3.078  10.899 -0.3436  0.1471 -1.1676
 7865SOL    HW235058   3.994   3.108  10.904 -2.0190  3.3477  1.1929
 7866SOL     OW35059   3.845   4.395   3.726 -0.0989  0.3223 -0.1524
 7866SOL    HW135060   3.839   4.391   3.821  0.6535 -0.3122 -0.1369
 7866SOL    HW235061   3.870   4.305   3.705  2.3180  0.1866  3.3654
 7867SOL     OW35062   3.657   0.580   2.983  0.2788  0.1211 -0.3269
 7867SOL    HW135063   3.615   0.500   3.015 -0.4127  1.0093  0.9665
 7867SOL    HW235064   3.729   0.594   3.044 -3.5697  1.5034  3.9112
 7868SOL     OW35065   2.973   1.861  17.568  0.4795  0.1231  0.5296
 7868SOL    HW135066   2.886   1.855  17.607 -0.1421 -2.2585 -1.2472
 7868SOL    HW235067   3.011   1.778  17.596 -0.2886 -0.4320 -0.0816
 7869SOL     OW35068   2.347   4.159   7.436 -0.1730  0.3722 -0.1938
 7869SOL    HW135069   2.439   4.133   7.447  0.0956  1.0985 -0.7310
 7869SOL    HW235070   2.374   4.231   7.380 -1.6707  0.9993 -0.1017
 7870SOL     OW35071   1.804   3.982   4.943 -0.3658  0.3560  0.0970
 7870SOL    HW135072   1.856   3.912   4.982 -1.1574  0.9398  2.1979
 7870SOL    HW235073   1.719   3.943   4.922 -1.3503  3.3392 -1.5625
 7871SOL     OW35074   2.114   2.599   4.848 -0.2928  0.1841  0.1416
 7871SOL    HW135075   2.064   2.666   4.895 -0.7586  1.9547 -2.8830
 7871SOL    HW235076   2.060   2.521   4.857  0.6374 -0.6931 -1.8865
 7872SOL     OW35077   1.770   2.106  16.989  0.0046  0.6795 -0.6752
 7872SOL    HW135078   1.705   2.167  16.954  0.4543  0.8100 -1.2779
 7872SOL    HW235079   1.785   2.149  17.073  1.2999  0.6802 -0.9058
 7873SOL     OW35080   4.128   2.701   4.060 -0.1352 -0.2296  0.8025
 7873SOL    HW135081   4.202   2.656   4.019 -3.1155 -3.1713 -1.2991
 7873SOL    HW235082   4.174   2.759   4.121  1.8174  0.3306 -1.1841
 7874SOL     OW35083   1.365   3.063   9.381 -0.3281  0.3316  0.2864
 7874SOL    HW135084   1.370   3.123   9.456  1.6805  1.0722 -0.4322
 7874SOL    HW235085   1.300   3.106   9.326 -1.7583 -2.0625  0.0999
 7875SOL     OW35086   3.559   1.625   1.163 -0.1789 -0.1393  0.0788
 7875SOL    HW135087   3.607   1.687   1.108 -1.2866  2.0216  1.5719
 7875SOL    HW235088   3.565   1.673   1.246  0.2105  0.1350 -0.1086
 7876SOL     OW35089   3.620   3.231  16.856  0.0329  0.3527 -0.3901
 7876SOL    HW135090   3.673   3.282  16.795  0.1508 -0.6146 -1.0991
 7876SOL    HW235091   3.562   3.189  16.793  2.2220 -0.8127 -1.6134
 7877SOL     OW35092   3.921   1.127   7.153 -0.1075 -0.2301  0.4613
 7877SOL    HW135093   3.884   1.168   7.075  0.6323  0.8812  0.7046
 7877SOL    HW235094   3.871   1.168   7.223 -0.2015  0.0264  0.2422
 7878SOL     OW35095   2.004   3.368   3.499  0.3421 -0.2463 -0.1244
 7878SOL    HW135096   2.065   3.441   3.489 -2.2703  1.8558 -0.6546
 7878SOL    HW235097   1.944   3.390   3.427 -0.3609 -1.0865  0.2017
 7879SOL     OW35098   1.054   0.920   6.519  0.4098 -0.0887  0.3056
 7879SOL    HW135099   1.028   1.001   6.474  1.2814 -0.3168 -0.6169
 7879SOL    HW235100   1.064   0.959   6.606  0.6027  0.6483 -0.0440
 7880SOL     OW35101   1.505   0.420   9.371 -0.3237 -0.1398 -0.2409
 7880SOL    HW135102   1.419   0.381   9.357 -0.2995 -0.4397  0.4394
 7880SOL    HW235103   1.484   0.499   9.420 -1.0823  0.3501 -1.3451
 7881SOL     OW35104   3.593   3.433  15.915  0.2614 -0.3636 -0.6706
 7881SOL    HW135105   3.679   3.423  15.874  1.1531 -0.8929  1.3384
 7881SOL    HW235106   3.601   3.380  15.995 -1.1163 -0.3488 -0.5266
 7882SOL     OW35107   0.081   0.828   8.402  0.0008  0.9230 -0.7432
 7882SOL    HW135108   0.108   0.763   8.337  0.3524 -0.4054  0.7230
 7882SOL    HW235109   0.150   0.815   8.468 -0.6964  0.1174 -0.1665
 7883SOL     OW35110   0.285   0.456  14.608  0.5590 -0.4561  0.0468
 7883SOL    HW135111   0.302   0.549  14.593  0.3032 -0.1032  1.9723
 7883SOL    HW235112   0.374   0.420  14.604  0.6066 -0.4152  0.7129
 7884SOL     OW35113   1.476   2.226   7.122 -0.5726  0.3770  0.2366
 7884SOL    HW135114   1.533   2.247   7.196 -0.6311 -0.6026  0.5551
 7884SOL    HW235115   1.538   2.179   7.067 -2.8771 -0.6855 -1.4402
 7885SOL     OW35116   2.263   0.955   5.815  0.5029 -0.2297 -0.0468
 7885SOL    HW135117   2.203   0.995   5.750  0.7451  1.3237  0.6748
 7885SOL    HW235118   2.337   1.013   5.798  1.3091 -0.6722  1.9745
 7886SOL     OW35119   3.180   0.704  11.393 -0.2000  0.0028  0.6210
 7886SOL    HW135120   3.271   0.676  11.384 -0.4465 -0.6102  0.0197
 7886SOL    HW235121   3.179   0.755  11.474  1.0020  1.0488 -0.0289
 7887SOL     OW35122   1.261   1.470   6.583 -0.2096  0.0723 -0.5653
 7887SOL    HW135123   1.229   1.523   6.511 -0.0550 -0.0365 -0.7135
 7887SOL    HW235124   1.334   1.521   6.618 -0.9808  0.8151 -0.0403
 7888SOL     OW35125   1.951   0.403  14.056 -0.4169 -0.1024 -0.7990
 7888SOL    HW135126   1.882   0.338  14.041 -0.7561  0.1517 -0.3249
 7888SOL    HW235127   1.892   0.467  14.097  0.2919 -1.4897  2.3999
 7889SOL     OW35128   4.224   4.719   7.565  0.2730 -0.8301  0.9277
 7889SOL    HW135129   4.140   4.721   7.612 -0.8217 -2.0642 -0.9807
 7889SOL    HW235130   4.206   4.677   7.481 -1.0980  0.2208  0.7069
 7890SOL     OW35131   0.053   2.098  13.884 -0.1925 -0.8985 -0.0155
 7890SOL    HW135132   0.038   2.073  13.975  1.1151  1.8805  0.9615
 7890SOL    HW235133   0.086   2.011  13.861 -1.2286 -1.5645  1.0324
 7891SOL     OW35134   3.387   1.312   4.053  0.1321  0.5607 -0.1382
 7891SOL    HW135135   3.452   1.365   4.099 -0.8828  0.2944  1.5856
 7891SOL    HW235136   3.430   1.308   3.967 -0.1189 -3.6015 -0.0774
 7892SOL     OW35137   0.574   2.428   7.390  0.0071 -0.0916  0.4495
 7892SOL    HW135138   0.536   2.345   7.364 -2.3054  1.4851 -1.2269
 7892SOL    HW235139   0.641   2.401   7.453 -0.5381 -0.1054  1.0136
 7893SOL     OW35140   2.004   1.312   4.145 -0.5087  0.0619  0.1215
 7893SOL    HW135141   1.934   1.335   4.206  1.2903 -0.4823  2.4238
 7893SOL    HW235142   1.953   1.314   4.064  1.0784 -1.7412 -0.9381
 7894SOL     OW35143   2.861   3.173  17.314 -0.0003 -0.0805 -0.2375
 7894SOL    HW135144   2.790   3.113  17.289 -0.0797 -0.7917  1.7109
 7894SOL    HW235145   2.886   3.147  17.403  1.6235 -1.3073 -1.0423
 7895SOL     OW35146   4.411   0.754   3.043  0.8923  0.9466  0.2745
 7895SOL    HW135147   4.388   0.736   2.952  0.2671  0.8663  0.4512
 7895SOL    HW235148   4.371   0.678   3.084  0.6448  1.2299  0.5587
 7896SOL     OW35149   3.614   2.585  16.979  0.3240  0.3825 -0.0604
 7896SOL    HW135150   3.591   2.665  17.026  2.0078  0.1267  1.2252
 7896SOL    HW235151   3.528   2.547  16.964 -0.0526  0.6793  1.3311
 7897SOL     OW35152   2.055   3.193   3.772 -0.1193  0.1623  0.0235
 7897SOL    HW135153   2.069   3.116   3.828 -0.1777  0.4780  0.4728
 7897SOL    HW235154   2.062   3.157   3.684 -0.6772 -2.1469  0.8951
 7898SOL     OW35155   1.034   2.220   3.396 -0.3182 -0.1585  0.2669
 7898SOL    HW135156   1.045   2.299   3.448 -0.3466 -0.6961  1.0945
 7898SOL    HW235157   1.061   2.257   3.312  2.9923 -0.5896  1.1325
 7899SOL     OW35158   1.114   1.788  16.287  0.1458 -0.5431 -0.7106
 7899SOL    HW135159   1.106   1.881  16.306 -2.8139 -1.1205  1.0090
 7899SOL    HW235160   1.208   1.790  16.269  0.0530  1.2701 -1.0050
 7900SOL     OW35161   2.743   1.072   5.614  0.0009  0.1659 -0.3974
 7900SOL    HW135162   2.791   1.124   5.678 -0.3426  0.0550 -0.0469
 7900SOL    HW235163   2.809   1.007   5.588  0.0769 -0.3388  1.0607
 7901SOL     OW35164   0.409   2.891   4.316  1.2127  0.1185 -0.2831
 7901SOL    HW135165   0.474   2.864   4.250  1.4629  0.5577 -0.2181
 7901SOL    HW235166   0.460   2.949   4.373  2.1443 -2.1165  1.1568
 7902SOL     OW35167   0.028   0.681   5.140  0.0404 -0.1276 -0.1116
 7902SOL    HW135168   0.019   0.615   5.209  0.3561  1.2472  1.2375
 7902SOL    HW235169   0.009   0.626   5.064 -1.9263 -1.5096  1.3819
 7903SOL     OW35170   0.257   2.168   6.883  0.2562  0.3103  0.4113
 7903SOL    HW135171   0.309   2.247   6.869  0.2764  0.6879  2.5426
 7903SOL    HW235172   0.314   2.099   6.918  0.1640  1.1789  2.2936
 7904SOL     OW35173   3.122   1.370   4.390 -0.3335  0.0188 -0.3724
 7904SOL    HW135174   3.182   1.323   4.448  1.1671  1.8662 -0.4160
 7904SOL    HW235175   3.057   1.408   4.449 -0.0452  2.1739 -1.4512
 7905SOL     OW35176   0.775   4.099   8.770  0.1683  0.0926 -0.1506
 7905SOL    HW135177   0.840   4.142   8.826  1.1475  1.9748 -2.7258
 7905SOL    HW235178   0.722   4.175   8.747 -0.0951 -0.0258  0.0595
 7906SOL     OW35179   0.655   3.278   5.219 -0.3365  0.3274 -0.3616
 7906SOL    HW135180   0.613   3.194   5.238 -0.1934 -0.1774 -2.2101
 7906SOL    HW235181   0.667   3.265   5.125 -0.7967  0.4650 -0.4425
 7907SOL     OW35182   0.771   1.161   4.379 -0.6422 -0.1045 -0.3150
 7907SOL    HW135183   0.705   1.207   4.328 -0.1670  0.2243 -0.6273
 7907SOL    HW235184   0.810   1.103   4.313 -1.1779 -0.7105 -0.1063
 7908SOL     OW35185   2.015   3.667  10.846  0.3872  0.0002  0.1159
 7908SOL    HW135186   2.076   3.729  10.805  0.6350  1.4836  2.7282
 7908SOL    HW235187   1.933   3.716  10.835  1.0518  0.9412 -0.7232
 7909SOL     OW35188   2.741   0.132   4.134  0.5472 -0.4027 -0.1653
 7909SOL    HW135189   2.746   0.224   4.107  1.0265  0.1711  1.8718
 7909SOL    HW235190   2.652   0.140   4.169  0.3849  0.7327 -0.8327
 7910SOL     OW35191   4.173   0.648  13.562  0.3043 -0.6250 -0.2821
 7910SOL    HW135192   4.170   0.742  13.580  0.3038 -0.3606 -1.6312
 7910SOL    HW235193   4.079   0.634  13.549  0.2300  0.1365 -0.5917
 7911SOL     OW35194   1.566   0.011  13.984 -0.2514  0.0466 -0.0394
 7911SOL    HW135195   1.521   4.677  14.044  0.0932  0.7165  0.8856
 7911SOL    HW235196   1.507   0.018  13.908  0.3465 -0.0971 -0.5148
 7912SOL     OW35197   1.469   1.888   2.994  0.0654 -0.2479 -0.8856
 7912SOL    HW135198   1.484   1.938   2.914  2.7037  2.4589  1.2817
 7912SOL    HW235199   1.392   1.930   3.031 -0.0626 -2.9174  1.8749
 7913SOL     OW35200   2.961   1.591   1.306  0.8040 -0.0402  0.6699
 7913SOL    HW135201   2.892   1.532   1.338  1.0564 -0.4884  0.3850
 7913SOL    HW235202   2.958   1.588   1.210 -1.5729 -0.4546  0.7533
 7914SOL     OW35203   4.409   2.193   1.406  0.4410 -0.0208 -0.5581
 7914SOL    HW135204   4.482   2.188   1.345  0.5518  0.4234 -0.4589
 7914SOL    HW235205   4.442   2.241   1.482  2.4058 -1.2952 -0.6082
 7915SOL     OW35206   0.980   3.545   3.475 -0.0132 -0.4450 -0.2945
 7915SOL    HW135207   1.006   3.475   3.535 -0.2348 -0.1003  0.2030
 7915SOL    HW235208   1.037   3.528   3.400 -0.2462  2.0459 -1.0410
 7916SOL     OW35209   2.688   4.412   2.127  0.2817  0.8778 -0.6312
 7916SOL    HW135210   2.680   4.322   2.095 -0.1996  1.4091 -2.0102
 7916SOL    HW235211   2.614   4.417   2.188  1.4645  0.0478  0.8719
 7917SOL     OW35212   1.692   0.961   3.743  0.0009  0.1599  0.0028
 7917SOL    HW135213   1.617   0.902   3.750 -1.5435  2.2339  1.0547
 7917SOL    HW235214   1.737   0.956   3.827  1.2023  0.3681 -0.6382
 7918SOL     OW35215   1.688   1.036   5.458  0.5469  0.4053 -0.3074
 7918SOL    HW135216   1.782   1.050   5.469  0.7269 -4.0643  3.6069
 7918SOL    HW235217   1.691   0.949   5.418 -0.8348  0.4785 -0.5902
 7919SOL     OW35218   4.493   0.769   5.562 -0.4897  0.5527 -0.2440
 7919SOL    HW135219   4.421   0.721   5.520 -2.1880  2.2093  0.7885
 7919SOL    HW235220   4.452   0.789   5.646  0.9632  2.2483  0.0369
 7920SOL     OW35221   4.598   0.198   3.991  0.3708 -0.0798  0.2150
 7920SOL    HW135222   4.545   0.221   3.915 -1.5978  1.1160  1.9660
 7920SOL    HW235223   4.541   0.194   4.068  0.7935 -3.0056  0.3769
 7921SOL     OW35224   3.543   0.865  12.482  0.0551  0.2770 -0.1697
 7921SOL    HW135225   3.520   0.778  12.513 -2.9079  0.9786 -0.4226
 7921SOL    HW235226   3.460   0.911  12.489  0.1617  0.2798  1.0663
 7922SOL     OW35227   2.684   2.464   2.312  0.0947  0.0652 -0.3166
 7922SOL    HW135228   2.625   2.539   2.303  1.1267  0.8503 -0.5374
 7922SOL    HW235229   2.736   2.498   2.385 -0.8417  0.5405  0.1281
 7923SOL     OW35230   3.888   3.776  12.339 -0.6252  0.1871  0.7420
 7923SOL    HW135231   3.810   3.725  12.319  0.8346 -1.4159 -0.8789
 7923SOL    HW235232   3.948   3.708  12.370  0.2605  1.1421  1.1341
 7924SOL     OW35233   0.383   3.072   4.090  0.3454 -0.3871  0.1335
 7924SOL    HW135234   0.468   3.042   4.057  0.1042 -0.5702 -0.3235
 7924SOL    HW235235   0.375   3.010   4.162 -2.3242  0.6850  0.7806
 7925SOL     OW35236   4.242   0.971  14.681  0.1663  0.2628  0.7185
 7925SOL    HW135237   4.303   1.025  14.730  1.2391 -1.0346  0.8141
 7925SOL    HW235238   4.204   0.907  14.741 -0.0344 -0.5501 -0.2691
 7926SOL     OW35239   4.073   1.112   2.304 -0.1250 -0.0224  0.1551
 7926SOL    HW135240   4.005   1.052   2.274 -0.3573  0.5228 -0.4163
 7926SOL    HW235241   4.144   1.086   2.246 -0.9619 -0.0755 -0.8381
 7927SOL     OW35242   2.348   3.826   3.921  0.2783  0.1523 -0.1198
 7927SOL    HW135243   2.254   3.823   3.934  0.6971 -0.4426  2.7910
 7927SOL    HW235244   2.364   3.919   3.937 -1.2803  0.5225 -0.7744
 7928SOL     OW35245   1.186   2.181  13.791 -0.1626 -0.3012 -0.0760
 7928SOL    HW135246   1.195   2.130  13.872  0.1011 -1.5198 -0.8750
 7928SOL    HW235247   1.244   2.129  13.736 -0.0095  0.5801 -0.7409
 7929SOL     OW35248   1.339   4.001   7.052 -0.4903  0.7266 -0.7137
 7929SOL    HW135249   1.425   3.995   7.011  0.3160  2.3534  0.7318
 7929SOL    HW235250   1.289   3.924   7.023 -0.4330  0.4741 -0.1398
 7930SOL     OW35251   1.785   0.293  10.445  0.2906 -0.2217 -0.5761
 7930SOL    HW135252   1.843   0.248  10.384 -4.0647 -2.8494 -2.7754
 7930SOL    HW235253   1.840   0.345  10.503  0.0332 -0.2094 -0.3384
 7931SOL     OW35254   4.529   1.073  11.647  0.7944 -0.2891  0.0401
 7931SOL    HW135255   4.620   1.084  11.619  0.2436  0.0332 -1.6444
 7931SOL    HW235256   4.535   1.149  11.705  2.0606  0.6446 -1.3178
 7932SOL     OW35257   4.110   1.113   7.733  0.2387 -0.0996  0.0609
 7932SOL    HW135258   4.178   1.122   7.667  1.3736  1.0104  1.4200
 7932SOL    HW235259   4.158   1.126   7.814 -0.3154 -3.4840  0.9339
 7933SOL     OW35260   3.186   4.712   3.119  0.2050 -0.0955 -0.4969
 7933SOL    HW135261   3.138   4.637   3.155 -1.2911  2.4709  2.8987
 7933SOL    HW235262   3.268   4.675   3.154 -0.4668 -1.3015 -0.1933
 7934SOL     OW35263   3.672   0.787   4.839  0.0572 -0.7882 -0.5591
 7934SOL    HW135264   3.609   0.806   4.909  1.0253 -1.2536  0.4256
 7934SOL    HW235265   3.706   0.703   4.869  2.9593  0.3107 -0.8134
 7935SOL     OW35266   2.046   0.181   1.662  0.3931 -0.0151 -0.0405
 7935SOL    HW135267   2.012   0.131   1.587  0.7917 -1.2257  0.5871
 7935SOL    HW235268   2.091   0.116   1.717 -1.1734 -1.1198 -0.0711
 7936SOL     OW35269   4.669   4.559   3.192 -0.6282  0.0386 -0.2422
 7936SOL    HW135270   4.654   4.490   3.128  1.2235  0.6578 -1.3535
 7936SOL    HW235271   4.624   4.634   3.153  1.5784  1.5895  0.2042
 7937SOL     OW35272   1.941   0.227   1.352 -0.1105 -0.4668 -0.2317
 7937SOL    HW135273   1.940   0.322   1.358  2.5563 -0.5209  0.7278
 7937SOL    HW235274   2.029   0.208   1.383  0.2844  1.9709  0.1235
 7938SOL     OW35275   4.514   0.375   1.457 -0.0890 -0.2798  0.3074
 7938SOL    HW135276   4.557   0.453   1.421  1.5538 -1.0040  0.6903
 7938SOL    HW235277   4.477   0.346   1.374  1.9199  0.2401 -0.7852
 7939SOL     OW35278   1.569   4.712   5.907 -0.2382 -0.5535 -0.9629
 7939SOL    HW135279   1.586   4.647   5.839 -1.8899 -0.9369 -1.0141
 7939SOL    HW235280   1.495   0.034   5.867  1.3105  1.3369 -1.5871
 7940SOL     OW35281   0.382   3.486  11.716 -0.2746  0.0019  0.4529
 7940SOL    HW135282   0.459   3.458  11.666 -1.7338 -1.8834 -0.7608
 7940SOL    HW235283   0.403   3.454  11.804 -0.6893  0.1716  0.6088
 7941SOL     OW35284   2.090   2.764   3.034 -0.2328  0.2744  0.0731
 7941SOL    HW135285   2.045   2.788   3.116 -1.6814  0.9116 -0.9129
 7941SOL    HW235286   2.042   2.687   3.004  2.0496 -1.3845  0.6801
 7942SOL     OW35287   2.674   2.347  11.422  0.0102 -0.9779  0.5638
 7942SOL    HW135288   2.713   2.266  11.390  0.0602 -0.5587 -0.4313
 7942SOL    HW235289   2.704   2.402  11.350  1.2723  0.0895  1.9063
 7943SOL     OW35290   3.752   3.068  17.652  0.2806 -0.0643  0.5315
 7943SOL    HW135291   3.845   3.086  17.638 -0.2468 -0.1276 -3.0615
 7943SOL    HW235292   3.735   3.008  17.580  2.4242  0.8105 -0.7042
 7944SOL     OW35293   2.103   2.495   6.552 -0.3924 -0.0353  0.2827
 7944SOL    HW135294   2.131   2.585   6.537 -1.3592  0.2695  0.2843
 7944SOL    HW235295   2.180   2.457   6.595 -0.5759 -1.5668 -0.7524
 7945SOL     OW35296   2.881   2.887   8.031 -0.3433 -0.0761 -0.1456
 7945SOL    HW135297   2.811   2.867   8.093  0.1575 -1.6646 -0.0856
 7945SOL    HW235298   2.821   2.885   7.956  0.4071  0.1238 -0.7542
 7946SOL     OW35299   0.056   0.753   8.966  0.2688 -0.0507  0.1187
 7946SOL    HW135300   0.099   0.714   9.042  1.5876 -2.0212 -1.6344
 7946SOL    HW235301   0.117   0.822   8.939 -1.5697  1.0723 -1.1866
 7947SOL     OW35302   3.977   2.177   1.373  0.1348 -0.5441  0.2953
 7947SOL    HW135303   4.040   2.127   1.425 -0.1759 -0.8539  0.3728
 7947SOL    HW235304   4.024   2.215   1.299 -2.0864  1.2185 -0.2302
 7948SOL     OW35305   1.065   3.585   8.580  0.3746 -0.1467 -0.4712
 7948SOL    HW135306   1.054   3.669   8.536  1.6399  0.9983  1.3998
 7948SOL    HW235307   1.017   3.599   8.661 -0.0302 -0.1600 -0.7085
 7949SOL     OW35308   2.460   2.332   7.423  0.0902  0.0249  0.1981
 7949SOL    HW135309   2.417   2.246   7.418 -0.0245  0.0346  1.0314
 7949SOL    HW235310   2.485   2.341   7.515  0.3951 -0.2848  0.1467
 7950SOL     OW35311   1.497   1.347  10.838  0.1333 -0.1973 -0.1203
 7950SOL    HW135312   1.579   1.355  10.886 -0.6911  3.1370  0.7024
 7950SOL    HW235313   1.436   1.363  10.910 -0.3393  0.3358 -0.6357
 7951SOL     OW35314   0.323   0.450   8.456  0.3129 -0.2586  0.0133
 7951SOL    HW135315   0.249   0.472   8.513  1.0556  3.2461 -0.3406
 7951SOL    HW235316   0.403   0.465   8.507  0.0824 -0.9145  0.5619
 7952SOL     OW35317   1.052   4.278   0.050  0.3058 -0.0500  0.5471
 7952SOL    HW135318   0.973   4.286   0.104  0.4344 -4.2164  1.3505
 7952SOL    HW235319   1.104   4.347   0.092 -1.2881  0.1738  2.1554
 7953SOL     OW35320   3.990   2.703   1.543 -0.7637  0.2853 -0.3932
 7953SOL    HW135321   3.961   2.761   1.613 -0.1360 -0.3784  0.4103
 7953SOL    HW235322   3.987   2.618   1.587 -1.2658 -0.7495 -2.3983
 7954SOL     OW35323   0.168   4.033   4.738 -0.1480  0.1413 -0.7197
 7954SOL    HW135324   0.179   3.951   4.688 -0.8019 -0.1140 -0.4416
 7954SOL    HW235325   0.106   4.075   4.678 -0.3470  0.4259 -0.3135
 7955SOL     OW35326   1.207   1.827   9.003  0.0215  0.3707  0.5529
 7955SOL    HW135327   1.157   1.886   8.947  1.8350  0.0016 -1.4853
 7955SOL    HW235328   1.196   1.851   9.095 -0.0577  1.4026  0.2670
 7956SOL     OW35329   2.535   1.696   3.551  0.6778 -0.1382  0.3730
 7956SOL    HW135330   2.460   1.687   3.610 -0.0325  1.1915 -0.3271
 7956SOL    HW235331   2.499   1.663   3.468  0.8121  0.2975  0.1438
 7957SOL     OW35332   2.220   3.505   5.594 -0.0244  0.1216 -0.0764
 7957SOL    HW135333   2.153   3.574   5.594 -1.1450 -0.9534 -1.0177
 7957SOL    HW235334   2.291   3.545   5.544 -0.0684  1.9697  1.3573
 7958SOL     OW35335   1.549   0.844   9.730 -0.2202 -0.1384 -0.5107
 7958SOL    HW135336   1.563   0.928   9.686 -0.9387 -0.6750 -1.7804
 7958SOL    HW235337   1.525   0.870   9.819  1.7136 -1.8850  0.5152
 7959SOL     OW35338   2.361   1.764  10.541 -0.2610  0.0059 -0.4790
 7959SOL    HW135339   2.425   1.722  10.598 -1.1299 -0.6613  0.0005
 7959SOL    HW235340   2.399   1.852  10.547 -1.8469  0.6147  0.7655
 7960SOL     OW35341   2.950   1.470   0.733  0.0804  0.1210 -0.3415
 7960SOL    HW135342   2.873   1.497   0.782 -0.1276  2.2203 -1.8093
 7960SOL    HW235343   2.917   1.383   0.709 -2.0898  1.3340 -1.7390
 7961SOL     OW35344   2.379   4.699  13.854 -0.4070 -0.0601  0.4363
 7961SOL    HW135345   2.405   4.666  13.767  0.7574  0.3025  0.6417
 7961SOL    HW235346   2.393   0.068  13.846 -0.3087 -0.1176 -0.0940
 7962SOL     OW35347   2.081   3.102   3.528  0.3367 -0.4979 -0.0651
 7962SOL    HW135348   2.142   3.092   3.455 -1.9003 -0.1753 -1.9341
 7962SOL    HW235349   2.054   3.193   3.516  0.8737 -0.2025  0.8921
 7963SOL     OW35350   1.556   2.378   5.666  0.5378  0.1140  0.1314
 7963SOL    HW135351   1.616   2.328   5.611  0.5698 -1.6273  1.7329
 7963SOL    HW235352   1.501   2.420   5.600  2.3512  0.7337 -0.9895
 7964SOL     OW35353   2.321   3.208  11.728 -0.0736  0.6031 -0.9151
 7964SOL    HW135354   2.304   3.191  11.821  0.8685 -2.7957 -1.3479
 7964SOL    HW235355   2.305   3.120  11.695 -1.2183 -0.1578  1.6396
 7965SOL     OW35356   1.161   3.916  17.269 -0.7600 -0.0571  0.3666
 7965SOL    HW135357   1.167   3.847  17.204  1.9843  0.4488  0.0967
 7965SOL    HW235358   1.162   3.870  17.353 -0.9595  2.4107  1.7307
 7966SOL     OW35359   0.490   2.327   6.945 -0.0378 -0.3525  0.2513
 7966SOL    HW135360   0.546   2.310   6.870 -2.0334 -1.8466 -0.8825
 7966SOL    HW235361   0.522   2.412   6.977 -1.2664  0.2017  0.0077
 7967SOL     OW35362   4.709   1.476  10.342 -0.0224  0.2718 -0.3082
 7967SOL    HW135363   0.014   1.436  10.424 -0.5226 -0.6697 -0.5825
 7967SOL    HW235364   4.697   1.564  10.379 -0.0391  0.0287  0.2718
 7968SOL     OW35365   2.222   4.451   4.819  0.6652 -0.5013 -0.6725
 7968SOL    HW135366   2.233   4.498   4.902 -1.9687 -0.7613 -0.1984
 7968SOL    HW235367   2.283   4.380   4.838  1.0517  0.1361  0.4944
 7969SOL     OW35368   1.237   1.395   1.576  0.1534  0.0990 -0.7090
 7969SOL    HW135369   1.145   1.418   1.585  0.4955  0.0900  2.8026
 7969SOL    HW235370   1.293   1.462   1.537  0.9426 -0.4018 -0.4332
 7970SOL     OW35371   4.296   3.591   2.406 -0.3191 -0.7235 -0.2790
 7970SOL    HW135372   4.239   3.645   2.351 -0.9550 -1.2703 -0.1530
 7970SOL    HW235373   4.261   3.504   2.389  0.8558 -1.0572 -1.0407
 7971SOL     OW35374   0.522   3.187   3.758  0.3285 -0.5754 -0.1959
 7971SOL    HW135375   0.518   3.257   3.693  1.1909  0.4410  0.8306
 7971SOL    HW235376   0.564   3.117   3.708  0.8418 -0.3845 -0.0335
 7972SOL     OW35377   1.767   1.213   3.637 -0.0991  0.3459  0.2394
 7972SOL    HW135378   1.860   1.229   3.654  0.1387  0.2860 -1.0369
 7972SOL    HW235379   1.752   1.137   3.694  1.6308  1.6523  2.4485
 7973SOL     OW35380   2.382   2.418   6.357 -0.2790  0.3701 -0.6646
 7973SOL    HW135381   2.450   2.368   6.313 -0.1366 -1.1484  1.3150
 7973SOL    HW235382   2.363   2.385   6.444  0.4419 -0.3424 -0.7802
 7974SOL     OW35383   2.749   2.119  17.060 -0.0704 -0.1557 -0.0858
 7974SOL    HW135384   2.654   2.110  17.070  0.1459 -1.1325  1.1442
 7974SOL    HW235385   2.765   2.126  16.966 -1.0418 -0.7861 -0.2982
 7975SOL     OW35386   3.690   4.232   8.050 -0.1359  0.1240  0.7976
 7975SOL    HW135387   3.634   4.286   8.106  1.1092  0.4241  1.7722
 7975SOL    HW235388   3.751   4.201   8.117  0.0513 -2.8435 -0.7451
 7976SOL     OW35389   2.319   2.093   7.427 -0.3244 -0.2881 -0.2132
 7976SOL    HW135390   2.384   2.031   7.393  0.2611 -1.6448  3.3764
 7976SOL    HW235391   2.304   2.060   7.516  1.7275  0.4585  0.4119
 7977SOL     OW35392   1.093   2.266  17.389 -0.1461  0.0324  0.0103
 7977SOL    HW135393   1.157   2.332  17.414  2.2001 -0.7627 -3.9176
 7977SOL    HW235394   1.136   2.200  17.443  0.8997 -0.7268 -1.7487
 7978SOL     OW35395   0.136   0.646  12.529 -0.3551 -0.1065  0.1852
 7978SOL    HW135396   0.172   0.568  12.485 -0.5975 -0.5392  0.7545
 7978SOL    HW235397   0.208   0.708  12.530 -0.2368 -0.2663  1.2937
 7979SOL     OW35398   3.549   1.584  17.283 -0.2006 -0.4710 -0.8714
 7979SOL    HW135399   3.519   1.494  17.294 -3.4115  0.2620 -3.5362
 7979SOL    HW235400   3.495   1.598  17.205 -1.8766  1.2160  0.5978
 7980SOL     OW35401   4.006   2.326   3.717 -0.2733 -0.0268 -0.0859
 7980SOL    HW135402   4.035   2.338   3.807 -3.2404  2.9812  0.4763
 7980SOL    HW235403   4.089   2.344   3.674  0.7617 -2.5909  0.8796
 7981SOL     OW35404   2.408   0.546   3.343 -0.3079 -0.0263  0.0116
 7981SOL    HW135405   2.363   0.586   3.268  1.1917  2.1122  0.2568
 7981SOL    HW235406   2.411   0.456   3.310 -1.2437  0.2839 -0.9295
 7982SOL     OW35407   0.422   4.227   4.050  0.3473  0.0659 -0.1375
 7982SOL    HW135408   0.364   4.159   4.016 -1.7828  2.0529 -0.4374
 7982SOL    HW235409   0.460   4.270   3.974 -0.3901 -0.5798 -0.8652
 7983SOL     OW35410   0.518   1.728  13.347  0.7227  0.1214 -0.0125
 7983SOL    HW135411   0.486   1.818  13.348  0.4010  0.0343 -1.5289
 7983SOL    HW235412   0.532   1.713  13.440 -0.6574 -1.7373 -0.0918
 7984SOL     OW35413   0.806   2.419   4.779 -0.4223  0.2112 -0.0506
 7984SOL    HW135414   0.817   2.440   4.686 -0.5891 -2.2930 -0.6310
 7984SOL    HW235415   0.817   2.324   4.771  1.4437  0.1390  3.0918
 7985SOL     OW35416   0.794   1.506   8.211  0.3490 -0.5330  0.6198
 7985SOL    HW135417   0.776   1.424   8.256 -2.8137 -0.6118 -0.8162
 7985SOL    HW235418   0.781   1.473   8.122 -0.7290 -0.7310  0.8572
 7986SOL     OW35419   1.357   0.016   7.291  0.0912  0.2213  0.4203
 7986SOL    HW135420   1.366   0.057   7.204  0.8667  0.5575  0.6557
 7986SOL    HW235421   1.353   4.649   7.265 -0.2409  1.3588 -3.6592
 7987SOL     OW35422   0.813   4.057  15.006 -0.2196 -0.1663 -0.4282
 7987SOL    HW135423   0.863   3.977  15.024  0.5463  1.0434  2.8642
 7987SOL    HW235424   0.835   4.077  14.915  1.3401  4.1465  0.9190
 7988SOL     OW35425   1.174   0.135   2.948  0.1331  0.1888  0.4444
 7988SOL    HW135426   1.176   0.225   2.915 -1.1704 -0.9735 -2.8325
 7988SOL    HW235427   1.223   0.103   2.873  1.7071 -3.0224  2.8742
 7989SOL     OW35428   0.802   1.618   0.966 -0.5823  0.3571  0.0339
 7989SOL    HW135429   0.723   1.607   0.914 -1.3175 -1.1662  1.4636
 7989SOL    HW235430   0.783   1.576   1.051  0.3062 -1.2616 -0.5600
 7990SOL     OW35431   3.554   2.385  14.890 -0.0758 -0.3961 -0.0187
 7990SOL    HW135432   3.509   2.305  14.918  2.7190 -2.0982 -0.4342
 7990SOL    HW235433   3.530   2.368  14.799  2.0006 -2.3540 -0.2099
 7991SOL     OW35434   0.939   0.090   9.097  0.4664 -0.0055 -0.0782
 7991SOL    HW135435   0.985   0.132   9.025  2.3086 -0.9959  0.5046
 7991SOL    HW235436   0.878   0.160   9.122  0.9741  0.7351 -0.9346
 7992SOL     OW35437   1.350   1.827   0.478  0.5291  0.3048  0.7171
 7992SOL    HW135438   1.439   1.824   0.443 -0.0364 -3.2880 -0.4136
 7992SOL    HW235439   1.375   1.830   0.570  0.4971 -1.4009  0.7804
 7993SOL     OW35440   0.651   0.341   3.597 -0.1860 -0.2992 -0.2586
 7993SOL    HW135441   0.660   0.267   3.657  0.1701  1.4187  1.8249
 7993SOL    HW235442   0.599   0.312   3.522  0.2939 -1.2349 -0.2135
 7994SOL     OW35443   2.328   1.427   4.800  0.0452 -0.2625 -0.0826
 7994SOL    HW135444   2.421   1.407   4.816 -0.0569  0.0130  0.8530
 7994SOL    HW235445   2.311   1.406   4.708  1.0895  0.5685 -0.4676
 7995SOL     OW35446   1.294   3.942   3.787 -0.3677 -0.3911 -0.0378
 7995SOL    HW135447   1.381   3.965   3.755 -0.8398  0.9247 -0.3507
 7995SOL    HW235448   1.236   3.957   3.713  1.2547 -0.4769 -1.3342
 7996SOL     OW35449   3.080   2.545   4.269  0.1986  0.3850  0.0640
 7996SOL    HW135450   3.021   2.603   4.221  0.6519 -1.5993 -2.8995
 7996SOL    HW235451   3.168   2.575   4.246  1.3692 -1.0579  2.6340
 7997SOL     OW35452   1.581   3.095   9.220 -0.9921  0.1095  0.3530
 7997SOL    HW135453   1.612   3.009   9.193 -2.2565 -0.3271  0.3005
 7997SOL    HW235454   1.508   3.081   9.281  0.1325 -0.7285  1.5008
 7998SOL     OW35455   1.322   3.103   8.103  0.5565 -0.7552 -0.3067
 7998SOL    HW135456   1.281   3.158   8.036 -0.0060 -1.1999 -0.3194
 7998SOL    HW235457   1.309   3.157   8.181  1.0527  0.6348 -1.1839
 7999SOL     OW35458   0.573   3.361   7.103  0.0436  0.2015  0.2110
 7999SOL    HW135459   0.613   3.284   7.142  0.5916  0.8363  0.8898
 7999SOL    HW235460   0.618   3.367   7.019  2.5538  1.1322  1.6305
 8000SOL     OW35461   0.914   1.693   8.020 -0.0482 -0.5122  0.2251
 8000SOL    HW135462   0.980   1.744   8.066 -0.9676 -0.1797  1.1741
 8000SOL    HW235463   0.867   1.652   8.092 -0.0239  0.5571  0.8440
 8001SOL     OW35464   4.142   1.488   5.850  0.4902 -0.0845 -0.6356
 8001SOL    HW135465   4.140   1.444   5.765  0.8641  0.2361 -0.8098
 8001SOL    HW235466   4.155   1.579   5.823  0.9113 -0.0168 -0.1900
 8002SOL     OW35467   3.148   3.162  10.326 -0.1384 -0.1591  0.0033
 8002SOL    HW135468   3.071   3.145  10.378 -0.9401 -2.2187 -1.8569
 8002SOL    HW235469   3.128   3.254  10.307  0.9005 -0.6300 -3.4172
 8003SOL     OW35470   4.108   4.611   3.028 -0.3675  0.4722  0.2907
 8003SOL    HW135471   4.179   4.555   3.060 -1.6682 -0.8578  0.8441
 8003SOL    HW235472   4.113   4.581   2.938  1.0454  1.6887 -0.0382
 8004SOL     OW35473   3.085   3.995   2.669 -0.5005 -0.0033 -0.3180
 8004SOL    HW135474   3.081   3.986   2.574 -0.6831 -0.2978 -0.2812
 8004SOL    HW235475   3.044   4.082   2.674  1.3965  0.7197  2.3087
 8005SOL     OW35476   2.029   4.500   8.313 -0.2752  0.6033 -0.4475
 8005SOL    HW135477   2.000   4.478   8.402 -3.5842  1.6863 -1.2260
 8005SOL    HW235478   1.963   4.568   8.299  0.5090  1.3242 -0.6376
 8006SOL     OW35479   3.333   0.686   5.769 -0.5914  0.2567  0.0439
 8006SOL    HW135480   3.249   0.700   5.812 -0.2760  1.7113  0.1733
 8006SOL    HW235481   3.301   0.630   5.698  1.0434 -0.3041 -0.2704
 8007SOL     OW35482   3.691   1.896   7.431 -0.0078  0.4878 -0.3354
 8007SOL    HW135483   3.687   1.890   7.335  0.7731 -0.4786 -0.3101
 8007SOL    HW235484   3.785   1.913   7.436  0.3986 -2.1138  1.1991
 8008SOL     OW35485   1.997   2.550   2.896  0.0255  0.0309  0.3141
 8008SOL    HW135486   1.919   2.500   2.920 -0.7096  1.8287  1.6523
 8008SOL    HW235487   2.000   2.523   2.804  1.1558  0.9217  0.0862
 8009SOL     OW35488   4.330   3.452   0.058 -0.6132  0.0591  0.5026
 8009SOL    HW135489   4.258   3.464   0.121 -3.0721 -1.5394 -1.9637
 8009SOL    HW235490   4.282   3.482  17.683  0.4913  2.4038  0.7363
 8010SOL     OW35491   2.494   1.371   2.003  0.0117  0.1542  0.1619
 8010SOL    HW135492   2.468   1.446   1.950  0.0809 -0.3764 -0.6311
 8010SOL    HW235493   2.550   1.329   1.938  0.9081  1.4610  0.0976
 8011SOL     OW35494   1.819   3.102   8.793 -0.3558 -0.3800  0.5218
 8011SOL    HW135495   1.747   3.039   8.803 -3.1252  2.9270  1.0939
 8011SOL    HW235496   1.819   3.139   8.881 -0.0371  0.9378 -0.0414
 8012SOL     OW35497   2.909   3.863   1.171 -0.2339  0.2798  0.4086
 8012SOL    HW135498   2.916   3.769   1.187  0.7207  0.3529  0.4187
 8012SOL    HW235499   3.001   3.880   1.149 -1.0003  2.2693 -1.3247
 8013SOL     OW35500   4.539   3.127   4.785  0.1778 -0.7175  0.7305
 8013SOL    HW135501   4.613   3.101   4.731  0.6049 -1.5581  1.7493
 8013SOL    HW235502   4.526   3.219   4.760 -1.2275 -0.9091  0.7636
 8014SOL     OW35503   1.653   3.946   6.756 -0.0291 -0.5078  0.8732
 8014SOL    HW135504   1.572   3.894   6.757  0.0803 -0.6880  0.4542
 8014SOL    HW235505   1.687   3.928   6.843 -0.7729 -0.1621  1.2372
 8015SOL     OW35506   3.880   2.258   6.735 -0.3518 -0.2573 -0.3452
 8015SOL    HW135507   3.925   2.266   6.651  0.7583  3.8427  0.6320
 8015SOL    HW235508   3.896   2.165   6.750  1.7192 -0.2085 -2.3989
 8016SOL     OW35509   2.691   3.032   4.431  0.1531  0.8565 -0.2565
 8016SOL    HW135510   2.749   2.959   4.454 -0.7436  0.1198 -0.3179
 8016SOL    HW235511   2.615   2.986   4.395  3.7488 -3.1620 -2.6914
 8017SOL     OW35512   0.506   4.346   0.495  0.0299  0.4719 -0.0864
 8017SOL    HW135513   0.545   4.261   0.475  0.3769  0.5604  0.2076
 8017SOL    HW235514   0.468   4.328   0.580 -2.4459  2.4789 -0.7638
 8018SOL     OW35515   3.536   3.410   1.457 -0.5073 -0.3695 -0.1219
 8018SOL    HW135516   3.631   3.423   1.465 -0.4446  0.1905 -1.7403
 8018SOL    HW235517   3.518   3.412   1.363 -0.5925 -0.0458 -0.1012
 8019SOL     OW35518   3.862   3.674   2.244 -0.2125  0.4943  0.1412
 8019SOL    HW135519   3.820   3.760   2.235 -3.5181 -1.0386  0.9695
 8019SOL    HW235520   3.814   3.628   2.175 -2.5763  1.6894  0.9735
 8020SOL     OW35521   0.030   1.938   2.202 -0.0325 -0.2219  0.8648
 8020SOL    HW135522   0.110   1.945   2.150 -0.4361  0.8421  0.3917
 8020SOL    HW235523   0.055   1.886   2.278 -2.3867 -1.9091  0.4726
 8021SOL     OW35524   1.983   4.648   9.106 -0.1900 -0.0155 -0.1204
 8021SOL    HW135525   2.053   4.666   9.168 -0.2671 -1.8307  0.5025
 8021SOL    HW235526   2.028   4.602   9.035  1.1362 -0.6588  1.1320
 8022SOL     OW35527   4.579   4.218   3.956 -0.0545  0.0894  0.2874
 8022SOL    HW135528   4.633   4.295   3.939  0.5045  0.2487  2.7840
 8022SOL    HW235529   4.653   4.157   3.952  0.8308  1.2896 -1.4144
 8023SOL     OW35530   0.688   0.421   4.304  0.1817  0.1610  0.4952
 8023SOL    HW135531   0.682   0.508   4.345 -0.0897  0.0058  0.7869
 8023SOL    HW235532   0.603   0.417   4.260  0.2188 -2.2605  0.6240
 8024SOL     OW35533   3.980   3.778   4.564  0.1825 -0.3876  0.0589
 8024SOL    HW135534   3.988   3.848   4.500 -2.7683 -0.6420 -0.5859
 8024SOL    HW235535   4.047   3.719   4.529 -1.3264 -2.9054  1.3700
 8025SOL     OW35536   0.894   0.900   3.138 -0.1054 -0.2097  0.0881
 8025SOL    HW135537   0.813   0.857   3.165 -0.7828  1.1260  0.1799
 8025SOL    HW235538   0.869   0.960   3.067  3.1099  1.2135  0.1496
 8026SOL     OW35539   1.841   1.569   6.250  0.4691  0.3395 -0.3289
 8026SOL    HW135540   1.848   1.485   6.296 -2.5565 -0.5613 -1.5559
 8026SOL    HW235541   1.803   1.631   6.313  0.4962 -2.6158  2.6259
 8027SOL     OW35542   2.033   3.418   4.166 -0.7147 -0.0246  0.2665
 8027SOL    HW135543   2.127   3.401   4.168 -0.0242  3.4990 -1.4373
 8027SOL    HW235544   1.993   3.335   4.139  0.7748 -0.8056  0.4729
 8028SOL     OW35545   2.216   2.641  10.065 -0.1491  0.0312 -0.2249
 8028SOL    HW135546   2.301   2.597  10.075 -0.3029  0.4142  2.6212
 8028SOL    HW235547   2.226   2.705   9.994  0.9341  0.2068  0.0858
 8029SOL     OW35548   0.569   3.409   4.874  0.0425  0.3985  0.3489
 8029SOL    HW135549   0.597   3.431   4.785 -2.0327 -0.1283 -0.4405
 8029SOL    HW235550   0.587   3.490   4.921 -0.6751  0.9793 -0.3744
 8030SOL     OW35551   0.350   3.396   8.013 -0.5089 -0.2157 -0.7503
 8030SOL    HW135552   0.388   3.475   7.972  1.7940  0.1732  2.1086
 8030SOL    HW235553   0.314   3.426   8.096 -0.3704 -1.2658 -0.3102
 8031SOL     OW35554   4.158   3.428   6.705  0.1570  0.0130  0.2781
 8031SOL    HW135555   4.076   3.384   6.727  0.4243 -1.0549 -0.9110
 8031SOL    HW235556   4.155   3.513   6.751  0.4412  0.5155 -0.6323
 8032SOL     OW35557   1.427   4.272   6.356  0.1071  0.2841 -0.0939
 8032SOL    HW135558   1.450   4.344   6.298 -2.3990 -1.3657 -3.1569
 8032SOL    HW235559   1.497   4.208   6.344  0.0611 -0.0504  1.3956
 8033SOL     OW35560   3.696   0.169   3.842 -0.1819 -0.1796 -0.4825
 8033SOL    HW135561   3.791   0.182   3.848  0.0971 -1.7210 -1.7052
 8033SOL    HW235562   3.684   0.132   3.755  0.2477  1.3548 -1.1896
 8034SOL     OW35563   0.373   4.509  11.697  0.1332  0.2429  0.2898
 8034SOL    HW135564   0.454   4.517  11.647 -0.2380  2.6640  0.0876
 8034SOL    HW235565   0.397   4.454  11.772  0.9083  0.2173  0.0245
 8035SOL     OW35566   2.911   0.234   2.760 -0.4837 -0.6351  0.2592
 8035SOL    HW135567   2.973   0.290   2.808 -0.5563 -1.0812  0.8700
 8035SOL    HW235568   2.872   0.310   2.717  1.8801  0.8735  0.7547
 8036SOL     OW35569   3.274   3.651   9.012 -0.1101 -0.4483 -0.8236
 8036SOL    HW135570   3.234   3.675   8.928 -1.0578  1.1165  0.0648
 8036SOL    HW235571   3.198   3.652   9.070 -0.4179  0.5345 -1.2364
 8037SOL     OW35572   4.099   2.596   0.206 -0.0948 -0.1760  1.0654
 8037SOL    HW135573   4.108   2.503   0.183 -1.0924 -0.1143  0.4509
 8037SOL    HW235574   4.186   2.613   0.243  0.4957 -1.7024  0.3701
 8038SOL     OW35575   0.087   3.199   5.413 -0.5786  0.1587  0.0169
 8038SOL    HW135576   0.054   3.127   5.466  2.2615 -0.6822  0.6424
 8038SOL    HW235577   0.109   3.162   5.327 -0.7418  0.4982 -0.1733
 8039SOL     OW35578   2.367   3.142   9.740  0.5011  0.0827 -0.7524
 8039SOL    HW135579   2.345   3.202   9.670  1.3022 -0.4159 -1.4296
 8039SOL    HW235580   2.458   3.167   9.758  0.5887 -0.4761 -0.4205
 8040SOL     OW35581   0.464   4.179   6.455 -0.0852  1.1569 -0.2675
 8040SOL    HW135582   0.422   4.251   6.409 -0.4762  0.5483 -0.8599
 8040SOL    HW235583   0.529   4.148   6.393  0.6259 -0.9804  1.5310
 8041SOL     OW35584   3.735   3.005  12.359  0.3673  0.2455 -0.1846
 8041SOL    HW135585   3.828   3.000  12.340 -0.1969  0.2868 -3.0025
 8041SOL    HW235586   3.704   3.076  12.302  1.0373  1.2336  0.6616
 8042SOL     OW35587   0.059   4.523   8.320 -0.1253  0.3635  0.0909
 8042SOL    HW135588   0.120   4.452   8.302 -2.0192 -1.2124 -0.1955
 8042SOL    HW235589   0.053   4.510   8.415 -1.1952  0.0539 -0.0156
 8043SOL     OW35590   3.780   4.704   1.767 -0.4858  0.1997  0.2951
 8043SOL    HW135591   3.762   0.031   1.845 -1.3483 -0.7783  0.7479
 8043SOL    HW235592   3.835   4.638   1.808 -0.0274  0.7341  0.5503
 8044SOL     OW35593   1.508   2.335   5.194 -0.0667 -0.1333  0.1939
 8044SOL    HW135594   1.428   2.371   5.156 -1.1709 -1.1779  1.5214
 8044SOL    HW235595   1.480   2.249   5.225  0.7477  0.4457  2.5812
 8045SOL     OW35596   3.510   1.973   3.971 -0.1837  0.1952  0.2542
 8045SOL    HW135597   3.556   2.040   4.022  0.6626  1.0824 -1.7072
 8045SOL    HW235598   3.425   1.973   4.015  0.4998 -0.5108  1.5961
 8046SOL     OW35599   4.057   2.402   3.973  0.1298  0.0155  0.1510
 8046SOL    HW135600   4.145   2.437   3.988  0.8154 -2.8408  2.6459
 8046SOL    HW235601   4.051   2.315   4.011  0.3441  1.0199  2.4979
 8047SOL     OW35602   3.849   0.574   7.520  0.4643  0.2974  0.1979
 8047SOL    HW135603   3.885   0.494   7.558  0.3416  1.1894  2.1660
 8047SOL    HW235604   3.763   0.583   7.560  1.6153 -0.2868  2.7539
 8048SOL     OW35605   0.810   3.886   6.006  0.4123  0.1249  0.2374
 8048SOL    HW135606   0.718   3.882   5.981  0.1640  0.5765  1.0837
 8048SOL    HW235607   0.838   3.798   5.980  0.0684 -0.2980  1.3129
 8049SOL     OW35608   2.836   3.476   4.204 -0.2379  0.1124 -0.3687
 8049SOL    HW135609   2.925   3.449   4.179 -0.7620 -1.0305 -0.9905
 8049SOL    HW235610   2.808   3.385   4.209  0.4727  0.0148  1.7019
 8050SOL     OW35611   0.249   1.044   6.157  0.5397 -1.0041  0.2368
 8050SOL    HW135612   0.281   1.066   6.244  0.5143  3.3868 -0.8756
 8050SOL    HW235613   0.286   1.118   6.109 -1.0359 -3.2053 -4.3946
 8051SOL     OW35614   3.345   1.643   6.576 -0.7044  0.4723  0.6251
 8051SOL    HW135615   3.374   1.554   6.558  2.9517  1.7742  0.1869
 8051SOL    HW235616   3.259   1.636   6.619  1.0143 -3.5977  3.3048
 8052SOL     OW35617   2.708   1.722   3.005  0.3427  0.4524  0.1072
 8052SOL    HW135618   2.639   1.765   2.955 -2.6918  0.6699  4.4553
 8052SOL    HW235619   2.736   1.784   3.073  0.2103 -0.0754  0.6515
 8053SOL     OW35620   2.171   3.195  13.545  0.7051  0.3902  0.0299
 8053SOL    HW135621   2.265   3.182  13.536  0.8620  0.9488  0.9137
 8053SOL    HW235622   2.136   3.111  13.514 -0.1272  0.6308  0.3267
 8054SOL     OW35623   0.704   3.243   2.610  0.3529 -0.2215  0.1765
 8054SOL    HW135624   0.737   3.154   2.598 -2.7928 -1.6020  1.7324
 8054SOL    HW235625   0.614   3.231   2.579  0.6998  1.2172 -1.3570
 8055SOL     OW35626   2.747   4.147   6.756 -0.7941 -0.2842  0.7174
 8055SOL    HW135627   2.788   4.169   6.672  1.0525 -1.5584  1.2926
 8055SOL    HW235628   2.759   4.052   6.747 -0.8770 -0.2179 -0.1077
 8056SOL     OW35629   1.604   0.226   6.697 -0.1049 -0.2438  0.7036
 8056SOL    HW135630   1.690   0.229   6.654 -0.9269  3.8367 -0.7108
 8056SOL    HW235631   1.578   0.134   6.696 -1.8720  0.2556  0.3906
 8057SOL     OW35632   2.108   1.688   1.572  0.8059 -0.1222  0.7139
 8057SOL    HW135633   2.096   1.708   1.665  0.0703 -1.2378  0.8522
 8057SOL    HW235634   2.181   1.626   1.572  0.9979  0.1115 -1.2227
 8058SOL     OW35635   0.595   3.789   0.627  0.5396 -0.2316 -0.8565
 8058SOL    HW135636   0.548   3.736   0.562 -3.0692  3.5159 -1.3024
 8058SOL    HW235637   0.534   3.863   0.629 -0.5771 -1.1301 -1.3175
 8059SOL     OW35638   1.839   2.676   1.112  0.1445  0.0862  0.3224
 8059SOL    HW135639   1.831   2.658   1.018  0.5614  0.9170  0.1289
 8059SOL    HW235640   1.749   2.696   1.139  0.3772  1.6761 -0.0458
 8060SOL     OW35641   4.651   2.399   6.176  0.3873 -0.0996  0.4532
 8060SOL    HW135642   4.572   2.453   6.179  0.6389  0.2639  0.4366
 8060SOL    HW235643   4.708   2.451   6.232 -2.2865  1.4928  1.6961
 8061SOL     OW35644   4.552   4.473   8.134 -0.7259 -0.1373  0.1093
 8061SOL    HW135645   4.520   4.560   8.107 -0.2132  0.3303  1.0059
 8061SOL    HW235646   4.635   4.498   8.175  0.3164 -0.7734 -1.6313
 8062SOL     OW35647   2.286   2.917  10.283  0.2002 -0.7680 -0.3240
 8062SOL    HW135648   2.254   2.833  10.316 -1.0189  0.4184  1.5843
 8062SOL    HW235649   2.206   2.947  10.240  0.5873  0.7677  0.0295
 8063SOL     OW35650   2.497   3.574   3.841 -0.2669 -0.2891  0.3662
 8063SOL    HW135651   2.465   3.646   3.895 -1.4738 -0.8802  0.4442
 8063SOL    HW235652   2.419   3.520   3.857 -1.3758  1.1838 -0.0802
 8064SOL     OW35653   3.381   0.241  11.869  0.1917  0.4932 -0.2447
 8064SOL    HW135654   3.368   0.311  11.934  2.9643 -1.4088  2.3279
 8064SOL    HW235655   3.368   0.295  11.791 -2.1179 -3.1753 -2.3895
 8065SOL     OW35656   4.133   0.230   4.057  0.2239  0.2953 -0.5319
 8065SOL    HW135657   4.054   0.280   4.075  0.0812  0.1083 -0.6362
 8065SOL    HW235658   4.102   0.140   4.050 -1.7689  0.8270  1.4713
 8066SOL     OW35659   0.909   0.905  15.223  0.0872 -0.1886  0.1134
 8066SOL    HW135660   0.877   0.816  15.234 -0.0872 -0.3537 -1.7737
 8066SOL    HW235661   0.951   0.894  15.138  0.9570  0.1721  0.4856
 8067SOL     OW35662   1.895   3.935  13.281 -0.2523  0.1629  0.5766
 8067SOL    HW135663   1.906   3.845  13.250  1.6366  0.4760  0.3531
 8067SOL    HW235664   1.819   3.963  13.230  2.0211 -1.3374 -3.6300
 8068SOL     OW35665   4.615   1.547   3.893  0.8396 -0.1142  0.4177
 8068SOL    HW135666   4.597   1.640   3.879  0.6207  0.0639  1.9303
 8068SOL    HW235667   4.690   1.532   3.835  0.8123  1.0401  0.0948
 8069SOL     OW35668   2.197   3.893   7.480  0.7966  0.0962  0.4451
 8069SOL    HW135669   2.199   3.910   7.574 -0.9370 -1.1057  0.6986
 8069SOL    HW235670   2.284   3.928   7.463  1.0658  0.3752  2.4279
 8070SOL     OW35671   4.160   4.111   7.215  0.5943  0.2691  0.5825
 8070SOL    HW135672   4.230   4.117   7.281 -0.2571  0.1222  1.5109
 8070SOL    HW235673   4.206   4.101   7.132 -0.5513 -1.6353  0.1786
 8071SOL     OW35674   0.916   3.655   5.930  0.7091  0.1891  0.0740
 8071SOL    HW135675   0.978   3.584   5.911 -0.8890 -1.5671  1.4055
 8071SOL    HW235676   0.856   3.600   5.980  0.8376 -0.8070 -0.8708
 8072SOL     OW35677   4.262   2.077   5.388 -0.3481  0.7591  0.4260
 8072SOL    HW135678   4.192   2.082   5.452 -1.0937  1.0756 -0.4148
 8072SOL    HW235679   4.228   2.122   5.311 -0.4131 -0.1871 -0.1098
 8073SOL     OW35680   3.752   0.194  15.458 -0.2499  0.3117  0.5276
 8073SOL    HW135681   3.662   0.225  15.459 -0.3775  0.0186 -2.0292
 8073SOL    HW235682   3.746   0.145  15.540 -0.6488  0.6417  0.6974
 8074SOL     OW35683   1.145   0.862   2.737 -0.1480 -0.9015  0.3639
 8074SOL    HW135684   1.065   0.909   2.712  1.8820  2.6398  0.5776
 8074SOL    HW235685   1.212   0.925   2.709  0.4055 -1.4612  0.4350
 8075SOL     OW35686   0.926   3.110   6.385 -0.3169  0.2817  0.5094
 8075SOL    HW135687   1.013   3.146   6.366  0.2582 -0.8060  1.0856
 8075SOL    HW235688   0.931   3.030   6.334 -0.3372  0.6975 -0.1397
 8076SOL     OW35689   4.521   0.946   8.757  0.0122  0.6784 -0.1646
 8076SOL    HW135690   4.594   0.944   8.819 -0.2508  0.6076  0.1504
 8076SOL    HW235691   4.570   0.940   8.675 -1.5450 -0.5629 -1.0056
 8077SOL     OW35692   4.575   3.871   0.343  0.3486  0.0161  0.0753
 8077SOL    HW135693   4.649   3.817   0.368  0.8143  0.4303 -0.4123
 8077SOL    HW235694   4.611   3.958   0.322  0.8253  0.2979  2.0586
 8078SOL     OW35695   4.526   1.436  17.181  0.2660 -0.3679  0.5075
 8078SOL    HW135696   4.599   1.374  17.179  0.8939  0.3743  0.3328
 8078SOL    HW235697   4.455   1.374  17.197 -2.2461  1.6859 -2.8923
 8079SOL     OW35698   1.212   1.805   8.574  0.3036 -0.6376 -0.0052
 8079SOL    HW135699   1.298   1.840   8.598 -0.3665  0.0499  1.4015
 8079SOL    HW235700   1.231   1.804   8.480 -0.2993 -0.9728 -0.1222
 8080SOL     OW35701   3.851   3.011   3.731 -0.3427  0.6393  0.0095
 8080SOL    HW135702   3.827   3.086   3.677  0.7708 -0.0037 -1.3753
 8080SOL    HW235703   3.782   3.019   3.797  0.9612 -1.5244  1.6211
 8081SOL     OW35704   1.190   3.444   5.405  0.1497  0.2157  0.4958
 8081SOL    HW135705   1.248   3.517   5.422  0.8447  0.3419 -2.4210
 8081SOL    HW235706   1.207   3.426   5.313 -0.5847 -0.8699  0.5723
 8082SOL     OW35707   4.251   2.430   2.391  0.5279  0.4689  0.9397
 8082SOL    HW135708   4.159   2.406   2.377  0.7467  0.8181 -1.0362
 8082SOL    HW235709   4.255   2.424   2.487 -2.8615  0.0209  1.0716
 8083SOL     OW35710   3.135   3.025   3.080 -0.2184  0.3826  0.3091
 8083SOL    HW135711   3.047   3.061   3.082 -1.0003 -1.4611 -0.6014
 8083SOL    HW235712   3.166   3.019   2.990  0.8120  1.6835  0.5882
 8084SOL     OW35713   3.803   0.203  16.586 -0.0102  0.5371  0.2297
 8084SOL    HW135714   3.828   0.155  16.508 -2.8033 -1.9149  0.8560
 8084SOL    HW235715   3.831   0.142  16.654 -0.1729 -1.5123 -1.5688
 8085SOL     OW35716   1.198   4.001   5.476  0.0151  0.3469  0.0220
 8085SOL    HW135717   1.217   4.055   5.400  0.0242 -0.1215 -0.3076
 8085SOL    HW235718   1.130   3.943   5.441  0.5131 -1.9247  2.7726
 8086SOL     OW35719   0.053   1.855   5.080  0.2834 -0.0083 -0.0663
 8086SOL    HW135720   4.692   1.843   5.041 -0.9854  1.2812  2.4063
 8086SOL    HW235721   0.116   1.832   5.011 -1.6699 -0.1484 -1.8144
 8087SOL     OW35722   2.433   1.782   0.752 -0.4686  0.6537 -0.0909
 8087SOL    HW135723   2.451   1.875   0.738  1.8962  0.4250  1.3393
 8087SOL    HW235724   2.442   1.789   0.847 -0.2297  0.6781 -0.1142
 8088SOL     OW35725   3.371   3.029   8.668 -0.1274  0.0900 -0.3228
 8088SOL    HW135726   3.404   3.057   8.583 -0.4129 -1.4747 -0.9439
 8088SOL    HW235727   3.393   2.937   8.655 -0.1700  0.0573 -0.1642
 8089SOL     OW35728   2.082   2.702   6.005 -0.5451  0.4632  0.1713
 8089SOL    HW135729   2.031   2.747   5.937  0.4653  0.8898 -0.3006
 8089SOL    HW235730   2.165   2.685   5.960 -0.6513 -0.3316  0.2834
 8090SOL     OW35731   3.947   2.319  13.838 -0.4917 -0.0704 -0.1889
 8090SOL    HW135732   4.028   2.367  13.825  0.5389 -1.4044  1.3049
 8090SOL    HW235733   3.877   2.375  13.805  1.0819  2.1039  0.1883
 8091SOL     OW35734   1.585   4.639   6.630  0.3373  0.1316  0.0403
 8091SOL    HW135735   1.582   4.629   6.725  0.1990 -1.7357 -0.1542
 8091SOL    HW235736   1.654   4.578   6.606  0.1090  0.0510 -0.4120
 8092SOL     OW35737   4.556   4.021   5.763  0.2829  0.3690  0.3781
 8092SOL    HW135738   4.575   4.095   5.706  0.1196  0.5438  0.5515
 8092SOL    HW235739   4.613   3.957   5.720  1.3819  1.6863 -0.1065
 8093SOL     OW35740   2.673   3.151  11.301 -0.4391 -0.3374  0.0748
 8093SOL    HW135741   2.673   3.108  11.386 -2.6281 -1.1412 -0.3069
 8093SOL    HW235742   2.677   3.242  11.329 -0.5967  0.2989 -1.9974
 8094SOL     OW35743   1.182   1.333  11.922 -0.2352  0.3106  0.1598
 8094SOL    HW135744   1.125   1.265  11.885  1.4287 -1.6158  1.1021
 8094SOL    HW235745   1.136   1.351  12.004  0.3521  0.7051  0.4004
 8095SOL     OW35746   3.637   3.568  12.998 -0.1060 -0.2208 -0.0850
 8095SOL    HW135747   3.651   3.655  12.959  0.2012  0.4598  1.5582
 8095SOL    HW235748   3.719   3.566  13.048 -0.3721  3.1067  0.4792
 8096SOL     OW35749   1.506   1.386   4.133  0.2265 -0.3410 -0.4132
 8096SOL    HW135750   1.552   1.428   4.061 -3.5525  3.2201 -0.7099
 8096SOL    HW235751   1.583   1.338   4.165 -0.4109  0.1316  1.8706
 8097SOL     OW35752   1.379   1.389   2.420  0.7568 -0.7463  0.2102
 8097SOL    HW135753   1.297   1.349   2.451  0.1491 -1.2643 -2.0538
 8097SOL    HW235754   1.426   1.394   2.503 -0.2735  0.8692  0.6954
 8098SOL     OW35755   3.933   0.301   8.839  0.0679  0.4553  0.0591
 8098SOL    HW135756   3.979   0.246   8.901  0.0696 -0.1120 -0.4479
 8098SOL    HW235757   3.948   0.387   8.880 -1.9180  0.1229  1.4830
 8099SOL     OW35758   3.085   0.451  10.580 -0.1598  0.7274  0.0480
 8099SOL    HW135759   3.161   0.438  10.524 -0.5667 -1.4635  0.0203
 8099SOL    HW235760   3.099   0.413  10.667  0.3148 -0.9954 -0.7878
 8100SOL     OW35761   4.313   3.586   7.236 -0.5288  0.0750  0.0177
 8100SOL    HW135762   4.377   3.536   7.286 -0.1439  1.0311  0.4801
 8100SOL    HW235763   4.271   3.636   7.306 -1.2295 -0.1814 -0.2115
 8101SOL     OW35764   2.940   1.646  10.180  0.4294 -0.1716  0.1311
 8101SOL    HW135765   2.860   1.594  10.172  0.6780 -0.6454  0.8547
 8101SOL    HW235766   2.996   1.589  10.232  0.7405  0.6613  0.7174
 8102SOL     OW35767   3.787   3.921   7.635  0.0637 -0.0491  0.2650
 8102SOL    HW135768   3.758   3.971   7.712 -0.3662 -1.7574  1.2035
 8102SOL    HW235769   3.807   3.991   7.572 -2.6458 -0.5294 -1.1226
 8103SOL     OW35770   1.801   4.190  11.179  0.5457 -0.3872  0.1998
 8103SOL    HW135771   1.828   4.112  11.131  0.2374 -0.4537  0.1369
 8103SOL    HW235772   1.829   4.259  11.118  0.2273 -1.3442 -1.0363
 8104SOL     OW35773   3.893   3.016   3.317 -0.0289 -0.0476 -0.1426
 8104SOL    HW135774   3.905   2.937   3.370  0.5773 -0.7911 -1.3820
 8104SOL    HW235775   3.980   3.029   3.281 -0.9278  2.4917 -1.4351
 8105SOL     OW35776   1.610   4.592   2.918 -0.2241 -0.2517  0.1712
 8105SOL    HW135777   1.547   4.534   2.875 -2.5138  0.1776  2.9373
 8105SOL    HW235778   1.565   4.598   3.003 -1.5681 -0.2004 -0.5401
 8106SOL     OW35779   3.473   3.968   6.074 -0.5530 -0.4786  0.2040
 8106SOL    HW135780   3.518   3.988   5.992 -0.9322 -0.6000 -0.0370
 8106SOL    HW235781   3.382   3.969   6.045 -0.8248 -0.4331  1.0802
 8107SOL     OW35782   3.260   1.038  10.406  0.2440  0.2849  0.3510
 8107SOL    HW135783   3.336   1.009  10.457  2.4518 -0.9159 -3.5951
 8107SOL    HW235784   3.304   1.075  10.329 -2.8099  3.1648  0.0101
 8108SOL     OW35785   1.115   4.408  15.938 -0.3341  0.2369 -0.3654
 8108SOL    HW135786   1.172   4.339  15.905  0.9239  0.8028  0.6420
 8108SOL    HW235787   1.132   4.408  16.032 -0.1558 -0.0101 -0.3991
 8109SOL     OW35788   2.867   0.684   2.660  0.4962  0.5024  0.9168
 8109SOL    HW135789   2.879   0.696   2.754  3.7058 -1.6547  0.7897
 8109SOL    HW235790   2.903   0.767   2.628 -1.5395  0.2541 -1.9321
 8110SOL     OW35791   0.262   4.464   3.177  0.2540  0.4472 -0.3225
 8110SOL    HW135792   0.173   4.427   3.175  0.0150  1.1347 -2.5009
 8110SOL    HW235793   0.293   4.412   3.251 -0.4820  0.9004  0.3107
 8111SOL     OW35794   3.379   1.800   3.363 -0.4648 -0.0771  0.0910
 8111SOL    HW135795   3.368   1.782   3.270 -0.4128  0.4164 -0.0092
 8111SOL    HW235796   3.314   1.741   3.403 -0.7779  0.2385  0.0482
 8112SOL     OW35797   2.538   2.423  13.396 -0.3393  0.2068 -0.1721
 8112SOL    HW135798   2.606   2.383  13.450 -0.3262 -2.4058 -2.0666
 8112SOL    HW235799   2.541   2.377  13.311  1.3955  1.9488 -1.0424
 8113SOL     OW35800   0.256   2.972   7.511  0.5363  0.0720  0.3149
 8113SOL    HW135801   0.294   2.889   7.540  0.7458  0.1523  0.2712
 8113SOL    HW235802   0.318   2.997   7.442 -0.6676  0.3212 -0.6772
 8114SOL     OW35803   1.770   2.463  11.909 -0.2448  0.0444 -0.0614
 8114SOL    HW135804   1.681   2.426  11.912  0.1802 -1.0023 -0.2044
 8114SOL    HW235805   1.775   2.529  11.977  0.1273 -0.2441  0.1881
 8115SOL     OW35806   0.684   4.654   4.337 -0.3427 -0.0841  0.6466
 8115SOL    HW135807   0.705   4.644   4.244 -2.0819  0.7403  0.1593
 8115SOL    HW235808   0.774   4.664   4.369 -0.3087  0.7696  0.2850
 8116SOL     OW35809   1.756   1.789  14.473  0.4519 -0.4827  0.1113
 8116SOL    HW135810   1.703   1.856  14.430  1.2392  0.0842  0.0328
 8116SOL    HW235811   1.819   1.854  14.502 -0.0158 -0.7210  1.6354
 8117SOL     OW35812   4.295   3.482   6.995  0.1760 -0.4820 -0.6620
 8117SOL    HW135813   4.304   3.531   7.077 -0.9501 -1.6903  0.1673
 8117SOL    HW235814   4.244   3.554   6.958 -0.8462 -0.4004  0.9080
 8118SOL     OW35815   3.302   3.509   8.253 -0.3471  0.2651  0.5907
 8118SOL    HW135816   3.214   3.529   8.285 -0.3366 -1.4482  1.6815
 8118SOL    HW235817   3.296   3.413   8.258  0.2045  0.2201  0.4251
 8119SOL     OW35818   2.571   0.950   3.420 -0.3332 -0.5106  0.2541
 8119SOL    HW135819   2.503   0.893   3.456 -1.6397  1.1534  0.4109
 8119SOL    HW235820   2.637   0.882   3.406 -0.9222 -0.9039 -0.6121
 8120SOL     OW35821   2.451   1.003   7.441  0.4878 -0.0001 -0.2221
 8120SOL    HW135822   2.497   1.024   7.522 -0.2434  0.3705  0.1014
 8120SOL    HW235823   2.372   1.057   7.450  2.0169  2.4243 -1.3633
 8121SOL     OW35824   2.640   3.999   3.287  0.7752  0.3160 -0.4984
 8121SOL    HW135825   2.658   4.091   3.309 -0.7713  0.3444  0.7016
 8121SOL    HW235826   2.663   3.966   3.374  1.7323  3.0659  0.2948
 8122SOL     OW35827   3.475   3.742  11.735  0.2925 -0.1162  0.1165
 8122SOL    HW135828   3.456   3.703  11.650  0.7699 -1.4011  0.6126
 8122SOL    HW235829   3.568   3.723  11.737  0.2379 -0.3282  0.7341
 8123SOL     OW35830   0.426   3.615   5.732 -0.0052 -0.1558 -0.1793
 8123SOL    HW135831   0.417   3.649   5.821  4.7482 -1.3198  0.7860
 8123SOL    HW235832   0.508   3.564   5.734 -0.2433 -0.5718 -1.3098
 8124SOL     OW35833   4.138   2.514   4.371  0.0741  0.7186  0.2997
 8124SOL    HW135834   4.051   2.510   4.410  0.8391 -0.6688  1.9091
 8124SOL    HW235835   4.144   2.607   4.353 -0.0840  0.4202 -1.3165
 8125SOL     OW35836   3.412   0.054   4.631  0.1066  0.7921 -0.0908
 8125SOL    HW135837   3.459   0.037   4.713  2.8844  0.8792 -1.6447
 8125SOL    HW235838   3.423   0.149   4.624 -1.4019  0.8966 -0.9704
 8126SOL     OW35839   4.212   2.371   1.483 -0.3966  0.4574 -0.1979
 8126SOL    HW135840   4.243   2.280   1.485  1.6762  1.1249 -2.2119
 8126SOL    HW235841   4.296   2.415   1.490 -0.7134  0.6775  2.1173
 8127SOL     OW35842   2.205   4.566   8.912 -0.2285  0.4813 -0.1494
 8127SOL    HW135843   2.179   4.650   8.875  1.0663 -0.0630 -2.2819
 8127SOL    HW235844   2.255   4.523   8.843  0.3873  1.7530 -0.4958
 8128SOL     OW35845   3.511   1.675   7.468  0.5433  0.0682  0.6618
 8128SOL    HW135846   3.421   1.707   7.471  0.0779 -0.8930 -2.9546
 8128SOL    HW235847   3.558   1.757   7.453  1.2394 -0.7710 -1.6835
 8129SOL     OW35848   4.106   1.330   2.073 -0.1010  0.4711  0.5573
 8129SOL    HW135849   4.080   1.332   2.165 -1.3983 -0.3541  0.2108
 8129SOL    HW235850   4.201   1.329   2.089 -0.0905 -0.3113  0.4427
 8130SOL     OW35851   4.542   1.110  10.991  0.0313  0.0621  0.1664
 8130SOL    HW135852   4.623   1.153  11.017 -0.1762 -0.2835  1.3811
 8130SOL    HW235853   4.584   1.027  10.970  0.2507  0.2102  0.0249
 8131SOL     OW35854   0.061   4.295  16.543  0.0684  0.5616  0.7806
 8131SOL    HW135855   0.117   4.365  16.576  0.6379  0.5504 -0.1559
 8131SOL    HW235856   0.075   4.240  16.620  1.0678 -2.5803 -1.6164
 8132SOL     OW35857   1.315   2.358   0.445 -0.5711 -0.4008  0.5716
 8132SOL    HW135858   1.257   2.343   0.370 -0.4962  1.0060  0.2412
 8132SOL    HW235859   1.259   2.402   0.509 -0.5360 -0.2008  0.4624
 8133SOL     OW35860   2.518   0.029   6.612  0.0155  0.2962  1.2166
 8133SOL    HW135861   2.430   4.725   6.637 -0.3643  0.6251  0.2492
 8133SOL    HW235862   2.490   0.107   6.565 -0.6975 -0.9761 -0.4793
 8134SOL     OW35863   0.131   3.809   9.040 -0.0368  0.0013 -0.1135
 8134SOL    HW135864   0.192   3.758   9.094  0.5343  0.4099 -0.3792
 8134SOL    HW235865   0.173   3.894   9.034 -1.7425  1.0608  2.8787
 8135SOL     OW35866   3.893   0.214   4.356  0.1148 -0.1610  1.0330
 8135SOL    HW135867   3.966   0.248   4.407  0.8110 -0.4568  0.2445
 8135SOL    HW235868   3.894   0.282   4.289 -1.2756 -0.4103  0.7554
 8136SOL     OW35869   0.480   0.540   0.113 -0.0427  0.5952  0.0770
 8136SOL    HW135870   0.561   0.489   0.113 -0.2972  0.1873 -3.4157
 8136SOL    HW235871   0.520   0.625   0.131  2.2803 -0.5648  0.4513
 8137SOL     OW35872   0.669   0.414  10.609  0.1689 -0.4122 -0.2125
 8137SOL    HW135873   0.655   0.485  10.671 -0.4748 -1.0222  0.3434
 8137SOL    HW235874   0.648   0.458  10.526  1.7563 -0.9037 -0.8937
 8138SOL     OW35875   1.936   2.803  17.539 -0.9605  0.0527  0.0034
 8138SOL    HW135876   1.905   2.713  17.543 -1.5424  0.2493 -0.0587
 8138SOL    HW235877   2.024   2.789  17.576 -0.7520  0.4616 -0.3343
 8139SOL     OW35878   2.630   1.902   5.959 -0.2425  0.0778 -0.3466
 8139SOL    HW135879   2.627   1.992   5.929 -0.1005 -1.2370 -4.3227
 8139SOL    HW235880   2.539   1.874   5.947 -0.5965  1.2382 -0.3539
 8140SOL     OW35881   4.401   4.400  17.602 -0.1706 -0.0148 -0.3634
 8140SOL    HW135882   4.480   4.446  17.574  0.6326  0.1257  2.1418
 8140SOL    HW235883   4.435   4.311  17.619  2.3308  1.1117  0.5643
 8141SOL     OW35884   3.242   4.622   4.481  0.5203 -0.2492  0.0355
 8141SOL    HW135885   3.252   4.566   4.559  1.7914  0.4385  0.3641
 8141SOL    HW235886   3.281   4.702   4.517  1.5086 -0.1275 -1.3413
 8142SOL     OW35887   3.002   3.753   5.155  0.2971  0.3141  0.0078
 8142SOL    HW135888   3.019   3.848   5.156 -0.6129  0.5002 -2.3225
 8142SOL    HW235889   2.941   3.738   5.226  1.6270  4.1662  1.9910
 8143SOL     OW35890   2.732   3.917  17.653 -0.4922 -0.3162  0.3002
 8143SOL    HW135891   2.662   3.887  17.594  0.9147  0.7653 -1.9273
 8143SOL    HW235892   2.748   3.835  17.700  1.7087  0.6371  1.2133
 8144SOL     OW35893   3.954   3.878   1.098  0.3969  0.3903  0.5268
 8144SOL    HW135894   4.024   3.932   1.134  0.4092  0.1042  0.9190
 8144SOL    HW235895   3.892   3.936   1.053 -0.1274 -0.6333 -0.0624
 8145SOL     OW35896   1.573   1.396  17.666 -0.0760 -0.2379  0.7094
 8145SOL    HW135897   1.556   1.477   0.011  2.8536  1.1365 -0.6053
 8145SOL    HW235898   1.610   1.342   0.034 -1.3075  0.8015  2.1465
 8146SOL     OW35899   2.739   4.075   5.941  0.1979  0.2803  0.4897
 8146SOL    HW135900   2.691   4.029   5.873  1.2294 -0.2425  0.1194
 8146SOL    HW235901   2.799   4.129   5.890  2.1965 -3.4010 -1.0406
 8147SOL     OW35902   3.975   3.006   2.777  0.2255  0.3717 -0.0380
 8147SOL    HW135903   3.885   3.017   2.747 -0.3982 -2.2326  0.8529
 8147SOL    HW235904   4.023   3.006   2.694 -0.3107  0.7714 -0.3458
 8148SOL     OW35905   0.876   1.630   5.840  0.0780  0.1465 -0.0549
 8148SOL    HW135906   0.964   1.619   5.878 -0.0287  1.2863  0.5286
 8148SOL    HW235907   0.817   1.583   5.898  1.2585 -0.0403  0.9981
 8149SOL     OW35908   3.031   2.109  16.520 -0.4270 -0.5179 -0.0823
 8149SOL    HW135909   3.032   2.200  16.491 -1.6837 -0.3038  0.5255
 8149SOL    HW235910   3.091   2.108  16.595  0.0296  1.1922 -0.4342
 8150SOL     OW35911   2.829   3.901  13.762  0.3023  0.1965  0.3161
 8150SOL    HW135912   2.792   3.903  13.850  0.1040  0.2188  0.2314
 8150SOL    HW235913   2.899   3.840  13.786  0.4290  0.1933 -0.0658
 8151SOL     OW35914   1.492   1.206   3.570  0.0577 -0.4102 -0.1059
 8151SOL    HW135915   1.585   1.191   3.588  0.0284 -0.3557  0.0994
 8151SOL    HW235916   1.485   1.155   3.490  0.1712 -1.3712  0.5026
 8152SOL     OW35917   3.069   0.666   0.486 -0.5095  0.4971 -0.1681
 8152SOL    HW135918   3.138   0.725   0.456 -0.4692 -0.0224 -1.0978
 8152SOL    HW235919   3.011   0.727   0.531 -1.3208 -0.8078  0.5725
 8153SOL     OW35920   0.554   4.019   5.130  0.0698 -0.1466 -0.6630
 8153SOL    HW135921   0.576   3.951   5.066 -1.7596 -0.1981 -1.2323
 8153SOL    HW235922   0.635   4.067   5.145 -0.8102 -0.0648  4.0551
 8154SOL     OW35923   4.118   2.682  16.921  0.2242  0.0933  0.0767
 8154SOL    HW135924   4.117   2.713  17.012  0.1082  1.9797 -0.5763
 8154SOL    HW235925   4.099   2.589  16.933 -0.8674  0.4256  0.8640
 8155SOL     OW35926   3.032   2.054  14.310 -0.0469  0.4245 -0.4094
 8155SOL    HW135927   3.061   2.116  14.243 -3.1747  2.9595  0.6078
 8155SOL    HW235928   2.941   2.035  14.287 -0.0812  2.3723 -1.8533
 8156SOL     OW35929   2.615   1.920   2.750 -0.5517 -0.2030  0.2731
 8156SOL    HW135930   2.623   2.015   2.749  0.4529 -0.2931  0.2560
 8156SOL    HW235931   2.536   1.905   2.802 -0.3261 -3.6433 -0.3859
 8157SOL     OW35932   0.040   2.059  14.155  0.2084 -0.1532  0.8022
 8157SOL    HW135933   4.696   1.994  14.163 -0.5872  0.6299  0.2455
 8157SOL    HW235934   0.036   2.103  14.240  1.5798 -1.1477  1.3956
 8158SOL     OW35935   0.356   3.815   8.645  0.1287 -0.0189  0.0047
 8158SOL    HW135936   0.392   3.728   8.628  1.6415  0.3992  1.0797
 8158SOL    HW235937   0.411   3.835   8.721  1.7906  0.1683 -1.2448
 8159SOL     OW35938   4.331   0.876   8.037 -0.2287 -0.1545 -0.2980
 8159SOL    HW135939   4.288   0.922   8.109 -0.8241 -3.2845  1.3611
 8159SOL    HW235940   4.404   0.928   8.003 -0.4317 -0.4348 -1.1755
 8160SOL     OW35941   2.755   0.384  10.895 -0.4479  0.3567 -0.3207
 8160SOL    HW135942   2.669   0.345  10.882  1.4408 -3.9624  0.3683
 8160SOL    HW235943   2.761   0.443  10.819  1.8756  0.8012  0.1980
 8161SOL     OW35944   3.845   2.027   2.777  0.0812  0.0677 -0.1693
 8161SOL    HW135945   3.805   1.962   2.719  0.6188 -0.8446  0.4890
 8161SOL    HW235946   3.773   2.033   2.839  1.2781  0.7596  1.1484
 8162SOL     OW35947   2.442   4.084   2.163  0.1426  0.1271 -0.0200
 8162SOL    HW135948   2.526   4.060   2.124  0.2205  0.7244 -0.2207
 8162SOL    HW235949   2.469   4.146   2.231  0.2524  1.0904 -0.9406
 8163SOL     OW35950   0.324   0.421   1.805 -0.2895 -0.6412  0.0749
 8163SOL    HW135951   0.303   0.435   1.713 -0.2363  1.4583  0.3721
 8163SOL    HW235952   0.395   0.483   1.823 -0.5849 -0.5157  0.8285
 8164SOL     OW35953   2.687   0.734   7.687  0.3139  0.6050  0.2928
 8164SOL    HW135954   2.684   0.716   7.781  0.3746  1.1316  0.3968
 8164SOL    HW235955   2.696   0.829   7.686  2.4763  0.3946  1.9513
 8165SOL     OW35956   0.553   3.033   5.206 -0.0073 -0.3335 -0.5933
 8165SOL    HW135957   0.484   3.054   5.144 -0.5715 -2.4429 -0.6743
 8165SOL    HW235958   0.550   2.937   5.208 -1.3745 -0.2401  1.2508
 8166SOL     OW35959   1.604   0.057   6.174 -0.2361 -0.1256 -0.3236
 8166SOL    HW135960   1.587   0.008   6.093 -0.8264 -1.6861  0.7411
 8166SOL    HW235961   1.678   0.114   6.153 -0.4214  0.0290 -0.5518
 8167SOL     OW35962   4.444   2.004   6.680  0.4924 -0.0790 -0.3838
 8167SOL    HW135963   4.354   2.023   6.652 -0.2277 -1.2621  1.1163
 8167SOL    HW235964   4.500   2.067   6.635 -0.7570 -0.2159 -2.1606
 8168SOL     OW35965   4.430   0.890   1.944  0.4517 -0.2996  0.2593
 8168SOL    HW135966   4.525   0.876   1.948  0.7947  1.7131 -0.6717
 8168SOL    HW235967   4.394   0.845   2.020 -3.2868  2.3714  0.0722
 8169SOL     OW35968   2.633   0.010   5.334 -0.7474  0.4143 -0.2840
 8169SOL    HW135969   2.667   0.088   5.378 -1.9689 -0.4579  2.1578
 8169SOL    HW235970   2.543   0.038   5.316 -0.7136  0.0254 -1.1033
 8170SOL     OW35971   3.778   0.425   2.023  0.4059  0.0790 -0.1537
 8170SOL    HW135972   3.780   0.488   1.951  2.9986 -1.0057 -1.0521
 8170SOL    HW235973   3.687   0.439   2.049  0.8499  0.5811  1.1620
 8171SOL     OW35974   0.835   2.508   3.295  0.5004 -0.1605  0.2277
 8171SOL    HW135975   0.925   2.504   3.263  0.7487 -0.5053  0.9694
 8171SOL    HW235976   0.834   2.592   3.341  0.2429 -0.0851  0.0873
 8172SOL     OW35977   3.275   0.904   5.157 -0.2877 -0.5574  0.9717
 8172SOL    HW135978   3.367   0.904   5.131 -0.0972 -0.4390  1.6417
 8172SOL    HW235979   3.277   0.933   5.249  2.0699  1.6849  0.2157
 8173SOL     OW35980   3.704   0.910   3.870 -0.4509  0.0478  0.0148
 8173SOL    HW135981   3.784   0.859   3.881 -0.2805 -0.2849 -2.6819
 8173SOL    HW235982   3.675   0.870   3.788  1.6107  1.1757 -1.2682
 8174SOL     OW35983   3.385   2.895  17.645  0.0782  0.4173  0.5140
 8174SOL    HW135984   3.445   2.878   0.015  0.8187  1.2054  0.0940
 8174SOL    HW235985   3.431   2.968  17.602  0.0848 -0.0846 -0.3379
 8175SOL     OW35986   0.446   1.079   8.008 -0.0042 -0.3193 -0.4346
 8175SOL    HW135987   0.427   1.052   8.097 -0.1300 -0.0102 -0.3683
 8175SOL    HW235988   0.434   1.001   7.954  1.0699  0.7740 -2.2815
 8176SOL     OW35989   0.573   2.536   2.471 -0.3170 -0.1257  0.4621
 8176SOL    HW135990   0.620   2.618   2.486  1.1407 -1.1525  1.3950
 8176SOL    HW235991   0.485   2.564   2.495 -1.1418 -2.3188  0.0356
 8177SOL     OW35992   2.388   3.654   9.688  0.1744  0.0786  0.3849
 8177SOL    HW135993   2.469   3.633   9.733  1.0180 -0.5829 -1.4588
 8177SOL    HW235994   2.327   3.668   9.760 -1.0783 -2.1119 -0.2357
 8178SOL     OW35995   0.346   2.567   3.725  0.1056  0.8009 -0.3908
 8178SOL    HW135996   0.326   2.614   3.644  3.0016  3.3824  0.3826
 8178SOL    HW235997   0.426   2.519   3.703 -0.7626 -0.3357 -1.0922
 8179SOL     OW35998   2.056   0.532  11.530 -0.6452 -0.2942 -0.1454
 8179SOL    HW135999   2.053   0.592  11.605  0.1173  0.2999 -0.5999
 8179SOL    HW236000   1.964   0.527  11.502 -0.4502 -1.4501 -0.5459
 8180SOL     OW36001   3.480   2.651   7.066 -0.0966 -0.8676 -0.4600
 8180SOL    HW136002   3.563   2.664   7.111 -0.4974 -1.0201  0.3279
 8180SOL    HW236003   3.522   2.619   6.986  1.9215 -0.4361  0.4426
 8181SOL     OW36004   3.961   0.765  16.368  0.0989 -1.0041 -0.6646
 8181SOL    HW136005   4.003   0.681  16.389 -2.1938 -2.1674 -0.7129
 8181SOL    HW236006   4.005   0.827  16.426  1.8001 -1.9063 -0.9958
 8182SOL     OW36007   2.608   0.943   9.272 -0.3338 -0.6643 -0.0679
 8182SOL    HW136008   2.649   1.014   9.222  0.4088 -1.2104 -0.2349
 8182SOL    HW236009   2.593   0.880   9.202 -2.0949 -1.0313  0.6350
 8183SOL     OW36010   3.800   3.312   4.658 -0.2352  0.5173  0.4034
 8183SOL    HW136011   3.831   3.377   4.721 -0.0250 -1.1691  2.0393
 8183SOL    HW236012   3.772   3.242   4.718 -1.0347  0.2433 -0.2793
 8184SOL     OW36013   2.619   2.678   3.260 -0.1455  0.0782 -0.1404
 8184SOL    HW136014   2.699   2.726   3.238  0.5249 -1.7686 -1.6553
 8184SOL    HW236015   2.615   2.612   3.191 -1.2972  0.4788 -0.4561
 8185SOL     OW36016   1.722   3.726   5.578  0.0216  0.1675  1.1696
 8185SOL    HW136017   1.643   3.770   5.611  0.8455  1.4430  1.4261
 8185SOL    HW236018   1.748   3.792   5.514 -0.9951  1.5272  2.1610
 8186SOL     OW36019   2.449   4.136   1.822  0.2044  0.7603  0.0166
 8186SOL    HW136020   2.516   4.103   1.882 -0.4299  0.9160  0.8187
 8186SOL    HW236021   2.412   4.205   1.878 -0.2005  0.0808  0.5814
 8187SOL     OW36022   3.188   2.957   7.235  1.1963  0.1824 -0.0474
 8187SOL    HW136023   3.221   3.033   7.282 -0.9431  1.5646 -0.7601
 8187SOL    HW236024   3.256   2.948   7.169  2.1118  1.3659  0.7522
 8188SOL     OW36025   4.327   1.531  12.987 -0.0137 -0.7749  0.0113
 8188SOL    HW136026   4.277   1.464  12.940  2.0224 -1.6112 -0.9721
 8188SOL    HW236027   4.319   1.495  13.075  1.5958  1.6930  1.1608
 8189SOL     OW36028   4.449   1.518   7.295 -0.1507 -0.0378 -0.4417
 8189SOL    HW136029   4.473   1.542   7.206 -0.2232  2.6182  0.2631
 8189SOL    HW236030   4.512   1.564   7.350 -1.5060  1.9769 -0.5647
 8190SOL     OW36031   2.686   2.590   3.703 -0.3267  0.1198 -0.0101
 8190SOL    HW136032   2.690   2.682   3.729  0.2185  0.9215 -2.9247
 8190SOL    HW236033   2.630   2.591   3.625 -1.5362 -0.0179  0.8562
 8191SOL     OW36034   0.343   0.153   8.491 -0.0145  0.5253 -0.2004
 8191SOL    HW136035   0.253   0.147   8.521 -0.0912 -1.7211 -0.8943
 8191SOL    HW236036   0.352   0.248   8.483  0.7948  0.5450  1.0525
 8192SOL     OW36037   0.612   1.620  10.885 -0.0980  0.4469 -0.0743
 8192SOL    HW136038   0.668   1.631  10.808  0.8280  1.0100  0.6854
 8192SOL    HW236039   0.637   1.529  10.903 -0.0267  0.2386 -1.2117
 8193SOL     OW36040   4.119   3.771   2.301 -0.2705  0.3308 -0.3814
 8193SOL    HW136041   4.123   3.775   2.205  0.0098  1.5068 -0.3201
 8193SOL    HW236042   4.034   3.727   2.306 -0.0956  0.1798  1.2256
 8194SOL     OW36043   2.440   3.923   3.120 -0.2328 -0.0905  0.0764
 8194SOL    HW136044   2.417   4.010   3.088 -1.5862 -0.6894 -0.5481
 8194SOL    HW236045   2.508   3.932   3.187  1.5242 -1.2562 -1.5539
 8195SOL     OW36046   2.129   4.139   6.584 -0.1133 -0.0611 -0.2898
 8195SOL    HW136047   2.210   4.096   6.558  1.8770  3.7204 -0.3912
 8195SOL    HW236048   2.131   4.213   6.522  1.1509 -0.3184 -0.5602
 8196SOL     OW36049   0.029   2.141   6.058 -0.1376  0.2779 -0.5268
 8196SOL    HW136050   4.721   2.224   6.093 -0.1606  0.8111 -1.8201
 8196SOL    HW236051   4.675   2.087   6.064  0.4554 -0.2905  2.2288
 8197SOL     OW36052   3.914   3.277  10.322  0.6020 -0.1956 -0.2272
 8197SOL    HW136053   3.956   3.192  10.336 -0.2989 -0.8429 -1.4414
 8197SOL    HW236054   3.967   3.343  10.367  2.1728 -1.2651 -0.5147
 8198SOL     OW36055   2.959   0.200   5.033 -0.7258 -0.1923 -0.3099
 8198SOL    HW136056   2.960   0.282   4.983 -1.5263 -1.3931 -2.3053
 8198SOL    HW236057   2.969   0.229   5.124 -0.4297  0.1688 -0.4569
 8199SOL     OW36058   3.875   0.748  16.114 -0.3027  0.0176 -0.1741
 8199SOL    HW136059   3.785   0.753  16.146  0.0310  1.7638  0.4794
 8199SOL    HW236060   3.924   0.726  16.193 -0.4327  1.6555  0.3515
 8200SOL     OW36061   0.499   0.762   3.451  0.0913  0.3393  0.2526
 8200SOL    HW136062   0.586   0.725   3.437 -0.6478 -1.6121  0.8512
 8200SOL    HW236063   0.496   0.754   3.547 -0.0050  0.0306  0.2243
 8201SOL     OW36064   3.222   4.451  12.725 -0.1272 -0.2714  0.1704
 8201SOL    HW136065   3.205   4.406  12.642  0.9382  1.1014 -0.8077
 8201SOL    HW236066   3.139   4.498  12.731  0.1917  0.0224  2.3026
 8202SOL     OW36067   2.910   2.481   3.547  0.2586 -0.6984  0.2819
 8202SOL    HW136068   2.854   2.509   3.620 -2.4954  0.7708 -2.4091
 8202SOL    HW236069   2.844   2.447   3.487 -0.7118  0.8116  0.4770
 8203SOL     OW36070   1.245   3.051  13.329 -0.0690 -0.9321 -0.0387
 8203SOL    HW136071   1.335   3.041  13.299 -0.0903 -2.0617  0.2592
 8203SOL    HW236072   1.247   3.146  13.328  0.9668 -0.9558 -0.4016
 8204SOL     OW36073   2.753   0.973   6.945  0.2590 -0.5239  0.5037
 8204SOL    HW136074   2.712   0.961   7.031 -1.6569 -0.7590 -0.4567
 8204SOL    HW236075   2.737   1.067   6.937 -1.1561 -0.8477 -0.4356
 8205SOL     OW36076   2.662   1.484   8.839 -0.1480 -0.0472 -0.0735
 8205SOL    HW136077   2.697   1.519   8.757  0.4227  1.1207  0.6727
 8205SOL    HW236078   2.680   1.556   8.898 -0.7791  0.0819 -0.0371
 8206SOL     OW36079   2.474   2.499   9.432  0.2833 -0.1624  0.0797
 8206SOL    HW136080   2.406   2.567   9.433 -0.9871 -1.4268 -1.0486
 8206SOL    HW236081   2.419   2.422   9.448 -2.0617  1.1467 -1.6903
 8207SOL     OW36082   2.371   1.327   7.054  0.2520 -0.1349 -1.4273
 8207SOL    HW136083   2.326   1.374   6.984 -2.2374  0.5641  0.6565
 8207SOL    HW236084   2.419   1.403   7.086  0.3990 -1.0630  0.5252
 8208SOL     OW36085   4.282   1.178  16.428 -0.3392  0.1026  0.1619
 8208SOL    HW136086   4.193   1.192  16.461 -0.6960  0.5696 -1.0389
 8208SOL    HW236087   4.322   1.264  16.436  0.1857  0.1012 -2.5941
 8209SOL     OW36088   0.168   2.283   0.632 -0.3434 -0.2910 -0.6087
 8209SOL    HW136089   0.233   2.241   0.688 -0.9355 -0.2587  0.0997
 8209SOL    HW236090   0.132   2.208   0.583 -0.8804  0.2043 -0.9712
 8210SOL     OW36091   0.622   4.317   9.552 -0.3353  0.0792 -0.0046
 8210SOL    HW136092   0.542   4.313   9.499  0.5325  0.5289 -1.3393
 8210SOL    HW236093   0.675   4.390   9.522  0.3146  0.5842  2.3417
 8211SOL     OW36094   2.955   1.984   8.183 -0.1967 -0.2010 -0.0865
 8211SOL    HW136095   2.996   2.015   8.264  1.6331 -0.3685 -0.9559
 8211SOL    HW236096   2.869   2.020   8.205 -0.9111 -1.0814 -1.3855
 8212SOL     OW36097   4.608   3.072   4.500 -0.2809  0.0852  0.2566
 8212SOL    HW136098   4.592   2.980   4.521  3.0193 -0.4855  0.1957
 8212SOL    HW236099   4.703   3.067   4.495 -0.1827  2.6951 -0.6226
 8213SOL     OW36100   0.619   2.518   6.442  0.8506  0.4983 -0.1014
 8213SOL    HW136101   0.632   2.423   6.454  1.1942  0.8828  2.6900
 8213SOL    HW236102   0.539   2.524   6.391  1.1598  0.1796 -0.6271
 8214SOL     OW36103   2.610   1.025   7.676 -0.5224  0.0027 -0.4655
 8214SOL    HW136104   2.594   1.009   7.769  0.1594  0.6795 -0.2293
 8214SOL    HW236105   2.625   1.120   7.678  0.6415 -0.2365  1.9204
 8215SOL     OW36106   3.153   0.030   5.231  0.0890  0.6000  0.3771
 8215SOL    HW136107   3.244   0.050   5.207 -0.2590  2.8267  0.9192
 8215SOL    HW236108   3.154   0.091   5.305  3.2601  0.1337  0.7376
 8216SOL     OW36109   0.709   1.392   2.653  0.2245  0.2576 -0.0946
 8216SOL    HW136110   0.795   1.382   2.613  1.8073  0.7439  3.2042
 8216SOL    HW236111   0.680   1.469   2.604 -0.8314 -0.7335 -1.0429
 8217SOL     OW36112   0.122   2.110   4.601  0.0413 -0.8949  0.4338
 8217SOL    HW136113   0.111   2.088   4.693 -0.5627 -0.2609  0.5184
 8217SOL    HW236114   0.210   2.148   4.602 -0.4611  0.3272 -0.3990
 8218SOL     OW36115   3.529   2.944   2.437 -0.0427 -0.5028  0.2848
 8218SOL    HW136116   3.600   2.961   2.498 -3.1290  2.5689  3.0120
 8218SOL    HW236117   3.448   2.979   2.475 -0.4006 -0.1855 -0.7677
 8219SOL     OW36118   1.882   4.022   2.059  0.8648  0.5501 -0.0488
 8219SOL    HW136119   1.837   4.106   2.051 -1.8682 -0.8364  0.8016
 8219SOL    HW236120   1.971   4.056   2.045  0.9794  0.1000 -0.4342
 8220SOL     OW36121   4.536   4.577   9.228  0.7460 -0.0669  0.0944
 8220SOL    HW136122   4.479   4.601   9.155 -1.9466 -0.9496  1.9078
 8220SOL    HW236123   4.564   4.490   9.200 -0.0111 -0.4267  0.4408
 8221SOL     OW36124   4.318   1.627   3.789 -0.4414  0.7010  0.0691
 8221SOL    HW136125   4.239   1.643   3.738 -1.0175  0.9174  1.0095
 8221SOL    HW236126   4.386   1.677   3.743 -0.7071  0.5024 -0.5331
 8222SOL     OW36127   1.950   2.748   4.239  0.0716 -0.0711  0.6149
 8222SOL    HW136128   1.892   2.719   4.169  1.1093 -3.2016  1.0480
 8222SOL    HW236129   1.892   2.738   4.314  1.7910 -0.1169  1.9435
 8223SOL     OW36130   3.899   0.443   1.702 -0.7107 -0.6278 -0.3770
 8223SOL    HW136131   3.974   0.478   1.654 -0.4833  0.9257  1.0929
 8223SOL    HW236132   3.921   0.351   1.695 -0.2972 -0.5648  0.0989
 8224SOL     OW36133   0.701   3.930   8.560  0.2107 -0.3818 -0.0744
 8224SOL    HW136134   0.677   3.988   8.487 -0.4299 -0.7301 -0.1450
 8224SOL    HW236135   0.727   3.990   8.630  0.7566  0.0517 -0.6510
 8225SOL     OW36136   3.620   0.971   8.574  0.6876  0.5486 -0.2413
 8225SOL    HW136137   3.698   0.916   8.563 -0.0311 -0.1232 -2.1166
 8225SOL    HW236138   3.650   1.058   8.547  1.3286  0.6353  0.7466
 8226SOL     OW36139   3.261   3.197   3.270 -0.0913  0.2228  0.3046
 8226SOL    HW136140   3.203   3.131   3.232 -1.9887  1.6178  0.8237
 8226SOL    HW236141   3.257   3.266   3.204 -0.4526  0.8295  0.9641
 8227SOL     OW36142   2.633   0.334   4.716  0.0277  0.6456 -0.2675
 8227SOL    HW136143   2.617   0.282   4.795 -3.2045  1.9379 -0.0689
 8227SOL    HW236144   2.707   0.286   4.679 -1.6237 -1.1062 -1.2909
 8228SOL     OW36145   1.989   1.644   4.483  0.3001 -0.3590 -0.4618
 8228SOL    HW136146   1.960   1.554   4.469 -0.1393 -0.2408 -0.3228
 8228SOL    HW236147   1.934   1.666   4.558  0.1171  0.3066 -0.7895
 8229SOL     OW36148   3.951   1.566   5.231 -0.5830  0.2052 -0.1874
 8229SOL    HW136149   3.862   1.584   5.260  0.1554  0.5176  1.8590
 8229SOL    HW236150   3.937   1.521   5.148  0.9153  0.5473 -0.6395
 8230SOL     OW36151   1.661   1.435   5.457  0.1469 -0.0503 -0.5833
 8230SOL    HW136152   1.648   1.486   5.537  0.2982 -0.0391 -0.5658
 8230SOL    HW236153   1.581   1.385   5.470  2.1587 -2.9810  0.6022
 8231SOL     OW36154   1.694   3.424   9.850  0.2130 -0.2507 -0.3760
 8231SOL    HW136155   1.623   3.416   9.914  0.2530 -0.1147 -0.3141
 8231SOL    HW236156   1.644   3.435   9.769 -0.0314  0.3602 -0.1387
 8232SOL     OW36157   3.274   3.742   7.813 -0.1999 -0.4558  0.0785
 8232SOL    HW136158   3.370   3.742   7.806 -0.0781 -1.6139  1.9032
 8232SOL    HW236159   3.254   3.650   7.799  0.7317 -0.6467 -0.0125
 8233SOL     OW36160   0.372   4.061   3.270  0.1249 -0.2009 -0.4857
 8233SOL    HW136161   0.325   4.142   3.288  0.4882 -0.2735  0.7274
 8233SOL    HW236162   0.428   4.060   3.347 -0.5786  2.1831  0.0359
 8234SOL     OW36163   4.259   1.815   9.168  0.4481 -0.1938 -0.1209
 8234SOL    HW136164   4.264   1.778   9.080 -2.7288 -0.1223 -0.3503
 8234SOL    HW236165   4.341   1.863   9.181 -0.5389  1.2010  1.0265
 8235SOL     OW36166   1.515   0.649   5.903  0.0151 -1.0295 -0.6421
 8235SOL    HW136167   1.594   0.650   5.957  0.6066 -0.6722 -1.5064
 8235SOL    HW236168   1.520   0.735   5.860  3.5815 -0.6833  0.4250
 8236SOL     OW36169   3.104   0.609  14.378  0.2970 -0.2435 -0.1626
 8236SOL    HW136170   3.061   0.671  14.318  0.4388 -0.6176 -0.6463
 8236SOL    HW236171   3.178   0.661  14.408 -0.7793  1.3677 -0.2781
 8237SOL     OW36172   0.922   2.228   8.099  0.5165  0.1842 -0.6317
 8237SOL    HW136173   0.839   2.257   8.061  0.7071  1.0376 -0.4091
 8237SOL    HW236174   0.960   2.181   8.025  1.3772 -1.7176  1.0236
 8238SOL     OW36175   0.719   1.331  12.054 -0.2626  0.1232  0.5219
 8238SOL    HW136176   0.758   1.287  12.129 -1.1015 -0.9700  0.3186
 8238SOL    HW236177   0.628   1.322  12.083 -0.3276 -2.4593 -0.4977
 8239SOL     OW36178   4.563   3.241   6.172 -0.2227  0.2208 -0.3941
 8239SOL    HW136179   4.500   3.248   6.243  0.9001  0.4539  0.5765
 8239SOL    HW236180   4.604   3.327   6.179 -2.5090  1.2717 -0.1140
 8240SOL     OW36181   0.527   0.508  14.313 -0.7738 -0.0400 -0.2824
 8240SOL    HW136182   0.486   0.439  14.260  1.9487  0.4086 -2.9742
 8240SOL    HW236183   0.549   0.560  14.236 -2.6572 -0.0178 -0.8109
 8241SOL     OW36184   2.062   1.746   1.876 -0.5956  0.4118 -0.4238
 8241SOL    HW136185   2.069   1.651   1.866  0.0212  0.3293  0.9030
 8241SOL    HW236186   2.028   1.744   1.965  1.6598  0.4826  0.4317
 8242SOL     OW36187   3.375   1.990   2.903 -0.0927  0.4893 -0.5930
 8242SOL    HW136188   3.381   1.950   2.817  1.6995 -0.4552 -0.0249
 8242SOL    HW236189   3.468   1.987   2.925 -0.5250 -0.6018  1.0535
 8243SOL     OW36190   2.220   1.310   2.903  0.1219  0.7254  0.0946
 8243SOL    HW136191   2.280   1.236   2.910 -1.8535 -0.8335  0.3779
 8243SOL    HW236192   2.261   1.358   2.831  0.3329  1.4983  0.7290
 8244SOL     OW36193   0.161   0.079   1.836  0.0067 -0.1997  0.5866
 8244SOL    HW136194   0.174   0.154   1.895 -1.1844  0.7458 -0.3520
 8244SOL    HW236195   0.067   0.063   1.833  0.1977 -1.2292  0.3411
 8245SOL     OW36196   4.437   4.291  15.674  0.0779  0.2275 -0.4812
 8245SOL    HW136197   4.520   4.339  15.669  1.0601 -1.6057 -1.6897
 8245SOL    HW236198   4.424   4.304  15.768 -0.9787  0.0599 -0.6026
 8246SOL     OW36199   0.200   0.287   2.007  0.2888  0.7129  0.4762
 8246SOL    HW136200   0.244   0.331   1.935  0.1685 -1.4390 -0.9076
 8246SOL    HW236201   0.242   0.325   2.084  0.1598 -0.5337  1.1706
 8247SOL     OW36202   2.483   2.327   7.695  0.5617  0.3163 -0.3295
 8247SOL    HW136203   2.512   2.257   7.753 -3.1599  0.6868  2.0317
 8247SOL    HW236204   2.441   2.388   7.756 -0.7791 -1.8046  0.8830
 8248SOL     OW36205   0.204   2.906   5.977 -0.5025  0.0992  0.4350
 8248SOL    HW136206   0.210   3.000   5.990  2.2380 -0.0424  0.0781
 8248SOL    HW236207   0.294   2.879   5.991 -0.8614 -1.6930 -0.6245
 8249SOL     OW36208   2.067   1.266   3.123 -0.8714 -0.1416  0.3191
 8249SOL    HW136209   2.119   1.283   3.044 -1.2791 -1.2339 -0.1806
 8249SOL    HW236210   2.123   1.309   3.187 -0.6562 -1.2538  0.8645
 8250SOL     OW36211   4.467   1.865   8.940  0.5425  0.8113  0.0499
 8250SOL    HW136212   4.512   1.816   8.872 -1.9008 -0.2342 -0.8012
 8250SOL    HW236213   4.402   1.911   8.888 -1.5608 -0.5283  1.4771
 8251SOL     OW36214   1.602   1.106  12.160 -0.2014 -0.0158 -0.3617
 8251SOL    HW136215   1.517   1.135  12.126 -1.1917 -1.9316  0.4664
 8251SOL    HW236216   1.650   1.183  12.130 -0.7233  0.2696 -0.4611
 8252SOL     OW36217   3.599   0.701  14.420  0.3330 -0.0828 -0.1344
 8252SOL    HW136218   3.647   0.704  14.337  1.7650 -2.6403  0.5959
 8252SOL    HW236219   3.672   0.720  14.480 -0.6872  2.9095  0.1225
 8253SOL     OW36220   1.266   0.252   3.392  0.1853 -0.0130 -0.2338
 8253SOL    HW136221   1.200   0.322   3.394 -0.6910 -0.7725 -2.1486
 8253SOL    HW236222   1.236   0.215   3.309 -0.4320 -0.9324  0.4036
 8254SOL     OW36223   3.003   1.999   3.979  0.1382  0.0236 -0.5601
 8254SOL    HW136224   2.950   1.925   4.010  0.0981  0.4351  0.3493
 8254SOL    HW236225   2.938   2.066   3.960 -0.3147 -0.1155  0.4543
 8255SOL     OW36226   3.266   0.638   8.711  0.2610  0.7160 -0.2750
 8255SOL    HW136227   3.199   0.687   8.758 -0.1045 -0.3745  0.3217
 8255SOL    HW236228   3.324   0.623   8.786 -1.3783  0.3794  0.9280
 8256SOL     OW36229   4.147   3.499   5.637 -0.4073  0.1783  0.5058
 8256SOL    HW136230   4.174   3.407   5.637  0.0593  0.3165  1.2072
 8256SOL    HW236231   4.129   3.516   5.545 -0.9030  1.7863  0.9064
 8257SOL     OW36232   2.438   2.843   2.792 -0.2738 -0.4243  0.2869
 8257SOL    HW136233   2.343   2.835   2.801 -0.1366 -1.4702  0.7981
 8257SOL    HW236234   2.442   2.938   2.779 -0.7097 -0.5757 -0.9633
 8258SOL     OW36235   4.312   0.556   9.972  0.0871  0.6405 -0.2719
 8258SOL    HW136236   4.349   0.547   9.884  1.7979 -1.5317  0.6800
 8258SOL    HW236237   4.320   0.467  10.004  1.8715  1.8164  2.5349
 8259SOL     OW36238   4.266   2.890  14.576 -0.3616  0.1525  0.3228
 8259SOL    HW136239   4.231   2.817  14.628  0.6886 -1.1962 -0.8759
 8259SOL    HW236240   4.354   2.901  14.613  0.3478  2.2331 -1.9998
 8260SOL     OW36241   1.879   2.557   7.183 -0.4299 -0.8285  0.2325
 8260SOL    HW136242   1.791   2.586   7.206 -0.2485 -0.0491 -0.0602
 8260SOL    HW236243   1.919   2.643   7.174  0.1042 -1.0593  0.3729
 8261SOL     OW36244   3.901   3.525  16.072 -0.1357 -0.1850  0.4081
 8261SOL    HW136245   3.882   3.432  16.064 -1.4044  0.1973 -1.1319
 8261SOL    HW236246   3.870   3.561  15.989  2.1653 -1.2848 -0.9326
 8262SOL     OW36247   3.222   0.947  10.866 -0.1553  0.2200  0.1594
 8262SOL    HW136248   3.162   1.021  10.851 -0.0337  0.2200 -0.3212
 8262SOL    HW236249   3.175   0.865  10.853  1.2295 -0.2271 -2.0595
 8263SOL     OW36250   4.180   4.067   3.569 -0.3431  0.5779 -0.8090
 8263SOL    HW136251   4.230   3.989   3.592  1.5583  1.6641 -1.2553
 8263SOL    HW236252   4.227   4.129   3.625  0.8248 -1.5281  0.5444
 8264SOL     OW36253   1.694   3.717  12.008  0.3388  0.1457 -0.3791
 8264SOL    HW136254   1.606   3.701  11.975  0.4994 -0.2664 -0.6079
 8264SOL    HW236255   1.670   3.762  12.089  0.0255  0.8905 -0.8950
 8265SOL     OW36256   3.855   1.195   6.624 -0.1873 -0.0517  0.0158
 8265SOL    HW136257   3.768   1.160   6.601  0.1365  0.7650 -2.5094
 8265SOL    HW236258   3.836   1.289   6.626 -2.0977 -0.3966 -1.6253
 8266SOL     OW36259   1.175   2.993   8.457 -0.2778  0.3704  0.8631
 8266SOL    HW136260   1.091   3.013   8.498 -0.9540 -0.2295 -0.2334
 8266SOL    HW236261   1.156   2.916   8.404 -0.1574  0.3699  0.8200
 8267SOL     OW36262   4.247   0.467   3.056 -0.1948 -0.3597 -0.2936
 8267SOL    HW136263   4.212   0.387   3.017  2.6069 -0.9954 -1.4816
 8267SOL    HW236264   4.323   0.418   3.084  1.1711  1.8650 -0.0942
 8268SOL     OW36265   0.403   0.859   6.403 -0.1817 -0.2998 -0.1969
 8268SOL    HW136266   0.472   0.860   6.468 -2.4778 -2.1025  2.2626
 8268SOL    HW236267   0.396   0.766   6.378 -3.0579 -0.3347  0.6563
 8269SOL     OW36268   3.115   0.308  15.768  0.0528 -0.1450  0.2699
 8269SOL    HW136269   3.207   0.331  15.770  0.1587 -0.5875  0.6645
 8269SOL    HW236270   3.089   0.275  15.855 -2.7051  1.8552  0.2274
 8270SOL     OW36271   4.007   1.159   9.222  0.0287 -0.3304  0.3571
 8270SOL    HW136272   3.911   1.157   9.224  0.0384 -2.0153 -0.2496
 8270SOL    HW236273   4.029   1.121   9.308  0.3522 -0.6311  0.1406
 8271SOL     OW36274   2.025   1.674  13.020 -0.0958  0.2506 -0.4584
 8271SOL    HW136275   2.023   1.642  13.110  1.0313 -0.2830 -0.6234
 8271SOL    HW236276   2.119   1.676  13.003  0.1779 -1.2930  0.9076
 8272SOL     OW36277   2.072   2.768   8.851 -0.1345  0.7119 -0.5975
 8272SOL    HW136278   2.121   2.822   8.788  1.8556 -1.4312 -0.9022
 8272SOL    HW236279   2.074   2.832   8.922 -0.1120  0.2672 -0.2023
 8273SOL     OW36280   4.339   0.951   4.403 -0.1554  0.5548 -0.4391
 8273SOL    HW136281   4.349   1.004   4.482 -1.4658 -1.3200  0.9708
 8273SOL    HW236282   4.267   0.997   4.359  0.3311  0.3871 -1.4027
 8274SOL     OW36283   3.427   3.744  13.106 -0.2437 -0.0861 -0.2057
 8274SOL    HW136284   3.474   3.817  13.148  0.4826  0.5105 -2.0593
 8274SOL    HW236285   3.498   3.686  13.082 -1.0407 -0.1606 -2.4099
 8275SOL     OW36286   0.336   3.864   6.881  0.3531  0.2187  0.4794
 8275SOL    HW136287   0.402   3.801   6.854 -0.5648 -0.3595 -0.3929
 8275SOL    HW236288   0.385   3.945   6.895  0.8715  0.0358 -0.3283
 8276SOL     OW36289   2.323   2.647   3.129  0.4119  0.3749  0.1761
 8276SOL    HW136290   2.251   2.675   3.073  0.6535 -0.6329 -0.6443
 8276SOL    HW236291   2.302   2.555   3.145 -1.0691  0.7592  0.5270
 8277SOL     OW36292   1.644   3.683   5.925  0.1641  0.4548 -0.6272
 8277SOL    HW136293   1.669   3.721   6.009 -0.0923  0.1527 -0.4130
 8277SOL    HW236294   1.727   3.654   5.886 -1.0268 -1.2953 -1.8993
 8278SOL     OW36295   4.105   1.684   6.673  0.5352 -0.1028  0.0345
 8278SOL    HW136296   4.115   1.757   6.735  3.1872  1.8716 -2.7228
 8278SOL    HW236297   4.012   1.665   6.686  0.0540  1.2777 -1.4615
 8279SOL     OW36298   1.151   3.547  11.935 -0.1786  0.0595  0.5071
 8279SOL    HW136299   1.145   3.536  11.840  0.9755  0.5525  0.3844
 8279SOL    HW236300   1.084   3.491  11.975  1.0182 -0.1429  2.1882
 8280SOL     OW36301   1.973   3.947   9.571  0.3144  0.0627  0.0879
 8280SOL    HW136302   1.906   3.880   9.583  1.0019 -0.3947  1.4580
 8280SOL    HW236303   1.937   4.009   9.508 -3.6133 -2.4626 -0.1559
 8281SOL     OW36304   2.883   1.378   9.078 -0.2973 -0.0776  0.1449
 8281SOL    HW136305   2.885   1.390   8.983 -0.3463  0.2202  0.1796
 8281SOL    HW236306   2.976   1.360   9.086 -0.1093  0.7144 -0.2130
 8282SOL     OW36307   2.873   0.819  13.294 -0.2098  0.0063  0.0421
 8282SOL    HW136308   2.920   0.804  13.376 -2.2270  0.4656  1.2853
 8282SOL    HW236309   2.912   0.903  13.273 -0.8000  0.7525  1.9418
 8283SOL     OW36310   2.558   0.160   5.585  0.1633 -0.0817  0.0150
 8283SOL    HW136311   2.465   0.147   5.603  0.1145 -3.4583 -2.6075
 8283SOL    HW236312   2.597   0.159   5.673  2.4568  0.8712 -1.0105
 8284SOL     OW36313   0.332   3.610   7.763  0.1986  0.1003  0.4799
 8284SOL    HW136314   0.423   3.594   7.740 -0.1680 -0.3960 -0.6419
 8284SOL    HW236315   0.288   3.538   7.717  1.0965  1.2359 -2.1648
 8285SOL     OW36316   3.442   1.867   9.207 -0.1439  0.9007  0.1946
 8285SOL    HW136317   3.367   1.898   9.157 -1.5155  0.9325  2.2476
 8285SOL    HW236318   3.494   1.947   9.206  0.8947  0.2319  0.2760
 8286SOL     OW36319   1.404   4.566  14.138  0.2400  0.4140  0.9206
 8286SOL    HW136320   1.377   4.582  14.229  2.1932  1.2133  1.3519
 8286SOL    HW236321   1.455   4.490  14.164 -0.6225 -1.8604 -4.0807
 8287SOL     OW36322   0.744   1.788  17.691  0.1495 -0.2436  0.4892
 8287SOL    HW136323   0.679   1.852  17.663  1.0264  0.8660  0.9870
 8287SOL    HW236324   0.821   1.844  17.684 -0.4291  0.1824 -2.2868
 8288SOL     OW36325   3.787   1.056  10.699 -0.3969 -0.1534  0.4523
 8288SOL    HW136326   3.776   1.060  10.604 -1.5806 -1.3656  0.5315
 8288SOL    HW236327   3.826   1.141  10.718  3.2559 -1.0822 -2.9213
 8289SOL     OW36328   2.324   4.561  12.035  0.2936  0.3391 -0.6709
 8289SOL    HW136329   2.389   4.496  12.009  0.8878  1.0765 -1.0335
 8289SOL    HW236330   2.252   4.505  12.062 -0.7231  1.6247 -0.7178
 8290SOL     OW36331   2.936   1.766   6.357 -0.7017  0.2812  0.3513
 8290SOL    HW136332   2.995   1.842   6.361  0.9796 -1.0386  0.9873
 8290SOL    HW236333   2.869   1.784   6.423 -1.6834  1.5804 -1.0099
 8291SOL     OW36334   2.639   4.685  15.235  0.2964 -0.3247  0.0926
 8291SOL    HW136335   2.605   4.719  15.152 -1.6285 -1.6639  0.3489
 8291SOL    HW236336   2.571   4.705  15.298 -1.6872 -4.3633 -0.8017
 8292SOL     OW36337   3.125   0.456   8.544 -0.4249 -0.2808 -0.1068
 8292SOL    HW136338   3.175   0.534   8.568 -0.6649 -1.0784  2.9402
 8292SOL    HW236339   3.191   0.408   8.494 -1.4029 -0.0060 -1.6815
 8293SOL     OW36340   2.941   4.558   4.627 -0.4509  1.0129 -0.3351
 8293SOL    HW136341   2.865   4.566   4.570 -0.9401 -0.8742  0.0377
 8293SOL    HW236342   2.910   4.602   4.706 -2.9646 -2.3506  0.6000
 8294SOL     OW36343   4.000   1.022   1.159  0.6654  0.1921  0.0573
 8294SOL    HW136344   3.997   0.948   1.098 -1.3679 -0.0677  0.4679
 8294SOL    HW236345   4.088   1.054   1.141  0.1173  1.0261 -1.1826
 8295SOL     OW36346   4.277   0.709   7.713  0.6938  0.0132 -0.0097
 8295SOL    HW136347   4.238   0.629   7.677 -0.9262  1.9709 -2.5306
 8295SOL    HW236348   4.296   0.683   7.803  1.7748  1.5219  0.1985
 8296SOL     OW36349   2.525   0.924   4.286  0.1544  0.0308  0.1120
 8296SOL    HW136350   2.610   0.904   4.245 -0.1550 -2.0891  0.5254
 8296SOL    HW236351   2.544   0.906   4.378 -0.8124  1.3814  0.5826
 8297SOL     OW36352   0.957   3.814  10.485 -0.0364  0.4352 -0.5079
 8297SOL    HW136353   0.915   3.738  10.445 -3.0937  1.7280  0.2686
 8297SOL    HW236354   1.050   3.799  10.469  0.3262  0.8135  1.2240
 8298SOL     OW36355   0.822   3.840   2.982  0.3185  0.5582  0.3523
 8298SOL    HW136356   0.772   3.867   3.059 -1.6104  2.5019 -1.5820
 8298SOL    HW236357   0.761   3.877   2.918 -0.2078 -0.1720  0.4417
 8299SOL     OW36358   1.531   2.663   4.057 -0.1880  0.0402 -0.2119
 8299SOL    HW136359   1.555   2.573   4.081 -1.2587 -0.3513 -0.6222
 8299SOL    HW236360   1.615   2.690   4.020 -0.2966 -0.1733 -0.6120
 8300SOL     OW36361   2.104   1.420   1.231  0.3733  0.5038 -0.1631
 8300SOL    HW136362   2.029   1.415   1.291 -0.0037  2.3277 -0.4762
 8300SOL    HW236363   2.159   1.356   1.275  2.2189  2.3582  0.2223
 8301SOL     OW36364   3.455   3.839   4.018 -0.2501 -0.3650 -0.2033
 8301SOL    HW136365   3.443   3.850   3.924 -0.2220 -0.9054 -0.2745
 8301SOL    HW236366   3.377   3.798   4.055 -1.0763  0.7869 -0.6854
 8302SOL     OW36367   4.339   0.854   2.590  0.7052 -0.0389  0.5102
 8302SOL    HW136368   4.407   0.918   2.571  1.3317 -0.2508  2.1009
 8302SOL    HW236369   4.338   0.805   2.507  0.4028  1.6011 -0.4653
 8303SOL     OW36370   3.144   3.683   8.586 -0.8589  0.0870  0.2551
 8303SOL    HW136371   3.121   3.685   8.494  0.0975 -0.0642  0.0138
 8303SOL    HW236372   3.191   3.600   8.591 -0.5809  0.1670 -1.0851
 8304SOL     OW36373   0.777   2.693   7.619 -0.0167  0.0649  0.0231
 8304SOL    HW136374   0.852   2.680   7.676 -0.7869  1.0167  1.2524
 8304SOL    HW236375   0.749   2.601   7.627  1.1106 -0.2846 -0.1393
 8305SOL     OW36376   3.170   0.739   7.652 -0.5848  0.4247  0.0119
 8305SOL    HW136377   3.141   0.733   7.561 -0.6145 -0.8419  0.1059
 8305SOL    HW236378   3.101   0.687   7.693  0.7137 -0.3000  1.2740
 8306SOL     OW36379   3.733   1.069   1.553 -0.1714 -0.3895 -0.0007
 8306SOL    HW136380   3.751   1.154   1.511  0.4246  0.5692  2.1875
 8306SOL    HW236381   3.794   1.018   1.500  0.4348  0.7630 -0.4168
 8307SOL     OW36382   4.552   0.053   2.254 -0.0583 -0.2110  0.3301
 8307SOL    HW136383   4.462   0.043   2.285  0.4846 -1.1095  1.6295
 8307SOL    HW236384   4.588   4.690   2.240 -0.7962 -0.3391 -0.7664
 8308SOL     OW36385   2.437   0.283   3.276 -0.0786  0.3910  0.5019
 8308SOL    HW136386   2.463   0.215   3.214  2.3510  1.4233  0.3865
 8308SOL    HW236387   2.361   0.246   3.321  1.2355 -0.8030  1.7332
 8309SOL     OW36388   2.560   0.695   6.676 -0.8767  0.0043  0.0369
 8309SOL    HW136389   2.628   0.703   6.743 -1.2007 -0.6057  0.4339
 8309SOL    HW236390   2.588   0.753   6.605  1.5110 -1.1787  0.0518
 8310SOL     OW36391   3.578   4.166   5.643 -0.6203 -0.0346  0.1812
 8310SOL    HW136392   3.568   4.256   5.611 -0.4634 -0.4463 -1.0229
 8310SOL    HW236393   3.600   4.127   5.559  0.2083 -0.3800  0.5552
 8311SOL     OW36394   4.116   2.401   6.177 -0.0859  0.0838 -0.0939
 8311SOL    HW136395   4.136   2.308   6.169 -0.7779  0.0568 -1.5818
 8311SOL    HW236396   4.132   2.438   6.090  1.5873 -0.2796  0.0593
 8312SOL     OW36397   3.430   1.942   9.498 -0.1684  0.1964  0.2497
 8312SOL    HW136398   3.433   1.979   9.587 -0.6328  0.9696 -0.0597
 8312SOL    HW236399   3.490   1.867   9.502  0.0809  0.4391  1.1230
 8313SOL     OW36400   3.476   0.503   4.691  0.0265 -0.8742 -0.0638
 8313SOL    HW136401   3.415   0.576   4.689  1.4340  0.2328 -1.9302
 8313SOL    HW236402   3.422   0.438   4.737 -0.7630  0.4502  0.9000
 8314SOL     OW36403   3.870   4.226  15.437 -0.9496 -0.3928  0.0776
 8314SOL    HW136404   3.929   4.231  15.511  0.4876 -0.9830 -1.0234
 8314SOL    HW236405   3.801   4.285  15.467  0.0559 -0.5959  2.7778
 8315SOL     OW36406   3.843   2.252  14.237  0.1638 -0.4073  0.4513
 8315SOL    HW136407   3.762   2.304  14.231  0.3701 -0.4135 -2.5877
 8315SOL    HW236408   3.807   2.172  14.274  1.7436 -1.3101  0.0255
 8316SOL     OW36409   2.119   1.474   5.536  0.3358 -0.0286  0.0187
 8316SOL    HW136410   2.041   1.420   5.526  1.5383 -2.0780  1.8217
 8316SOL    HW236411   2.135   1.456   5.629  0.2647 -2.0278 -0.3628
 8317SOL     OW36412   0.529   2.313  14.588  0.3495  0.4068  0.1033
 8317SOL    HW136413   0.598   2.280  14.645 -0.5740 -0.4618  0.7112
 8317SOL    HW236414   0.506   2.245  14.525 -0.4269  0.9966 -0.2457
 8318SOL     OW36415   3.550   1.408   4.795  0.0588 -0.1078  0.1499
 8318SOL    HW136416   3.609   1.334   4.811 -0.0340 -0.4478 -1.0594
 8318SOL    HW236417   3.583   1.467   4.863  1.4512 -1.1548  0.3790
 8319SOL     OW36418   1.041   0.896   6.234 -0.4080 -0.7127 -0.3852
 8319SOL    HW136419   1.045   0.887   6.329 -0.2925 -0.1171 -0.3337
 8319SOL    HW236420   0.979   0.830   6.204 -0.1915 -0.4265 -1.4395
 8320SOL     OW36421   0.609   4.573   7.936 -0.8252  0.2857  0.2118
 8320SOL    HW136422   0.648   4.656   7.964  0.9313 -0.6424  0.5353
 8320SOL    HW236423   0.676   4.540   7.877 -1.8066 -2.0615  0.4297
 8321SOL     OW36424   0.577   3.131   1.752  0.0251  0.3297 -0.0840
 8321SOL    HW136425   0.662   3.165   1.722  0.1385 -0.8780 -1.1687
 8321SOL    HW236426   0.529   3.203   1.792  0.0337  0.2319  0.0986
 8322SOL     OW36427   3.129   1.789   2.328 -0.0165  0.4162 -0.7226
 8322SOL    HW136428   3.146   1.699   2.299  0.8998  0.4865 -0.4186
 8322SOL    HW236429   3.138   1.836   2.245 -1.2832  2.9553  0.5807
 8323SOL     OW36430   1.534   4.322  13.329  0.3752  0.0250  0.3393
 8323SOL    HW136431   1.589   4.349  13.256  1.3363  0.7075  1.3068
 8323SOL    HW236432   1.557   4.229  13.328 -2.2028 -0.6260  1.1456
 8324SOL     OW36433   3.256   0.174   3.322  0.1725 -0.3894  0.0851
 8324SOL    HW136434   3.270   0.115   3.396 -3.1562 -0.1050  0.9555
 8324SOL    HW236435   3.232   0.115   3.251 -0.2902  0.9091 -0.8450
 8325SOL     OW36436   1.961   2.316   6.389 -0.2468 -0.1861  0.3419
 8325SOL    HW136437   1.977   2.369   6.310  0.6284  0.4870  0.9634
 8325SOL    HW236438   1.983   2.382   6.455 -0.6806  0.7230 -0.4162
 8326SOL     OW36439   4.582   4.291   9.102  0.4545  0.1284 -0.2936
 8326SOL    HW136440   4.550   4.292   9.192  2.5643  2.1806  0.4532
 8326SOL    HW236441   4.499   4.256   9.069  0.2520  0.1339  0.2167
 8327SOL     OW36442   0.498   4.049   7.009 -0.2067 -0.1211 -0.4935
 8327SOL    HW136443   0.506   4.141   6.983 -2.3189  0.0732 -0.4433
 8327SOL    HW236444   0.587   4.034   7.041  0.4710  2.1036 -1.3156
 8328SOL     OW36445   0.676   0.283   7.766  0.2096 -0.4748  0.5295
 8328SOL    HW136446   0.621   0.208   7.791 -0.0756 -0.3699  0.2158
 8328SOL    HW236447   0.755   0.230   7.773 -0.4927 -1.6783 -0.6328
 8329SOL     OW36448   2.162   2.923   2.529 -0.1256  0.0306 -0.5803
 8329SOL    HW136449   2.091   2.887   2.475 -1.4047 -1.1106  1.8156
 8329SOL    HW236450   2.155   2.881   2.615  0.9665 -0.6101 -0.8001
 8330SOL     OW36451   3.304   0.235  12.390 -0.6885  0.4968 -0.0467
 8330SOL    HW136452   3.281   0.319  12.432 -0.6362  1.7676 -2.5644
 8330SOL    HW236453   3.261   0.171  12.447 -1.9367  2.9764  1.8095
 8331SOL     OW36454   1.869   1.698   0.651 -0.1738  0.5963  0.3062
 8331SOL    HW136455   1.776   1.702   0.631 -0.0736 -0.0179 -0.2721
 8331SOL    HW236456   1.892   1.789   0.630 -1.0600  0.4168 -1.4205
 8332SOL     OW36457   0.399   3.519  16.934 -0.1128  0.1521 -0.2662
 8332SOL    HW136458   0.362   3.438  16.970 -0.9224  0.7293  0.1851
 8332SOL    HW236459   0.477   3.486  16.889 -0.1280 -0.0531 -0.1432
 8333SOL     OW36460   2.255   0.243   1.134 -0.0930 -1.2746 -0.0647
 8333SOL    HW136461   2.239   0.206   1.220  3.8721 -2.9367 -0.0156
 8333SOL    HW236462   2.182   0.301   1.113 -0.2147 -1.4418 -0.1044
 8334SOL     OW36463   3.644   0.791  10.716  0.1932  0.2095 -0.3281
 8334SOL    HW136464   3.569   0.806  10.658 -0.2542  1.4598  0.5682
 8334SOL    HW236465   3.649   0.696  10.708  0.2926  0.0954  1.0361
 8335SOL     OW36466   1.169   4.176   5.181  0.2103  0.3026  0.2583
 8335SOL    HW136467   1.101   4.216   5.126  0.3462  0.9730  0.5878
 8335SOL    HW236468   1.211   4.253   5.219  0.6011  0.6969 -0.9741
 8336SOL     OW36469   1.912   4.635   1.761  0.1124  0.6272  0.6263
 8336SOL    HW136470   1.885   4.686   1.685  0.8988 -0.5842 -0.4674
 8336SOL    HW236471   2.006   4.627   1.744 -0.2785 -1.0437 -0.7563
 8337SOL     OW36472   1.843   0.044   5.879 -0.1348 -0.1029  0.3290
 8337SOL    HW136473   1.757   0.002   5.885 -0.0794  0.0693  2.4145
 8337SOL    HW236474   1.842   0.089   5.963 -0.3684 -0.3999  0.4883
 8338SOL     OW36475   1.043   3.975   2.850 -0.3607  0.5204 -0.0574
 8338SOL    HW136476   0.973   3.952   2.911 -0.8622 -0.5593 -1.0235
 8338SOL    HW236477   1.007   3.973   2.761 -0.3549 -0.4174 -0.0421
 8339SOL     OW36478   3.497   4.647   8.008  0.1839 -0.7036  0.2848
 8339SOL    HW136479   3.583   4.686   7.994  0.5361  0.0285  4.3505
 8339SOL    HW236480   3.488   4.599   7.926 -1.9651 -1.3030  0.8481
 8340SOL     OW36481   2.267   2.383   8.810  0.2702 -0.5556 -0.2970
 8340SOL    HW136482   2.229   2.412   8.727 -0.0977  3.2676  1.2184
 8340SOL    HW236483   2.235   2.444   8.876 -0.9793 -0.4334 -1.0216
 8341SOL     OW36484   4.715   3.167   6.476  0.0402  0.0447 -0.0749
 8341SOL    HW136485   4.693   3.238   6.536  0.2788 -0.3715  0.5086
 8341SOL    HW236486   0.013   3.215   6.396 -0.1269 -1.6514 -1.1511
 8342SOL     OW36487   2.450   3.812   2.460  0.1576  0.6315 -0.0615
 8342SOL    HW136488   2.400   3.782   2.536 -0.1493 -0.2213 -0.5951
 8342SOL    HW236489   2.393   3.860   2.399  3.2706  1.5284 -2.2768
 8343SOL     OW36490   3.029   3.945   1.693  0.5148 -0.1573 -0.0442
 8343SOL    HW136491   3.098   4.009   1.711 -2.3703  2.1685  2.8259
 8343SOL    HW236492   2.993   3.939   1.782 -1.2516  0.0766 -0.7304
 8344SOL     OW36493   2.749   4.312   9.021  0.1584 -0.1503  0.7254
 8344SOL    HW136494   2.711   4.400   9.015  2.8692  0.9492 -0.2186
 8344SOL    HW236495   2.674   4.256   8.999  0.0870  0.3140 -0.2384
 8345SOL     OW36496   2.566   3.156   2.173  0.1985 -0.0970  0.3793
 8345SOL    HW136497   2.477   3.155   2.210  0.1055  1.1632  0.1726
 8345SOL    HW236498   2.587   3.240   2.212  0.0894 -0.1715  0.6005
 8346SOL     OW36499   1.514   1.585   0.754 -0.6655 -0.1658  0.1878
 8346SOL    HW136500   1.555   1.609   0.671  0.7482  0.2031  1.0030
 8346SOL    HW236501   1.476   1.673   0.761  1.3017  0.5563  1.7121
 8347SOL     OW36502   1.893   2.514   8.499  1.0905  0.2456  0.1825
 8347SOL    HW136503   1.918   2.502   8.590 -0.5725 -0.5613  0.5297
 8347SOL    HW236504   1.963   2.570   8.465  0.9934 -0.1300 -0.6451
 8348SOL     OW36505   1.259   2.137   2.140 -0.9323 -0.9275  0.0049
 8348SOL    HW136506   1.242   2.044   2.151  0.2102 -0.9608  1.4799
 8348SOL    HW236507   1.301   2.137   2.054  3.7898  0.4736  2.3133
 8349SOL     OW36508   0.881   0.593   6.911  0.4674 -0.1555 -0.0804
 8349SOL    HW136509   0.907   0.666   6.854  1.3575  0.8617  1.6203
 8349SOL    HW236510   0.930   0.522   6.871  0.8706 -1.3024  2.5020
 8350SOL     OW36511   2.963   3.594   1.221  0.0239  0.0816 -0.7151
 8350SOL    HW136512   3.023   3.600   1.296  0.1210 -1.8528 -0.6434
 8350SOL    HW236513   2.965   3.498   1.220  0.8499  0.0997 -1.5188
 8351SOL     OW36514   2.861   0.740   3.967  0.1516 -0.1852  0.0805
 8351SOL    HW136515   2.863   0.667   3.905 -1.4177 -1.1662  1.1929
 8351SOL    HW236516   2.951   0.771   3.969  0.3196 -0.6788  0.1566
 8352SOL     OW36517   0.476   1.713   7.360 -0.3529 -0.2903  0.8030
 8352SOL    HW136518   0.566   1.730   7.389  0.5197  0.3264 -2.2622
 8352SOL    HW236519   0.455   1.802   7.333 -1.1865 -0.8009 -0.2282
 8353SOL     OW36520   3.791   3.660   8.769  0.4338  0.2302 -0.2022
 8353SOL    HW136521   3.813   3.578   8.812  0.0556  1.7846  2.9708
 8353SOL    HW236522   3.699   3.638   8.757  0.1176  2.0402 -1.1946
 8354SOL     OW36523   4.209   2.122   5.977 -0.2039 -0.1498  0.0215
 8354SOL    HW136524   4.166   2.061   5.918 -3.3346  1.0649  1.0706
 8354SOL    HW236525   4.192   2.205   5.933 -0.5580 -0.3742 -0.2615
 8355SOL     OW36526   3.478   2.266   0.918  0.3299  0.5162 -0.2957
 8355SOL    HW136527   3.480   2.263   0.822 -0.0991 -3.8177 -0.1549
 8355SOL    HW236528   3.416   2.194   0.927  0.9306 -0.0446 -0.6762
 8356SOL     OW36529   3.930   1.647  14.155 -0.7087 -0.0955 -0.1019
 8356SOL    HW136530   3.954   1.582  14.220  1.4551  0.1566 -0.6637
 8356SOL    HW236531   4.006   1.705  14.162 -0.0812 -0.8864 -0.4612
 8357SOL     OW36532   0.598   0.086   3.675  0.1034  0.2453 -0.3017
 8357SOL    HW136533   0.634   0.028   3.608 -2.0811 -1.6439  0.1668
 8357SOL    HW236534   0.508   0.069   3.647  0.3447 -0.9237 -0.3522
 8358SOL     OW36535   1.942   3.275   6.323 -0.6008  0.4719 -0.3670
 8358SOL    HW136536   1.978   3.240   6.242 -0.0338  1.4089 -0.5106
 8358SOL    HW236537   1.873   3.208   6.328  2.6720 -2.8928  0.1663
 8359SOL     OW36538   0.788   4.296   4.081 -0.6658  0.1256  0.0525
 8359SOL    HW136539   0.841   4.217   4.083 -0.6731  0.1247  0.2359
 8359SOL    HW236540   0.740   4.284   4.164  1.9372 -2.8389  1.0958
 8360SOL     OW36541   1.493   0.635   6.723 -0.3790 -0.8070  0.0870
 8360SOL    HW136542   1.500   0.580   6.802  0.0594  3.6879  3.1661
 8360SOL    HW236543   1.506   0.723   6.757 -0.3569  0.9803 -4.5197
 8361SOL     OW36544   2.718   4.207   3.777 -0.1908  0.4015 -0.1432
 8361SOL    HW136545   2.640   4.163   3.742  1.2248 -0.1305 -2.6315
 8361SOL    HW236546   2.703   4.301   3.765  2.0211  0.6375 -1.0168
 8362SOL     OW36547   3.959   1.803   1.507 -0.0113  0.5869  0.5160
 8362SOL    HW136548   3.925   1.830   1.422  3.4451  0.3394 -0.9584
 8362SOL    HW236549   3.883   1.820   1.563 -0.6134 -0.3147 -0.0346
 8363SOL     OW36550   4.029   1.830   3.187 -0.4506 -0.1242 -0.0656
 8363SOL    HW136551   4.043   1.738   3.165 -1.3223 -0.7666  2.0755
 8363SOL    HW236552   4.022   1.870   3.100  1.3888  0.2317 -0.0523
 8364SOL     OW36553   0.121   2.729   6.191 -0.3013  0.1469  0.1643
 8364SOL    HW136554   0.079   2.812   6.170  2.2444  1.2035 -0.6940
 8364SOL    HW236555   0.193   2.741   6.129 -0.3928  3.4087  0.6770
 8365SOL     OW36556   0.103   4.041   5.465  0.1780 -0.2351  0.1408
 8365SOL    HW136557   0.048   4.089   5.526  0.5387  1.2191 -0.6774
 8365SOL    HW236558   0.186   4.019   5.508 -0.2220  0.7591  1.3927
 8366SOL     OW36559   4.202   2.432   2.666 -0.0984 -0.3696  0.5143
 8366SOL    HW136560   4.237   2.370   2.731  1.2712  1.1053  1.1983
 8366SOL    HW236561   4.197   2.511   2.721  0.2094 -2.5205  3.6055
 8367SOL     OW36562   2.985   1.096  13.264 -0.0568  0.1696 -0.4204
 8367SOL    HW136563   3.014   1.116  13.174  1.7792 -0.2835  0.0842
 8367SOL    HW236564   3.018   1.175  13.307 -0.8712  1.3413 -1.9124
 8368SOL     OW36565   1.269   1.117   6.907  0.4063  0.1686 -0.0768
 8368SOL    HW136566   1.358   1.147   6.928  1.3499 -2.1335 -0.8519
 8368SOL    HW236567   1.217   1.149   6.981  1.7544  4.5126 -0.9803
 8369SOL     OW36568   3.657   0.222   2.279 -0.6229  0.0254  0.1425
 8369SOL    HW136569   3.702   0.281   2.340 -0.0835  1.6651 -1.8575
 8369SOL    HW236570   3.596   0.182   2.342 -1.1959 -0.5736 -0.7879
 8370SOL     OW36571   3.178   0.111   2.866 -0.0669 -0.2587  0.5295
 8370SOL    HW136572   3.140   0.199   2.869 -0.0474 -0.1985 -0.9865
 8370SOL    HW236573   3.179   0.091   2.960 -1.2681  0.4316  0.6931
 8371SOL     OW36574   3.777   0.542   4.877 -0.4875  0.1837  0.4679
 8371SOL    HW136575   3.702   0.483   4.883  0.6418 -1.2511  0.4996
 8371SOL    HW236576   3.838   0.503   4.940  0.1699  1.1699  0.4434
 8372SOL     OW36577   1.292   3.307  10.794 -0.6209 -0.0163 -0.4572
 8372SOL    HW136578   1.210   3.274  10.757 -0.3837 -0.1408 -0.8699
 8372SOL    HW236579   1.308   3.376  10.730 -2.2328  1.1627  0.4389
 8373SOL     OW36580   4.006   3.314   3.686 -0.1994 -0.2099  0.2767
 8373SOL    HW136581   4.003   3.251   3.758 -0.7399  1.7548  1.9814
 8373SOL    HW236582   4.032   3.263   3.609 -0.2289  0.5609 -0.2489
 8374SOL     OW36583   0.779   4.476   7.306  0.3295 -0.4453 -0.1225
 8374SOL    HW136584   0.813   4.534   7.375 -0.3859  2.9135 -2.6149
 8374SOL    HW236585   0.720   4.433   7.368  1.5845 -0.7281  0.8757
 8375SOL     OW36586   1.013   2.031  17.173 -0.4003  0.6115 -0.0369
 8375SOL    HW136587   1.066   2.109  17.154  1.6526 -1.5644 -3.3247
 8375SOL    HW236588   1.000   2.006  17.081 -0.6976  0.9701 -0.0888
 8376SOL     OW36589   0.825   2.463   1.959 -0.7926 -0.3646  0.1368
 8376SOL    HW136590   0.884   2.528   1.995 -2.1664  1.6120 -1.1766
 8376SOL    HW236591   0.894   2.406   1.925  0.0609  0.9652 -0.3246
 8377SOL     OW36592   4.370   1.529   9.272  0.1987 -0.0938  0.4759
 8377SOL    HW136593   4.353   1.621   9.251 -1.2794 -0.5773 -0.4616
 8377SOL    HW236594   4.293   1.487   9.234 -1.9108  1.7162  2.7569
 8378SOL     OW36595   3.089   4.644   2.679 -0.8901 -0.2221 -0.3946
 8378SOL    HW136596   3.027   4.588   2.726  2.4693 -1.3525  2.6675
 8378SOL    HW236597   3.110   4.706   2.749 -0.0780 -0.3499 -0.5304
 8379SOL     OW36598   4.451   2.878   8.011  0.0865  0.0558 -0.2436
 8379SOL    HW136599   4.466   2.906   8.102 -0.3780 -3.6852  0.9557
 8379SOL    HW236600   4.513   2.937   7.969 -0.9819  1.1014 -0.3468
 8380SOL     OW36601   4.030   1.059  11.087 -0.3138 -0.1461 -0.1070
 8380SOL    HW136602   3.977   1.115  11.031 -0.6954 -2.0919 -1.6978
 8380SOL    HW236603   4.110   1.057  11.034 -0.7294 -0.1604 -0.7275
 8381SOL     OW36604   4.202   3.795  15.834 -0.7400  0.2853 -0.0940
 8381SOL    HW136605   4.272   3.860  15.827 -0.1381 -0.1109  2.2034
 8381SOL    HW236606   4.182   3.797  15.740 -0.6078  0.0650 -0.1269
 8382SOL     OW36607   0.163   1.201   2.714  0.4370 -0.1136 -0.2750
 8382SOL    HW136608   0.074   1.225   2.686  0.2068  1.6568  1.9699
 8382SOL    HW236609   0.147   1.113   2.747  2.6056 -0.7172 -0.8661
 8383SOL     OW36610   2.337   2.700   5.791 -0.0771 -0.4048  0.2083
 8383SOL    HW136611   2.348   2.764   5.861  0.1997  2.3016 -2.3227
 8383SOL    HW236612   2.416   2.647   5.803 -0.8016 -1.5801 -0.2765
 8384SOL     OW36613   0.925   3.560   9.492 -0.3541 -0.1682 -0.2656
 8384SOL    HW136614   1.004   3.508   9.504 -0.5122 -0.1434  0.9077
 8384SOL    HW236615   0.958   3.647   9.470  1.1433 -0.4646  0.8028
 8385SOL     OW36616   1.234   4.510   8.261 -0.0340 -0.0258 -0.0423
 8385SOL    HW136617   1.190   4.568   8.198 -1.2578 -1.1371 -0.1945
 8385SOL    HW236618   1.235   4.577   8.329 -1.0886  0.6523 -0.7007
 8386SOL     OW36619   2.012   2.777  16.312  0.2036 -0.2414 -0.0332
 8386SOL    HW136620   2.091   2.758  16.364  0.3771 -0.6653 -0.4472
 8386SOL    HW236621   2.024   2.870  16.294 -0.0200  0.1228  1.6462
 8387SOL     OW36622   2.382   2.870  10.742 -0.2240  0.7891  0.3296
 8387SOL    HW136623   2.354   2.958  10.717 -0.9675  0.3475 -0.3900
 8387SOL    HW236624   2.303   2.825  10.712  0.5135 -0.8532  0.8599
 8388SOL     OW36625   2.794   2.268  10.311  0.2288 -0.0253 -0.2181
 8388SOL    HW136626   2.827   2.354  10.286  3.0278 -1.9768 -3.2061
 8388SOL    HW236627   2.838   2.208  10.251  1.0382  1.1409 -0.7989
 8389SOL     OW36628   3.435   4.721   8.386  0.1611 -0.3161  0.6069
 8389SOL    HW136629   3.372   0.021   8.318  1.8953  0.5074 -0.7143
 8389SOL    HW236630   3.497   0.069   8.376 -0.0326 -0.1900  0.3259
 8390SOL     OW36631   1.183   4.133   9.746  0.4415 -0.3890 -0.5204
 8390SOL    HW136632   1.137   4.089   9.675 -2.7912 -0.5270  1.6638
 8390SOL    HW236633   1.247   4.175   9.688  2.4406 -1.9585  0.5969
 8391SOL     OW36634   0.611   0.030   8.383  0.2166  0.0820  0.5492
 8391SOL    HW136635   0.690   4.707   8.407 -0.9979 -1.8454  0.7265
 8391SOL    HW236636   0.616   0.112   8.432  1.5809  1.2029 -1.4453
 8392SOL     OW36637   4.216   1.658   8.938  0.0422 -0.2918 -0.3650
 8392SOL    HW136638   4.283   1.693   8.879 -1.5395  1.2452 -1.2137
 8392SOL    HW236639   4.183   1.595   8.874  1.1593 -1.5434  0.2732
 8393SOL     OW36640   1.095   2.317  17.088  0.1303 -0.0045  0.1753
 8393SOL    HW136641   1.004   2.307  17.114  0.5639  1.2987  2.1938
 8393SOL    HW236642   1.118   2.410  17.096 -1.1723  0.3077  0.1864
 8394SOL     OW36643   3.147   2.867   0.212  0.7847 -0.2948  0.4361
 8394SOL    HW136644   3.152   2.946   0.158  0.3506  0.0970  0.9699
 8394SOL    HW236645   3.097   2.806   0.157  0.1258  0.3987  0.2623
 8395SOL     OW36646   3.357   4.473   6.161  0.7437  0.1386  0.0433
 8395SOL    HW136647   3.308   4.552   6.137  1.3037  1.4497  3.1611
 8395SOL    HW236648   3.414   4.487   6.237 -1.3383  1.3478  1.3807
 8396SOL     OW36649   1.110   0.674   4.407 -0.1467  0.7755 -0.3878
 8396SOL    HW136650   1.204   0.690   4.410 -0.1719  0.7276  0.8545
 8396SOL    HW236651   1.077   0.709   4.490  1.7148  0.4722  0.4791
 8397SOL     OW36652   3.180   0.671  14.703  0.2500 -0.7096  0.3470
 8397SOL    HW136653   3.176   0.766  14.707 -0.4657 -0.6819 -0.7322
 8397SOL    HW236654   3.253   0.662  14.642 -0.2335 -0.4081 -0.2752
 8398SOL     OW36655   3.938   3.329   6.956  0.7337 -0.4414  0.0656
 8398SOL    HW136656   3.977   3.341   7.042 -0.3564 -2.2348  0.8228
 8398SOL    HW236657   3.892   3.412   6.946 -0.2389 -1.1825 -1.7135
 8399SOL     OW36658   3.064   2.013   1.648 -0.0887  0.0999  0.0461
 8399SOL    HW136659   3.017   2.096   1.648  0.2973  0.3208  0.0501
 8399SOL    HW236660   3.040   1.973   1.731  0.0432 -0.1415 -0.0326
 8400SOL     OW36661   2.532   1.493   2.241 -0.1086 -0.4625  0.1391
 8400SOL    HW136662   2.509   1.455   2.156 -1.2625  0.3396  0.0792
 8400SOL    HW236663   2.602   1.436   2.270  1.0374  0.7267 -0.2879
 8401SOL     OW36664   1.329   0.400   4.557 -1.1286  0.1656  0.1801
 8401SOL    HW136665   1.370   0.338   4.618  0.7889 -1.7951 -3.0685
 8401SOL    HW236666   1.386   0.376   4.484  1.8944  1.2953  2.1549
 8402SOL     OW36667   1.953   2.720   4.639 -0.0874  0.1070 -0.3272
 8402SOL    HW136668   2.000   2.652   4.687  0.3620  0.8631  0.3194
 8402SOL    HW236669   2.028   2.762   4.597  0.2889 -0.4128 -0.1836
 8403SOL     OW36670   1.847   4.295   6.564  0.7338  0.3657  0.2180
 8403SOL    HW136671   1.752   4.297   6.576  0.6077  0.6598 -0.8071
 8403SOL    HW236672   1.863   4.202   6.579 -1.3450 -0.0283 -0.0037
 8404SOL     OW36673   1.628   1.683   0.518 -0.1373  0.0961  0.2161
 8404SOL    HW136674   1.634   1.748   0.448  0.6215 -1.2766 -0.9766
 8404SOL    HW236675   1.577   1.613   0.476 -1.8657 -0.2081  2.7924
 8405SOL     OW36676   2.572   2.898   5.015 -0.2032 -0.4014 -0.1231
 8405SOL    HW136677   2.495   2.904   5.072 -0.6208  0.7554 -0.8243
 8405SOL    HW236678   2.625   2.963   5.061  1.0018 -0.2643 -1.7098
 8406SOL     OW36679   3.518   1.757   5.161  0.1705 -0.9049  0.3531
 8406SOL    HW136680   3.460   1.833   5.151 -1.4704 -2.0607  1.0225
 8406SOL    HW236681   3.579   1.794   5.224 -0.2494  0.7251 -0.1731
 8407SOL     OW36682   0.542   1.877   2.841 -0.6972  0.1629 -0.1073
 8407SOL    HW136683   0.542   1.952   2.783  0.8405  2.1136  2.4178
 8407SOL    HW236684   0.536   1.930   2.921  0.6140  3.7488 -2.4225
 8408SOL     OW36685   1.728   2.961   4.513 -0.0442 -0.2341 -0.3029
 8408SOL    HW136686   1.743   2.878   4.469  3.8501  0.9693 -1.2646
 8408SOL    HW236687   1.651   2.940   4.565 -0.3349 -1.0444 -1.0625
 8409SOL     OW36688   4.071   2.130  11.266  0.2126  0.1439 -0.0541
 8409SOL    HW136689   4.133   2.089  11.326 -1.4264 -0.4557  1.2231
 8409SOL    HW236690   4.112   2.206  11.224  0.2504 -0.5865 -1.3447
 8410SOL     OW36691   2.840   0.602   4.549  0.2724 -0.7258 -0.2906
 8410SOL    HW136692   2.812   0.515   4.578 -0.5221 -0.2743  0.2852
 8410SOL    HW236693   2.870   0.594   4.459 -1.6601 -0.7085 -0.9311
 8411SOL     OW36694   2.317   0.482   5.325  0.2062 -0.1730 -0.2093
 8411SOL    HW136695   2.286   0.394   5.345  0.8366 -0.3395  0.0534
 8411SOL    HW236696   2.233   0.525   5.317  0.7300  1.1389  1.3446
 8412SOL     OW36697   1.591   3.107   8.213 -0.0688 -0.0908  0.4810
 8412SOL    HW136698   1.543   3.069   8.287 -1.7322 -0.1063 -0.6255
 8412SOL    HW236699   1.517   3.148   8.170 -0.7288 -0.8506  0.8986
 8413SOL     OW36700   1.834   1.340   5.980 -0.6270  0.3428 -0.5857
 8413SOL    HW136701   1.863   1.358   6.070  1.9554 -0.5999 -1.2348
 8413SOL    HW236702   1.765   1.403   5.958 -0.7247  0.6185  0.4914
 8414SOL     OW36703   2.310   2.239   4.975 -0.3911 -0.2178  0.4668
 8414SOL    HW136704   2.317   2.321   5.024 -1.5759  1.2515 -1.8167
 8414SOL    HW236705   2.360   2.255   4.895 -1.7951  0.8670 -0.1909
 8415SOL     OW36706   3.260   1.763   7.442 -0.3145  0.2799  0.2293
 8415SOL    HW136707   3.265   1.704   7.367  1.9233  2.4700 -1.3467
 8415SOL    HW236708   3.252   1.851   7.404  0.6154  0.6996  0.9878
 8416SOL     OW36709   1.101   0.227   9.926  0.0766 -0.2094 -0.4749
 8416SOL    HW136710   1.069   0.282   9.855  2.1128  0.6390 -0.7247
 8416SOL    HW236711   1.029   0.230   9.989  1.2598  2.2200  0.7358
 8417SOL     OW36712   3.041   2.815   2.700 -0.1750 -0.1370  0.2112
 8417SOL    HW136713   2.988   2.850   2.771  1.4821  2.7001  0.0434
 8417SOL    HW236714   3.008   2.859   2.622  2.6051 -3.7793 -3.0063
 8418SOL     OW36715   3.078   0.673   1.610 -0.6677  0.0739 -0.1721
 8418SOL    HW136716   3.012   0.605   1.625 -0.5041  0.3032  1.6605
 8418SOL    HW236717   3.155   0.624   1.640 -0.2408  0.4589 -0.6486
 8419SOL     OW36718   3.020   4.457   2.887 -0.0721 -0.0470 -0.0195
 8419SOL    HW136719   2.998   4.393   2.955 -0.8157 -0.5657 -0.7429
 8419SOL    HW236720   3.106   4.488   2.915 -1.0541  2.5797  0.0818
 8420SOL     OW36721   1.411   2.038  13.340 -0.3708 -0.6713 -0.4081
 8420SOL    HW136722   1.462   2.080  13.271 -1.8307  0.8278 -0.5810
 8420SOL    HW236723   1.402   2.111  13.400  2.3489 -0.0291 -0.7770
 8421SOL     OW36724   0.994   1.558   5.573  0.1655  0.0587 -0.3248
 8421SOL    HW136725   0.960   1.638   5.612 -0.7846 -0.5197  0.0266
 8421SOL    HW236726   1.041   1.524   5.649 -0.9916 -1.5779 -0.3432
 8422SOL     OW36727   4.289   0.780   8.465  0.4784  0.5174  0.0861
 8422SOL    HW136728   4.338   0.698   8.474 -2.2605 -0.8378  2.5520
 8422SOL    HW236729   4.354   0.848   8.483  2.2295 -1.1562  0.1761
 8423SOL     OW36730   4.242   3.032   7.638 -0.1265 -0.0400  0.0152
 8423SOL    HW136731   4.257   3.010   7.730 -0.2330 -1.4634 -0.3039
 8423SOL    HW236732   4.318   3.089   7.628 -0.7168  0.3106 -2.3794
 8424SOL     OW36733   4.048   2.371   8.783  0.2021  0.7797 -0.4350
 8424SOL    HW136734   3.963   2.343   8.748 -1.2958  2.1727  2.0840
 8424SOL    HW236735   4.063   2.292   8.835 -1.2341  0.5577 -0.3345
 8425SOL     OW36736   1.964   0.486   5.806  0.2713 -0.0593 -0.0620
 8425SOL    HW136737   1.887   0.431   5.791 -0.3620  0.8461 -0.1156
 8425SOL    HW236738   1.940   0.566   5.761 -0.4237  0.2675  0.9058
 8426SOL     OW36739   0.413   3.040   5.575  0.0555  0.0946 -0.2811
 8426SOL    HW136740   0.355   2.994   5.514  1.8810 -1.5990 -0.7508
 8426SOL    HW236741   0.369   3.031   5.660  0.7592  0.1739  0.0885
 8427SOL     OW36742   0.288   3.161   6.737 -0.6167 -0.6196 -0.4872
 8427SOL    HW136743   0.362   3.131   6.789  0.0220 -0.2368 -1.1806
 8427SOL    HW236744   0.210   3.131   6.785 -1.2086  1.5600 -0.0903
 8428SOL     OW36745   2.259   1.168   2.603 -0.1992  0.4272 -0.6098
 8428SOL    HW136746   2.274   1.222   2.525  0.7957 -1.5750 -1.8099
 8428SOL    HW236747   2.165   1.181   2.612  0.0408  1.4868  0.4570
 8429SOL     OW36748   3.632   3.710   2.658  0.0639 -0.6854 -0.0859
 8429SOL    HW136749   3.646   3.805   2.665 -2.8894 -0.2100 -0.3773
 8429SOL    HW236750   3.550   3.706   2.608 -1.2430 -1.5475  2.1044
 8430SOL     OW36751   3.693   2.183   5.122 -0.0518 -0.3113 -0.1761
 8430SOL    HW136752   3.712   2.176   5.029 -1.8789  0.3328 -0.6043
 8430SOL    HW236753   3.670   2.276   5.132  1.7641  0.1281 -0.0959
 8431SOL     OW36754   4.595   3.809   3.980  0.7887 -0.4751 -0.0084
 8431SOL    HW136755   4.625   3.827   3.891 -2.3545  0.9278 -0.8017
 8431SOL    HW236756   4.680   3.806   4.023  0.7781 -0.4836  0.0120
 8432SOL     OW36757   0.364   4.431   4.240 -0.0926 -0.5520 -0.0803
 8432SOL    HW136758   0.388   4.373   4.168  1.1083  0.3176 -0.3799
 8432SOL    HW236759   0.385   4.518   4.206  1.1963 -1.5820 -1.9435
 8433SOL     OW36760   1.476   2.502   8.799 -0.0325 -0.3100 -0.6644
 8433SOL    HW136761   1.385   2.495   8.771 -0.1197 -3.0177  0.2669
 8433SOL    HW236762   1.514   2.444   8.733  2.7991 -2.1536  2.5796
 8434SOL     OW36763   2.617   2.296   0.756  0.0024  0.5497 -0.5054
 8434SOL    HW136764   2.647   2.370   0.704  0.9156  2.8658  3.3047
 8434SOL    HW236765   2.562   2.250   0.693 -0.8793  1.9881 -0.7961
 8435SOL     OW36766   1.184   2.706   5.947 -0.0998 -0.2568  0.3078
 8435SOL    HW136767   1.264   2.665   5.913  0.8175  0.6935  1.3166
 8435SOL    HW236768   1.215   2.753   6.024 -1.3806 -0.1451  0.7555
 8436SOL     OW36769   4.332   2.053   9.390  0.1420  0.5952  0.2124
 8436SOL    HW136770   4.365   2.085   9.474 -0.5574  0.8006  0.4041
 8436SOL    HW236771   4.385   1.973   9.386  0.2420  0.6251  0.8642
 8437SOL     OW36772   2.844   4.627  11.424 -0.8620 -0.5962  0.5000
 8437SOL    HW136773   2.817   4.652  11.336  2.3040 -1.7928 -0.8442
 8437SOL    HW236774   2.763   4.650  11.470 -0.7468  2.0013 -0.5988
 8438SOL     OW36775   0.465   3.113   8.324 -0.5677 -0.4174  0.0438
 8438SOL    HW136776   0.373   3.105   8.298 -0.7065 -1.0723  0.7311
 8438SOL    HW236777   0.489   3.125   8.232 -0.9472  2.3845  0.3314
 8439SOL     OW36778   1.247   0.032   8.391 -0.0047 -0.2261 -0.1720
 8439SOL    HW136779   1.316   0.035   8.457 -1.5755 -2.1031  1.5540
 8439SOL    HW236780   1.229   0.126   8.380  0.9758 -0.1802 -1.3584
 8440SOL     OW36781   0.682   1.577   9.222  0.3125  0.6861  0.2718
 8440SOL    HW136782   0.753   1.610   9.277 -0.3422  0.5969  1.1788
 8440SOL    HW236783   0.667   1.650   9.161  1.1789 -0.3699 -1.1864
 8441SOL     OW36784   1.654   3.799   5.214 -0.1989  0.5947 -0.6213
 8441SOL    HW136785   1.705   3.857   5.270 -0.3987 -1.8024  2.0036
 8441SOL    HW236786   1.612   3.872   5.167 -1.8411 -1.7293 -2.7309
 8442SOL     OW36787   4.050   1.412   8.525 -0.9082  0.4431 -0.1104
 8442SOL    HW136788   3.988   1.387   8.457 -1.2361  0.9242  0.0064
 8442SOL    HW236789   4.110   1.466   8.474 -1.3006  0.9079 -0.0844
 8443SOL     OW36790   2.201   2.224   4.377  0.2857 -0.0178  0.0217
 8443SOL    HW136791   2.106   2.212   4.368  0.4782 -0.9400 -0.9173
 8443SOL    HW236792   2.211   2.190   4.466  1.3559 -0.0390 -0.1083
 8444SOL     OW36793   3.584   2.810   3.701 -0.0521 -0.3921  0.8676
 8444SOL    HW136794   3.613   2.883   3.756 -2.7483  0.8310  0.7013
 8444SOL    HW236795   3.649   2.747   3.732  1.1992  1.6028  2.2995
 8445SOL     OW36796   1.344   2.200  17.580  0.0648 -0.8907 -0.2909
 8445SOL    HW136797   1.423   2.205  17.525 -0.2105 -0.8323 -0.6824
 8445SOL    HW236798   1.355   2.282  17.628 -1.3585 -1.3267  0.7648
 8446SOL     OW36799   1.783   4.266   7.317  0.4220 -0.0857  0.4212
 8446SOL    HW136800   1.723   4.215   7.371  0.5228  0.2072  0.8104
 8446SOL    HW236801   1.814   4.195   7.261 -0.3285 -0.1802  0.1300
 8447SOL     OW36802   3.560   3.688   7.809 -0.4107 -0.4247  0.6544
 8447SOL    HW136803   3.542   3.712   7.718 -0.0068  1.0887  0.9671
 8447SOL    HW236804   3.635   3.632   7.789 -0.5919 -0.4239 -0.0133
 8448SOL     OW36805   3.021   3.200   0.196 -0.0573  0.6100  0.1524
 8448SOL    HW136806   3.073   3.152   0.133 -1.4426 -0.2339 -0.3552
 8448SOL    HW236807   3.074   3.211   0.275 -0.6046 -2.2461  0.9015
 8449SOL     OW36808   2.237   2.937   9.534 -0.1207  0.2036 -0.2065
 8449SOL    HW136809   2.234   2.952   9.439  0.0485  2.0784  0.0762
 8449SOL    HW236810   2.330   2.960   9.540 -0.4879  1.5357  0.3288
 8450SOL     OW36811   4.290   1.690   6.449 -0.5011 -0.8636  0.5385
 8450SOL    HW136812   4.350   1.635   6.500  0.2775 -0.7377 -0.2329
 8450SOL    HW236813   4.210   1.703   6.500 -1.4788  1.2195 -1.5333
 8451SOL     OW36814   0.218   4.624  14.611  0.5329 -0.4584  0.1093
 8451SOL    HW136815   0.148   4.562  14.631  0.3522 -0.1319  0.4967
 8451SOL    HW236816   0.280   4.582  14.672  0.1929 -2.2013 -0.7546
 8452SOL     OW36817   0.980   3.829   5.284 -0.1933 -0.4598  0.4898
 8452SOL    HW136818   1.047   3.785   5.233 -0.8762 -0.7446 -0.1678
 8452SOL    HW236819   0.923   3.869   5.219  1.2308 -0.0996 -0.5276
 8453SOL     OW36820   3.979   3.188   6.629  0.2912  0.1776  0.8913
 8453SOL    HW136821   3.996   3.095   6.644 -3.3772 -0.6998 -0.3314
 8453SOL    HW236822   4.022   3.188   6.543 -1.2195 -0.5044  0.1247
 8454SOL     OW36823   3.507   4.219   3.575 -0.1783 -0.5135 -0.9555
 8454SOL    HW136824   3.526   4.265   3.493 -2.9407  1.2372 -0.6337
 8454SOL    HW236825   3.591   4.179   3.599  0.1358  0.9206  0.3674
 8455SOL     OW36826   2.883   4.006   1.458 -0.7556 -0.6651 -0.1582
 8455SOL    HW136827   2.935   4.027   1.536  0.1784 -1.9573 -0.4336
 8455SOL    HW236828   2.945   3.996   1.385  0.0292  1.9370  0.1662
 8456SOL     OW36829   2.487   4.215   8.952 -0.4184  0.4270  0.0359
 8456SOL    HW136830   2.496   4.216   8.856 -0.8231  1.6234  0.0152
 8456SOL    HW236831   2.440   4.295   8.972 -1.3771 -0.1772  0.1963
 8457SOL     OW36832   2.180   0.709   4.926  0.0913 -0.2618  0.5372
 8457SOL    HW136833   2.264   0.740   4.959  0.5844 -1.3367  0.3180
 8457SOL    HW236834   2.126   0.785   4.903  2.2763  0.8814 -0.8406
 8458SOL     OW36835   3.067   3.086   8.116 -0.2547 -0.4386  0.2952
 8458SOL    HW136836   3.039   3.000   8.084  0.0746 -0.6111  0.4644
 8458SOL    HW236837   2.979   3.112   8.143 -1.0813  0.1144 -2.8614
 8459SOL     OW36838   0.730   1.909  13.227 -0.3381  0.2858 -0.6446
 8459SOL    HW136839   0.678   1.829  13.239 -0.4593  0.8232  2.2774
 8459SOL    HW236840   0.761   1.894  13.138  1.0329  1.0361 -0.2904
 8460SOL     OW36841   3.509   3.082   3.256  0.4685  0.1660 -0.4356
 8460SOL    HW136842   3.442   3.150   3.260 -3.0219 -3.4520  2.2595
 8460SOL    HW236843   3.517   3.061   3.349  0.3641  2.2161  0.0230
 8461SOL     OW36844   4.061   2.028  16.209 -0.3943 -0.0282  0.2516
 8461SOL    HW136845   4.100   1.957  16.260 -0.3664 -0.1005  0.1314
 8461SOL    HW236846   4.065   2.093  16.279  0.4561  0.2207 -0.0210
 8462SOL     OW36847   2.341   2.715   4.299  0.3238  0.0966 -0.3782
 8462SOL    HW136848   2.294   2.631   4.295  0.5544 -0.0606  0.1096
 8462SOL    HW236849   2.402   2.689   4.368 -1.0826 -0.2526  0.7454
 8463SOL     OW36850   2.091   2.966  10.099  0.0667  0.5654 -0.4281
 8463SOL    HW136851   2.030   2.894  10.081 -1.0787  1.4425 -0.0287
 8463SOL    HW236852   2.147   2.962  10.021 -0.8806 -2.2968 -0.9546
 8464SOL     OW36853   4.523   2.177  13.768 -0.2136  0.1951  0.5993
 8464SOL    HW136854   4.615   2.165  13.790  0.1075 -0.1121 -0.9239
 8464SOL    HW236855   4.484   2.116  13.831 -0.0957  0.8716  1.3223
 8465SOL     OW36856   4.296   4.081   2.322  0.1100  0.5877  0.4777
 8465SOL    HW136857   4.291   4.005   2.264  0.6003  1.6961 -1.0524
 8465SOL    HW236858   4.286   4.039   2.407  1.7333  1.2672  1.0103
 8466SOL     OW36859   1.228   1.989   9.236 -0.6752  0.1430  0.0360
 8466SOL    HW136860   1.199   2.075   9.207  4.2904  1.8529  0.1663
 8466SOL    HW236861   1.201   1.995   9.328 -1.5504 -1.1601 -0.1284
 8467SOL     OW36862   2.626   0.892   1.151  0.0171 -0.4008 -0.1750
 8467SOL    HW136863   2.545   0.841   1.160  0.3788 -1.4145 -2.8371
 8467SOL    HW236864   2.681   0.837   1.096 -0.4824 -0.4321 -0.6415
 8468SOL     OW36865   2.638   4.634  11.809  0.0604  0.1249 -0.0510
 8468SOL    HW136866   2.565   4.644  11.869 -0.8742 -0.9359 -1.0149
 8468SOL    HW236867   2.694   4.707  11.836  0.3602  0.6238 -1.9767
 8469SOL     OW36868   4.045   0.522   4.679 -0.7749 -0.1931 -0.0751
 8469SOL    HW136869   4.009   0.545   4.764 -1.9512  0.1491 -0.6657
 8469SOL    HW236870   4.137   0.526   4.708 -0.0808 -2.1211 -2.0279
 8470SOL     OW36871   2.129   0.220   3.955  0.3674  0.5815 -0.0305
 8470SOL    HW136872   2.135   0.288   3.889 -0.3328 -0.0928 -0.7941
 8470SOL    HW236873   2.210   0.242   4.001  0.6204 -0.7257  0.1706
 8471SOL     OW36874   0.087   1.242   4.533  0.1374  0.1532  0.1271
 8471SOL    HW136875   0.104   1.159   4.490  1.0320  0.1931  0.4182
 8471SOL    HW236876   0.019   1.206   4.590  0.7052  0.2000  0.8313
 8472SOL     OW36877   0.676   1.482   5.960  0.2034 -0.0517  0.0393
 8472SOL    HW136878   0.649   1.482   5.868 -1.1689  1.4102  0.4414
 8472SOL    HW236879   0.596   1.453   6.003  1.4140 -1.1344  1.5662
 8473SOL     OW36880   2.846   2.237  17.564 -0.3869 -0.0231 -0.2778
 8473SOL    HW136881   2.905   2.172  17.527  0.8645  0.0219  1.6095
 8473SOL    HW236882   2.782   2.243  17.493  0.2432 -0.7405 -0.8986
 8474SOL     OW36883   3.447   0.681   6.035 -0.1589  0.3209 -0.0118
 8474SOL    HW136884   3.516   0.687   6.101  0.6511 -1.9538 -0.6205
 8474SOL    HW236885   3.371   0.681   6.093 -1.8226 -0.5347 -2.1743
 8475SOL     OW36886   4.262   3.342  12.978 -0.5826  0.1169 -0.3675
 8475SOL    HW136887   4.277   3.409  13.045  2.8153 -2.7588  1.7559
 8475SOL    HW236888   4.181   3.306  13.013 -0.0602  0.0806  0.8122
 8476SOL     OW36889   3.079   0.782   7.061  0.3580 -0.7478 -0.4669
 8476SOL    HW136890   3.152   0.812   7.116 -2.6849  0.9616  2.6615
 8476SOL    HW236891   3.047   0.862   7.019 -0.1169  0.2644  1.8191
 8477SOL     OW36892   2.107   1.967  11.272  0.1362 -0.7672  0.1915
 8477SOL    HW136893   2.143   1.971  11.184  0.2030  2.0714  0.3298
 8477SOL    HW236894   2.030   1.912  11.263  1.6234 -2.9386  0.9293
 8478SOL     OW36895   4.663   2.710   5.658  0.1227 -0.1696 -0.3587
 8478SOL    HW136896   4.665   2.765   5.737 -0.6926  0.2651 -0.6398
 8478SOL    HW236897   4.568   2.702   5.648  0.5769 -1.3101 -3.7806
 8479SOL     OW36898   1.157   0.778   1.540 -0.4337  0.5785  0.5821
 8479SOL    HW136899   1.064   0.801   1.542 -0.7967 -0.8057 -0.7078
 8479SOL    HW236900   1.196   0.829   1.611 -1.3808  1.7127  0.2946
 8480SOL     OW36901   1.708   0.596   8.806 -0.3774  0.5413 -0.3266
 8480SOL    HW136902   1.782   0.631   8.857 -0.4880  0.5068 -0.1427
 8480SOL    HW236903   1.737   0.505   8.805  0.5924  0.8460 -0.0345
 8481SOL     OW36904   1.870   4.104   8.527  0.8360  0.3611  0.1366
 8481SOL    HW136905   1.874   4.009   8.515 -1.2427  0.0013  2.4370
 8481SOL    HW236906   1.956   4.132   8.495  1.0629  0.4818  0.8534
 8482SOL     OW36907   2.615   1.954  13.060 -0.4679  0.6717  0.5069
 8482SOL    HW136908   2.599   1.997  12.976 -1.7354  0.4682  0.6411
 8482SOL    HW236909   2.708   1.932  13.051  0.1906  4.1674 -1.0081
 8483SOL     OW36910   2.768   3.554   2.024  0.0514  0.0946  0.1236
 8483SOL    HW136911   2.708   3.531   2.094  1.4514  0.9626  1.6084
 8483SOL    HW236912   2.713   3.548   1.946  0.9631 -2.3840 -0.3358
 8484SOL     OW36913   3.262   4.717   8.945 -0.4472  0.6579  0.4188
 8484SOL    HW136914   3.326   4.656   8.981  0.7211  0.8523 -1.3375
 8484SOL    HW236915   3.194   4.711   9.012  0.5387 -2.0486  1.1578
 8485SOL     OW36916   1.551   3.392   5.750 -0.1239 -0.4466  0.2767
 8485SOL    HW136917   1.633   3.400   5.799 -0.0092  1.1843 -0.1787
 8485SOL    HW236918   1.514   3.480   5.761 -0.7706 -0.5326 -1.1357
 8486SOL     OW36919   1.921   3.798   6.104  1.1681 -0.0270 -0.0870
 8486SOL    HW136920   1.886   3.815   6.191  2.5738  1.8316  0.1162
 8486SOL    HW236921   1.916   3.702   6.107  0.6845  0.0432  1.5544
 8487SOL     OW36922   3.433   2.691  14.466  0.4391 -0.1077 -0.0363
 8487SOL    HW136923   3.347   2.659  14.438  0.8888 -1.3775  0.0671
 8487SOL    HW236924   3.423   2.781  14.434  1.7406  0.2611  0.5824
 8488SOL     OW36925   1.345   2.956   7.141  0.1152 -0.1403 -1.2369
 8488SOL    HW136926   1.417   2.922   7.194 -1.4174 -1.9715 -0.3190
 8488SOL    HW236927   1.291   2.999   7.208  1.3385  1.2270 -1.1323
 8489SOL     OW36928   1.523   1.146   2.346  0.3279 -0.1666 -0.3725
 8489SOL    HW136929   1.459   1.119   2.281  1.4511 -1.6104 -0.8672
 8489SOL    HW236930   1.512   1.241   2.343 -0.0989 -0.2014  0.0357
 8490SOL     OW36931   1.279   2.713   8.719 -0.6325  0.2964  0.0673
 8490SOL    HW136932   1.331   2.740   8.795  1.9493 -2.1661 -0.8289
 8490SOL    HW236933   1.339   2.719   8.644  0.0847  0.2796  0.6426
 8491SOL     OW36934   3.114   2.022  11.578 -0.3796  0.1497 -0.0650
 8491SOL    HW136935   3.028   2.033  11.539 -0.6359 -2.8661 -0.3404
 8491SOL    HW236936   3.147   2.109  11.599  0.1130 -0.6373  2.4281
 8492SOL     OW36937   1.585   3.505  12.817  0.0196 -0.2083  0.2967
 8492SOL    HW136938   1.496   3.512  12.851  0.2258  0.0853  0.7759
 8492SOL    HW236939   1.573   3.571  12.749  1.6448 -2.5597 -2.2416
 8493SOL     OW36940   4.212   1.723   4.923 -0.1538 -0.3361 -0.5341
 8493SOL    HW136941   4.223   1.679   4.839 -2.0056  1.8683 -1.9090
 8493SOL    HW236942   4.231   1.655   4.989  0.5660  1.8079  1.4617
 8494SOL     OW36943   2.896   0.615   2.248  0.3597  0.0778  0.2292
 8494SOL    HW136944   2.952   0.558   2.302  1.0235 -1.1149 -1.7174
 8494SOL    HW236945   2.900   0.570   2.164  0.0616  0.1442  0.1802
 8495SOL     OW36946   2.943   4.338   3.477  0.2108  0.0895 -0.6884
 8495SOL    HW136947   2.850   4.317   3.487  0.0456  1.3572  0.5748
 8495SOL    HW236948   2.971   4.276   3.411 -0.5909 -1.1560  0.1462
 8496SOL     OW36949   1.560   0.052   0.273  0.2835  0.4380  0.1564
 8496SOL    HW136950   1.634   4.718   0.262  1.9230  2.6781 -0.8380
 8496SOL    HW236951   1.600   0.124   0.321  0.4295  0.3461  0.1739
 8497SOL     OW36952   0.501   4.470   1.669 -0.6912 -0.0378  0.2782
 8497SOL    HW136953   0.512   4.565   1.660 -0.2626 -0.2248 -1.0873
 8497SOL    HW236954   0.577   4.447   1.722 -0.6635 -1.8320 -0.5459
 8498SOL     OW36955   2.216   2.972  12.700  0.8779 -0.1895  0.3224
 8498SOL    HW136956   2.128   2.938  12.719  1.3989 -1.8719 -0.3510
 8498SOL    HW236957   2.236   2.912  12.629  0.9396  1.1069 -0.7456
 8499SOL     OW36958   2.249   0.465   9.985 -0.2549 -0.0350 -0.2152
 8499SOL    HW136959   2.293   0.546  10.013 -0.6680  0.3599 -0.7143
 8499SOL    HW236960   2.167   0.489   9.942 -0.1313 -0.2164 -0.5509
 8500SOL     OW36961   2.934   0.327   7.163  0.0533  0.1749  0.0800
 8500SOL    HW136962   2.848   0.356   7.191  0.4305  0.8314  0.5747
 8500SOL    HW236963   2.961   0.386   7.093 -1.1723  1.9026  1.0749
 8501SOL     OW36964   2.833   3.039   1.721  1.0722  0.8338 -0.1190
 8501SOL    HW136965   2.861   2.974   1.656 -2.4767 -0.2002 -0.5878
 8501SOL    HW236966   2.744   3.063   1.698  0.5354  1.0092  2.1822
 8502SOL     OW36967   3.987   4.710   7.712 -0.2201 -0.2232  0.6984
 8502SOL    HW136968   3.924   4.660   7.659 -0.8356 -1.0621  2.2152
 8502SOL    HW236969   3.924   0.042   7.757 -0.8705  0.9094 -1.6360
 8503SOL     OW36970   0.986   3.791   5.706 -0.5334 -0.1092 -0.4887
 8503SOL    HW136971   0.940   3.738   5.641  0.2049 -1.3566  0.0064
 8503SOL    HW236972   0.972   3.745   5.789  2.4155  0.5806  0.3783
 8504SOL     OW36973   0.253   0.947   8.918  0.0038  0.2523 -0.4572
 8504SOL    HW136974   0.215   0.965   8.832  1.0327 -1.7439 -1.3129
 8504SOL    HW236975   0.265   1.036   8.952  0.9786 -0.9873  2.3921
 8505SOL     OW36976   2.455   4.424   7.599  0.1329 -0.1271 -0.2271
 8505SOL    HW136977   2.480   4.335   7.573 -1.5352 -0.5056 -0.5061
 8505SOL    HW236978   2.463   4.475   7.519  5.1834  1.1717  1.0813
 8506SOL     OW36979   1.493   0.881  14.300 -0.3118 -0.3790 -0.0525
 8506SOL    HW136980   1.463   0.873  14.209  0.2491 -2.3868 -0.0792
 8506SOL    HW236981   1.547   0.802  14.300 -0.7573 -0.6881 -1.9076
 8507SOL     OW36982   2.283   1.929   3.882 -0.0145  0.3910  0.2687
 8507SOL    HW136983   2.281   1.901   3.974 -1.8720 -0.0618  0.0860
 8507SOL    HW236984   2.332   2.011   3.882  1.3756 -0.4373 -0.1609
 8508SOL     OW36985   3.294   1.464   7.781  0.4482 -0.3472  0.0278
 8508SOL    HW136986   3.235   1.517   7.727  1.4775  2.4213  1.6491
 8508SOL    HW236987   3.355   1.530   7.813  0.9621 -0.1415 -1.3779
 8509SOL     OW36988   2.692   4.361  11.755  0.4064  0.2666  0.5201
 8509SOL    HW136989   2.786   4.346  11.752  0.3565  0.2432 -1.1676
 8509SOL    HW236990   2.698   4.457  11.756  2.1048  0.1686 -1.3472
 8510SOL     OW36991   1.433   0.144  12.031  0.8101  0.1209 -0.2231
 8510SOL    HW136992   1.407   0.160  12.121 -3.5174  0.5374 -1.5304
 8510SOL    HW236993   1.525   0.170  12.035  0.9499 -0.1495 -1.4847
 8511SOL     OW36994   0.322   3.416   9.073  0.3594  0.0286 -0.2760
 8511SOL    HW136995   0.296   3.453   8.989  1.1459 -1.3663 -1.1277
 8511SOL    HW236996   0.240   3.375   9.098  0.0827 -0.4483 -2.0226
 8512SOL     OW36997   4.382   1.681  16.905  0.3267 -0.0557  0.5460
 8512SOL    HW136998   4.316   1.703  16.970 -0.6436  2.0980 -1.1643
 8512SOL    HW236999   4.343   1.717  16.826 -0.9916  0.8875  1.6329
 8513SOL     OW37000   2.258   0.169   9.119 -0.0011 -0.5108  0.2135
 8513SOL    HW137001   2.225   0.091   9.163  0.1902  0.3056  1.7765
 8513SOL    HW237002   2.205   0.242   9.152  3.0826  1.1235  1.4559
 8514SOL     OW37003   2.322   3.854   3.594 -0.0308 -0.1164 -0.5400
 8514SOL    HW137004   2.373   3.775   3.576 -0.6043 -0.1170 -2.1163
 8514SOL    HW237005   2.237   3.821   3.624 -0.2649 -0.1442 -1.2341
 8515SOL     OW37006   1.745   0.307   5.798  0.2244 -0.2726  0.0728
 8515SOL    HW137007   1.650   0.318   5.806  0.1155  0.2325 -1.9604
 8515SOL    HW237008   1.769   0.216   5.812  0.1917  0.2396  3.3627
 8516SOL     OW37009   1.611   0.281   7.145 -0.3276  0.3497  0.0970
 8516SOL    HW137010   1.528   0.236   7.128 -0.6371  0.6755  0.7172
 8516SOL    HW237011   1.588   0.306   7.234  2.5884 -0.9159  1.2020
 8517SOL     OW37012   1.794   4.511   4.347 -0.0194  0.1332 -0.1922
 8517SOL    HW137013   1.739   4.539   4.274 -2.7521  0.1253  1.8367
 8517SOL    HW237014   1.778   4.580   4.411  3.4892  0.5775  0.1658
 8518SOL     OW37015   1.026   0.407   6.791 -0.9264  0.5686 -0.0466
 8518SOL    HW137016   0.989   0.377   6.709  0.7726 -2.2116  0.2090
 8518SOL    HW237017   1.037   0.323   6.836 -0.1048  0.6152 -0.1629
 8519SOL     OW37018   1.215   4.427   2.553 -0.1272  0.4134  0.0411
 8519SOL    HW137019   1.160   4.366   2.504  2.1306 -1.6014  0.0275
 8519SOL    HW237020   1.246   4.489   2.487  0.3541 -1.3053 -1.3323
 8520SOL     OW37021   3.302   4.449   8.292  0.0792  0.1240  0.2559
 8520SOL    HW137022   3.343   4.451   8.378 -1.0068  0.7613  0.7685
 8520SOL    HW237023   3.216   4.472   8.327  0.2283  2.7692 -1.1753
 8521SOL     OW37024   1.847   3.577   5.771  0.1903  0.0195  0.1768
 8521SOL    HW137025   1.850   3.485   5.744 -0.8643  0.6361 -2.0352
 8521SOL    HW237026   1.790   3.617   5.706 -0.2205 -0.8007  0.0265
 8522SOL     OW37027   0.780   1.517   4.587  0.2945  0.7517  0.2813
 8522SOL    HW137028   0.752   1.426   4.584 -1.2050  1.2850 -2.3181
 8522SOL    HW237029   0.761   1.560   4.503  3.4153  1.3462 -0.1446
 8523SOL     OW37030   4.622   0.061   1.843 -0.5438  0.3373 -0.3288
 8523SOL    HW137031   4.587   4.701   1.818  0.8608 -1.8255  4.9361
 8523SOL    HW237032   4.548   0.111   1.878 -1.1475 -1.4049  0.8378
 8524SOL     OW37033   1.514   2.829   7.589 -0.5448  0.0902  0.2443
 8524SOL    HW137034   1.609   2.831   7.597 -0.5179 -0.4529  0.0329
 8524SOL    HW237035   1.509   2.855   7.497  1.6739 -2.6862 -0.6598
 8525SOL     OW37036   1.812   2.823   8.299  0.2906 -0.4324 -0.5130
 8525SOL    HW137037   1.744   2.883   8.330  1.2882  0.6674 -0.4576
 8525SOL    HW237038   1.764   2.741   8.288  1.9154 -2.0365  4.3596
 8526SOL     OW37039   1.246   0.894   1.960 -0.2021 -0.3087 -0.5458
 8526SOL    HW137040   1.170   0.875   1.906 -1.4212  0.2788  0.9806
 8526SOL    HW237041   1.307   0.861   1.893  1.2134  2.1731 -0.5092
 8527SOL     OW37042   1.091   0.922   7.962 -0.1119  0.1720  0.3301
 8527SOL    HW137043   1.032   0.988   7.926 -0.9403  0.0794  1.5422
 8527SOL    HW237044   1.109   0.957   8.049  1.3367  1.8705 -0.6551
 8528SOL     OW37045   4.405   0.522   8.501 -0.0570 -0.2885 -0.0839
 8528SOL    HW137046   4.444   0.447   8.455  3.0807  0.3877  1.4261
 8528SOL    HW237047   4.313   0.502   8.517  0.1611 -0.8809  0.4874
 8529SOL     OW37048   1.779   3.317   5.886 -0.0857  0.3035  0.1335
 8529SOL    HW137049   1.863   3.279   5.861 -0.1295 -0.3504  0.9649
 8529SOL    HW237050   1.787   3.352   5.975 -0.7451  2.2590 -0.5730
 8530SOL     OW37051   3.071   1.039   4.777 -0.5224  0.6623 -0.1129
 8530SOL    HW137052   3.143   1.089   4.816 -1.4973  1.4424  0.6783
 8530SOL    HW237053   3.088   1.044   4.682  3.3728 -3.5974  0.3569
 8531SOL     OW37054   0.617   1.776   9.031  0.2600 -0.5399 -0.5995
 8531SOL    HW137055   0.681   1.761   8.963  0.4757  1.4338 -0.8228
 8531SOL    HW237056   0.564   1.838   8.981 -1.9659 -0.7987  1.3969
 8532SOL     OW37057   0.092   0.843   3.580 -0.0477 -0.0574 -0.3842
 8532SOL    HW137058   0.121   0.928   3.614  0.4137 -0.5171  0.3749
 8532SOL    HW237059   0.008   0.864   3.538 -0.6593 -1.1319  0.2995
 8533SOL     OW37060   0.755   3.827   9.032 -0.4082 -0.1529  0.6112
 8533SOL    HW137061   0.722   3.873   9.109 -1.0742  0.4672 -0.0349
 8533SOL    HW237062   0.834   3.869   8.997 -0.5836 -1.0042 -0.8007
 8534SOL     OW37063   4.266   1.122  16.987 -0.3323  0.1549 -0.3532
 8534SOL    HW137064   4.297   1.058  17.051 -0.6188  1.0139  0.6549
 8534SOL    HW237065   4.290   1.081  16.904  0.6320 -0.6784  0.3346
 8535SOL     OW37066   4.388   2.142  14.820  0.2498 -0.7283 -0.0377
 8535SOL    HW137067   4.444   2.180  14.887 -0.3200 -1.1423  0.6750
 8535SOL    HW237068   4.308   2.145  14.873  0.7106 -2.2534  0.7285
 8536SOL     OW37069   4.624   4.187  14.522  0.1250 -0.0628 -0.4448
 8536SOL    HW137070   4.592   4.098  14.504 -0.2502  0.1809 -0.9732
 8536SOL    HW237071   4.716   4.166  14.507 -0.1637 -0.8910 -1.1129
 8537SOL     OW37072   1.228   3.540   7.319 -0.0542 -0.6326  0.1128
 8537SOL    HW137073   1.222   3.447   7.342  0.4858 -0.6003  0.3774
 8537SOL    HW237074   1.320   3.543   7.347 -0.3439  0.3509  0.9535
 8538SOL     OW37075   1.508   0.983   7.072  0.2364  0.4627  0.5804
 8538SOL    HW137076   1.478   1.013   7.158 -1.0180  1.1859 -0.1217
 8538SOL    HW237077   1.583   1.043   7.075 -0.4093  1.3357 -1.4573
 8539SOL     OW37078   4.411   4.675   3.595 -0.4073  0.0929  0.2198
 8539SOL    HW137079   4.379   4.624   3.670 -0.9188 -0.5454 -0.4331
 8539SOL    HW237080   4.502   4.648   3.592 -0.5796 -0.1695 -3.1005
 8540SOL     OW37081   3.021   2.991   6.725 -0.2253  0.4988  0.3222
 8540SOL    HW137082   3.026   3.085   6.704  1.2440  0.2311 -0.5510
 8540SOL    HW237083   3.105   2.980   6.769  0.0354 -1.2437 -0.6013
 8541SOL     OW37084   2.824   1.733   4.653 -0.3723  0.0272  0.3876
 8541SOL    HW137085   2.791   1.652   4.693  0.6806  0.1410  1.4625
 8541SOL    HW237086   2.745   1.788   4.650 -0.6967 -0.4212  0.5750
 8542SOL     OW37087   4.222   2.046  15.315  0.2920  0.1757 -0.0707
 8542SOL    HW137088   4.142   2.096  15.298  0.0459  0.0664  0.7417
 8542SOL    HW237089   4.214   1.984  15.243 -1.6686  1.3367 -0.8398
 8543SOL     OW37090   1.943   2.291   7.739  0.2718 -0.3141  0.3223
 8543SOL    HW137091   1.982   2.363   7.690  0.7652 -0.3148  0.7089
 8543SOL    HW237092   1.857   2.329   7.753  0.2255 -0.4909  0.5198
 8544SOL     OW37093   2.211   3.961   4.555  0.1451  0.1316  0.2669
 8544SOL    HW137094   2.159   3.981   4.633 -0.2597  2.7854 -0.6820
 8544SOL    HW237095   2.199   4.036   4.497  1.8977 -0.1991 -0.5126
 8545SOL     OW37096   1.934   3.172   7.388 -0.5310 -0.3920  0.3318
 8545SOL    HW137097   1.970   3.180   7.476  2.3540 -2.6437 -0.6294
 8545SOL    HW237098   1.911   3.259   7.358  0.2961 -0.6782 -1.0960
 8546SOL     OW37099   2.616   3.152  13.216 -0.6400 -0.0280 -0.1057
 8546SOL    HW137100   2.665   3.089  13.268  1.0695  0.8591 -0.6666
 8546SOL    HW237101   2.652   3.131  13.130  2.1092 -0.6696  1.2230
 8547SOL     OW37102   3.734   0.073   2.072  0.1710 -0.2208 -0.0619
 8547SOL    HW137103   3.698   0.133   2.137 -0.7409 -0.3971 -0.4048
 8547SOL    HW237104   3.810   0.048   2.124 -0.0150  0.1875  0.4056
 8548SOL     OW37105   3.761   3.580   9.133  0.5168  0.7539 -0.2531
 8548SOL    HW137106   3.691   3.598   9.069  1.7200  1.1477 -1.4574
 8548SOL    HW237107   3.704   3.579   9.210  0.5964  1.9412 -0.1711
 8549SOL     OW37108   2.557   2.088   3.762  0.1072  0.2253 -0.3744
 8549SOL    HW137109   2.636   2.141   3.759  0.8104 -0.7714  0.4970
 8549SOL    HW237110   2.491   2.156   3.777  0.6960  1.2126 -2.3163
 8550SOL     OW37111   3.999   2.582  10.147  0.0389  0.1204 -0.6383
 8550SOL    HW137112   3.959   2.669  10.151 -0.5094 -0.0422 -2.4561
 8550SOL    HW237113   4.094   2.595  10.155 -0.1857 -0.0847  2.3458
 8551SOL     OW37114   3.675   3.312   5.303  1.0562 -0.4626  0.2842
 8551SOL    HW137115   3.748   3.333   5.245 -0.6744 -0.0859 -1.7480
 8551SOL    HW237116   3.598   3.308   5.246  1.5117 -0.2090 -0.3502
 8552SOL     OW37117   3.668   0.908   7.759 -0.8101  0.3379 -0.5936
 8552SOL    HW137118   3.679   0.813   7.762 -0.0302  0.4406 -0.0284
 8552SOL    HW237119   3.574   0.909   7.743 -0.7613 -0.8276 -0.8914
 8553SOL     OW37120   3.904   4.097   6.134  0.0770  0.4719 -0.0388
 8553SOL    HW137121   3.939   4.120   6.221  0.1367  2.4391 -0.5904
 8553SOL    HW237122   3.824   4.051   6.163 -0.5138  1.3905 -0.2157
 8554SOL     OW37123   3.155   0.787   0.146  0.2482 -0.1442 -0.0243
 8554SOL    HW137124   3.169   0.840   0.067  1.1327 -0.2992  0.0238
 8554SOL    HW237125   3.073   0.825   0.177  0.9446  0.4465  1.0741
 8555SOL     OW37126   2.041   4.694   7.987  0.7282 -0.1356  0.5804
 8555SOL    HW137127   1.995   4.678   8.069  1.2529  0.8492  1.0720
 8555SOL    HW237128   1.969   0.007   7.938  0.9277  0.7190  0.9548
 8556SOL     OW37129   0.144   0.152   0.601  0.0762 -0.3406  0.0780
 8556SOL    HW137130   0.056   0.114   0.604  0.6338 -1.5011  1.6655
 8556SOL    HW237131   0.151   0.205   0.681  0.3302 -0.4112  0.1014
 8557SOL     OW37132   3.575   1.088   6.680  0.1279  0.5773  0.4139
 8557SOL    HW137133   3.487   1.118   6.658 -0.4153 -1.0824  0.2784
 8557SOL    HW237134   3.568   0.993   6.691 -1.8236  0.3664 -2.6370
 8558SOL     OW37135   2.178   0.399   8.700 -0.8008  0.4761  0.2343
 8558SOL    HW137136   2.227   0.476   8.729 -1.3546  1.1967 -0.7417
 8558SOL    HW237137   2.220   0.376   8.618  2.5739 -4.9317  3.4690
 8559SOL     OW37138   1.992   3.815   5.081 -0.3879 -0.3949  0.8766
 8559SOL    HW137139   2.020   3.772   5.162 -1.4970 -0.7975  1.0388
 8559SOL    HW237140   2.036   3.896   5.106  1.7958 -1.0525 -0.7978
 8560SOL     OW37141   0.085   4.487   6.574 -0.2800 -0.7514 -0.5382
 8560SOL    HW137142   0.013   4.425   6.584 -1.7972  1.1114  0.0307
 8560SOL    HW237143   0.120   4.459   6.489  1.4845 -2.6346  0.7980
 8561SOL     OW37144   0.187   0.102   9.046 -0.6939 -0.0070  0.0359
 8561SOL    HW137145   0.106   0.071   9.005 -0.4524 -2.4552  1.4250
 8561SOL    HW237146   0.162   0.138   9.131  1.3152 -1.7519  1.3395
 8562SOL     OW37147   4.701   3.908   0.059  0.3375 -0.2889  0.0112
 8562SOL    HW137148   0.000   3.843   0.125 -0.3704 -0.8361 -0.2642
 8562SOL    HW237149   4.607   3.906   0.076  0.1257 -0.0179 -1.1193
 8563SOL     OW37150   3.045   4.500   4.991  0.3459  0.2122  0.2928
 8563SOL    HW137151   3.014   4.582   5.030 -1.2072 -1.2087  2.0710
 8563SOL    HW237152   3.139   4.508   5.007 -0.4295  2.7689  3.4712
 8564SOL     OW37153   1.405   0.098   7.032 -0.3514  0.0828 -0.1356
 8564SOL    HW137154   1.373   0.149   6.957 -0.2410  2.4000  1.4014
 8564SOL    HW237155   1.416   0.015   6.985 -0.7606 -0.1804  0.2284
 8565SOL     OW37156   2.471   4.381   9.294  0.1172  0.0689  0.5026
 8565SOL    HW137157   2.448   4.443   9.225 -2.9645 -1.6364 -0.0491
 8565SOL    HW237158   2.555   4.410   9.329  0.8741 -2.8599  1.1747
 8566SOL     OW37159   1.666   3.436   8.206  0.0406  0.4993  0.0328
 8566SOL    HW137160   1.681   3.401   8.294  0.3792  0.6391  0.0302
 8566SOL    HW237161   1.700   3.362   8.155 -1.6250 -0.2121 -0.0542
 8567SOL     OW37162   3.104   0.834   2.779  0.3500  0.0281 -0.1627
 8567SOL    HW137163   3.190   0.852   2.742  1.0861 -1.0773  1.0228
 8567SOL    HW237164   3.131   0.850   2.869 -0.6190  0.3650  0.0765
 8568SOL     OW37165   0.303   3.891   3.614  0.1511  0.5394 -0.7724
 8568SOL    HW137166   0.381   3.889   3.558  0.5974  0.3397 -0.1455
 8568SOL    HW237167   0.252   3.817   3.579 -1.2671  0.0079  2.4135
 8569SOL     OW37168   4.696   2.468   5.228  0.3611  0.1533 -0.0999
 8569SOL    HW137169   0.055   2.424   5.217 -0.6704 -1.5173 -1.3043
 8569SOL    HW237170   4.647   2.443   5.150 -1.1853 -1.1801  1.3008
 8570SOL     OW37171   2.816   4.122  13.039 -0.1920  0.2256  0.1491
 8570SOL    HW137172   2.831   4.159  12.952 -2.0261 -0.0265 -0.2745
 8570SOL    HW237173   2.870   4.043  13.036  1.6303  1.4662 -0.1116
 8571SOL     OW37174   1.113   1.141   3.826  0.1912 -0.1275  0.1700
 8571SOL    HW137175   1.042   1.080   3.846 -1.3433  1.0940 -1.5677
 8571SOL    HW237176   1.150   1.095   3.750  0.6255 -0.7374  0.7551
 8572SOL     OW37177   1.716   0.676   5.558 -0.6399 -0.4296  0.1284
 8572SOL    HW137178   1.781   0.741   5.584 -0.7605 -0.5342  0.6933
 8572SOL    HW237179   1.634   0.706   5.597 -1.2102  0.7829 -1.9728
 8573SOL     OW37180   0.750   1.389   3.793 -0.3664  0.5966 -0.1433
 8573SOL    HW137181   0.716   1.306   3.760  1.5914 -0.4688  0.4726
 8573SOL    HW237182   0.828   1.355   3.839  0.3701  0.2570 -1.6577
 8574SOL     OW37183   2.628   0.933   5.959 -0.0367 -0.6487 -0.7366
 8574SOL    HW137184   2.713   0.964   5.990  0.8527 -3.5623 -0.2301
 8574SOL    HW237185   2.576   0.952   6.037  0.3715  0.5032 -0.7433
 8575SOL     OW37186   3.808   3.086  13.065 -0.0422  0.5242 -0.2677
 8575SOL    HW137187   3.752   3.150  13.021 -0.2687 -0.2307 -1.0836
 8575SOL    HW237188   3.822   3.013  13.004  0.5188 -1.0031  1.7014
 8576SOL     OW37189   1.519   0.249   1.850 -0.4195 -0.0618 -0.0404
 8576SOL    HW137190   1.550   0.273   1.937  3.1118  0.1459 -1.3557
 8576SOL    HW237191   1.589   0.274   1.790 -0.3432  0.5172  0.2927
 8577SOL     OW37192   4.265   1.092  10.958 -0.1209  1.3125  0.0957
 8577SOL    HW137193   4.357   1.114  10.978  0.0931  0.0215  0.5547
 8577SOL    HW237194   4.268   1.067  10.866 -2.5315  0.1315  0.3492
 8578SOL     OW37195   2.048   0.197  10.415  0.0643  0.0946  0.1643
 8578SOL    HW137196   2.046   0.121  10.474  0.3447  0.2951  0.4378
 8578SOL    HW237197   2.028   0.267  10.477 -1.0259  0.8072 -1.0040
 8579SOL     OW37198   2.884   0.419  13.353  0.4448  0.3075  0.1084
 8579SOL    HW137199   2.915   0.405  13.263 -1.2264 -0.5415 -0.3382
 8579SOL    HW237200   2.959   0.444  13.407  0.5981 -1.0128  0.5265
 8580SOL     OW37201   3.896   0.637  11.348  0.4139 -0.0678  0.3892
 8580SOL    HW137202   3.925   0.684  11.271 -1.1736  1.8754  0.9737
 8580SOL    HW237203   3.808   0.672  11.360  0.8880  0.3170  2.7291
 8581SOL     OW37204   2.575   1.109   2.471  0.2542  0.4327  0.1816
 8581SOL    HW137205   2.565   1.018   2.499  0.9269  1.1359  2.7019
 8581SOL    HW237206   2.564   1.157   2.553 -0.1555  0.6875 -0.0157
 8582SOL     OW37207   2.122   2.553  12.962 -0.7296  0.0004 -0.3281
 8582SOL    HW137208   2.202   2.552  12.909 -1.2589 -2.0168 -1.0684
 8582SOL    HW237209   2.054   2.540  12.896  1.2845 -0.0120 -2.4173
 8583SOL     OW37210   2.450   0.184   8.170 -0.1444 -0.0878  0.0625
 8583SOL    HW137211   2.472   0.271   8.205  0.3246 -0.1750 -0.0095
 8583SOL    HW237212   2.395   0.215   8.098  1.0534  1.8724 -0.0136
 8584SOL     OW37213   4.321   4.721  16.764  0.4386 -0.0698  0.0997
 8584SOL    HW137214   4.393   4.658  16.773 -0.0984 -0.1462  3.8099
 8584SOL    HW237215   4.254   4.696  16.828  1.5151  1.1850  1.7264
 8585SOL     OW37216   4.446   1.225   4.128 -0.3960 -0.6004  0.0829
 8585SOL    HW137217   4.427   1.318   4.123 -3.3740 -1.1072  1.9513
 8585SOL    HW237218   4.508   1.217   4.201 -0.2638 -1.6261 -0.1453
 8586SOL     OW37219   0.445   2.755   5.130  0.1996 -0.1211 -0.2542
 8586SOL    HW137220   0.424   2.662   5.130  0.5223 -0.1939  1.4474
 8586SOL    HW237221   0.514   2.745   5.065  1.5391  2.0105  0.8293
 8587SOL     OW37222   1.538   3.764  14.078  0.1726 -0.2439  0.4116
 8587SOL    HW137223   1.585   3.847  14.075  0.9980 -0.6815  1.2489
 8587SOL    HW237224   1.587   3.707  14.018 -0.2017 -1.5982  1.3874
 8588SOL     OW37225   1.559   1.458  13.170 -0.0781  0.3544  0.1324
 8588SOL    HW137226   1.645   1.474  13.131  0.7352 -0.4205  1.5696
 8588SOL    HW237227   1.504   1.488  13.098  1.7308 -1.4942 -1.9974
 8589SOL     OW37228   1.977   0.212   8.681  0.3918  0.0341 -0.4034
 8589SOL    HW137229   2.053   0.270   8.682 -0.0215  0.5646  0.0844
 8589SOL    HW237230   2.012   0.127   8.706  0.9948  0.8291  1.4159
 8590SOL     OW37231   4.625   4.516   5.474  0.3739 -0.1545 -0.0172
 8590SOL    HW137232   4.643   4.548   5.562  0.8956  1.8383 -0.8563
 8590SOL    HW237233   4.702   4.544   5.425  1.0390  0.1941  1.2426
 8591SOL     OW37234   0.501   3.841   7.508 -1.0969  0.1441 -0.1091
 8591SOL    HW137235   0.503   3.919   7.452  0.4070  0.3636  0.2502
 8591SOL    HW237236   0.432   3.790   7.467 -1.1450  0.9646 -1.0592
 8592SOL     OW37237   3.570   1.698   9.390  0.1303 -0.2319  0.0878
 8592SOL    HW137238   3.527   1.749   9.321 -0.2001  3.3304  2.9206
 8592SOL    HW237239   3.631   1.641   9.344  0.0955  1.4708 -2.0878
 8593SOL     OW37240   1.733   2.488   7.709  0.5514 -0.9450 -0.0253
 8593SOL    HW137241   1.749   2.531   7.793 -2.0881 -0.3419  0.1648
 8593SOL    HW237242   1.642   2.461   7.722  0.1328  0.1348 -0.7084
 8594SOL     OW37243   1.322   0.905   6.189  0.5815 -0.2213 -0.0120
 8594SOL    HW137244   1.229   0.924   6.196  0.5246 -0.5099 -0.0052
 8594SOL    HW237245   1.367   0.977   6.233 -0.4356  1.0884 -1.1100
 8595SOL     OW37246   2.009   3.757   6.801  0.5161  0.1443  0.3323
 8595SOL    HW137247   1.977   3.667   6.801 -0.4625  0.4982 -0.9120
 8595SOL    HW237248   2.003   3.773   6.707 -0.2780 -0.7865  0.2214
 8596SOL     OW37249   1.093   4.266   8.376 -0.6314 -0.5113  0.5291
 8596SOL    HW137250   1.155   4.247   8.447 -0.6912 -1.1454  0.4131
 8596SOL    HW237251   1.140   4.324   8.316  0.0452  0.0555  1.6114
 8597SOL     OW37252   0.044   0.330   3.669  0.2914  0.5138 -0.1038
 8597SOL    HW137253   4.676   0.350   3.665 -0.0656 -0.7141  1.9940
 8597SOL    HW237254   0.061   0.357   3.759 -3.5016  2.1862  0.0842
 8598SOL     OW37255   3.576   2.338  12.681  0.1993  0.4441  0.2796
 8598SOL    HW137256   3.497   2.372  12.638 -0.6168 -0.0476  1.3907
 8598SOL    HW237257   3.630   2.334  12.602  0.1569  2.5576  0.1452
 8599SOL     OW37258   1.555   4.643  16.623  0.1048 -0.0059 -0.9259
 8599SOL    HW137259   1.507   4.570  16.585 -0.3035  0.1897 -0.7827
 8599SOL    HW237260   1.641   4.613  16.593  0.3862  1.4741 -1.5851
 8600SOL     OW37261   4.008   2.101  10.026  0.0285  0.3169  0.0227
 8600SOL    HW137262   3.964   2.181   9.996 -0.8182  0.1817  0.8743
 8600SOL    HW237263   4.061   2.066   9.955 -0.1272  0.3301 -0.1008
 8601SOL     OW37264   2.825   0.984   3.085 -0.5558  0.0608 -0.1948
 8601SOL    HW137265   2.807   0.890   3.095  1.5218 -0.1911  1.1585
 8601SOL    HW237266   2.742   1.015   3.048  0.8383  1.3085 -2.2634
 8602SOL     OW37267   3.280   1.131   7.334 -0.6648  0.0561  0.1421
 8602SOL    HW137268   3.306   1.123   7.426 -0.9601 -1.0217  0.1369
 8602SOL    HW237269   3.342   1.200   7.309 -1.4716  0.9176  0.5679
 8603SOL     OW37270   1.265   3.816   9.024 -0.6717 -0.0037 -0.1159
 8603SOL    HW137271   1.302   3.868   8.953 -2.0473 -1.3254 -1.7995
 8603SOL    HW237272   1.340   3.816   9.083 -1.3678  2.0245  0.7638
 8604SOL     OW37273   2.046   4.597   7.549 -0.0643 -0.0502  0.3117
 8604SOL    HW137274   2.104   4.584   7.624  0.3806 -0.2765 -0.0712
 8604SOL    HW237275   2.039   4.503   7.532 -1.8722  0.3594 -1.1418
 8605SOL     OW37276   4.362   0.528   7.973  0.2650 -0.3462 -0.0627
 8605SOL    HW137277   4.410   0.603   8.007  2.1399 -1.4147 -0.3883
 8605SOL    HW237278   4.327   0.481   8.049 -2.8318  1.3249 -0.4467
 8606SOL     OW37279   2.057   2.308   3.199 -0.0674  0.6861  0.0070
 8606SOL    HW137280   2.113   2.324   3.275 -2.2117 -0.8189  1.9297
 8606SOL    HW237281   2.109   2.334   3.124 -1.7188 -0.2253 -1.4507
 8607SOL     OW37282   2.693   0.357   5.328 -0.0278 -0.9745 -0.0258
 8607SOL    HW137283   2.789   0.361   5.335 -0.0875  1.1601 -0.4605
 8607SOL    HW237284   2.653   0.377   5.413 -0.0770  1.4528 -0.6207
 8608SOL     OW37285   4.428   0.436   7.373 -0.5219 -0.1447  0.1127
 8608SOL    HW137286   4.440   0.440   7.468  0.3092 -1.6818  0.0767
 8608SOL    HW237287   4.420   0.342   7.353  1.4554 -0.2831 -0.0890
 8609SOL     OW37288   1.522   2.625   6.053 -0.2048  0.0891 -0.0054
 8609SOL    HW137289   1.542   2.711   6.016 -0.2072  1.2289  2.5870
 8609SOL    HW237290   1.446   2.643   6.108 -0.0393 -2.4985  1.1063
 8610SOL     OW37291   2.340   2.952   2.069 -0.2297 -0.8249  0.1315
 8610SOL    HW137292   2.390   2.887   2.019  2.2465  0.8993  0.3321
 8610SOL    HW237293   2.391   2.951   2.151  0.6147 -1.2490 -0.3997
 8611SOL     OW37294   4.357   2.146   4.746  0.0236  0.0562 -0.3172
 8611SOL    HW137295   4.265   2.144   4.770  0.5424  0.8427  1.8146
 8611SOL    HW237296   4.392   2.215   4.803  0.6426 -0.6506  0.1643
 8612SOL     OW37297   3.339   0.662   2.116 -0.3366 -0.1120  0.2247
 8612SOL    HW137298   3.374   0.707   2.193  0.3840  1.5429 -1.0809
 8612SOL    HW237299   3.397   0.586   2.116  0.0082  0.1546  0.0278
 8613SOL     OW37300   3.651   2.354   6.860  0.6956  0.2069 -0.3256
 8613SOL    HW137301   3.727   2.384   6.910  0.1757  1.9608 -0.5598
 8613SOL    HW237302   3.703   2.300   6.801 -0.8501  0.2015 -1.6849
 8614SOL     OW37303   0.219   3.199   5.973  0.1602  0.5119  0.4448
 8614SOL    HW137304   0.294   3.217   6.030  0.2069 -0.6040  0.7335
 8614SOL    HW237305   0.232   3.244   5.890  2.4562 -0.8773  0.0581
 8615SOL     OW37306   1.272   3.046   0.168  0.0288  0.3953 -0.2149
 8615SOL    HW137307   1.185   3.085   0.179 -0.3361 -0.2167 -0.9876
 8615SOL    HW237308   1.321   3.107   0.223 -1.7168 -0.4647  2.3195
 8616SOL     OW37309   2.357   0.655   0.767  0.5943 -0.1855 -0.3926
 8616SOL    HW137310   2.405   0.593   0.822  0.5180  0.3714  0.3098
 8616SOL    HW237311   2.364   0.727   0.831  3.5544 -0.9172  0.1029
 8617SOL     OW37312   3.963   3.317   3.373  0.5261 -0.2408  0.0895
 8617SOL    HW137313   3.875   3.354   3.385 -0.1835 -2.0010  0.3146
 8617SOL    HW237314   3.946   3.226   3.351 -2.5316  0.6302 -1.2882
 8618SOL     OW37315   3.911   4.586   6.679 -0.0859 -0.4277  0.6412
 8618SOL    HW137316   3.831   4.635   6.697 -1.5893 -2.3953 -0.6337
 8618SOL    HW237317   3.927   4.611   6.588 -1.7361 -0.5439  0.3112
 8619SOL     OW37318   4.549   3.929   7.344  0.0637 -0.1928 -0.1255
 8619SOL    HW137319   4.619   3.939   7.408  1.6142  0.2731 -1.9081
 8619SOL    HW237320   4.492   4.005   7.354 -0.0170 -0.4180  1.1825
 8620SOL     OW37321   1.177   3.658   9.818  0.5550  0.5180  0.2542
 8620SOL    HW137322   1.255   3.665   9.872  0.3704 -0.9452  0.6947
 8620SOL    HW237323   1.107   3.626   9.875 -0.5054  2.4785  0.0853
 8621SOL     OW37324   1.237   2.423   5.184 -0.5849  0.1616 -0.2434
 8621SOL    HW137325   1.209   2.488   5.119 -0.0106  1.4869  0.8386
 8621SOL    HW237326   1.168   2.359   5.170 -0.1503  0.4249 -3.7372
 8622SOL     OW37327   0.255   4.565  14.996 -0.0752  0.1003  0.3651
 8622SOL    HW137328   0.283   4.474  14.986 -2.9362 -0.6281 -0.8987
 8622SOL    HW237329   0.175   4.544  15.044  0.0006 -1.8040 -0.3354
 8623SOL     OW37330   1.992   0.671   3.892 -0.2583 -0.4979 -0.3006
 8623SOL    HW137331   2.025   0.757   3.915  0.5633 -0.0986 -2.9845
 8623SOL    HW237332   1.903   0.695   3.866  0.0279  1.2142  0.3198
 8624SOL     OW37333   0.610   1.218   7.202  0.1995 -0.1160  0.3361
 8624SOL    HW137334   0.651   1.220   7.116 -2.0103 -0.1612 -0.7317
 8624SOL    HW237335   0.656   1.149   7.249  1.2449 -0.0434 -0.5969
 8625SOL     OW37336   1.626   2.364   0.339 -0.4770  1.0041  0.8069
 8625SOL    HW137337   1.552   2.423   0.329 -1.9600 -1.6976 -4.2152
 8625SOL    HW237338   1.580   2.301   0.283 -1.1181  1.2658  1.0403
 8626SOL     OW37339   1.441   1.707   6.213  0.0907 -0.5251 -0.0652
 8626SOL    HW137340   1.368   1.699   6.275  1.3790 -1.0413  1.4000
 8626SOL    HW237341   1.480   1.619   6.212  1.3865  0.0418  1.0774
 8627SOL     OW37342   3.874   2.372   8.434 -0.5666  0.4001  0.5591
 8627SOL    HW137343   3.952   2.327   8.467 -0.6142  0.5019  0.8144
 8627SOL    HW237344   3.824   2.385   8.515  1.5059 -0.2798  1.9351
 8628SOL     OW37345   3.133   1.644   7.653 -0.0255 -0.2379  0.2435
 8628SOL    HW137346   3.188   1.703   7.602  1.0242 -1.0034  0.4980
 8628SOL    HW237347   3.050   1.651   7.606  0.7234 -1.3050 -1.2320
 8629SOL     OW37348   3.671   1.712   8.921 -0.5580  0.6163  0.2779
 8629SOL    HW137349   3.604   1.780   8.917 -0.9755  0.0929 -1.9555
 8629SOL    HW237350   3.714   1.715   9.006 -2.1029  0.4496  1.0697
 8630SOL     OW37351   3.389   3.190   1.826 -0.2244 -0.1897 -0.0458
 8630SOL    HW137352   3.386   3.192   1.730  1.5248 -1.1562 -0.1338
 8630SOL    HW237353   3.474   3.234   1.834  0.1050 -1.0361  1.1197
 8631SOL     OW37354   0.333   3.978   4.433  0.1003 -0.4566 -0.2228
 8631SOL    HW137355   0.413   3.975   4.380 -0.1977 -0.1638 -0.6899
 8631SOL    HW237356   0.265   3.928   4.387 -0.1914 -0.4930  0.2509
 8632SOL     OW37357   2.580   2.834   6.255  0.2892 -0.1909  0.2184
 8632SOL    HW137358   2.563   2.923   6.222 -2.4409 -0.4872  0.8574
 8632SOL    HW237359   2.495   2.806   6.287  0.2639  0.0665  0.3788
 8633SOL     OW37360   0.113   0.627   5.958 -0.0574 -0.5288 -0.0726
 8633SOL    HW137361   0.062   0.707   5.943 -0.0155 -0.3761  0.6070
 8633SOL    HW237362   0.170   0.660   6.027  0.0060 -0.8188  0.0137
 8634SOL     OW37363   0.569   2.706   5.438 -0.3588 -0.0206 -0.0959
 8634SOL    HW137364   0.613   2.779   5.480 -1.9618 -0.9478  3.1954
 8634SOL    HW237365   0.479   2.739   5.432 -1.0029 -1.5230  1.2102
 8635SOL     OW37366   4.426   0.911  14.933 -0.1208 -0.7123  0.0182
 8635SOL    HW137367   4.474   0.982  14.976  0.7380 -2.4514  1.8903
 8635SOL    HW237368   4.446   0.841  14.994  4.3549  0.5297  0.0302
 8636SOL     OW37369   0.264   2.123   3.737  0.2382  0.0467 -0.1820
 8636SOL    HW137370   0.196   2.076   3.785  0.3847  0.8181  0.7692
 8636SOL    HW237371   0.348   2.104   3.778  0.4556 -0.2393 -0.7490
 8637SOL     OW37372   3.480   2.281  14.651  0.3719  0.3261 -0.2408
 8637SOL    HW137373   3.450   2.192  14.635 -0.9186  0.2486  2.6211
 8637SOL    HW237374   3.394   2.318  14.671 -0.1425 -1.0987  0.2000
 8638SOL     OW37375   0.642   2.246   6.435  0.3347 -0.4057 -0.0742
 8638SOL    HW137376   0.729   2.238   6.397  0.3082 -0.7429 -0.0591
 8638SOL    HW237377   0.599   2.162   6.423 -1.5909  1.0283 -3.0438
 8639SOL     OW37378   1.795   4.676  17.663 -0.4642  0.4486 -0.4116
 8639SOL    HW137379   1.833   4.588  17.667  1.4725  1.2946 -0.0589
 8639SOL    HW237380   1.844   4.703   0.038 -1.1894 -1.4289  0.7132
 8640SOL     OW37381   3.853   0.826   6.603 -0.4032  0.0437 -0.2133
 8640SOL    HW137382   3.909   0.862   6.672  0.3909  1.3397 -1.5456
 8640SOL    HW237383   3.924   0.801   6.544 -1.5441 -0.5268 -1.3491
 8641SOL     OW37384   0.183   4.553   0.619 -0.1346  0.3442 -0.1176
 8641SOL    HW137385   0.169   4.635   0.573  1.1184  0.0312 -1.0558
 8641SOL    HW237386   0.278   4.551   0.634 -0.5070 -1.0221  2.1477
 8642SOL     OW37387   2.054   2.270   5.095 -0.5828 -0.4076 -0.5091
 8642SOL    HW137388   2.085   2.319   5.171 -1.1957 -1.4280  0.4012
 8642SOL    HW237389   2.140   2.241   5.065 -0.0555  0.3432  0.2798
 8643SOL     OW37390   3.319   3.970  12.616  0.1215 -0.7775  0.0549
 8643SOL    HW137391   3.333   3.920  12.697  2.2526 -1.7506 -0.9345
 8643SOL    HW237392   3.248   3.919  12.577  1.9001 -3.2825  0.1155
 8644SOL     OW37393   3.989   2.494  14.371  0.3060 -0.3513  0.7951
 8644SOL    HW137394   3.971   2.476  14.463  2.8350  0.7512  1.4993
 8644SOL    HW237395   3.932   2.441  14.316  0.5045  0.5874 -0.3224
 8645SOL     OW37396   1.183   0.712   8.788  0.1000  0.3912 -0.0397
 8645SOL    HW137397   1.168   0.806   8.779  2.7682  0.6646 -1.8059
 8645SOL    HW237398   1.255   0.709   8.851 -0.3572 -2.0014  0.3563
 8646SOL     OW37399   3.248   2.003   3.152 -0.4962  0.6474 -0.2599
 8646SOL    HW137400   3.319   2.024   3.091 -0.2537  2.2204  0.5516
 8646SOL    HW237401   3.210   2.090   3.165  0.9592  1.4085 -1.0542
 8647SOL     OW37402   2.737   2.396   6.393  0.3846  0.2839 -0.2628
 8647SOL    HW137403   2.705   2.455   6.325 -0.7913  0.7099  0.6535
 8647SOL    HW237404   2.814   2.351   6.358  1.6420  1.6050  0.7961
 8648SOL     OW37405   2.023   2.077   1.076 -0.0139  0.6329 -0.0796
 8648SOL    HW137406   2.045   2.152   1.132  0.5330  0.6086 -0.2648
 8648SOL    HW237407   2.089   2.071   1.007  0.5795  0.2983  0.5153
 8649SOL     OW37408   2.887   1.219   7.453  0.0136  1.5202  0.0652
 8649SOL    HW137409   2.925   1.268   7.526 -4.2540  1.6990  2.1697
 8649SOL    HW237410   2.915   1.131   7.477  0.4468  1.5698 -0.2501
 8650SOL     OW37411   0.185   4.431   7.980  0.4716  0.0470  0.4683
 8650SOL    HW137412   0.134   4.397   7.907  0.2975  0.8691  0.2047
 8650SOL    HW237413   0.230   4.354   8.016  1.2287  0.9838  1.5216
 8651SOL     OW37414   0.089   2.846  12.612 -0.0002 -0.1272  0.4396
 8651SOL    HW137415   0.081   2.792  12.691 -0.1468  2.1564  1.9737
 8651SOL    HW237416   0.012   2.807  12.569  1.1810 -2.2469  0.2524
 8652SOL     OW37417   0.743   3.272   3.566  0.5264  0.0419  0.1927
 8652SOL    HW137418   0.812   3.273   3.500  0.8847 -0.9205  0.5533
 8652SOL    HW237419   0.740   3.366   3.583  2.1493  0.3265 -1.1329
 8653SOL     OW37420   3.409   3.610   2.134  0.4146  0.1448 -0.0917
 8653SOL    HW137421   3.368   3.576   2.054 -2.4985  0.4579  1.2438
 8653SOL    HW237422   3.402   3.534   2.192  0.5385  1.3083  1.4587
 8654SOL     OW37423   1.695   0.652  13.055  0.1215 -0.2560 -0.3345
 8654SOL    HW137424   1.779   0.679  13.091 -0.0030  1.3795 -1.2650
 8654SOL    HW237425   1.706   0.649  12.960 -1.0155 -0.4835 -0.4700
 8655SOL     OW37426   0.924   1.356   7.696 -0.3897  0.4955 -0.3243
 8655SOL    HW137427   0.888   1.321   7.615 -1.8206 -0.7586  0.8268
 8655SOL    HW237428   0.930   1.279   7.754 -1.1827  0.4110 -0.3470
 8656SOL     OW37429   0.849   1.262   5.979  0.0152 -0.0341 -0.3611
 8656SOL    HW137430   0.826   1.355   5.986 -0.4797 -0.0137 -2.4043
 8656SOL    HW237431   0.765   1.221   6.002  1.0901 -2.6850 -1.2868
 8657SOL     OW37432   0.387   4.356   1.472 -0.0068  0.7205 -0.1326
 8657SOL    HW137433   0.442   4.391   1.542 -0.3137  1.4281 -0.2542
 8657SOL    HW237434   0.454   4.350   1.403 -2.2241 -2.3235 -2.0560
 8658SOL     OW37435   4.605   4.501  12.475  0.8110  0.1968  0.7531
 8658SOL    HW137436   4.691   4.480  12.439 -0.0073 -0.2573 -0.9155
 8658SOL    HW237437   4.629   4.584  12.519  0.2951 -0.3920  2.1558
 8659SOL     OW37438   0.429   2.512   5.714 -0.3096 -0.1447 -0.3024
 8659SOL    HW137439   0.353   2.551   5.756  0.9599  0.9398  0.9993
 8659SOL    HW237440   0.396   2.453   5.647 -1.7787  0.2664  0.0592
 8660SOL     OW37441   1.394   4.252   4.945  0.5472 -0.2439 -0.4992
 8660SOL    HW137442   1.444   4.251   5.027  0.4032  0.3669 -0.4098
 8660SOL    HW237443   1.303   4.266   4.969  0.9723  2.3447 -0.4182
 8661SOL     OW37444   4.702   1.381   4.112  0.4101  0.4794 -0.1239
 8661SOL    HW137445   4.671   1.453   4.055  0.4060  0.8831  0.3901
 8661SOL    HW237446   4.705   1.314   4.044 -0.9148 -0.3085  0.5925
 8662SOL     OW37447   0.108   1.648   7.113 -0.5097 -0.2704  0.3742
 8662SOL    HW137448   0.183   1.602   7.076  0.0398 -0.2454  1.4507
 8662SOL    HW237449   0.128   1.654   7.206  1.0667  0.3786 -0.0166
 8663SOL     OW37450   4.053   2.325   7.401  0.7548 -0.6674 -0.0514
 8663SOL    HW137451   4.023   2.275   7.326 -3.3982 -0.3139  1.3511
 8663SOL    HW237452   4.147   2.323   7.387  0.9434  0.9126  1.0219
 8664SOL     OW37453   1.905   0.528   0.616 -0.0263  0.1609 -0.5537
 8664SOL    HW137454   1.985   0.531   0.562  0.3825 -2.2346 -0.0872
 8664SOL    HW237455   1.844   0.521   0.543 -0.2158  1.0182 -0.4794
 8665SOL     OW37456   0.862   2.545   9.659 -0.0368  0.3898  0.3060
 8665SOL    HW137457   0.878   2.451   9.672  0.8142  0.3375 -1.1719
 8665SOL    HW237458   0.863   2.569   9.752  1.8508  0.0154  0.3729
 8666SOL     OW37459   1.490   3.977  12.077 -0.3965  0.4513 -0.2423
 8666SOL    HW137460   1.497   4.037  12.151 -1.0841  1.0608 -0.6662
 8666SOL    HW237461   1.465   3.897  12.124 -0.9822 -0.2114 -1.6528
 8667SOL     OW37462   3.234   3.086   2.050 -0.1395  0.1110 -0.1130
 8667SOL    HW137463   3.173   3.145   2.006 -0.2027 -0.0717 -0.2720
 8667SOL    HW237464   3.215   2.999   2.015  1.6159 -0.4549  0.3497
 8668SOL     OW37465   3.488   2.022  13.609 -0.3753  0.4592 -0.5982
 8668SOL    HW137466   3.575   2.043  13.643  0.2284  0.9046 -2.4325
 8668SOL    HW237467   3.493   2.058  13.521 -0.1192 -0.0444 -0.7913
 8669SOL     OW37468   2.177   3.621   9.909 -0.3075 -0.4319 -0.3410
 8669SOL    HW137469   2.175   3.564   9.986  0.7979 -1.2180 -0.9055
 8669SOL    HW237470   2.082   3.610   9.899 -0.2966  0.3322 -1.3267
 8670SOL     OW37471   4.151   4.231  10.508  0.1496  0.6136  0.1924
 8670SOL    HW137472   4.058   4.233  10.531 -0.1643 -1.7129 -0.8949
 8670SOL    HW237473   4.191   4.311  10.542 -1.3627  1.8531 -0.9511
 8671SOL     OW37474   2.707   1.444   5.991  0.6944 -0.1031 -0.2861
 8671SOL    HW137475   2.667   1.433   6.077  0.4528  2.2017 -0.1044
 8671SOL    HW237476   2.762   1.520   6.011 -0.3374  0.0936  1.7808
 8672SOL     OW37477   4.337   0.456   1.159 -0.0075  0.6431  0.3580
 8672SOL    HW137478   4.392   0.512   1.104  0.7645 -0.6228 -0.1453
 8672SOL    HW237479   4.396   0.382   1.171 -3.0519 -2.0065 -0.9151
 8673SOL     OW37480   3.078   2.647  12.180  0.0764  0.2004  0.1871
 8673SOL    HW137481   2.994   2.656  12.136 -0.8720 -0.2151  1.9209
 8673SOL    HW237482   3.115   2.734  12.161  0.4850  0.1952  0.9831
 8674SOL     OW37483   2.102   1.796  10.749 -0.1394  0.2132 -0.1304
 8674SOL    HW137484   2.067   1.714  10.713 -1.8965  0.5968  0.6945
 8674SOL    HW237485   2.195   1.777  10.761  0.1889  0.7672 -1.8097
 8675SOL     OW37486   2.551   3.192   5.407 -0.1961  0.1832 -0.3379
 8675SOL    HW137487   2.606   3.127   5.451 -1.3490 -1.5784 -1.4657
 8675SOL    HW237488   2.599   3.198   5.324 -0.8525 -0.3575 -0.7651
 8676SOL     OW37489   0.279   0.646   8.805 -0.1638 -0.2966  0.3242
 8676SOL    HW137490   0.305   0.674   8.893  1.3293  0.9168 -0.4831
 8676SOL    HW237491   0.269   0.552   8.814 -0.2434 -0.4519 -1.4127
 8677SOL     OW37492   1.919   1.464  10.314 -0.7978  0.4324 -0.7557
 8677SOL    HW137493   1.867   1.443  10.392  1.5290  3.4197  1.6305
 8677SOL    HW237494   1.965   1.381  10.304  2.6869  2.3543 -0.6426
 8678SOL     OW37495   2.779   2.747   6.437 -0.3080  0.1028 -0.9274
 8678SOL    HW137496   2.849   2.735   6.372 -0.1009  0.1946 -0.7203
 8678SOL    HW237497   2.709   2.778   6.379 -0.3253 -1.2140 -1.6062
 8679SOL     OW37498   2.788   2.396   8.138 -0.1789  0.5269 -0.1272
 8679SOL    HW137499   2.729   2.471   8.145  0.6710  1.2519 -0.6919
 8679SOL    HW237500   2.871   2.430   8.172  0.6455 -0.9065 -0.6793
 8680SOL     OW37501   0.056   2.110   8.748 -0.8103 -0.6065 -0.1328
 8680SOL    HW137502   0.038   2.193   8.705 -0.1676  0.0146  0.7984
 8680SOL    HW237503   4.698   2.097   8.793 -1.1434 -1.9316 -1.1299
 8681SOL     OW37504   2.752   1.489   0.330  0.0443  0.7518  0.1390
 8681SOL    HW137505   2.672   1.492   0.382 -0.6517  0.8698 -0.9502
 8681SOL    HW237506   2.755   1.393   0.322  0.5240  0.5867  2.2287
 8682SOL     OW37507   2.491   1.335  10.393  0.0170  0.0582  0.1949
 8682SOL    HW137508   2.543   1.387  10.455 -0.6783 -1.2259  1.8564
 8682SOL    HW237509   2.406   1.370  10.419 -0.1333  0.4088 -0.7628
 8683SOL     OW37510   2.462   1.083   7.015  0.6785 -0.4414 -0.1379
 8683SOL    HW137511   2.545   1.130   7.001  0.2818  0.3238  0.0824
 8683SOL    HW237512   2.405   1.153   7.047  0.9900 -0.3148  0.1504
 8684SOL     OW37513   2.795   3.226   3.153 -0.2884  0.3776  0.4138
 8684SOL    HW137514   2.743   3.181   3.219 -2.5313  0.2122 -1.4906
 8684SOL    HW237515   2.756   3.186   3.075 -0.5281 -2.0925  1.8010
 8685SOL     OW37516   3.178   3.869   4.809  0.0376  0.1228  0.0668
 8685SOL    HW137517   3.171   3.785   4.855 -1.4970 -0.7140 -1.7060
 8685SOL    HW237518   3.170   3.929   4.883 -1.0671  2.7943 -2.1969
 8686SOL     OW37519   3.957   4.623  15.909  0.3753 -0.9112 -0.8626
 8686SOL    HW137520   4.046   4.596  15.934 -0.3392 -3.1445 -0.7078
 8686SOL    HW237521   3.950   4.559  15.838  1.6125 -0.9364 -0.9758
 8687SOL     OW37522   0.100   0.133   4.254 -0.4108  0.1092 -0.0981
 8687SOL    HW137523   0.046   0.210   4.273  1.0719  1.1440 -0.0781
 8687SOL    HW237524   0.184   0.177   4.264 -0.5843  0.1490  1.2490
 8688SOL     OW37525   2.881   1.867   7.233 -0.0418  0.1218 -0.1159
 8688SOL    HW137526   2.894   1.922   7.155  2.9229 -0.0019  0.2822
 8688SOL    HW237527   2.896   1.933   7.301 -0.4148  2.0625 -1.9096
 8689SOL     OW37528   0.161   0.726  10.092 -0.3653  0.1680  0.2366
 8689SOL    HW137529   0.221   0.800  10.082  1.7147 -1.8994 -2.4352
 8689SOL    HW237530   0.174   0.678  10.010  1.4976  3.2838 -1.3089
 8690SOL     OW37531   2.600   0.718  10.809  0.2494  0.1149  0.2864
 8690SOL    HW137532   2.518   0.766  10.804 -0.8284 -1.7176  0.3582
 8690SOL    HW237533   2.661   0.791  10.803 -0.8411  1.0233  0.1875
 8691SOL     OW37534   2.608   2.764  17.187 -0.2090  1.0499 -0.2841
 8691SOL    HW137535   2.643   2.721  17.109  0.1778 -3.5604  2.4112
 8691SOL    HW237536   2.642   2.850  17.164 -1.3853  1.6843  0.3861
 8692SOL     OW37537   0.461   0.117   9.097 -0.1016 -0.0477 -0.2852
 8692SOL    HW137538   0.365   0.107   9.093  0.0164 -0.6824 -1.4640
 8692SOL    HW237539   0.477   0.135   9.190 -3.0359  1.5724 -0.0649
 8693SOL     OW37540   2.175   4.332  12.098  0.3936 -0.7845  0.2973
 8693SOL    HW137541   2.229   4.255  12.078  1.5192 -0.2057  1.1235
 8693SOL    HW237542   2.125   4.342  12.017 -0.9201  3.1135  1.6058
 8694SOL     OW37543   1.460   2.150   9.095 -0.5732  0.3224 -0.4932
 8694SOL    HW137544   1.371   2.183   9.106 -0.3289  0.4131  1.1675
 8694SOL    HW237545   1.488   2.159   9.186  0.5566 -2.2844 -0.5861
 8695SOL     OW37546   1.914   2.074  10.201 -0.4477 -0.5906  0.6603
 8695SOL    HW137547   1.960   2.025  10.133 -0.5324  0.1348  0.0847
 8695SOL    HW237548   1.988   2.109  10.251  0.4412 -0.2319 -0.9102
 8696SOL     OW37549   3.831   3.782  16.746  0.0247 -0.4460  0.1305
 8696SOL    HW137550   3.806   3.806  16.836  0.1336 -2.4384  0.6915
 8696SOL    HW237551   3.906   3.840  16.738  1.1000 -1.7336  0.9244
 8697SOL     OW37552   2.517   0.106   8.827 -0.5741  0.4462  0.3953
 8697SOL    HW137553   2.545   0.106   8.736 -2.4031  0.6243 -0.1846
 8697SOL    HW237554   2.585   0.048   8.862 -0.7638  0.1736  0.3127
 8698SOL     OW37555   2.749   1.467   4.745  0.1322 -0.2518 -0.1902
 8698SOL    HW137556   2.684   1.467   4.674  2.1096  1.0635 -1.9869
 8698SOL    HW237557   2.721   1.400   4.808  1.2545 -1.5473 -1.0560
 8699SOL     OW37558   0.804   1.762   0.350  0.8125  0.2933  1.0737
 8699SOL    HW137559   0.895   1.747   0.322  0.3779 -1.4277  0.6133
 8699SOL    HW237560   0.788   1.767   0.444 -0.0023  0.9209  0.9006
 8700SOL     OW37561   1.843   1.342  12.294  0.4037 -0.5373 -0.0549
 8700SOL    HW137562   1.775   1.383  12.346  0.9302 -0.7329  0.7851
 8700SOL    HW237563   1.847   1.408  12.225  0.5292  0.6124  1.0562
 8701SOL     OW37564   0.064   3.789   6.818  0.6286 -0.1670  0.8872
 8701SOL    HW137565   0.006   3.816   6.890 -0.8786  0.7445 -0.6638
 8701SOL    HW237566   0.132   3.855   6.817  1.6792 -1.2584  0.1324
 8702SOL     OW37567   2.576   2.643   6.585 -0.1677 -0.2884  0.2462
 8702SOL    HW137568   2.540   2.732   6.593  1.3522  0.5090 -2.0213
 8702SOL    HW237569   2.641   2.652   6.516 -0.1808  0.9958  0.3903
 8703SOL     OW37570   1.109   2.268  13.330 -0.1301  0.4254  0.1879
 8703SOL    HW137571   1.185   2.262  13.388  0.2941  0.6555 -0.3390
 8703SOL    HW237572   1.123   2.362  13.315 -1.6255  0.7263  0.6459
 8704SOL     OW37573   1.912   0.496   1.517 -0.3075 -0.1860 -0.0322
 8704SOL    HW137574   1.997   0.470   1.553 -0.3235 -0.0141  0.1290
 8704SOL    HW237575   1.922   0.591   1.516  0.3162 -0.2463  0.0875
 8705SOL     OW37576   1.509   1.611   2.935  0.3634  0.1015 -0.2054
 8705SOL    HW137577   1.530   1.604   3.029 -3.4643 -1.3350  0.5304
 8705SOL    HW237578   1.485   1.704   2.931 -0.8545 -0.1947  0.3356
 8706SOL     OW37579   1.828   2.990   5.912  0.0805  0.5650  0.0952
 8706SOL    HW137580   1.784   3.022   5.833 -0.0867  0.2165  0.0456
 8706SOL    HW237581   1.879   2.920   5.872 -0.3627  0.5093 -0.3762
 8707SOL     OW37582   0.060   2.017   8.340 -0.0015 -0.2867 -0.1937
 8707SOL    HW137583   0.136   2.067   8.370 -0.4522 -1.5216  2.9428
 8707SOL    HW237584   0.086   1.930   8.369  0.6963  0.3779  1.1865
 8708SOL     OW37585   4.304   3.150   4.224 -0.2403 -0.1151  0.2753
 8708SOL    HW137586   4.280   3.159   4.316  1.4721 -2.0156  0.8979
 8708SOL    HW237587   4.311   3.244   4.204  2.2571  0.0917  2.1906
 8709SOL     OW37588   0.853   0.389  16.780 -0.0212  0.0304 -0.6901
 8709SOL    HW137589   0.768   0.363  16.743 -0.1133  0.2705 -0.6458
 8709SOL    HW237590   0.866   0.317  16.841  1.6586  0.3172 -0.7234
 8710SOL     OW37591   3.401   2.594  12.814 -0.2083  0.3761 -0.5834
 8710SOL    HW137592   3.473   2.538  12.844 -1.0957 -0.7278 -0.5389
 8710SOL    HW237593   3.434   2.625  12.730 -0.7344 -0.2430 -1.0122
 8711SOL     OW37594   0.880   0.205  17.545 -0.3550  0.5684 -0.3344
 8711SOL    HW137595   0.822   0.191  17.619 -0.5835 -0.1639 -0.6556
 8711SOL    HW237596   0.816   0.237  17.481  0.5312  2.1814 -0.4368
 8712SOL     OW37597   3.424   2.940   7.032 -0.0244  0.4465  0.1120
 8712SOL    HW137598   3.509   2.982   7.017  1.5061 -1.7619  2.6073
 8712SOL    HW237599   3.454   2.849   7.040  0.5395  0.4848 -1.5136
 8713SOL     OW37600   2.813   4.601  13.429 -0.2010 -0.0930  0.0798
 8713SOL    HW137601   2.817   4.693  13.402  3.6219 -0.8748 -2.0544
 8713SOL    HW237602   2.749   4.574  13.362  0.4360 -1.7488  0.1304
 8714SOL     OW37603   2.937   1.797   9.825 -0.7769 -0.1937  0.1091
 8714SOL    HW137604   2.927   1.842   9.741 -0.6873 -1.2129 -0.4428
 8714SOL    HW237605   2.856   1.828   9.866 -0.5877 -0.8113  0.9616
 8715SOL     OW37606   0.172   0.606   2.434  0.1164  1.0138 -0.7657
 8715SOL    HW137607   0.256   0.622   2.475  0.5582 -0.9537 -0.9289
 8715SOL    HW237608   0.128   0.685   2.464 -0.1104  0.7583 -0.4216
 8716SOL     OW37609   3.740   1.796  15.096  0.2512 -0.1572 -0.0232
 8716SOL    HW137610   3.666   1.853  15.118  0.8252 -0.3474  2.4271
 8716SOL    HW237611   3.746   1.819  15.003  0.4101  1.3106  0.3530
 8717SOL     OW37612   2.217   2.653  10.368 -0.3009  0.3203 -0.0993
 8717SOL    HW137613   2.283   2.589  10.395 -1.0539 -0.9850 -1.3393
 8717SOL    HW237614   2.172   2.603  10.300 -0.2369 -0.2793  0.2915
 8718SOL     OW37615   0.562   1.501  11.844  0.1176 -0.1597 -0.5563
 8718SOL    HW137616   0.601   1.431  11.896  0.2583  0.0794 -0.3429
 8718SOL    HW237617   0.564   1.575  11.904  1.4283  1.9820 -3.2053
 8719SOL     OW37618   1.203   3.272  10.303  0.8039 -0.4756  0.0554
 8719SOL    HW137619   1.199   3.359  10.262 -0.1282  1.1351  3.5207
 8719SOL    HW237620   1.111   3.256  10.323  0.8263 -1.7042 -0.8840
 8720SOL     OW37621   2.051   3.100   2.264 -0.1649  0.5055 -0.3165
 8720SOL    HW137622   2.025   3.012   2.292 -0.1433  0.4164 -0.5757
 8720SOL    HW237623   1.988   3.156   2.309  0.3538 -0.7909  1.9982
 8721SOL     OW37624   1.176   2.164   5.830  0.5440  0.2266 -0.2930
 8721SOL    HW137625   1.146   2.215   5.755 -0.0734  0.7532  0.3080
 8721SOL    HW237626   1.256   2.127   5.793 -0.5206 -0.9145 -1.4666
 8722SOL     OW37627   3.122   3.541   4.559 -0.3684 -0.7376 -0.1371
 8722SOL    HW137628   3.032   3.529   4.528  0.3010 -0.4167 -2.1488
 8722SOL    HW237629   3.135   3.453   4.595  0.7903 -1.3258 -2.0398
 8723SOL     OW37630   0.727   3.185  14.479 -0.1262  0.1843 -0.5535
 8723SOL    HW137631   0.813   3.162  14.514 -0.3249 -2.0471 -1.4976
 8723SOL    HW237632   0.665   3.139  14.535  2.2037 -0.1888  1.6865
 8724SOL     OW37633   4.245   3.569  10.670 -0.5672 -0.4383  0.0098
 8724SOL    HW137634   4.292   3.638  10.716  0.8028 -2.6787  1.9612
 8724SOL    HW237635   4.181   3.533  10.731 -0.1583 -1.2345 -0.0340
 8725SOL     OW37636   1.012   4.119   4.402  0.8519 -0.4757  0.3285
 8725SOL    HW137637   1.089   4.173   4.382  1.6703 -1.2595  1.3350
 8725SOL    HW237638   1.020   4.108   4.497  1.5843  1.7811  0.5171
 8726SOL     OW37639   1.101   1.161   2.328  0.2890  0.1580  0.5651
 8726SOL    HW137640   1.102   1.230   2.394  0.3025 -1.5950  2.4068
 8726SOL    HW237641   1.191   1.155   2.295  0.2363  0.6141  0.3415
 8727SOL     OW37642   3.301   2.568   9.976  0.4411 -0.1912  0.1568
 8727SOL    HW137643   3.300   2.659  10.006  2.3464 -0.6101  1.4923
 8727SOL    HW237644   3.214   2.529   9.974 -0.9117  2.7953  0.5357
 8728SOL     OW37645   0.833   1.670   8.864 -0.5716 -0.3675  0.1935
 8728SOL    HW137646   0.841   1.603   8.796  0.8880  2.5000 -2.4531
 8728SOL    HW237647   0.903   1.731   8.842 -1.3380  0.2274 -0.5941
 8729SOL     OW37648   0.703   4.511  15.770  0.3365  0.8496 -0.1214
 8729SOL    HW137649   0.785   4.480  15.733  0.9079  2.2007 -0.0172
 8729SOL    HW237650   0.739   4.510  15.859 -0.6927  1.2229  0.3053
 8730SOL     OW37651   1.778   0.567   6.946  1.0778 -0.8367  0.1849
 8730SOL    HW137652   1.688   0.539   6.961 -0.1405  3.7694  1.4261
 8730SOL    HW237653   1.810   0.567   7.037 -0.4473 -2.8710  0.7189
 8731SOL     OW37654   1.908   0.636   3.557  0.2742 -0.3947  0.1879
 8731SOL    HW137655   1.986   0.663   3.510 -0.9269 -1.8171 -2.6580
 8731SOL    HW237656   1.868   0.722   3.546 -1.5072 -1.2978 -0.4140
 8732SOL     OW37657   0.785   0.985   1.896 -0.2529 -0.3474 -0.1068
 8732SOL    HW137658   0.795   0.953   1.806 -2.5765 -1.2524 -0.0619
 8732SOL    HW237659   0.802   0.900   1.937 -0.0953 -0.9521 -1.4259
 8733SOL     OW37660   3.214   1.878   5.757 -0.0272  0.2626 -0.0046
 8733SOL    HW137661   3.192   1.963   5.720  3.7522  1.1641 -0.1729
 8733SOL    HW237662   3.165   1.873   5.839 -0.7680  1.1833 -0.3825
 8734SOL     OW37663   2.336   3.701   5.013 -0.1449  0.4471 -0.2477
 8734SOL    HW137664   2.338   3.788   4.974 -0.6765 -0.5649 -2.5060
 8734SOL    HW237665   2.395   3.662   4.949  0.1618 -0.8716  0.8245
 8735SOL     OW37666   2.511   2.633  12.082 -0.2695  0.4886  0.0106
 8735SOL    HW137667   2.569   2.662  12.012 -1.4564 -1.7146 -1.8711
 8735SOL    HW237668   2.567   2.651  12.157  0.7461 -1.8483 -0.1676
 8736SOL     OW37669   2.923   1.853   5.827 -0.0015 -0.0771  0.1082
 8736SOL    HW137670   2.836   1.892   5.842  0.2523 -0.3374  2.2143
 8736SOL    HW237671   2.963   1.897   5.902 -0.1128  1.8222 -0.9365
 8737SOL     OW37672   0.265   3.720   2.890 -0.2545 -0.3647 -0.1032
 8737SOL    HW137673   0.347   3.672   2.902  0.5581  0.7362 -1.2166
 8737SOL    HW237674   0.268   3.714   2.794  1.0371 -0.4153 -0.0561
 8738SOL     OW37675   4.664   3.600   0.575 -0.1936 -0.3727  0.5819
 8738SOL    HW137676   0.031   3.589   0.598 -0.4201 -3.8407 -0.2424
 8738SOL    HW237677   4.623   3.546   0.642 -0.8571  0.3473  0.7589
 8739SOL     OW37678   1.487   0.773  11.918  0.5332  0.2763  0.4579
 8739SOL    HW137679   1.435   0.708  11.871  0.3377 -0.0475  1.1257
 8739SOL    HW237680   1.494   0.834  11.844  4.3106 -1.1149 -0.3311
 8740SOL     OW37681   0.064   4.048   4.013 -0.3308 -0.1002 -0.8753
 8740SOL    HW137682   0.149   4.042   3.969 -0.8980 -1.4491 -1.7917
 8740SOL    HW237683   0.076   3.967   4.063 -0.3793 -0.0573 -0.7945
 8741SOL     OW37684   4.173   3.222   5.570  0.0306  0.2243 -0.1046
 8741SOL    HW137685   4.115   3.161   5.618  0.5059  1.2647  1.7810
 8741SOL    HW237686   4.199   3.183   5.487  0.5328 -1.5674  0.8779
 8742SOL     OW37687   0.308   1.177   9.383 -0.5012  0.1312 -0.3905
 8742SOL    HW137688   0.269   1.263   9.396 -1.3893 -0.0989 -1.5897
 8742SOL    HW237689   0.351   1.195   9.300  1.6227 -0.7584  0.5033
 8743SOL     OW37690   0.263   2.786   3.563 -0.1549  0.6814  0.0899
 8743SOL    HW137691   0.254   2.879   3.541 -1.3162  0.2443 -1.2615
 8743SOL    HW237692   0.213   2.743   3.494  1.7394  1.6104 -1.8672
 8744SOL     OW37693   4.043   4.295   2.857 -0.2245 -0.1693  0.1582
 8744SOL    HW137694   3.970   4.349   2.826  1.7361 -0.7513 -5.5074
 8744SOL    HW237695   4.116   4.357   2.853 -0.2767 -0.0375  1.1875
 8745SOL     OW37696   4.447   0.070  10.959 -0.0699  0.3385 -0.2933
 8745SOL    HW137697   4.472   0.156  10.992 -0.7436  1.4502 -2.6974
 8745SOL    HW237698   4.364   0.079  10.913 -0.6159  0.2232  0.6506
 8746SOL     OW37699   4.597   1.472   5.713 -0.0273 -0.4090 -0.2024
 8746SOL    HW137700   4.526   1.536   5.704 -1.6255 -1.6790  3.4122
 8746SOL    HW237701   4.551   1.388   5.702 -0.6805  0.3732 -3.5810
 8747SOL     OW37702   0.238   0.099   6.054 -0.5024 -0.3158  0.0083
 8747SOL    HW137703   0.302   0.138   5.995  1.4938 -0.0343  2.3661
 8747SOL    HW237704   0.262   0.140   6.137 -0.7322 -0.6854  0.2576
 8748SOL     OW37705   0.578   1.113  17.343 -0.0491 -1.0282  0.3995
 8748SOL    HW137706   0.558   1.204  17.365  2.0198 -0.5477  0.2513
 8748SOL    HW237707   0.599   1.127  17.251  1.2009  1.7463  1.1108
 8749SOL     OW37708   3.694   0.402   5.109 -0.4675 -0.7318 -0.1083
 8749SOL    HW137709   3.784   0.375   5.125  0.5128  1.6615 -1.6149
 8749SOL    HW237710   3.661   0.430   5.195 -0.6109 -1.5405  0.0951
 8750SOL     OW37711   3.215   1.219  11.205  0.0059 -0.0674  0.3284
 8750SOL    HW137712   3.232   1.287  11.270  0.1645  1.2768 -1.1382
 8750SOL    HW237713   3.277   1.247  11.138  3.2351 -1.0263  2.9045
 8751SOL     OW37714   3.114   3.412  15.470  0.0887 -0.0277  0.4798
 8751SOL    HW137715   3.160   3.359  15.404 -0.8693  0.4661 -0.5872
 8751SOL    HW237716   3.026   3.409  15.431 -1.2801  0.9768  3.5302
 8752SOL     OW37717   0.881   3.596   3.082  0.2602  0.3441  0.4390
 8752SOL    HW137718   0.797   3.554   3.098  1.6288 -2.6027 -0.1591
 8752SOL    HW237719   0.847   3.674   3.037 -1.0587 -0.6763 -0.3345
 8753SOL     OW37720   2.317   3.059  13.261 -0.3808 -0.7075 -0.3108
 8753SOL    HW137721   2.274   2.987  13.215  0.2516 -1.0782 -0.3270
 8753SOL    HW237722   2.408   3.038  13.242  0.9498  0.5841  4.6963
 8754SOL     OW37723   4.120   0.468   8.540  0.1375  0.0694  0.2139
 8754SOL    HW137724   4.065   0.475   8.462 -0.5757 -0.2964  0.6753
 8754SOL    HW237725   4.094   0.547   8.587  3.8827  0.3354  1.8223
 8755SOL     OW37726   0.023   1.627   5.929  0.3484 -0.0557 -0.4564
 8755SOL    HW137727   4.698   1.555   5.890 -2.2347  2.4213 -1.6544
 8755SOL    HW237728   4.681   1.681   5.970 -1.3985 -2.5271 -0.0240
 8756SOL     OW37729   3.988   1.866   4.541  0.1263 -0.0034 -0.3858
 8756SOL    HW137730   4.037   1.934   4.586 -0.0134 -0.3975  0.3734
 8756SOL    HW237731   3.940   1.926   4.483  2.1060  0.4790 -1.5089
 8757SOL     OW37732   1.902   3.396   2.098 -0.0663  0.4828  0.0592
 8757SOL    HW137733   1.846   3.463   2.137 -0.3651 -0.1506  0.7151
 8757SOL    HW237734   1.908   3.333   2.169  3.3517  1.2700  0.4787
 8758SOL     OW37735   4.418   2.665   4.359  0.0239 -0.5196  0.2717
 8758SOL    HW137736   4.358   2.737   4.343  0.1671 -0.3474  0.5141
 8758SOL    HW237737   4.497   2.697   4.403 -0.1243 -0.5735  0.5761
 8759SOL     OW37738   0.422   3.348   6.130  0.3801  0.5265  0.3415
 8759SOL    HW137739   0.491   3.324   6.068  1.7376  3.1503  0.8378
 8759SOL    HW237740   0.438   3.272   6.187  0.6482 -0.1520 -0.6282
 8760SOL     OW37741   1.011   1.699   9.344 -0.0245  0.0042 -0.1029
 8760SOL    HW137742   1.079   1.749   9.389 -1.1576 -0.2431  1.8742
 8760SOL    HW237743   1.058   1.662   9.269 -0.2771  0.4866 -0.4996
 8761SOL     OW37744   4.299   3.063   6.095 -0.3472  0.1140 -0.4328
 8761SOL    HW137745   4.303   3.151   6.133  7.3297 -0.3841 -0.1313
 8761SOL    HW237746   4.314   3.088   6.004  2.9087 -1.1056 -0.2330
 8762SOL     OW37747   4.691   3.810  10.569 -0.6603  0.0278 -0.3966
 8762SOL    HW137748   0.020   3.736  10.597 -1.0392 -0.1696 -0.1897
 8762SOL    HW237749   4.661   3.781  10.483  0.0112 -1.2310 -0.1952
 8763SOL     OW37750   4.580   2.164   5.718 -0.2029 -0.7406  0.2187
 8763SOL    HW137751   4.599   2.233   5.781 -0.7533  0.0472 -0.4903
 8763SOL    HW237752   4.616   2.194   5.635  1.7595 -0.1364  1.2807
 8764SOL     OW37753   4.368   3.486   8.100 -0.5526  0.0768  0.1414
 8764SOL    HW137754   4.382   3.581   8.104  4.4219 -0.6868  0.7514
 8764SOL    HW237755   4.451   3.453   8.067 -1.3095 -0.7356 -0.9289
 8765SOL     OW37756   4.660   3.921   9.807  0.3613  0.3441  0.5206
 8765SOL    HW137757   4.610   3.963   9.878 -1.0891 -1.7749  0.7760
 8765SOL    HW237758   4.695   3.845   9.853  0.9650 -0.3817 -1.1314
 8766SOL     OW37759   1.083   4.219   2.078  0.1821 -0.2536  0.0304
 8766SOL    HW137760   1.012   4.165   2.112  0.1761 -1.0501 -1.2305
 8766SOL    HW237761   1.063   4.211   1.984  0.6953 -0.6365 -0.0443
 8767SOL     OW37762   1.273   2.591   2.698 -0.5976 -1.1674  0.1108
 8767SOL    HW137763   1.298   2.565   2.609 -1.4050  1.4675 -0.8929
 8767SOL    HW237764   1.191   2.636   2.676  0.2535  0.6278  0.5852
 8768SOL     OW37765   2.098   2.268   3.625 -0.2462 -0.2727 -0.6729
 8768SOL    HW137766   2.172   2.260   3.565  2.0028 -0.1607  2.0738
 8768SOL    HW237767   2.026   2.252   3.565 -0.8678 -3.0439  0.8009
 8769SOL     OW37768   4.295   2.448   6.370  0.1953  0.0727 -0.3961
 8769SOL    HW137769   4.269   2.517   6.430 -2.5357 -0.3542 -1.0965
 8769SOL    HW237770   4.216   2.448   6.316 -0.4800 -3.0912  0.6090
 8770SOL     OW37771   0.846   0.271   9.308 -0.0888  0.0675  0.1723
 8770SOL    HW137772   0.789   0.328   9.256 -0.6966 -0.9945 -0.3249
 8770SOL    HW237773   0.908   0.335   9.343 -0.2797  0.2140  0.2448
 8771SOL     OW37774   3.127   1.927  11.309  0.6685  0.1358  0.5214
 8771SOL    HW137775   3.049   1.976  11.333  1.2015 -0.1065  2.8040
 8771SOL    HW237776   3.141   1.955  11.218 -1.5292  0.7352  0.3685
 8772SOL     OW37777   3.705   0.096   2.609  0.6154  0.4758 -0.4650
 8772SOL    HW137778   3.773   0.145   2.563  1.4844 -0.0465  0.2446
 8772SOL    HW237779   3.707   0.148   2.690  2.9366 -1.0670  0.4723
 8773SOL     OW37780   3.814   4.017   6.991  0.0742  0.3644 -0.2928
 8773SOL    HW137781   3.859   3.949   6.941  0.0743  0.3773 -0.3103
 8773SOL    HW237782   3.836   4.096   6.941 -1.2813  0.0945 -1.2857
 8774SOL     OW37783   1.699   1.691   4.216  0.8900 -0.2009 -0.2846
 8774SOL    HW137784   1.728   1.780   4.235 -3.6999  1.3133 -0.4263
 8774SOL    HW237785   1.640   1.678   4.290  1.0724 -0.2437 -0.1438
 8775SOL     OW37786   4.069   2.341  16.362  0.6792 -0.3365 -0.6063
 8775SOL    HW137787   4.125   2.278  16.407  3.1903  2.4650  0.2441
 8775SOL    HW237788   3.985   2.340  16.408  0.2810  2.9322 -1.2952
 8776SOL     OW37789   1.345   4.620   6.831  0.2079 -0.0049 -0.2741
 8776SOL    HW137790   1.337   4.555   6.900 -3.1308  0.1355 -0.5379
 8776SOL    HW237791   1.256   4.655   6.825  0.9594  2.1912  1.3868
 8777SOL     OW37792   3.715   3.194   1.688  0.4081 -0.3322  0.7116
 8777SOL    HW137793   3.795   3.202   1.635 -1.3005 -0.5926 -1.9185
 8777SOL    HW237794   3.692   3.284   1.711  0.9733 -0.2029  0.7796
 8778SOL     OW37795   4.324   1.268  10.004  0.1099 -0.7375  0.3391
 8778SOL    HW137796   4.243   1.313   9.980  1.1011  1.2911  0.7843
 8778SOL    HW237797   4.325   1.242  10.096  0.5430  1.4623  0.9547
 8779SOL     OW37798   1.680   2.934   4.891  0.0262 -0.2289  0.3839
 8779SOL    HW137799   1.601   2.958   4.940 -0.5513  2.5290 -1.8821
 8779SOL    HW237800   1.641   2.942   4.804 -0.1233 -0.4265  0.4310
 8780SOL     OW37801   3.566   0.013   4.857  1.0408 -1.0414 -0.3170
 8780SOL    HW137802   3.527   0.005   4.944 -0.3283  2.4364 -0.6200
 8780SOL    HW237803   3.561   0.108   4.846 -0.6413 -1.3301 -1.9360
 8781SOL     OW37804   2.733   1.965   8.450  0.4556  1.0217 -0.6398
 8781SOL    HW137805   2.673   1.892   8.438  2.5797 -1.0562  1.3787
 8781SOL    HW237806   2.689   2.026   8.509 -0.3610  0.7908 -1.0070
 8782SOL     OW37807   4.075   3.598  13.949 -0.2356 -0.1584  0.1134
 8782SOL    HW137808   4.078   3.534  13.877  2.7520 -1.4024  1.3307
 8782SOL    HW237809   4.058   3.548  14.028  1.7415  1.6735  1.7133
 8783SOL     OW37810   4.204   0.714   6.146 -0.2275 -0.5554 -0.0611
 8783SOL    HW137811   4.220   0.658   6.070 -0.9517 -0.5557 -0.2131
 8783SOL    HW237812   4.206   0.797   6.100  0.7988  0.1365  1.2193
 8784SOL     OW37813   2.403   2.958  12.479  0.8941  0.0856  0.0067
 8784SOL    HW137814   2.474   2.893  12.479  1.0915  0.3002  0.7787
 8784SOL    HW237815   2.331   2.913  12.435  0.6499  1.3417 -0.8882
 8785SOL     OW37816   0.099   3.130   2.469 -0.4506 -0.2084  0.1374
 8785SOL    HW137817   0.193   3.150   2.477 -1.0128  1.9842  1.1999
 8785SOL    HW237818   0.072   3.118   2.560 -2.3695 -2.8214 -0.7914
 8786SOL     OW37819   1.890   2.331  11.220 -0.1214  0.4693  0.7735
 8786SOL    HW137820   1.973   2.316  11.173 -0.9013 -2.0365  0.2007
 8786SOL    HW237821   1.843   2.256  11.183 -1.5603 -0.2999  4.1640
 8787SOL     OW37822   1.688   0.512   2.885  0.0929  0.0965 -0.0240
 8787SOL    HW137823   1.769   0.506   2.934 -0.4163 -1.1156  0.6815
 8787SOL    HW237824   1.657   0.599   2.909  2.4022  1.3566 -1.5689
 8788SOL     OW37825   0.542   0.866  17.188 -0.0703 -0.3892 -0.0070
 8788SOL    HW137826   0.476   0.810  17.228  0.0521 -1.1207 -0.8230
 8788SOL    HW237827   0.520   0.950  17.227  2.0158  0.7057 -1.1790
 8789SOL     OW37828   3.185   3.030  17.294  0.3008  0.3629  0.2908
 8789SOL    HW137829   3.202   3.119  17.263  1.5163  0.0438  0.0291
 8789SOL    HW237830   3.112   3.005  17.238  0.2168  1.5985 -0.1397
 8790SOL     OW37831   4.529   3.665   7.441  0.1522  0.1447  0.2898
 8790SOL    HW137832   4.505   3.754   7.415  0.2076  1.2222  3.9043
 8790SOL    HW237833   4.592   3.644   7.372 -2.0046 -1.7344 -1.1206
 8791SOL     OW37834   0.455   3.944   2.584 -0.0593 -0.0181  0.3228
 8791SOL    HW137835   0.418   3.995   2.513 -0.3465 -1.0544 -0.2750
 8791SOL    HW237836   0.429   3.853   2.568  0.0043  0.0475 -0.1660
 8792SOL     OW37837   0.009   1.451  12.777  0.2020 -0.0227 -0.9252
 8792SOL    HW137838   4.695   1.532  12.811 -0.7733 -1.3709  1.2184
 8792SOL    HW237839   4.701   1.388  12.842 -0.4956  0.2934 -0.9690
 8793SOL     OW37840   2.343   0.757   9.942  0.8638  0.4055 -0.3296
 8793SOL    HW137841   2.292   0.814   9.999 -0.2974  0.8660 -1.8238
 8793SOL    HW237842   2.432   0.766   9.978  1.6880 -2.3608 -1.6495
 8794SOL     OW37843   1.336   1.595   1.413 -0.1030 -0.0187  0.0239
 8794SOL    HW137844   1.343   1.678   1.461  2.4557 -1.5920  2.4029
 8794SOL    HW237845   1.337   1.622   1.321  0.7510  0.8383  0.2759
 8795SOL     OW37846   4.547   2.991   7.581  0.0906 -0.5023 -0.0640
 8795SOL    HW137847   4.631   2.988   7.626  0.1252  1.9056  0.0437
 8795SOL    HW237848   4.520   3.083   7.590 -1.5386 -1.0249  0.2870
 8796SOL     OW37849   2.648   3.417   7.711  0.0959 -0.3161 -0.4041
 8796SOL    HW137850   2.557   3.389   7.723 -0.7193  2.6112  0.2563
 8796SOL    HW237851   2.664   3.371   7.628  0.1564 -0.4411 -0.3243
 8797SOL     OW37852   2.934   2.191   9.958  0.2595  0.3830 -0.2340
 8797SOL    HW137853   3.001   2.192  10.026 -0.5917  0.5476  0.6188
 8797SOL    HW237854   2.898   2.280   9.965 -2.4002 -0.8101  1.5254
 8798SOL     OW37855   4.006   0.502  14.968  0.0183 -0.1864 -0.4672
 8798SOL    HW137856   4.010   0.478  14.875 -0.2361  0.1096 -0.5536
 8798SOL    HW237857   4.023   0.417  15.009 -0.7950 -1.0449 -1.9096
 8799SOL     OW37858   0.593   2.158   5.241  0.0346 -0.4648 -0.8503
 8799SOL    HW137859   0.568   2.130   5.329  0.7753 -1.9140 -1.0990
 8799SOL    HW237860   0.663   2.093   5.238 -0.5884 -1.1613 -0.4895
 8800SOL     OW37861   1.533   3.052   2.887  0.2938  0.5625  0.5884
 8800SOL    HW137862   1.461   2.996   2.859  0.1170  1.0558  0.0718
 8800SOL    HW237863   1.560   3.024   2.975 -1.3379  0.8110  1.1595
 8801SOL     OW37864   0.465   1.742   6.066 -0.5920  0.1456 -0.6427
 8801SOL    HW137865   0.435   1.692   5.990  0.9698 -1.3321 -0.2839
 8801SOL    HW237866   0.385   1.770   6.110 -0.2475  0.4575 -0.2092
 8802SOL     OW37867   1.118   2.446   6.715 -0.2914 -0.3608  0.4299
 8802SOL    HW137868   1.099   2.531   6.755  1.5978  1.0682 -1.7268
 8802SOL    HW237869   1.134   2.401   6.799 -0.8758 -2.0123 -0.3436
 8803SOL     OW37870   1.468   3.612   0.187 -0.1041 -0.0203 -0.2719
 8803SOL    HW137871   1.477   3.518   0.172  1.1065 -0.0458  0.6951
 8803SOL    HW237872   1.418   3.634   0.108 -1.1959 -1.8406 -0.0841
 8804SOL     OW37873   2.205   4.334   5.579  0.1502  0.3543 -0.4782
 8804SOL    HW137874   2.123   4.321   5.627 -1.2456  1.4107 -2.5901
 8804SOL    HW237875   2.262   4.345   5.656 -0.7896  4.0614 -0.3144
 8805SOL     OW37876   4.562   3.865   3.457  0.4223 -0.2408 -0.5468
 8805SOL    HW137877   4.539   3.848   3.366  0.9482  1.2399 -0.9543
 8805SOL    HW237878   4.473   3.871   3.491  0.6565 -3.8267  0.6930
 8806SOL     OW37879   2.345   4.651   5.010  0.4018  0.0014 -0.1733
 8806SOL    HW137880   2.355   4.585   5.078 -0.7147 -0.0264 -0.0504
 8806SOL    HW237881   2.275   4.706   5.045  0.8520  2.2037 -2.7481
 8807SOL     OW37882   2.005   3.529   4.726 -0.4097  0.0149  1.0826
 8807SOL    HW137883   1.998   3.437   4.750  1.2285 -0.5089 -0.3873
 8807SOL    HW237884   2.009   3.568   4.813 -2.7089  2.3540  0.1506
 8808SOL     OW37885   0.058   4.715   3.379 -0.6803  0.5444 -0.1609
 8808SOL    HW137886   4.715   4.697   3.313  0.9277 -0.7804 -1.4701
 8808SOL    HW237887   0.111   0.063   3.348 -1.0099  0.6098 -0.5772
 8809SOL     OW37888   0.660   2.922   6.192  0.4869  0.0502 -0.3052
 8809SOL    HW137889   0.755   2.936   6.200  0.5417  0.1472 -1.1266
 8809SOL    HW237890   0.659   2.831   6.162  1.8415  0.1452 -0.6611
 8810SOL     OW37891   3.266   1.568   8.230 -0.0803 -0.0153 -0.4495
 8810SOL    HW137892   3.219   1.650   8.212 -0.4971  0.1892  1.6451
 8810SOL    HW237893   3.189   1.512   8.222 -0.3974  0.4910 -1.0330
 8811SOL     OW37894   1.219   0.421  15.331  0.4045  0.3775  0.2340
 8811SOL    HW137895   1.281   0.481  15.373 -0.5910  0.1405  2.0572
 8811SOL    HW237896   1.273   0.350  15.296 -1.1227 -1.0449  0.7587
 8812SOL     OW37897   0.355   1.241   1.418 -0.1230 -0.3947  0.4356
 8812SOL    HW137898   0.297   1.193   1.479 -0.3412 -0.1551  0.4165
 8812SOL    HW237899   0.281   1.289   1.380 -0.8438 -1.4007  0.5631
 8813SOL     OW37900   0.635   4.430   5.389  0.2023  0.7947  0.3700
 8813SOL    HW137901   0.655   4.364   5.456  1.1049  0.1158 -0.5674
 8813SOL    HW237902   0.623   4.377   5.310 -1.5513 -0.0531  1.1828
 8814SOL     OW37903   1.762   0.931  10.372  0.2864  0.1964 -0.6470
 8814SOL    HW137904   1.844   0.883  10.365  0.1476 -0.3245  1.4875
 8814SOL    HW237905   1.701   0.859  10.385  0.0341  0.1023 -2.2923
 8815SOL     OW37906   2.561   3.588   2.658  0.2238  0.0880 -0.0848
 8815SOL    HW137907   2.546   3.678   2.628  2.3368 -0.0529 -1.6111
 8815SOL    HW237908   2.655   3.598   2.674  0.5884 -0.2348 -2.0824
 8816SOL     OW37909   4.357   4.178   2.029 -0.5175  0.0416 -0.2485
 8816SOL    HW137910   4.383   4.141   2.114 -1.7855  2.6780  1.2694
 8816SOL    HW237911   4.437   4.162   1.979 -0.3699 -1.9293  0.6275
 8817SOL     OW37912   3.659   3.244   3.664 -0.5041  0.3712  0.2629
 8817SOL    HW137913   3.579   3.286   3.633 -0.8287 -1.4670 -1.3858
 8817SOL    HW237914   3.695   3.305   3.729  0.7760 -0.6827  0.5496
 8818SOL     OW37915   4.492   2.989   6.511  0.3555 -0.0117  0.2606
 8818SOL    HW137916   4.533   2.926   6.452  0.5724  0.2139  0.1712
 8818SOL    HW237917   4.556   3.059   6.522  1.7768 -1.1841 -0.6552
 8819SOL     OW37918   2.045   0.116   2.158  0.1504  0.6415  0.3987
 8819SOL    HW137919   1.957   0.083   2.141  0.0667 -0.5221  3.0951
 8819SOL    HW237920   2.025   0.190   2.215 -2.9015  0.6411 -0.6831
 8820SOL     OW37921   0.336   4.193   8.540  0.0503 -0.0730 -0.3401
 8820SOL    HW137922   0.268   4.178   8.605 -0.5972  0.5043 -0.8889
 8820SOL    HW237923   0.413   4.230   8.584 -0.9017 -0.2473  1.5001
 8821SOL     OW37924   4.013   1.206  16.556 -0.3911  0.4600  0.3223
 8821SOL    HW137925   3.931   1.256  16.563 -0.6644  0.0229  0.2235
 8821SOL    HW237926   4.038   1.222  16.647  1.5905 -2.8807  0.3293
 8822SOL     OW37927   2.097   3.027  16.211 -0.6335  0.7360  0.1842
 8822SOL    HW137928   2.163   3.048  16.145 -0.5755 -0.9687 -0.3014
 8822SOL    HW237929   2.017   3.053  16.166 -0.9272 -2.6367 -1.2663
 8823SOL     OW37930   4.498   0.881   0.312 -0.6221  0.0384 -0.0902
 8823SOL    HW137931   4.449   0.801   0.296 -1.5183  0.5917 -0.1334
 8823SOL    HW237932   4.537   0.891   0.226 -0.8132  0.6753 -0.1062
 8824SOL     OW37933   0.152   0.250  13.250 -0.2128 -0.1377  0.0871
 8824SOL    HW137934   0.081   0.294  13.203 -0.6097 -0.3292  0.5044
 8824SOL    HW237935   0.224   0.302  13.216 -1.0121 -0.6265 -2.3108
 8825SOL     OW37936   3.745   3.526  17.450  0.5229  0.1632  0.6720
 8825SOL    HW137937   3.695   3.455  17.490  0.2649  0.4571  0.8743
 8825SOL    HW237938   3.675   3.567  17.398  0.7758  1.5070  1.3882
 8826SOL     OW37939   0.053   0.409  10.025 -0.4147 -0.0087  0.4231
 8826SOL    HW137940   4.722   0.480  10.057  0.5069  0.4181  1.0821
 8826SOL    HW237941   0.110   0.462   9.970  1.7470 -2.6071  0.1346
 8827SOL     OW37942   2.799   3.424   6.701  0.7148  0.1371  0.3080
 8827SOL    HW137943   2.774   3.501   6.752 -0.8297 -0.6313  0.7354
 8827SOL    HW237944   2.727   3.360   6.706 -0.6766  1.6806 -0.1312
 8828SOL     OW37945   4.256   0.926   4.906 -0.3336  0.4836 -0.1767
 8828SOL    HW137946   4.350   0.915   4.894 -0.6897 -0.9279 -1.6467
 8828SOL    HW237947   4.222   0.868   4.837 -1.8700 -1.4527  2.2042
 8829SOL     OW37948   0.334   2.849   5.394 -0.7891  0.6775  0.5097
 8829SOL    HW137949   0.240   2.832   5.400 -0.9509  1.0419 -1.1111
 8829SOL    HW237950   0.349   2.841   5.300  1.5395 -0.9953  1.0278
 8830SOL     OW37951   4.208   0.496   2.539  0.0278  0.2579  0.1177
 8830SOL    HW137952   4.217   0.548   2.459  0.2142  0.0547  0.0043
 8830SOL    HW237953   4.149   0.550   2.590 -1.4246  0.0533 -1.3414
 8831SOL     OW37954   3.834   1.566   3.379 -0.2632 -0.4592 -0.6338
 8831SOL    HW137955   3.794   1.652   3.385 -1.7701 -1.0537 -2.2861
 8831SOL    HW237956   3.789   1.526   3.305 -0.1269 -0.4223 -0.7376
 8832SOL     OW37957   2.955   2.463  11.879  0.1370  0.1565 -0.4322
 8832SOL    HW137958   2.903   2.474  11.958 -0.4851  0.5474 -0.9021
 8832SOL    HW237959   3.038   2.501  11.906  1.0966 -2.1303 -0.1348
 8833SOL     OW37960   1.742   0.103   8.572  0.0342  0.1866  0.2527
 8833SOL    HW137961   1.724   0.168   8.504 -0.5753 -0.2204  0.0250
 8833SOL    HW237962   1.828   0.140   8.595 -0.0624  0.1630  0.6395
 8834SOL     OW37963   2.120   4.288   5.836 -0.0983  0.1307  0.2284
 8834SOL    HW137964   2.035   4.262   5.871 -0.0391  1.8250  1.6424
 8834SOL    HW237965   2.135   4.367   5.888 -0.0958 -1.1766  2.2181
 8835SOL     OW37966   4.202   2.340  15.689  0.6891 -0.6047  0.1085
 8835SOL    HW137967   4.219   2.259  15.642 -1.6937 -2.2843  2.1140
 8835SOL    HW237968   4.158   2.327  15.773 -1.1377  1.5146 -0.5209
 8836SOL     OW37969   4.218   2.790  13.680  0.0693 -0.4018  1.2481
 8836SOL    HW137970   4.286   2.730  13.709  1.7180  2.0184  2.3931
 8836SOL    HW237971   4.209   2.858  13.748  0.1527  1.4150 -0.5649
 8837SOL     OW37972   1.599   2.944  11.354 -0.2913  0.1222  0.0921
 8837SOL    HW137973   1.607   3.038  11.338 -0.1821  0.4490  2.1140
 8837SOL    HW237974   1.665   2.918  11.418 -0.5998  1.7927  1.0657
 8838SOL     OW37975   0.579   2.345   3.678  0.2683 -0.2075 -0.7205
 8838SOL    HW137976   0.669   2.326   3.653 -0.3405 -2.0873 -1.4750
 8838SOL    HW237977   0.555   2.252   3.679  0.2402 -0.1695  2.6124
 8839SOL     OW37978   3.542   0.485   4.081 -0.8462 -0.7433 -0.0453
 8839SOL    HW137979   3.556   0.391   4.072 -0.6647 -0.7697  0.4720
 8839SOL    HW237980   3.627   0.526   4.064 -1.1407 -0.6067 -1.1759
 8840SOL     OW37981   4.269   1.149   2.862 -0.2503 -0.3834  0.7638
 8840SOL    HW137982   4.184   1.189   2.841  0.1767 -0.2475 -0.6951
 8840SOL    HW237983   4.288   1.094   2.787 -0.0256  1.6659 -0.6993
 8841SOL     OW37984   3.651   3.478   3.844  0.1951  0.4512  0.0277
 8841SOL    HW137985   3.658   3.526   3.926 -0.9093 -0.2970  0.5586
 8841SOL    HW237986   3.585   3.415   3.870 -0.3953  1.5302  1.1538
 8842SOL     OW37987   3.014   1.381   3.437 -0.4292 -0.4816 -0.1912
 8842SOL    HW137988   2.926   1.417   3.426 -0.2529  0.9200  2.8156
 8842SOL    HW237989   3.013   1.308   3.375  1.0178  0.2998 -1.1203
 8843SOL     OW37990   4.564   3.921   4.932  1.4403  0.6656 -0.0254
 8843SOL    HW137991   4.473   3.928   4.959  1.5704  2.4673 -0.0431
 8843SOL    HW237992   4.549   3.992   4.869 -3.7921  0.0055  0.4987
 8844SOL     OW37993   3.140   0.910   4.408  0.0318  0.1630 -0.5030
 8844SOL    HW137994   3.109   0.986   4.358  1.8243  0.0575 -1.7772
 8844SOL    HW237995   3.170   0.859   4.333 -0.3787 -0.2823 -0.3612
 8845SOL     OW37996   2.069   3.559   0.065 -0.3041 -0.1156 -0.2761
 8845SOL    HW137997   2.058   3.582   0.157 -0.1351 -1.1270 -0.0005
 8845SOL    HW237998   2.079   3.639   0.013  5.1167 -0.0965  0.8680
 8846SOL     OW37999   3.779   3.599   3.324 -0.5547 -0.1998  0.5093
 8846SOL    HW138000   3.699   3.546   3.322 -0.1786 -0.7423 -0.1037
 8846SOL    HW238001   3.774   3.630   3.234  2.8788  1.3399  0.8367
 8847SOL     OW38002   3.212   1.123   8.930 -0.4161 -0.0910  0.8533
 8847SOL    HW138003   3.294   1.094   8.889 -1.0924  0.1072 -0.6244
 8847SOL    HW238004   3.192   1.196   8.871 -0.9670 -0.8500  0.0939
 8848SOL     OW38005   2.819   1.974   5.545  0.2673  0.0783  0.4967
 8848SOL    HW138006   2.871   2.019   5.479  0.2718 -0.8642 -0.1385
 8848SOL    HW238007   2.870   1.894   5.560  2.2391  1.0015 -1.4530
 8849SOL     OW38008   0.373   4.724   3.319  0.2493  0.4096  0.5479
 8849SOL    HW138009   0.349   4.633   3.304  0.1297  0.3550  1.0560
 8849SOL    HW238010   0.384   0.004   3.414  3.0261  2.7512  0.1273
 8850SOL     OW38011   3.548   0.895   5.146  0.3330  0.6356  0.0469
 8850SOL    HW138012   3.609   0.897   5.220 -0.0280 -0.5182  0.3829
 8850SOL    HW238013   3.558   0.806   5.111 -0.8856  0.8943 -0.9526
 8851SOL     OW38014   1.289   1.819   2.135 -0.0315 -0.0964 -0.8121
 8851SOL    HW138015   1.212   1.771   2.103  0.0292  0.4507 -1.7854
 8851SOL    HW238016   1.350   1.748   2.157 -0.6102 -0.4798 -0.4448
 8852SOL     OW38017   1.270   0.272  11.040 -0.2337  0.3052 -0.0713
 8852SOL    HW138018   1.184   0.235  11.024  0.6255 -1.4100 -0.7406
 8852SOL    HW238019   1.248   0.363  11.060  1.9452  0.7960  0.0823
 8853SOL     OW38020   0.233   2.775   8.449  0.4657  0.5777 -0.0119
 8853SOL    HW138021   0.177   2.837   8.495 -1.3025 -0.2653 -1.0529
 8853SOL    HW238022   0.267   2.840   8.386  0.4160  1.7241  1.1441
 8854SOL     OW38023   3.908   4.308   7.583 -0.3373  0.1518 -0.4430
 8854SOL    HW138024   3.830   4.261   7.553 -0.9158  1.0096 -0.2809
 8854SOL    HW238025   3.938   4.257   7.659 -1.9327 -0.9222 -0.5410
 8855SOL     OW38026   0.945   1.959  16.898 -0.3075 -0.3349 -0.2256
 8855SOL    HW138027   0.991   1.881  16.868 -0.9963 -1.0663  0.6565
 8855SOL    HW238028   0.859   1.936  16.932 -0.5393 -0.0614 -0.6230
 8856SOL     OW38029   3.483   2.477   9.827  0.3487  0.5485  0.2139
 8856SOL    HW138030   3.416   2.525   9.876 -0.1641 -0.7937  0.8207
 8856SOL    HW238031   3.497   2.542   9.759 -0.1162 -1.4486 -1.7689
 8857SOL     OW38032   2.240   1.533   5.307 -0.1930  0.0394  0.3555
 8857SOL    HW138033   2.189   1.524   5.388  0.5172 -0.2227  0.7764
 8857SOL    HW238034   2.296   1.604   5.338  0.6065  0.2237 -1.5430
 8858SOL     OW38035   3.909   3.533   5.102 -0.4071 -0.3623 -0.3987
 8858SOL    HW138036   3.864   3.543   5.186 -0.8737 -1.4173 -0.5326
 8858SOL    HW238037   3.969   3.608   5.106 -1.1984  0.3402 -1.7159
 8859SOL     OW38038   2.882   3.691   5.998  0.2216  0.3049 -0.5722
 8859SOL    HW138039   2.892   3.605   5.958  1.1682  1.1875 -2.3004
 8859SOL    HW238040   2.790   3.708   5.978  0.3918  2.2418  0.2408
 8860SOL     OW38041   3.953   1.976   6.717 -0.2709 -0.8760  0.3219
 8860SOL    HW138042   3.952   1.939   6.805 -1.2655 -0.4553  0.4932
 8860SOL    HW238043   3.883   1.926   6.676 -0.5156  2.2057 -3.0468
 8861SOL     OW38044   1.962   4.148   4.723  0.4681 -0.1425 -0.0078
 8861SOL    HW138045   1.883   4.191   4.754  0.6698  0.6095 -0.5468
 8861SOL    HW238046   2.015   4.222   4.693 -1.4270  0.7453 -1.1943
 8862SOL     OW38047   2.741   0.561   3.735  0.2400 -0.0847 -0.7299
 8862SOL    HW138048   2.764   0.468   3.732  2.0467  0.3535 -0.6948
 8862SOL    HW238049   2.679   0.566   3.807  0.4430 -0.2130 -0.5468
 8863SOL     OW38050   4.193   4.210   4.746  0.1423  0.0848  0.5375
 8863SOL    HW138051   4.248   4.278   4.786  0.3362  0.0314  0.3605
 8863SOL    HW238052   4.201   4.134   4.803 -0.4677 -0.1661  0.2905
 8864SOL     OW38053   3.256   4.122   9.629  0.7138 -0.3842 -0.5574
 8864SOL    HW138054   3.293   4.210   9.621 -0.0332  0.0436  0.8233
 8864SOL    HW238055   3.276   4.091   9.717  2.3489  0.5977 -0.5711
 8865SOL     OW38056   1.723   2.027   6.373 -0.5838 -0.2493 -0.4115
 8865SOL    HW138057   1.714   2.108   6.422 -2.2689  0.3045 -1.6442
 8865SOL    HW238058   1.723   1.971   6.451 -0.1614 -0.7861 -0.7963
 8866SOL     OW38059   1.932   2.452  17.379  0.0367 -0.0952  0.0557
 8866SOL    HW138060   1.962   2.458  17.470 -0.4799  0.4364  0.1882
 8866SOL    HW238061   2.016   2.462  17.333 -0.3713 -1.4438 -0.9918
 8867SOL     OW38062   2.193   1.689   4.821 -0.3791 -0.1259  0.0144
 8867SOL    HW138063   2.156   1.654   4.902  1.4421  2.7514  2.0693
 8867SOL    HW238064   2.226   1.605   4.790  0.8856 -0.2852  1.8049
 8868SOL     OW38065   2.307   1.723   8.217  0.2903  0.2524  0.3941
 8868SOL    HW138066   2.360   1.669   8.276 -0.9202 -2.1082 -0.6786
 8868SOL    HW238067   2.321   1.677   8.134  1.2656 -0.6483  1.0567
 8869SOL     OW38068   0.695   1.253   3.254 -0.5993  0.1884 -0.6258
 8869SOL    HW138069   0.652   1.257   3.340  0.1813  2.7446 -0.3323
 8869SOL    HW238070   0.728   1.164   3.256 -1.0928  0.0586  1.4625
 8870SOL     OW38071   1.485   3.958   7.884 -0.7345 -0.0898  0.2610
 8870SOL    HW138072   1.516   3.873   7.914  0.1322  0.0708 -0.2008
 8870SOL    HW238073   1.393   3.959   7.912 -0.9613 -2.5225 -0.4147
 8871SOL     OW38074   1.294   0.350   9.713 -0.1763 -0.7231  0.0520
 8871SOL    HW138075   1.260   0.404   9.641  0.3186 -2.0798 -1.2082
 8871SOL    HW238076   1.239   0.271   9.713  0.6522 -1.3080 -3.1393
 8872SOL     OW38077   4.399   1.053  16.224 -0.3904 -0.0119  0.0070
 8872SOL    HW138078   4.392   1.107  16.303  0.8423 -0.1960  0.2482
 8872SOL    HW238079   4.372   0.970  16.265  2.0768 -0.9593 -0.2432
 8873SOL     OW38080   4.645   0.821   1.053  1.0002  0.3908 -0.0366
 8873SOL    HW138081   4.665   0.914   1.055 -1.2885  0.8682  0.7029
 8873SOL    HW238082   4.723   0.787   1.008 -0.7151 -0.3921 -2.4010
 8874SOL     OW38083   1.361   1.672   5.876 -0.1322 -0.2520 -0.5170
 8874SOL    HW138084   1.403   1.667   5.791  1.9644 -0.6658  0.5486
 8874SOL    HW238085   1.418   1.729   5.928  1.2701 -1.0405 -1.2077
 8875SOL     OW38086   0.550   1.716   6.335 -0.5707 -0.2830  0.0707
 8875SOL    HW138087   0.535   1.682   6.247  2.5542 -2.2329  0.3054
 8875SOL    HW238088   0.537   1.639   6.389  3.7822 -1.9267 -1.2356
 8876SOL     OW38089   3.860   3.607  13.139 -0.2761 -0.3001  0.1533
 8876SOL    HW138090   3.790   3.656  13.182  1.0423  1.3805  0.3699
 8876SOL    HW238091   3.917   3.602  13.215  1.0674 -1.8074 -0.9649
 8877SOL     OW38092   1.102   4.116   7.323 -0.0018  0.3178 -0.2773
 8877SOL    HW138093   1.163   4.140   7.392  0.9381 -0.7346 -0.7375
 8877SOL    HW238094   1.150   4.152   7.248 -0.0474  3.2437  1.1056
 8878SOL     OW38095   0.944   2.778  11.960  0.1045 -0.7660  0.4947
 8878SOL    HW138096   0.946   2.711  11.892  0.0410 -1.4848  1.1967
 8878SOL    HW238097   1.033   2.766  11.992  0.8838 -0.3353 -1.5632
 8879SOL     OW38098   3.578   2.469   8.639 -0.5445 -0.3318 -0.6641
 8879SOL    HW138099   3.604   2.466   8.731 -0.8930 -0.2778 -0.5631
 8879SOL    HW238100   3.509   2.402   8.640 -3.3310  2.5391 -1.6682
 8880SOL     OW38101   1.189   0.629   6.656  0.3275 -0.9468 -0.3395
 8880SOL    HW138102   1.197   0.697   6.723 -1.4125 -0.5271 -0.5707
 8880SOL    HW238103   1.168   0.553   6.711 -0.3930  0.0250  0.7383
 8881SOL     OW38104   2.532   4.582   5.592 -0.0974 -0.0799  0.4258
 8881SOL    HW138105   2.582   4.619   5.519 -0.3003  1.6293  1.1435
 8881SOL    HW238106   2.438   4.591   5.576  0.1669  0.1949 -0.9846
 8882SOL     OW38107   0.108   4.286   0.521  0.0782  0.2443  0.4067
 8882SOL    HW138108   0.185   4.314   0.571  0.0493  0.6429  0.2238
 8882SOL    HW238109   0.101   4.197   0.557 -0.8139 -0.6054 -1.8803
 8883SOL     OW38110   1.142   1.347   1.062  0.1617  0.0425 -0.1731
 8883SOL    HW138111   1.096   1.400   0.997 -1.8084 -1.6035 -0.0845
 8883SOL    HW238112   1.234   1.366   1.041 -0.0931  0.2352 -1.0767
 8884SOL     OW38113   1.292   2.161  15.700 -0.6907  0.0535  0.5738
 8884SOL    HW138114   1.238   2.135  15.775  2.2769 -1.7309  2.0970
 8884SOL    HW238115   1.341   2.080  15.685  1.0013  1.5224 -1.8186
 8885SOL     OW38116   4.087   0.253   3.012  0.0060 -0.4713 -0.0087
 8885SOL    HW138117   4.069   0.180   2.953  0.2907 -2.3656  2.2435
 8885SOL    HW238118   4.026   0.246   3.086  2.4238 -0.9735  1.9300
 8886SOL     OW38119   1.812   3.838   7.860 -0.7384  0.2649 -0.5024
 8886SOL    HW138120   1.771   3.915   7.897 -0.4147  0.5095 -0.6531
 8886SOL    HW238121   1.892   3.827   7.912 -0.8308 -1.2481 -0.6544
 8887SOL     OW38122   2.220   4.140  16.772  0.3768 -0.1981  0.1425
 8887SOL    HW138123   2.164   4.217  16.761  1.0730  0.5477  1.8886
 8887SOL    HW238124   2.288   4.160  16.708 -0.1212  1.6987  0.2090
 8888SOL     OW38125   2.554   2.514   3.467 -0.4365 -0.2210 -0.1045
 8888SOL    HW138126   2.601   2.563   3.401 -1.4981 -0.6726 -1.1962
 8888SOL    HW238127   2.536   2.437   3.413  0.6305 -0.2522 -0.4206
 8889SOL     OW38128   1.647   1.945   5.595 -0.1800 -0.0625  0.0557
 8889SOL    HW138129   1.692   2.020   5.556  0.4856 -0.7729 -0.5445
 8889SOL    HW238130   1.658   1.970   5.686  1.5729  0.1699 -0.2185
 8890SOL     OW38131   1.375   2.290   7.478 -0.1435 -0.7512  0.1117
 8890SOL    HW138132   1.453   2.237   7.458 -0.6758 -2.6297  2.9167
 8890SOL    HW238133   1.380   2.353   7.407  0.0769  0.0242  0.8149
 8891SOL     OW38134   2.048   1.073   1.886 -0.3647  0.5786  0.6738
 8891SOL    HW138135   2.112   1.004   1.869 -1.9147 -1.0395  1.4023
 8891SOL    HW238136   2.109   1.145   1.899 -0.2451  0.2938  1.7594
 8892SOL     OW38137   3.230   1.186   4.931 -0.0527  0.6249  0.1190
 8892SOL    HW138138   3.291   1.243   4.884 -2.1339  1.4357 -1.5998
 8892SOL    HW238139   3.297   1.134   4.975  0.1460  0.2805 -0.6029
 8893SOL     OW38140   2.117   3.328   0.868 -0.1347  0.2262 -0.0236
 8893SOL    HW138141   2.068   3.275   0.931 -0.8935 -1.1703 -1.7959
 8893SOL    HW238142   2.046   3.322   0.804  1.1217 -2.0101 -1.2162
 8894SOL     OW38143   0.358   1.385   5.427  0.2999  0.1305  0.5838
 8894SOL    HW138144   0.337   1.463   5.375 -1.9445  0.3400  1.7760
 8894SOL    HW238145   0.303   1.321   5.383  0.4740  0.5265 -0.2164
 8895SOL     OW38146   2.402   0.983   2.790  0.0057  0.2201 -0.2065
 8895SOL    HW138147   2.351   1.053   2.749 -1.2001  0.6330  2.0046
 8895SOL    HW238148   2.438   0.939   2.713  1.0015 -0.7701  0.8207
 8896SOL     OW38149   1.368   1.924   7.267 -0.4154  0.9193 -0.1171
 8896SOL    HW138150   1.369   1.831   7.247  0.3127  0.8675  0.1381
 8896SOL    HW238151   1.460   1.946   7.283 -0.0716 -0.1947 -0.5837
 8897SOL     OW38152   1.019   3.568   7.613  0.3886  0.0663 -0.5462
 8897SOL    HW138153   1.022   3.489   7.559 -1.5805  0.2479 -0.8977
 8897SOL    HW238154   1.001   3.635   7.548  1.5209 -0.2333 -1.1574
 8898SOL     OW38155   0.641   1.127   4.858 -0.7835 -0.6229 -0.0352
 8898SOL    HW138156   0.707   1.194   4.878 -0.4782 -1.4482  1.7903
 8898SOL    HW238157   0.634   1.081   4.942 -0.1633  2.8053  1.8845
 8899SOL     OW38158   4.052   1.199  16.835  0.2367  0.5518  0.1113
 8899SOL    HW138159   4.037   1.104  16.828 -0.8818  0.5785  2.0059
 8899SOL    HW238160   4.124   1.197  16.898  1.2629 -0.4440 -1.0831
 8900SOL     OW38161   0.823   3.651  15.921  0.0572 -0.0144 -0.4794
 8900SOL    HW138162   0.754   3.685  15.864 -0.0231  1.0912  0.2838
 8900SOL    HW238163   0.861   3.731  15.957 -0.2892 -0.1638  0.2294
 8901SOL     OW38164   4.370   4.595   5.896 -0.1020  0.4312  0.4655
 8901SOL    HW138165   4.288   4.581   5.849  0.6525  0.7798 -0.9399
 8901SOL    HW238166   4.375   4.523   5.960  0.2303 -0.5233 -0.6226
 8902SOL     OW38167   1.769   1.539   1.594 -0.1831  0.6397  0.4243
 8902SOL    HW138168   1.820   1.570   1.519 -0.1270 -3.4567 -1.2037
 8902SOL    HW238169   1.716   1.485   1.535 -1.1915  0.2030  1.7165
 8903SOL     OW38170   0.033   1.466   2.882 -0.0023  0.1071 -0.2384
 8903SOL    HW138171   4.668   1.435   2.881 -0.7881  2.3342  1.2325
 8903SOL    HW238172   0.035   1.517   2.963 -0.1017 -0.0032 -0.1673
 8904SOL     OW38173   0.846   4.434   3.508  0.1484  0.4535  0.1511
 8904SOL    HW138174   0.861   4.408   3.417 -0.0873  1.1046 -0.0692
 8904SOL    HW238175   0.938   4.414   3.529  0.4784 -0.4963 -2.1692
 8905SOL     OW38176   2.499   3.517  17.302  0.3401  0.1371  0.1670
 8905SOL    HW138177   2.467   3.607  17.296  1.6187  0.6659  1.5773
 8905SOL    HW238178   2.502   3.478  17.214 -1.3886  1.4220 -0.4834
 8906SOL     OW38179   0.014   4.673  13.708  0.1818 -0.1220  0.1996
 8906SOL    HW138180   0.068   4.642  13.781 -0.0984 -0.5063  0.2423
 8906SOL    HW238181   0.036   4.612  13.638  1.2767  1.6552 -1.0235
 8907SOL     OW38182   2.694   2.043   4.248  0.3740  0.0505  0.2821
 8907SOL    HW138183   2.666   2.106   4.182  1.8406 -0.2286 -0.6186
 8907SOL    HW238184   2.748   1.986   4.193 -0.3433 -0.6611  0.3140
 8908SOL     OW38185   3.350   2.039   4.747  0.4406 -1.1162  0.5723
 8908SOL    HW138186   3.255   2.031   4.737  0.3421 -1.0835  1.5090
 8908SOL    HW238187   3.380   2.053   4.657 -0.5940 -1.1864  0.2194
 8909SOL     OW38188   0.560   2.847   4.746 -0.2491  0.4599 -0.0883
 8909SOL    HW138189   0.578   2.937   4.718 -0.6627  0.8555  0.9167
 8909SOL    HW238190   0.642   2.812   4.709 -0.4427 -1.0289  0.9018
 8910SOL     OW38191   1.712   2.865   9.181 -0.3405 -0.1030  0.1625
 8910SOL    HW138192   1.663   2.832   9.256  1.6098 -0.8910  1.0825
 8910SOL    HW238193   1.801   2.860   9.215 -1.4182 -0.3299  2.9289
 8911SOL     OW38194   3.729   2.009   5.774  0.0002 -0.1530 -0.1495
 8911SOL    HW138195   3.636   1.990   5.762 -0.2483  0.8534  0.1729
 8911SOL    HW238196   3.769   1.932   5.815 -1.5282 -0.7654  0.1800
 8912SOL     OW38197   3.391   4.115   0.603 -0.5236  0.2695 -0.4084
 8912SOL    HW138198   3.455   4.184   0.589  1.9103 -2.0409 -0.6308
 8912SOL    HW238199   3.359   4.105   0.514  0.7586 -0.2344 -0.8080
 8913SOL     OW38200   2.695   0.349  17.442 -0.2368  0.4822  0.7296
 8913SOL    HW138201   2.755   0.423  17.451  1.3875 -0.5790 -1.4793
 8913SOL    HW238202   2.612   0.390  17.469 -0.9976 -0.3010 -0.3959
 8914SOL     OW38203   3.789   0.897   5.354  0.1192  0.5919 -0.1114
 8914SOL    HW138204   3.840   0.912   5.435 -0.1816  0.6001  0.0768
 8914SOL    HW238205   3.773   0.985   5.319  1.9122  0.5244 -1.1388
 8915SOL     OW38206   1.446   1.885   8.636  0.1048  0.1932  0.4639
 8915SOL    HW138207   1.462   1.893   8.730  0.7938 -0.3450  0.3973
 8915SOL    HW238208   1.534   1.913   8.611 -0.5202  0.9978 -0.8574
 8916SOL     OW38209   1.879   2.012  14.959  0.2923 -0.0039 -0.0555
 8916SOL    HW138210   1.833   2.074  15.016  0.4167 -1.3698  1.5243
 8916SOL    HW238211   1.803   1.962  14.928  1.3787 -1.6748 -0.0054
 8917SOL     OW38212   0.483   4.025   0.712  0.4221  0.1969 -0.4581
 8917SOL    HW138213   0.466   3.977   0.793  0.7925  1.3360  0.2952
 8917SOL    HW238214   0.418   4.094   0.716  0.5516  0.2737  0.5050
 8918SOL     OW38215   2.380   4.191  15.974  0.0144 -0.3648 -0.5682
 8918SOL    HW138216   2.476   4.184  15.971  0.0553 -0.6364  1.4073
 8918SOL    HW238217   2.348   4.112  15.931  1.6378 -0.7216 -1.1385
 8919SOL     OW38218   3.681   1.318  10.260  0.5246  0.6953 -0.4572
 8919SOL    HW138219   3.674   1.301  10.166  0.8556 -5.4480  0.6356
 8919SOL    HW238220   3.592   1.339  10.287  0.6897  1.0322 -0.1731
 8920SOL     OW38221   3.614   2.243  17.671 -0.5301  0.0499 -0.2359
 8920SOL    HW138222   3.667   2.279  17.599  0.7022 -2.9136 -0.7932
 8920SOL    HW238223   3.552   2.193  17.618 -1.1665 -0.8869  1.3915
 8921SOL     OW38224   3.124   1.983   6.308 -0.2937 -0.2884  0.5546
 8921SOL    HW138225   3.207   1.936   6.313 -2.4095 -4.0554  0.0538
 8921SOL    HW238226   3.163   2.070   6.297  1.8419 -1.6215 -2.3945
 8922SOL     OW38227   0.268   0.274   7.997 -0.7416  0.0560 -0.1061
 8922SOL    HW138228   0.184   0.258   8.039 -1.8337  1.0238 -1.9478
 8922SOL    HW238229   0.277   0.201   7.936 -1.0901 -1.4429  1.6298
 8923SOL     OW38230   3.839   2.830   4.962  0.0624  0.1601  0.4248
 8923SOL    HW138231   3.764   2.819   4.904 -0.4768 -1.5164  1.4519
 8923SOL    HW238232   3.806   2.869   5.043 -2.0156 -0.3501 -0.1928
 8924SOL     OW38233   0.605   4.550  10.879 -0.5326 -0.0126  0.2708
 8924SOL    HW138234   0.522   4.573  10.837 -1.3547 -2.4776  0.5161
 8924SOL    HW238235   0.612   4.619  10.945 -0.3668 -0.4999  0.7565
 8925SOL     OW38236   2.032   3.229  16.015 -0.5626 -0.0602  0.1711
 8925SOL    HW138237   2.107   3.170  16.019 -0.5878 -0.2080 -1.8230
 8925SOL    HW238238   2.066   3.306  15.969 -0.0638  1.1154  2.5021
 8926SOL     OW38239   0.348   4.715   3.619  0.3243 -0.2244 -0.1769
 8926SOL    HW138240   0.322   4.624   3.633  1.8561 -0.6257  0.0398
 8926SOL    HW238241   0.265   0.033   3.640  1.1227  0.7092  1.0298
 8927SOL     OW38242   3.594   4.426  17.135  0.0681  0.1378  0.0138
 8927SOL    HW138243   3.644   4.438  17.216  1.3961 -2.6668 -0.3780
 8927SOL    HW238244   3.672   4.423  17.080  0.0814 -1.2599  0.0931
 8928SOL     OW38245   4.576   3.144   1.374  0.2703 -0.6235 -0.6335
 8928SOL    HW138246   4.492   3.099   1.377 -0.4461  0.9265  2.0731
 8928SOL    HW238247   4.610   3.130   1.462 -1.7225  2.9948  0.7340
 8929SOL     OW38248   1.341   4.518   7.131 -0.0232 -0.2639 -0.0890
 8929SOL    HW138249   1.421   4.471   7.155  0.3551  0.8581  0.8492
 8929SOL    HW238250   1.275   4.449   7.137  0.8341 -1.2700 -2.4547
 8930SOL     OW38251   1.990   4.333  16.774 -0.0732  0.0753 -0.7264
 8930SOL    HW138252   1.953   4.380  16.849  1.4321  1.1437 -0.6569
 8930SOL    HW238253   1.906   4.300  16.742 -0.4783  2.2169 -1.8369
 8931SOL     OW38254   4.684   1.925  16.502 -0.3877 -0.4293 -0.2283
 8931SOL    HW138255   4.711   1.979  16.428  0.7650  0.3822  0.7920
 8931SOL    HW238256   0.042   1.877  16.506  0.4221  0.7674 -2.6040
 8932SOL     OW38257   1.918   0.828   5.889  0.0176  0.6579  0.0018
 8932SOL    HW138258   1.839   0.877   5.914 -0.4771  1.0275 -2.3214
 8932SOL    HW238259   1.935   0.795   5.977 -0.2158 -1.0169 -0.5729
 8933SOL     OW38260   3.573   3.704   8.111 -0.3670 -0.3109  0.6247
 8933SOL    HW138261   3.608   3.628   8.159 -1.8698 -1.7254 -0.5152
 8933SOL    HW238262   3.550   3.666   8.027 -2.0215  1.0660  0.4540
 8934SOL     OW38263   2.396   4.445   5.226  0.5732  0.5693  0.2472
 8934SOL    HW138264   2.458   4.393   5.276 -0.4126 -0.2554  0.6089
 8934SOL    HW238265   2.344   4.487   5.294 -1.6252 -3.5128  1.0642
 8935SOL     OW38266   4.111   2.404   9.919  0.1444  0.2970  0.0194
 8935SOL    HW138267   4.142   2.445   9.838 -1.1261 -2.4589 -1.8663
 8935SOL    HW238268   4.070   2.478   9.963  1.9081  0.2378  1.7606
 8936SOL     OW38269   3.049   2.535   5.892  0.1707 -0.4701 -0.0285
 8936SOL    HW138270   3.100   2.609   5.925 -1.0418  0.6698 -0.6669
 8936SOL    HW238271   3.026   2.490   5.973 -0.9832 -1.4194 -0.8847
 8937SOL     OW38272   3.042   1.173  10.875  0.0198  0.0579 -0.4748
 8937SOL    HW138273   3.088   1.257  10.879  0.9319 -0.3677 -2.0095
 8937SOL    HW238274   2.958   1.191  10.916 -0.6713 -1.8213 -1.1102
 8938SOL     OW38275   2.802   4.649   3.100  0.2130  0.2660 -0.2570
 8938SOL    HW138276   2.794   4.665   3.006  1.5058 -0.8933 -0.5479
 8938SOL    HW238277   2.874   4.588   3.108  0.7242  0.9821  0.6118
 8939SOL     OW38278   0.681   1.802   5.710 -0.1784 -0.3012  0.2401
 8939SOL    HW138279   0.768   1.821   5.677 -1.1338  0.1348 -1.9995
 8939SOL    HW238280   0.692   1.811   5.805  1.1667 -3.5268  0.4026
 8940SOL     OW38281   0.650   0.146  15.875 -0.1036 -0.5885  0.4371
 8940SOL    HW138282   0.576   0.204  15.890 -0.1284 -0.2134 -1.2233
 8940SOL    HW238283   0.644   0.148  15.780 -0.3920 -0.8765  0.4490
 8941SOL     OW38284   1.443   1.246  10.585 -0.1434 -0.4289  0.4893
 8941SOL    HW138285   1.494   1.282  10.658 -2.4474  0.8564  1.4786
 8941SOL    HW238286   1.383   1.182  10.625  0.2968 -1.0641  0.1392
 8942SOL     OW38287   2.770   2.232   0.135  0.1500  0.2049  0.4193
 8942SOL    HW138288   2.815   2.215   0.052 -0.7039 -0.9308  0.1747
 8942SOL    HW238289   2.700   2.168   0.119 -0.8501  1.6023 -0.8433
 8943SOL     OW38290   1.888   2.105  14.258 -0.0951 -0.5089  0.3663
 8943SOL    HW138291   1.846   2.091  14.173 -1.6249 -1.0009  1.1982
 8943SOL    HW238292   1.887   2.200  14.269 -1.9784 -0.4984  0.0642
 8944SOL     OW38293   1.444   2.793   8.938  0.3736 -0.0600 -0.3719
 8944SOL    HW138294   1.449   2.703   8.970  0.1945  0.9889  2.6441
 8944SOL    HW238295   1.377   2.829   8.996 -0.1833 -0.5779 -0.7024
 8945SOL     OW38296   2.129   1.260   6.825  0.3719  0.6795 -0.2290
 8945SOL    HW138297   2.067   1.300   6.887  0.0348  1.0282 -0.7937
 8945SOL    HW238298   2.114   1.170   6.854 -1.3166 -0.0085 -3.2639
 8946SOL     OW38299   3.575   0.886   4.532  0.1904  0.5711 -0.0847
 8946SOL    HW138300   3.656   0.913   4.489 -0.2149 -0.4870 -1.5001
 8946SOL    HW238301   3.560   0.802   4.489 -0.8817  1.3479 -1.2256
 8947SOL     OW38302   2.057   3.973  10.141 -0.2532  0.4684  0.2992
 8947SOL    HW138303   2.055   3.953  10.048  1.2822 -0.6692  0.5177
 8947SOL    HW238304   2.149   3.998  10.147  0.0768 -0.3501 -1.4062
 8948SOL     OW38305   1.576   3.264   2.439 -0.3892 -0.3278  0.0218
 8948SOL    HW138306   1.535   3.292   2.357 -0.0075  3.3562  1.0754
 8948SOL    HW238307   1.502   3.245   2.497 -0.0114  0.2082  0.6778
 8949SOL     OW38308   3.733   3.526   1.158 -0.5053  0.0630 -0.2066
 8949SOL    HW138309   3.703   3.597   1.215 -2.6592  0.0052 -1.2616
 8949SOL    HW238310   3.718   3.439   1.198 -2.0184  0.0370 -0.8177
 8950SOL     OW38311   1.757   0.450  12.545 -0.2366  0.0601  0.5269
 8950SOL    HW138312   1.741   0.357  12.557  0.1301 -0.0959 -0.2137
 8950SOL    HW238313   1.693   0.463  12.474  1.4134 -3.2268 -1.5774
 8951SOL     OW38314   2.281   4.554   5.450  0.2612 -0.2907  0.3337
 8951SOL    HW138315   2.242   4.476   5.489  3.1669 -1.8283  0.1562
 8951SOL    HW238316   2.225   4.618   5.494 -1.7772 -3.0482  1.7157
 8952SOL     OW38317   1.858   1.167  10.258 -0.5438 -0.5681 -0.2356
 8952SOL    HW138318   1.862   1.177  10.163  1.2351  0.4610 -0.0592
 8952SOL    HW238319   1.818   1.082  10.275 -0.0069 -0.6264  0.7780
 8953SOL     OW38320   0.457   2.226   7.203 -0.0572 -0.5134  0.6405
 8953SOL    HW138321   0.488   2.248   7.116 -1.3219 -1.4127 -0.0323
 8953SOL    HW238322   0.378   2.279   7.206 -0.6285 -1.3790  0.7932
 8954SOL     OW38323   0.061   2.683   6.617  0.4197  0.0138  0.0597
 8954SOL    HW138324   0.120   2.705   6.689  2.5268 -0.1231 -1.6296
 8954SOL    HW238325   0.092   2.748   6.554 -0.1165 -0.7826 -1.0293
 8955SOL     OW38326   2.275   1.217   3.508  0.4325 -0.3219  0.2137
 8955SOL    HW138327   2.319   1.239   3.426 -1.4240 -0.3418 -0.7675
 8955SOL    HW238328   2.331   1.256   3.575 -0.6092  2.2221 -0.4234
 8956SOL     OW38329   1.524   0.786   7.946 -0.1726 -0.0092  0.3439
 8956SOL    HW138330   1.485   0.841   7.878 -0.2331  0.0501  0.4268
 8956SOL    HW238331   1.471   0.707   7.947 -0.5937  0.2803  0.6137
 8957SOL     OW38332   4.263   0.191  11.833 -0.4008  0.2746 -0.0052
 8957SOL    HW138333   4.253   0.206  11.927  1.4586  1.1757  0.0369
 8957SOL    HW238334   4.267   0.282  11.803 -1.0020  0.6793  1.1402
 8958SOL     OW38335   3.169   2.745   5.678 -0.5607  0.5180  0.2631
 8958SOL    HW138336   3.079   2.715   5.684 -0.1084 -1.2271 -1.5896
 8958SOL    HW238337   3.218   2.673   5.720 -1.0914 -1.1381 -1.9617
 8959SOL     OW38338   1.934   4.572   6.478  0.1609  0.1379 -0.3791
 8959SOL    HW138339   1.917   4.483   6.506  1.0445  0.4942  1.2610
 8959SOL    HW238340   2.006   4.605   6.532  1.1847 -1.2536 -0.8854
 8960SOL     OW38341   0.603   3.429  16.748  0.0660  0.0127 -0.3310
 8960SOL    HW138342   0.633   3.358  16.692  0.1843  0.9092 -1.4136
 8960SOL    HW238343   0.687   3.475  16.759 -0.1677  0.4279 -0.2640
 8961SOL     OW38344   3.555   1.749   0.420  0.3056 -0.4335  0.3352
 8961SOL    HW138345   3.580   1.660   0.397  1.3340 -0.7413  2.6202
 8961SOL    HW238346   3.588   1.802   0.347 -1.6136 -1.2369 -1.1168
 8962SOL     OW38347   4.140   2.300   5.307  0.7173 -0.0473  0.1058
 8962SOL    HW138348   4.046   2.286   5.323  1.0733  0.1357  2.3542
 8962SOL    HW238349   4.132   2.341   5.221  3.0629  1.7975  0.7753
 8963SOL     OW38350   3.756   0.876   1.113 -0.2262  0.0178  0.7069
 8963SOL    HW138351   3.783   0.963   1.140 -0.5725  0.5695 -0.6797
 8963SOL    HW238352   3.727   0.906   1.026 -0.0008  0.2744  0.7209
 8964SOL     OW38353   0.655   3.163   8.757 -0.3837 -0.1935  0.0703
 8964SOL    HW138354   0.563   3.158   8.783 -0.0635  2.9379  1.7661
 8964SOL    HW238355   0.689   3.125   8.839 -0.7408 -0.0195  0.3013
 8965SOL     OW38356   1.621   3.475   9.593  0.0935  0.6542 -0.5137
 8965SOL    HW138357   1.587   3.415   9.526  0.8114  0.5895 -0.8122
 8965SOL    HW238358   1.686   3.517   9.537  0.4129  1.4761  0.4803
 8966SOL     OW38359   4.304   2.033   3.943  0.0411  0.3096 -0.2201
 8966SOL    HW138360   4.231   2.076   3.988  0.9507  0.5115  1.0612
 8966SOL    HW238361   4.297   2.081   3.861 -1.5487  1.8435  0.8331
 8967SOL     OW38362   3.429   0.598  11.160 -0.9517 -0.0462 -0.3580
 8967SOL    HW138363   3.447   0.633  11.248  1.7445  0.1093 -0.9700
 8967SOL    HW238364   3.447   0.506  11.180  0.4287  0.1201 -0.8133
 8968SOL     OW38365   0.819   4.055   2.639 -0.1244 -0.1298 -0.0880
 8968SOL    HW138366   0.750   4.007   2.685 -0.8342 -0.1131 -1.1346
 8968SOL    HW238367   0.781   4.142   2.643  0.2778  0.0485 -0.1419
 8969SOL     OW38368   0.558   3.078   4.463 -0.0853  0.1325 -0.1507
 8969SOL    HW138369   0.648   3.055   4.442  0.4437 -0.9464  3.2894
 8969SOL    HW238370   0.575   3.119   4.548  1.0191  0.3534 -0.4791
 8970SOL     OW38371   1.062   2.270   4.886  0.1027 -0.6389 -0.1850
 8970SOL    HW138372   0.999   2.300   4.952  1.0739 -1.0102  0.8941
 8970SOL    HW238373   0.998   2.259   4.815 -1.9353  1.6395  1.3130
 8971SOL     OW38374   3.788   2.919   2.214  0.3086 -0.2715 -0.4114
 8971SOL    HW138375   3.698   2.929   2.183 -1.0690 -4.3204  2.2066
 8971SOL    HW238376   3.819   3.009   2.206 -0.8597 -0.0464 -2.6317
 8972SOL     OW38377   1.085   0.591   6.401 -0.2014 -0.0189  0.0216
 8972SOL    HW138378   1.117   0.626   6.484  3.0853  0.3818 -1.4437
 8972SOL    HW238379   1.155   0.597   6.337  1.1102 -1.3257  1.3209
 8973SOL     OW38380   2.374   3.381   6.608  0.4808 -0.1170  0.0243
 8973SOL    HW138381   2.300   3.365   6.667 -1.3343  2.5947 -1.5532
 8973SOL    HW238382   2.330   3.341   6.533 -0.6472  0.8292  0.1859
 8974SOL     OW38383   3.933   1.938   3.874  0.2179 -0.1033  0.0636
 8974SOL    HW138384   3.878   1.885   3.816 -2.2008  0.1910  2.1262
 8974SOL    HW238385   4.008   1.924   3.816 -0.8141 -0.4650 -1.1835
 8975SOL     OW38386   2.826   2.157  12.174 -0.7619  0.6629  0.1043
 8975SOL    HW138387   2.815   2.083  12.234 -0.8275  0.3973 -0.2350
 8975SOL    HW238388   2.880   2.221  12.220 -0.1382 -0.3171  0.7352
 8976SOL     OW38389   2.533   4.593   7.380  0.1871 -0.0017  0.4306
 8976SOL    HW138390   2.456   4.648   7.364  0.5362  0.2314 -0.4595
 8976SOL    HW238391   2.593   4.665   7.394  0.5896  0.0619 -1.5311
 8977SOL     OW38392   2.071   3.411   9.440  0.3761  0.3613  0.5558
 8977SOL    HW138393   2.062   3.395   9.534 -0.3844  3.8101  1.1007
 8977SOL    HW238394   2.140   3.478   9.432  1.2641 -0.5079  0.9485
 8978SOL     OW38395   0.963   4.262   9.876 -0.1798 -0.0851 -0.5292
 8978SOL    HW138396   1.006   4.347   9.862 -2.7127  1.5449  1.5845
 8978SOL    HW238397   1.028   4.208   9.830 -0.5204 -1.1049  0.2122
 8979SOL     OW38398   2.438   2.755   7.720 -0.3132  0.1755 -0.1160
 8979SOL    HW138399   2.407   2.685   7.777  1.7984 -1.3637 -0.8323
 8979SOL    HW238400   2.533   2.754   7.732 -0.1862 -0.6125 -1.1556
 8980SOL     OW38401   0.850   4.634   6.626  0.6173 -0.0005 -0.1601
 8980SOL    HW138402   0.890   4.548   6.639 -0.2559 -0.6504 -1.8239
 8980SOL    HW238403   0.794   4.615   6.550  2.0936 -1.9335 -0.7636
 8981SOL     OW38404   2.272   1.584   6.967  0.4920  0.3902  0.6228
 8981SOL    HW138405   2.280   1.627   7.052  0.5628 -1.4991  1.5826
 8981SOL    HW238406   2.260   1.661   6.912  0.4802  0.7026  1.0651
 8982SOL     OW38407   3.997   0.654   9.224 -0.6224 -0.1740 -0.3183
 8982SOL    HW138408   3.971   0.623   9.311 -0.0026 -1.3257 -0.5480
 8982SOL    HW238409   4.051   0.580   9.200  0.2827 -0.5489  2.8353
 8983SOL     OW38410   2.107   2.896  14.529  0.1669 -0.3251 -0.4584
 8983SOL    HW138411   2.080   2.967  14.471 -2.4384 -0.9076  0.0211
 8983SOL    HW238412   2.195   2.889  14.495  0.6895 -0.0048  0.8107
 8984SOL     OW38413   2.669   0.486   9.062  0.0035  0.0544  0.1360
 8984SOL    HW138414   2.762   0.463   9.063  0.0933  0.3559 -0.8467
 8984SOL    HW238415   2.618   0.405   9.069 -1.0319  0.6143 -0.9687
 8985SOL     OW38416   4.519   0.144   4.815 -0.8949  0.0505  0.4573
 8985SOL    HW138417   4.549   0.233   4.798 -0.6573 -0.0618  0.2895
 8985SOL    HW238418   4.597   0.090   4.825 -0.4910  0.2584 -1.6350
 8986SOL     OW38419   1.151   2.937  13.591 -0.0045 -0.0518  0.3083
 8986SOL    HW138420   1.060   2.945  13.621  0.2738  0.1694  1.0974
 8986SOL    HW238421   1.147   2.973  13.502 -3.2083 -1.4098 -0.1208
 8987SOL     OW38422   2.523   3.097  15.205 -0.5391 -0.2521  0.2520
 8987SOL    HW138423   2.535   3.151  15.283  1.7830  0.5379 -0.6515
 8987SOL    HW238424   2.437   3.060  15.226  0.5113 -0.8053  3.6828
 8988SOL     OW38425   0.217   3.198   3.352  0.2351 -0.2450  0.7010
 8988SOL    HW138426   0.123   3.198   3.372  0.1936 -0.3000  0.5139
 8988SOL    HW238427   0.256   3.169   3.434  2.5762 -0.5401 -0.5212
 8989SOL     OW38428   3.489   1.323   7.414  0.6526 -1.0829 -0.1659
 8989SOL    HW138429   3.528   1.406   7.443  0.7658 -0.9540 -0.6967
 8989SOL    HW238430   3.456   1.287   7.496 -0.2360 -0.0941 -0.0799
 8990SOL     OW38431   3.607   3.117   6.236  0.0999 -0.0555 -0.1883
 8990SOL    HW138432   3.634   3.031   6.204 -0.1952 -0.1002 -0.3233
 8990SOL    HW238433   3.673   3.128   6.304 -0.8547 -0.4266  0.8211
 8991SOL     OW38434   1.936   0.817   3.039  0.0747 -0.1535 -0.4012
 8991SOL    HW138435   1.979   0.877   2.978  2.5267 -0.9044  0.6025
 8991SOL    HW238436   1.990   0.832   3.117  1.1036  0.3388 -1.2067
 8992SOL     OW38437   1.138   4.178  17.178 -0.8693 -0.4356  0.8893
 8992SOL    HW138438   1.152   4.212  17.267  1.0586 -1.4304  0.9817
 8992SOL    HW238439   1.156   4.085  17.189 -0.0345  0.1793  4.9096
 8993SOL     OW38440   0.898   2.166   4.693 -0.2603  0.2820 -0.6169
 8993SOL    HW138441   0.858   2.083   4.719  0.2951 -0.1356 -1.1010
 8993SOL    HW238442   0.942   2.147   4.610  0.4917  1.3431 -0.4607
 8994SOL     OW38443   3.798   3.797   5.783 -0.0798  0.6409 -0.0481
 8994SOL    HW138444   3.708   3.825   5.803 -0.6104 -0.3948 -0.9917
 8994SOL    HW238445   3.850   3.878   5.787  1.8060 -0.5657 -0.5098
 8995SOL     OW38446   4.613   1.592   3.418 -0.0444 -0.1289  0.9972
 8995SOL    HW138447   4.685   1.530   3.409  0.2045  0.3352 -0.2031
 8995SOL    HW238448   4.632   1.634   3.502 -1.6385  1.9126  0.3246
 8996SOL     OW38449   0.852   3.925   0.488 -0.0544 -0.3650  0.3948
 8996SOL    HW138450   0.907   3.869   0.434 -2.4716 -1.3971 -1.0208
 8996SOL    HW238451   0.890   3.903   0.573  1.6665 -0.5469 -0.4388
 8997SOL     OW38452   0.361   1.543   4.342 -0.0168  0.0345  0.3504
 8997SOL    HW138453   0.314   1.596   4.277  0.3463 -1.1102 -0.8605
 8997SOL    HW238454   0.289   1.524   4.402  0.3842 -0.6869  0.5975
 8998SOL     OW38455   0.529   1.759   7.973  0.4785 -0.1596 -0.6592
 8998SOL    HW138456   0.501   1.849   7.990  0.2010 -0.5348  0.8872
 8998SOL    HW238457   0.550   1.733   8.063 -2.0477  0.8188  0.2320
 8999SOL     OW38458   4.164   1.743  17.107  0.1656  0.0797  0.2589
 8999SOL    HW138459   4.167   1.731  17.202 -0.2651  0.1890  0.2877
 8999SOL    HW238460   4.114   1.663  17.093  1.0759 -0.8739  2.4398
 9000SOL     OW38461   1.388   3.740   0.828  0.4881 -0.6581 -0.5194
 9000SOL    HW138462   1.345   3.703   0.906  1.3686 -0.0748  0.2317
 9000SOL    HW238463   1.397   3.832   0.853 -0.7268 -0.5019 -0.6567
 9001SOL     OW38464   3.911   1.645  13.695  0.5012 -0.0894  0.8385
 9001SOL    HW138465   3.887   1.706  13.765 -0.9867  0.2237  0.0390
 9001SOL    HW238466   3.884   1.698  13.620  0.5410 -0.4224  0.5900
 9002SOL     OW38467   1.130   2.354   6.958  0.2613  0.4324  0.0586
 9002SOL    HW138468   1.170   2.295   7.023 -0.9209  1.6632  1.8875
 9002SOL    HW238469   1.040   2.331   6.981 -0.3729  0.9514 -1.9637
 9003SOL     OW38470   3.174   0.710   9.486 -0.1856 -0.5273  0.8578
 9003SOL    HW138471   3.159   0.669   9.571  2.3661 -0.0355  1.5482
 9003SOL    HW238472   3.248   0.654   9.463  0.3412  1.2475 -1.7716
 9004SOL     OW38473   3.425   2.083  11.852 -0.5592  0.5950  0.3287
 9004SOL    HW138474   3.502   2.043  11.892 -1.6564  0.0484  1.8885
 9004SOL    HW238475   3.386   2.000  11.827 -1.2421  0.1415  2.9044
 9005SOL     OW38476   2.749   1.735   4.976  0.3405  0.6996  0.4534
 9005SOL    HW138477   2.829   1.693   5.008 -0.8208 -2.2668 -0.5671
 9005SOL    HW238478   2.706   1.659   4.938  1.0064  0.6276 -0.1554
 9006SOL     OW38479   2.778   1.100  12.324  0.1381  0.0209 -0.2919
 9006SOL    HW138480   2.818   1.025  12.280 -1.5678 -1.5798  0.9195
 9006SOL    HW238481   2.742   1.145  12.248 -2.2058 -2.1233 -0.4599
 9007SOL     OW38482   3.462   4.101  13.189  0.0722  0.7153  0.2615
 9007SOL    HW138483   3.461   4.152  13.108  1.5053  0.1063 -0.1285
 9007SOL    HW238484   3.510   4.160  13.247 -1.6714  2.1098  0.2988
 9008SOL     OW38485   4.432   3.605   8.432  0.1184  0.0592  0.7072
 9008SOL    HW138486   4.463   3.681   8.481  1.3604  0.3651 -0.5420
 9008SOL    HW238487   4.339   3.609   8.452  0.1912 -0.6917  1.1909
 9009SOL     OW38488   1.907   0.332   6.829  0.1188 -0.2510 -0.6493
 9009SOL    HW138489   1.892   0.412   6.878  1.4581  0.5669 -1.5863
 9009SOL    HW238490   1.864   0.267   6.884  0.2764 -0.3895 -0.6883
 9010SOL     OW38491   1.680   2.226  11.381  0.3590 -0.3663 -0.1661
 9010SOL    HW138492   1.756   2.260  11.334 -0.9765  0.4569 -1.7420
 9010SOL    HW238493   1.716   2.210  11.468  1.9552  0.0060 -0.7627
 9011SOL     OW38494   3.719   2.929   6.779 -0.1976  0.5432 -0.4706
 9011SOL    HW138495   3.766   2.861   6.828 -0.3583  1.6070  1.1790
 9011SOL    HW238496   3.737   3.009   6.829  0.5982  0.0030  0.1157
 9012SOL     OW38497   4.221   4.133   4.491 -0.6095  0.0830  0.2333
 9012SOL    HW138498   4.160   4.063   4.466 -1.5783  1.3025 -0.7981
 9012SOL    HW238499   4.183   4.157   4.576 -0.3359  1.0198  0.0920
 9013SOL     OW38500   3.912   1.222   3.213  0.3753 -0.1509  0.6280
 9013SOL    HW138501   3.992   1.261   3.248 -0.1473  2.4305 -0.9959
 9013SOL    HW238502   3.939   1.219   3.121 -1.0706  0.7296  0.1785
 9014SOL     OW38503   2.079   2.738  13.331 -0.3811 -0.2427  0.2828
 9014SOL    HW138504   2.146   2.771  13.271 -0.8294 -0.2302 -0.2123
 9014SOL    HW238505   2.017   2.811  13.322  1.2783  0.9297 -1.6181
 9015SOL     OW38506   1.449   0.526   4.973 -0.5703  0.0010 -0.0130
 9015SOL    HW138507   1.483   0.437   4.979 -0.0923  0.2665  1.3149
 9015SOL    HW238508   1.526   0.573   5.004  0.3440 -0.8927 -0.9393
 9016SOL     OW38509   0.876   1.977   4.180  0.1162  0.4590 -0.6160
 9016SOL    HW138510   0.944   1.994   4.115 -2.2061 -2.0353 -3.6870
 9016SOL    HW238511   0.926   1.948   4.257  0.5356 -0.6497 -1.3076
 9017SOL     OW38512   2.360   0.361   4.062  0.0751 -0.1158 -0.5104
 9017SOL    HW138513   2.346   0.440   4.010  0.2823  0.0240 -0.3499
 9017SOL    HW238514   2.442   0.384   4.105 -2.0502  2.4187  2.1268
 9018SOL     OW38515   3.318   4.714   6.415  0.0120  0.1000  0.2322
 9018SOL    HW138516   3.355   4.627   6.401 -2.4731 -0.9533  0.1021
 9018SOL    HW238517   3.384   0.055   6.399  2.7577 -2.5667  0.6039
 9019SOL     OW38518   4.238   0.790  10.987  0.0471 -0.3903 -0.1076
 9019SOL    HW138519   4.313   0.803  11.043 -0.8531  1.6728  0.6200
 9019SOL    HW238520   4.221   0.881  10.960 -2.7253 -0.8913 -0.0847
 9020SOL     OW38521   2.744   4.458  16.116 -0.1253  0.5142 -0.6978
 9020SOL    HW138522   2.771   4.530  16.060  0.8881 -0.4714 -1.4883
 9020SOL    HW238523   2.659   4.491  16.144  1.0096  2.6113  0.2511
 9021SOL     OW38524   0.312   4.223   8.084 -0.0717 -0.1015  0.0977
 9021SOL    HW138525   0.309   4.187   7.996 -2.5026  2.1041 -0.7278
 9021SOL    HW238526   0.378   4.161   8.113  0.2890  0.1528 -0.1876
 9022SOL     OW38527   2.193   2.498   4.242 -0.2808 -0.6456 -0.1610
 9022SOL    HW138528   2.223   2.410   4.264  0.3432  0.2655  2.6141
 9022SOL    HW238529   2.107   2.500   4.284 -1.4431  2.0432 -2.6713
 9023SOL     OW38530   2.094   0.311  11.711  0.0430 -0.5221  0.1076
 9023SOL    HW138531   2.160   0.373  11.742  0.7069 -0.6888 -0.9691
 9023SOL    HW238532   2.101   0.346  11.622  0.2303 -0.6854  0.0556
 9024SOL     OW38533   0.596   3.057   7.105  0.0374  0.3892  0.4639
 9024SOL    HW138534   0.639   2.973   7.093 -0.1019  0.9179 -3.7313
 9024SOL    HW238535   0.556   3.072   7.019  0.5037  1.6084  0.4583
 9025SOL     OW38536   1.952   4.485   7.265 -0.1240 -0.3462 -0.5158
 9025SOL    HW138537   1.887   4.415   7.275  1.3179 -1.5772  0.1826
 9025SOL    HW238538   1.924   4.552   7.328  1.1736 -1.1896  0.9439
 9026SOL     OW38539   4.573   3.379   7.062  0.1499 -0.0990 -0.1294
 9026SOL    HW138540   4.488   3.424   7.061  0.5161  0.7232  2.7394
 9026SOL    HW238541   4.573   3.345   6.973 -3.5537  0.4080 -0.3373
 9027SOL     OW38542   0.594   3.829   1.086  0.4735  0.5105 -0.5844
 9027SOL    HW138543   0.571   3.794   1.000 -0.7752 -0.2554  0.0548
 9027SOL    HW238544   0.643   3.756   1.124 -0.5627  0.1484  0.0580
 9028SOL     OW38545   2.204   4.306   9.056  0.6416 -0.1732  0.2835
 9028SOL    HW138546   2.110   4.295   9.045  0.2701  2.4175  0.9301
 9028SOL    HW238547   2.222   4.354   8.975 -0.2441 -1.5678 -0.7376
 9029SOL     OW38548   4.136   1.944  14.008  0.4881  0.0183 -0.1514
 9029SOL    HW138549   4.149   1.904  14.094 -0.3157  0.7597  0.3052
 9029SOL    HW238550   4.041   1.933  14.007  0.4577  0.4293 -1.5594
 9030SOL     OW38551   1.719   0.511   3.713  0.6597 -0.0641  0.3294
 9030SOL    HW138552   1.685   0.575   3.776  2.8060  2.2276 -0.8212
 9030SOL    HW238553   1.788   0.551   3.660  1.2298  0.9668  1.8230
 9031SOL     OW38554   3.014   0.344  15.015 -0.3815  0.1198  0.6881
 9031SOL    HW138555   2.978   0.262  15.050 -1.2493  1.2858  2.5188
 9031SOL    HW238556   3.103   0.315  14.994  0.2320  3.4207 -1.2380
 9032SOL     OW38557   2.458   2.481   5.642  0.1501 -0.2211 -0.0376
 9032SOL    HW138558   2.506   2.399   5.642  0.4313 -0.0529  0.7415
 9032SOL    HW238559   2.372   2.455   5.609  0.2770  0.3494 -0.8442
 9033SOL     OW38560   1.539   0.869   4.523 -0.0508 -0.0340  0.9706
 9033SOL    HW138561   1.488   0.930   4.470  2.2021  0.0163 -1.1245
 9033SOL    HW238562   1.479   0.794   4.523  1.8501 -1.5673 -1.2762
 9034SOL     OW38563   4.540   0.995  16.552  0.5657  0.0768 -0.7683
 9034SOL    HW138564   4.624   0.993  16.508  1.6982 -0.8387  1.4400
 9034SOL    HW238565   4.533   1.087  16.579 -1.2847 -0.1015 -0.5749
 9035SOL     OW38566   0.003   0.382   2.455 -0.5248  0.0251 -0.9859
 9035SOL    HW138567   0.069   0.322   2.421  1.2980  1.4040  0.0931
 9035SOL    HW238568   0.050   0.463   2.433 -0.8011 -0.0405 -1.8122
 9036SOL     OW38569   2.751   2.469   8.542  0.2165  0.7213 -0.4879
 9036SOL    HW138570   2.821   2.530   8.566 -0.3652  0.6037  1.5252
 9036SOL    HW238571   2.732   2.429   8.627 -1.4393  0.1339 -1.1418
 9037SOL     OW38572   0.418   4.004  13.423 -0.5515 -0.1648  0.3952
 9037SOL    HW138573   0.413   4.049  13.507 -0.3790  0.7745 -0.1007
 9037SOL    HW238574   0.514   4.002  13.424 -0.5559 -0.4348  0.3684
 9038SOL     OW38575   0.734   1.194   6.934 -0.1708 -0.1744 -0.1142
 9038SOL    HW138576   0.795   1.268   6.927  1.2066 -1.4110 -0.9660
 9038SOL    HW238577   0.798   1.126   6.915  0.4044  1.1292 -2.8875
 9039SOL     OW38578   1.896   2.059  11.034 -0.7281 -0.2503  0.1285
 9039SOL    HW138579   1.808   2.074  11.068 -0.2758  0.2308  1.0680
 9039SOL    HW238580   1.923   1.994  11.099  0.6007 -1.0061 -1.1812
 9040SOL     OW38581   3.479   1.023  10.852  0.4495 -0.1693 -0.5655
 9040SOL    HW138582   3.391   0.992  10.831  0.6451 -0.7975 -0.4592
 9040SOL    HW238583   3.460   1.088  10.920 -2.6613 -1.0331 -0.5989
 9041SOL     OW38584   2.027   4.601   3.161 -0.1580 -0.3829  0.1919
 9041SOL    HW138585   1.965   4.532   3.185 -0.8915  0.7236  1.5001
 9041SOL    HW238586   1.961   4.663   3.128  0.7497 -0.1736 -1.2291
 9042SOL     OW38587   4.233   0.717   0.862  0.1342 -0.0116  0.0545
 9042SOL    HW138588   4.252   0.684   0.774 -0.7820 -1.4769  0.3873
 9042SOL    HW238589   4.313   0.701   0.911 -0.3420  0.4593  0.9876
 9043SOL     OW38590   1.067   1.924   2.285  0.4062 -0.1623 -0.3164
 9043SOL    HW138591   1.027   1.858   2.227  0.5501  1.0444 -1.7890
 9043SOL    HW238592   1.044   2.006   2.241  2.3025  0.2661 -0.4739
 9044SOL     OW38593   1.443   3.300   6.345 -0.0330 -0.3103 -0.1400
 9044SOL    HW138594   1.425   3.233   6.412  3.4492 -1.2495 -0.1404
 9044SOL    HW238595   1.473   3.234   6.282  0.2837  0.4262 -0.7591
 9045SOL     OW38596   1.561   2.248   2.030  0.1151 -0.1869  0.3757
 9045SOL    HW138597   1.645   2.268   1.988  0.1818 -1.5260 -0.1455
 9045SOL    HW238598   1.522   2.195   1.960 -0.4354  0.0061  0.5366
 9046SOL     OW38599   3.644   2.442   4.424  0.2304  0.3830  0.0831
 9046SOL    HW138600   3.689   2.358   4.416 -0.4282 -0.0913  1.3892
 9046SOL    HW238601   3.554   2.414   4.440  0.3175  0.9221  1.5455
 9047SOL     OW38602   4.714   0.557   9.729 -0.8703 -0.5441  0.5924
 9047SOL    HW138603   0.077   0.554   9.765 -0.9022  0.3467  0.7576
 9047SOL    HW238604   4.705   0.465   9.705 -1.9963 -0.1626 -0.4165
 9048SOL     OW38605   0.806   0.185   4.105  0.2345 -0.4764  0.7647
 9048SOL    HW138606   0.721   0.180   4.062 -0.4036  0.6924  1.9012
 9048SOL    HW238607   0.858   0.136   4.042  0.8796 -1.2748  1.9081
 9049SOL     OW38608   2.012   2.840   3.300 -0.4021  0.6578 -0.3667
 9049SOL    HW138609   1.936   2.898   3.302 -1.4754 -0.7896  0.6857
 9049SOL    HW238610   2.084   2.898   3.325 -0.2939  0.7455 -0.8628
 9050SOL     OW38611   0.139   3.452   0.339 -0.4547  0.2771 -0.5305
 9050SOL    HW138612   0.049   3.471   0.312  0.0091  0.4713 -1.8915
 9050SOL    HW238613   0.169   3.538   0.366 -0.7158 -0.0029  0.6858
 9051SOL     OW38614   3.683   3.080   4.400 -0.5652 -0.2537 -0.1179
 9051SOL    HW138615   3.743   3.086   4.474 -0.8787  1.0067  0.0248
 9051SOL    HW238616   3.695   3.161   4.351 -0.1325  0.0806  0.5309
 9052SOL     OW38617   3.250   3.304  17.230  0.5152  0.1690  0.3123
 9052SOL    HW138618   3.317   3.364  17.198 -0.6408  1.1972 -0.2002
 9052SOL    HW238619   3.265   3.318  17.324  2.7199 -0.6966  0.0716
 9053SOL     OW38620   3.656   3.997   2.670 -0.1659  0.4809 -0.0115
 9053SOL    HW138621   3.599   4.065   2.705 -0.2907  0.6655 -0.5749
 9053SOL    HW238622   3.687   4.053   2.598 -0.3682  1.5734  0.7493
 9054SOL     OW38623   1.795   4.664   2.491  0.3452  0.4572  0.6334
 9054SOL    HW138624   1.861   4.707   2.437  0.8713 -0.5187  0.5039
 9054SOL    HW238625   1.840   4.670   2.575  3.9659 -0.4845 -1.2665
 9055SOL     OW38626   4.186   1.816   7.503  0.6274 -0.0041  0.1797
 9055SOL    HW138627   4.256   1.870   7.466 -2.5296  1.6008 -3.5298
 9055SOL    HW238628   4.209   1.728   7.474 -1.8739 -0.6602  0.1920
 9056SOL     OW38629   2.252   1.406   4.522 -0.3112  0.1793 -1.2591
 9056SOL    HW138630   2.236   1.455   4.441 -0.6379  0.2406 -1.1566
 9056SOL    HW238631   2.209   1.322   4.506  0.3887 -0.7553  1.7069
 9057SOL     OW38632   4.460   0.668   9.720 -0.4864  0.4990 -0.6149
 9057SOL    HW138633   4.459   0.760   9.746  0.0718  0.2903  0.1613
 9057SOL    HW238634   4.548   0.639   9.745 -0.6160 -0.5584 -1.3924
 9058SOL     OW38635   4.151   0.778   0.398  0.7473 -0.1775  0.2755
 9058SOL    HW138636   4.163   0.868   0.431 -3.8283 -0.0225  1.5411
 9058SOL    HW238637   4.090   0.793   0.325  1.7113 -0.3285 -0.5501
 9059SOL     OW38638   3.761   3.897  14.339  0.4071 -0.4705 -0.0430
 9059SOL    HW138639   3.704   3.965  14.374 -2.7076 -2.4112 -1.4143
 9059SOL    HW238640   3.818   3.893  14.416  1.4184  1.5014 -0.6842
 9060SOL     OW38641   4.670   3.469   6.563  0.2717  0.4745  0.1117
 9060SOL    HW138642   4.647   3.550   6.516  0.7775  0.3147 -0.4123
 9060SOL    HW238643   0.027   3.494   6.604 -0.2505  0.0236  1.4266
 9061SOL     OW38644   3.829   4.117   9.108  0.0041  0.1964  0.2722
 9061SOL    HW138645   3.887   4.158   9.044 -0.3523 -2.0544 -1.4949
 9061SOL    HW238646   3.851   4.026   9.088  2.5052  0.8236  0.0441
 9062SOL     OW38647   0.927   3.755   0.703  0.0746  0.8301 -0.4274
 9062SOL    HW138648   0.916   3.750   0.798  0.2376 -1.6753 -0.5479
 9062SOL    HW238649   0.840   3.730   0.672  0.0912  1.4833 -0.9974
 9063SOL     OW38650   0.293   3.430   0.846 -0.0484 -0.8426 -0.1081
 9063SOL    HW138651   0.302   3.335   0.841  0.0652 -0.9772  2.4641
 9063SOL    HW238652   0.307   3.439   0.941 -3.2567  1.1985  0.1649
 9064SOL     OW38653   2.320   1.836   4.149 -0.2410  0.4487 -0.2417
 9064SOL    HW138654   2.336   1.923   4.185 -0.8051 -0.5981  2.5289
 9064SOL    HW238655   2.246   1.808   4.204 -0.4837  0.5048 -0.5373
 9065SOL     OW38656   0.138   0.343   3.417 -0.4401 -0.5011  0.5075
 9065SOL    HW138657   0.111   0.357   3.508  0.4540 -1.3170  0.9003
 9065SOL    HW238658   0.231   0.365   3.413 -0.7696  0.7848  0.0707
 9066SOL     OW38659   1.961   1.017   6.305 -0.5595 -0.1012  0.2018
 9066SOL    HW138660   1.951   0.998   6.398  1.3624  1.8713  0.8073
 9066SOL    HW238661   1.871   1.044   6.286 -0.9119 -0.4919  1.3140
 9067SOL     OW38662   0.234   2.016  11.308  0.9081  0.5127 -0.1379
 9067SOL    HW138663   0.298   2.077  11.344  3.4918 -2.1745 -0.1585
 9067SOL    HW238664   0.170   2.007  11.378 -0.1556 -1.7509 -1.3848
 9068SOL     OW38665   1.826   0.532   7.823  0.0332  0.0135 -0.4082
 9068SOL    HW138666   1.829   0.624   7.851  1.5242 -0.3240  0.5752
 9068SOL    HW238667   1.738   0.501   7.844  0.4847 -0.7490  0.3274
 9069SOL     OW38668   3.450   2.264   2.805 -0.0859 -0.0350 -0.3838
 9069SOL    HW138669   3.461   2.294   2.895 -2.0229 -1.0480  0.1846
 9069SOL    HW238670   3.450   2.168   2.813 -0.0817  0.0110  0.2132
 9070SOL     OW38671   0.360   3.851   7.944  0.1151 -0.1560 -0.3563
 9070SOL    HW138672   0.283   3.820   7.896  0.4619 -1.9117  0.2185
 9070SOL    HW238673   0.426   3.850   7.875  0.5119 -1.6201  0.0451
 9071SOL     OW38674   4.539   4.653   6.853  0.1508  0.2487 -0.3915
 9071SOL    HW138675   4.518   4.704   6.775  0.2079  1.9630  0.7349
 9071SOL    HW238676   4.594   4.711   6.905  0.3104 -0.2543  0.0096
 9072SOL     OW38677   3.776   1.591   2.510  0.4009 -0.0969 -0.5011
 9072SOL    HW138678   3.697   1.537   2.509 -1.5038  2.6387  1.4148
 9072SOL    HW238679   3.812   1.589   2.421  2.2086 -2.2977  0.2836
 9073SOL     OW38680   2.890   1.594   2.115  0.2752 -0.1374  0.4052
 9073SOL    HW138681   2.890   1.633   2.027 -2.6523 -1.8515 -0.3316
 9073SOL    HW238682   2.863   1.667   2.171  4.0883  1.4817  0.2021
 9074SOL     OW38683   3.850   0.538   2.367 -0.3010 -0.5101  0.1531
 9074SOL    HW138684   3.827   0.626   2.337 -2.5753 -0.8353  0.9010
 9074SOL    HW238685   3.940   0.538   2.334 -0.5132  1.1825 -0.4518
 9075SOL     OW38686   1.589   4.234  10.255 -0.0341 -0.2637 -0.1200
 9075SOL    HW138687   1.632   4.176  10.318  2.9715  1.2042 -0.8453
 9075SOL    HW238688   1.531   4.167  10.220 -0.7038 -0.4153  1.2702
 9076SOL     OW38689   4.546   4.372   7.401  0.5392 -0.1136 -0.5350
 9076SOL    HW138690   4.492   4.391   7.324  0.5852 -0.0367 -0.5478
 9076SOL    HW238691   4.491   4.404   7.473  1.4640  0.0762  0.0840
 9077SOL     OW38692   1.383   1.450   0.969  0.6928  0.4749 -0.4494
 9077SOL    HW138693   1.403   1.519   1.032 -0.9315  0.1606  0.4243
 9077SOL    HW238694   1.429   1.477   0.890  1.7493  0.7115  0.2435
 9078SOL     OW38695   3.079   3.857   6.104 -0.3475 -0.2743  0.3500
 9078SOL    HW138696   3.008   3.802   6.071  1.8350 -2.8153 -0.0925
 9078SOL    HW238697   3.126   3.868   6.022 -1.1685 -0.3601 -0.1313
 9079SOL     OW38698   0.949   0.352  15.242 -0.2062  0.5247 -0.2777
 9079SOL    HW138699   0.979   0.352  15.151 -1.5951  0.8671 -0.7399
 9079SOL    HW238700   1.026   0.371  15.295  0.0345 -1.8665  0.2317
 9080SOL     OW38701   0.306   3.421  10.400 -0.1662 -0.3747  0.1551
 9080SOL    HW138702   0.311   3.414  10.305 -0.4443 -1.7566  0.2405
 9080SOL    HW238703   0.243   3.352  10.424  1.5828 -1.6180  1.2121
 9081SOL     OW38704   0.582   1.855  14.166  0.4098  0.2471  0.1988
 9081SOL    HW138705   0.533   1.773  14.162  0.0710  0.5075 -1.1559
 9081SOL    HW238706   0.508   1.914  14.153  0.7917  0.3996 -1.2626
 9082SOL     OW38707   1.640   3.495   4.886  0.4772 -0.0347  0.1782
 9082SOL    HW138708   1.642   3.526   4.796 -1.2201  0.4109  0.3011
 9082SOL    HW238709   1.716   3.541   4.920  1.6742 -0.3207 -2.1262
 9083SOL     OW38710   0.572   3.264   5.583 -0.8398  0.0911  0.1051
 9083SOL    HW138711   0.511   3.292   5.515 -0.5826  1.5911  0.4764
 9083SOL    HW238712   0.535   3.179   5.603  5.0022 -2.3683  0.5201
 9084SOL     OW38713   2.548   2.258  13.144 -0.3522 -0.3549  0.3195
 9084SOL    HW138714   2.597   2.320  13.089  1.0675 -0.5071  1.4269
 9084SOL    HW238715   2.612   2.193  13.174 -1.9284 -2.4180 -0.7372
 9085SOL     OW38716   1.778   2.219  15.845  0.0925 -0.5202  0.3000
 9085SOL    HW138717   1.697   2.261  15.874 -0.0784 -2.0341  2.0406
 9085SOL    HW238718   1.738   2.218  15.758 -2.7307 -0.5293  1.6042
 9086SOL     OW38719   3.415   2.081  10.635 -0.0386  0.2387  0.1013
 9086SOL    HW138720   3.506   2.085  10.604  0.0853 -0.7855  0.3414
 9086SOL    HW238721   3.373   2.054  10.553  1.4879 -1.1521 -0.2177
 9087SOL     OW38722   0.969   0.791   6.748 -0.2217  0.0343 -0.1304
 9087SOL    HW138723   0.981   0.814   6.656 -2.0584  0.0245 -0.3808
 9087SOL    HW238724   1.048   0.819   6.794 -1.1056 -1.3391  2.2481
 9088SOL     OW38725   1.351   0.553  15.541 -0.3933  0.2381  0.3592
 9088SOL    HW138726   1.441   0.528  15.518  0.1253  3.1254 -0.8111
 9088SOL    HW238727   1.357   0.604  15.623 -1.4980 -0.8751  1.1233
 9089SOL     OW38728   3.393   1.017   4.660  0.6418  0.8717 -0.2357
 9089SOL    HW138729   3.458   0.971   4.606 -1.0556 -0.7490 -0.8751
 9089SOL    HW238730   3.432   1.022   4.748 -0.7317 -0.2543  0.4425
 9090SOL     OW38731   2.379   1.112   3.834  0.1482 -0.6723  0.0696
 9090SOL    HW138732   2.389   1.148   3.746 -0.3707  0.8431  0.6196
 9090SOL    HW238733   2.383   1.192   3.887 -1.1006 -1.4287  1.2949
 9091SOL     OW38734   4.410   0.563   9.447  0.1519  0.3350  0.2474
 9091SOL    HW138735   4.444   0.647   9.414 -1.8070  1.5263  1.3255
 9091SOL    HW238736   4.403   0.592   9.538  0.2609 -2.0694  1.0271
 9092SOL     OW38737   2.389   0.317   6.516 -0.1001 -0.8595  0.1452
 9092SOL    HW138738   2.424   0.367   6.590 -0.5446 -0.4753  0.0923
 9092SOL    HW238739   2.296   0.300   6.532  0.3170 -1.9633  1.3944
 9093SOL     OW38740   1.072   0.743  11.984 -0.0641 -0.3179  0.2129
 9093SOL    HW138741   1.162   0.718  11.965  0.3314 -0.5974  2.4738
 9093SOL    HW238742   1.033   0.658  11.963  0.0832 -0.3100 -0.0944
 9094SOL     OW38743   3.159   3.584   2.409 -0.2825  0.0577  0.0336
 9094SOL    HW138744   3.146   3.490   2.416  0.6998 -0.1106 -0.4182
 9094SOL    HW238745   3.070   3.619   2.403 -0.9997 -1.6807  0.5250
 9095SOL     OW38746   2.663   4.434   4.666  0.0639  0.3581  0.1151
 9095SOL    HW138747   2.658   4.504   4.731 -0.6831  1.2273 -0.8848
 9095SOL    HW238748   2.595   4.370   4.687 -0.6021  0.4704 -1.6765
 9096SOL     OW38749   2.511   4.614   8.551 -0.0942  0.0540  0.3037
 9096SOL    HW138750   2.561   4.562   8.488  0.3819 -0.2352  0.9206
 9096SOL    HW238751   2.455   4.660   8.489  1.1074  0.2031 -0.6820
 9097SOL     OW38752   2.453   3.064   9.998  0.1455 -0.3347  0.0507
 9097SOL    HW138753   2.539   3.041   9.964 -0.5755 -2.8344 -0.0527
 9097SOL    HW238754   2.416   3.087   9.912 -3.1096 -1.3905  1.1642
 9098SOL     OW38755   0.694   1.121  11.878  0.1838  0.3583 -0.6197
 9098SOL    HW138756   0.697   1.032  11.913  0.0396  0.7230  0.3153
 9098SOL    HW238757   0.723   1.181  11.947 -0.0283 -0.5528  0.2602
 9099SOL     OW38758   0.183   3.965   0.545 -0.0437 -0.9580 -0.2147
 9099SOL    HW138759   0.129   4.007   0.478 -2.5671 -2.2245  1.0370
 9099SOL    HW238760   0.113   3.962   0.610 -0.6840  0.0772 -0.8434
 9100SOL     OW38761   0.206   1.157   5.314 -0.5460 -0.2345  0.1513
 9100SOL    HW138762   0.111   1.156   5.323 -0.3268  1.8532  2.7294
 9100SOL    HW238763   0.228   1.071   5.351  0.2169 -0.4955 -0.9018
 9101SOL     OW38764   0.889   3.827   9.396 -0.0571 -0.3168  0.2820
 9101SOL    HW138765   0.797   3.832   9.369  0.1635  1.7417 -0.0535
 9101SOL    HW238766   0.932   3.817   9.311  0.0788  1.3943  0.1543
 9102SOL     OW38767   3.510   2.679  15.777 -0.2811  0.2540 -0.0868
 9102SOL    HW138768   3.580   2.710  15.834  0.2100 -0.8879 -0.0735
 9102SOL    HW238769   3.527   2.725  15.695 -2.4121  0.3609 -0.4776
 9103SOL     OW38770   1.346   4.314   2.758 -0.1456 -0.2601 -0.1663
 9103SOL    HW138771   1.314   4.364   2.683  3.1091 -0.1804 -1.5132
 9103SOL    HW238772   1.266   4.269   2.784  0.5989 -1.4832  0.0104
 9104SOL     OW38773   2.382   4.109  12.991 -0.2062 -0.2018  0.3663
 9104SOL    HW138774   2.313   4.171  13.013 -0.4993  0.5370 -2.6058
 9104SOL    HW238775   2.346   4.036  12.942  0.2229  2.2400 -3.5528
 9105SOL     OW38776   0.961   1.654  14.844  0.8607 -0.1132 -0.7187
 9105SOL    HW138777   0.913   1.579  14.880 -1.2296  2.0069  0.8828
 9105SOL    HW238778   1.049   1.647  14.881  0.4348 -1.4464  0.0607
 9106SOL     OW38779   3.228   3.904   3.839 -0.1581  0.3243  0.1087
 9106SOL    HW138780   3.174   3.945   3.906  0.8325  2.4824 -0.4123
 9106SOL    HW238781   3.267   3.983   3.800  3.7923 -1.2882  0.8054
 9107SOL     OW38782   0.569   2.341   1.868 -0.7168 -0.0456  0.2793
 9107SOL    HW138783   0.539   2.293   1.945 -3.0866  0.1319 -0.5292
 9107SOL    HW238784   0.653   2.382   1.889 -0.6580 -0.4179  0.7683
 9108SOL     OW38785   3.526   1.835   8.514 -0.2784 -0.4209 -0.4219
 9108SOL    HW138786   3.471   1.759   8.536 -0.1484 -0.7183 -1.1385
 9108SOL    HW238787   3.609   1.802   8.547  0.1473 -0.6554 -1.7486
 9109SOL     OW38788   0.072   0.347   7.253 -0.3212 -0.8221 -0.2174
 9109SOL    HW138789   0.130   0.339   7.177 -2.0600  1.6530 -1.8133
 9109SOL    HW238790   0.079   0.259   7.291 -0.5317 -1.7864 -2.3761
 9110SOL     OW38791   0.088   0.259  10.902  0.3480 -0.1503  0.4072
 9110SOL    HW138792   0.169   0.277  10.854 -0.1257  0.6897 -0.0721
 9110SOL    HW238793   0.098   0.168  10.931  0.6038 -0.3331 -0.2730
 9111SOL     OW38794   1.296   1.894  17.463 -0.5557 -0.1222  0.1826
 9111SOL    HW138795   1.303   1.803  17.492  1.8969 -0.3438 -1.1170
 9111SOL    HW238796   1.315   1.943  17.542  2.2709  0.0974 -0.6346
 9112SOL     OW38797   0.655   2.238   8.304  0.0426 -0.6933 -0.1161
 9112SOL    HW138798   0.677   2.319   8.257  1.3169  0.2935  2.1581
 9112SOL    HW238799   0.627   2.282   8.384  0.9384 -1.0022  0.3634
 9113SOL     OW38800   1.856   0.635   4.524 -0.4453 -0.1017  0.0934
 9113SOL    HW138801   1.788   0.631   4.457 -0.0373 -0.4799 -0.2934
 9113SOL    HW238802   1.897   0.720   4.509 -0.7954  0.5344  2.5906
 9114SOL     OW38803   3.328   2.411  12.523  0.4587 -0.3740 -0.3465
 9114SOL    HW138804   3.347   2.426  12.430 -2.3955 -2.8267 -1.3728
 9114SOL    HW238805   3.334   2.502  12.552  0.4004 -0.1252 -1.1090
 9115SOL     OW38806   3.770   2.482   0.679  0.4076 -0.0436  0.0936
 9115SOL    HW138807   3.733   2.553   0.732  0.3106  1.0783 -1.4603
 9115SOL    HW238808   3.851   2.527   0.655  1.0868 -0.0395  2.4104
 9116SOL     OW38809   0.707   0.218   4.994 -0.2944 -0.4863 -0.1463
 9116SOL    HW138810   0.760   0.284   5.039 -0.4185 -0.0909 -0.5833
 9116SOL    HW238811   0.678   0.261   4.914  0.2008  0.5723  0.2408
 9117SOL     OW38812   0.993   0.740   2.197  0.3404 -0.1308  0.1251
 9117SOL    HW138813   0.986   0.748   2.102  2.7557  2.4085  0.1726
 9117SOL    HW238814   0.977   0.834   2.211 -0.3893 -0.5556  2.1069
 9118SOL     OW38815   2.369   1.621   8.695  0.4094 -0.6794 -0.0124
 9118SOL    HW138816   2.365   1.528   8.673  0.7983 -0.7354  0.1651
 9118SOL    HW238817   2.450   1.654   8.656 -0.7378 -1.8916 -3.4299
 9119SOL     OW38818   3.462   1.178  13.828  0.0319  0.8472 -0.5823
 9119SOL    HW138819   3.528   1.237  13.867  0.5150 -0.3465  0.3958
 9119SOL    HW238820   3.425   1.156  13.914  3.0189  0.8969  0.7512
 9120SOL     OW38821   1.608   4.171   7.767  0.3282  0.1344 -0.3315
 9120SOL    HW138822   1.567   4.231   7.829 -1.3069  0.0373 -1.3184
 9120SOL    HW238823   1.578   4.088   7.804  2.3056 -0.0100  1.0064
 9121SOL     OW38824   4.245   3.178   8.195 -0.1660  0.0512 -0.2157
 9121SOL    HW138825   4.306   3.229   8.248 -0.5066 -0.6011  0.7861
 9121SOL    HW238826   4.171   3.237   8.186 -1.3620 -1.1198  2.1258
 9122SOL     OW38827   0.556   0.917  11.700  0.0460  0.1711 -0.4063
 9122SOL    HW138828   0.589   0.945  11.614  0.5573 -0.4514 -0.4094
 9122SOL    HW238829   0.591   0.983  11.759 -1.3782  0.9770 -0.4759
 9123SOL     OW38830   3.155   1.709   3.970 -0.0871 -0.4449  0.2087
 9123SOL    HW138831   3.164   1.757   4.052  0.4909 -0.4485  0.1526
 9123SOL    HW238832   3.140   1.619   3.999  0.5211 -1.1699 -1.6965
 9124SOL     OW38833   0.052   4.078   0.308  0.0335 -0.1773 -0.6919
 9124SOL    HW138834   0.123   4.055   0.249 -0.9543 -0.0708 -1.9298
 9124SOL    HW238835   0.065   4.173   0.318  2.4788 -0.5848  0.0339
 9125SOL     OW38836   2.352   0.834   7.806 -0.2764 -0.5190  0.4808
 9125SOL    HW138837   2.406   0.899   7.850 -2.3064  0.7217  1.1376
 9125SOL    HW238838   2.341   0.765   7.872  0.4389 -1.6644 -0.5926
 9126SOL     OW38839   0.563   0.663   4.711 -0.9893  0.4425 -0.1057
 9126SOL    HW138840   0.502   0.735   4.730 -1.0551  0.4345 -0.2871
 9126SOL    HW238841   0.521   0.640   4.628 -0.1055  2.5706 -1.1481
 9127SOL     OW38842   3.677   1.580  12.549 -0.3728  0.4105 -0.1065
 9127SOL    HW138843   3.724   1.509  12.592 -0.7910  1.2986  1.8167
 9127SOL    HW238844   3.647   1.633  12.623  0.8723  1.0621 -0.0697
 9128SOL     OW38845   2.745   0.490   1.978 -0.3917  0.7028 -0.4506
 9128SOL    HW138846   2.726   0.420   2.041 -0.2955 -0.2291 -1.4657
 9128SOL    HW238847   2.708   0.447   1.901  1.3586  0.8348 -1.3860
 9129SOL     OW38848   1.196   0.669   5.198  0.4297 -0.4598 -0.5343
 9129SOL    HW138849   1.144   0.655   5.118  0.4438  0.4153 -0.7059
 9129SOL    HW238850   1.193   0.764   5.209 -1.3299 -0.5301 -0.2778
 9130SOL     OW38851   2.737   0.476  12.965  0.3890  0.1770 -0.3421
 9130SOL    HW138852   2.808   0.522  13.010 -0.9579  1.9078  0.0139
 9130SOL    HW238853   2.777   0.484  12.879  2.3332 -0.9840  0.4308
 9131SOL     OW38854   2.994   1.142   7.124 -0.1924 -0.9180  0.1370
 9131SOL    HW138855   2.979   1.074   7.057 -2.0521 -1.6892  1.3213
 9131SOL    HW238856   2.916   1.125   7.177  1.4982 -2.1342  2.2183
 9132SOL     OW38857   0.982   0.446   8.396  0.1959  0.4656  0.0266
 9132SOL    HW138858   1.025   0.484   8.472 -1.1730  1.4672  0.2997
 9132SOL    HW238859   0.918   0.516   8.390  0.9925  1.2544  0.7511
 9133SOL     OW38860   4.186   0.254   7.410 -0.5861  0.1449  0.0124
 9133SOL    HW138861   4.118   0.196   7.446 -0.7963  0.1931 -0.3121
 9133SOL    HW238862   4.159   0.247   7.319  1.4273 -0.7796 -0.5082
 9134SOL     OW38863   1.432   3.789   6.774  0.2022 -0.1327 -0.0793
 9134SOL    HW138864   1.405   3.715   6.829 -1.5362  0.9663  0.5601
 9134SOL    HW238865   1.346   3.827   6.757  0.4655  0.8141  0.6661
 9135SOL     OW38866   1.565   0.463  10.740  0.0759 -0.4970  0.4484
 9135SOL    HW138867   1.523   0.457  10.654 -2.0228  0.8047  1.3961
 9135SOL    HW238868   1.657   0.463  10.714  0.4678  0.9516  1.8892
 9136SOL     OW38869   1.587   3.324   8.804  0.3151  0.1004 -0.2113
 9136SOL    HW138870   1.647   3.261   8.764 -0.2336 -0.7451  0.2919
 9136SOL    HW238871   1.515   3.266   8.826 -0.4917  1.0152 -0.4320
 9137SOL     OW38872   4.068   2.081  14.608 -0.5450  0.4591 -0.3438
 9137SOL    HW138873   4.053   2.090  14.702 -0.1577 -1.2669 -0.1063
 9137SOL    HW238874   4.051   1.989  14.587  2.0042 -0.4169  1.3632
 9138SOL     OW38875   2.283   0.229   3.625 -0.2485 -0.0038  0.3316
 9138SOL    HW138876   2.248   0.313   3.654  0.1749 -0.0860  1.0846
 9138SOL    HW238877   2.374   0.256   3.614  0.0242 -1.7793 -1.7663
 9139SOL     OW38878   4.313   2.523   4.003  0.2531  0.2859 -0.1334
 9139SOL    HW138879   4.362   2.483   4.075  2.7320  0.9115 -1.4651
 9139SOL    HW238880   4.385   2.535   3.941 -1.0545  1.0328 -1.5168
 9140SOL     OW38881   3.841   2.859   1.702 -0.2453  0.5784  0.2410
 9140SOL    HW138882   3.914   2.899   1.750  0.3130 -0.4873  0.2763
 9140SOL    HW238883   3.811   2.935   1.654 -1.2103  0.6043  0.9001
 9141SOL     OW38884   3.341   3.314   2.722 -0.3240 -0.0360  0.1070
 9141SOL    HW138885   3.355   3.406   2.748  0.5074  0.2025 -1.1785
 9141SOL    HW238886   3.417   3.308   2.665 -0.9284 -1.4716 -0.5316
 9142SOL     OW38887   2.285   0.870   7.303 -0.8137 -0.0283 -0.7272
 9142SOL    HW138888   2.363   0.885   7.357 -0.5684 -2.3974 -0.4655
 9142SOL    HW238889   2.322   0.833   7.222  1.2450 -0.8808  0.5985
 9143SOL     OW38890   1.674   2.068   8.653  0.3134 -0.5003  0.4686
 9143SOL    HW138891   1.740   2.054   8.585  1.7784 -4.5183  2.6778
 9143SOL    HW238892   1.725   2.042   8.730 -0.4498  0.9657  1.4441
 9144SOL     OW38893   2.231   2.171   5.775 -0.3259 -0.0173 -0.2899
 9144SOL    HW138894   2.148   2.148   5.816  0.1594  0.4703  0.9426
 9144SOL    HW238895   2.206   2.247   5.722 -1.2931  0.1104  0.3642
 9145SOL     OW38896   2.046   3.771  16.509 -0.0641  0.5603  0.0437
 9145SOL    HW138897   2.093   3.756  16.591  2.4984  0.8892 -1.3627
 9145SOL    HW238898   1.968   3.820  16.532 -0.2469  0.8140 -1.0872
 9146SOL     OW38899   0.545   2.370   8.513  0.1670  0.0098  0.8409
 9146SOL    HW138900   0.568   2.441   8.572  2.3257  0.0493 -0.0396
 9146SOL    HW238901   0.494   2.421   8.451  1.6691  0.6496  0.1160
 9147SOL     OW38902   2.463   0.564   8.864  0.1203  0.1987  0.1114
 9147SOL    HW138903   2.531   0.517   8.913  0.3230 -0.3912 -0.7437
 9147SOL    HW238904   2.466   0.524   8.777  2.5056  1.7593 -0.5246
 9148SOL     OW38905   3.193   2.524   1.131  0.6715 -0.0939  0.7563
 9148SOL    HW138906   3.191   2.488   1.042  2.6993 -1.1962  1.1390
 9148SOL    HW238907   3.284   2.554   1.127  0.0926  1.7812  1.4038
 9149SOL     OW38908   0.450   4.366   3.805  0.0085 -0.1889 -0.0227
 9149SOL    HW138909   0.459   4.446   3.857  1.3508 -0.3505 -0.0319
 9149SOL    HW238910   0.378   4.392   3.747 -0.4441 -0.3295  0.4738
 9150SOL     OW38911   0.074   3.427  10.192 -0.2085  0.1285  0.1582
 9150SOL    HW138912   0.012   3.421  10.264  1.0106  1.6985  1.3224
 9150SOL    HW238913   0.030   3.379  10.121 -0.0336  0.7823 -0.4015
 9151SOL     OW38914   1.005   0.543   5.701 -0.0924  0.0430 -0.5840
 9151SOL    HW138915   0.998   0.636   5.682 -0.9036 -0.2363 -1.6791
 9151SOL    HW238916   1.039   0.549   5.790  0.2824  0.1741 -0.7363
 9152SOL     OW38917   0.900   3.955   7.281  0.2827 -0.3182 -0.2168
 9152SOL    HW138918   0.896   3.949   7.376  1.7181 -0.1002 -0.1435
 9152SOL    HW238919   0.970   4.019   7.268  0.9490 -0.9384  0.2618
 9153SOL     OW38920   1.285   3.049   4.876 -0.6816  0.1713  0.1840
 9153SOL    HW138921   1.238   3.084   4.951 -0.1304  2.6691 -0.6497
 9153SOL    HW238922   1.297   3.121   4.814  0.3878  0.1708  0.3890
 9154SOL     OW38923   0.173   2.755   8.735  0.0842 -0.1811  0.3691
 9154SOL    HW138924   0.181   2.698   8.659 -0.6181 -0.2454  0.3409
 9154SOL    HW238925   0.084   2.732   8.762 -0.4268 -1.2800 -2.3326
 9155SOL     OW38926   4.721   4.525   6.118  0.2428  0.0640  0.0935
 9155SOL    HW138927   4.661   4.493   6.185 -1.4608  0.0442 -1.4215
 9155SOL    HW238928   0.023   4.439   6.084 -1.1062 -0.1619 -0.4146
 9156SOL     OW38929   3.024   0.949  11.367 -0.0841 -0.2696  0.0280
 9156SOL    HW138930   2.981   0.917  11.447  0.8731  0.0706  0.6872
 9156SOL    HW238931   3.085   1.014  11.402  0.3603 -0.7678  0.1927
 9157SOL     OW38932   0.120   0.403   1.420  0.1217 -0.0510  0.4260
 9157SOL    HW138933   0.173   0.438   1.492  0.3418  0.6175 -0.0630
 9157SOL    HW238934   0.079   0.484   1.390  2.3966 -0.3844 -3.5739
 9158SOL     OW38935   3.901   0.457   5.962 -0.0413 -0.3919  0.2127
 9158SOL    HW138936   3.967   0.388   5.957 -0.2278 -0.4782 -1.0103
 9158SOL    HW238937   3.943   0.543   5.960  1.0861 -1.0214 -1.9689
 9159SOL     OW38938   3.745   3.134   9.293  0.6343 -0.7715  0.2339
 9159SOL    HW138939   3.673   3.198   9.293  0.3757 -1.0606  0.2113
 9159SOL    HW238940   3.804   3.168   9.226  1.0001 -1.2027  0.3362
 9160SOL     OW38941   2.983   4.279   2.690  0.2275 -0.1688 -0.1969
 9160SOL    HW138942   2.933   4.322   2.621  0.3661 -2.8694 -1.9904
 9160SOL    HW238943   3.008   4.353   2.745 -1.4180  0.0459  0.2516
 9161SOL     OW38944   3.884   1.541  11.280 -0.4664  0.8293  0.6701
 9161SOL    HW138945   3.937   1.520  11.357 -0.2751 -2.1508 -0.2520
 9161SOL    HW238946   3.945   1.499  11.220 -0.9238  1.7185 -0.4102
 9162SOL     OW38947   0.046   4.437  15.126 -0.4087 -0.0873  0.1304
 9162SOL    HW138948   4.712   4.375  15.083 -0.7852  0.4127 -0.0681
 9162SOL    HW238949   0.123   4.386  15.152  0.4118  0.0122 -2.0442
 9163SOL     OW38950   1.033   4.104   1.825 -0.9141  0.1722  0.2313
 9163SOL    HW138951   1.014   4.010   1.830 -0.6721  0.1058 -0.0869
 9163SOL    HW238952   1.054   4.113   1.732  0.2978  0.3558  0.5245
 9164SOL     OW38953   1.662   4.110   7.507 -0.1700 -0.3210  0.1355
 9164SOL    HW138954   1.594   4.044   7.491  1.5173 -1.8909 -0.5559
 9164SOL    HW238955   1.651   4.124   7.601 -0.6023  0.6191 -0.0572
 9165SOL     OW38956   3.646   2.373   8.891  0.1316  0.9686 -0.9621
 9165SOL    HW138957   3.586   2.339   8.958  2.0832 -0.4234  0.0867
 9165SOL    HW238958   3.729   2.368   8.939 -0.4752 -2.5515 -0.2878
 9166SOL     OW38959   0.614   0.083   6.280 -0.4479  0.0986  0.1737
 9166SOL    HW138960   0.669   0.123   6.212 -0.1859 -1.8913 -0.7694
 9166SOL    HW238961   0.591   0.166   6.322 -0.4686  0.1126  0.1347
 9167SOL     OW38962   1.527   0.606  10.351  0.1585  0.2990  0.1189
 9167SOL    HW138963   1.618   0.598  10.382  1.2959  1.3421 -2.9322
 9167SOL    HW238964   1.474   0.600  10.430  0.7239 -0.0091  0.4817
 9168SOL     OW38965   1.205   4.476   3.035 -1.0459 -0.3854  0.0859
 9168SOL    HW138966   1.202   4.497   2.942  0.9602  0.7849  0.2968
 9168SOL    HW238967   1.175   4.386   3.020 -3.7277  0.5490 -0.1104
 9169SOL     OW38968   2.957   3.469   1.826  0.2563 -0.6407  1.0494
 9169SOL    HW138969   2.907   3.503   1.900  0.6538  0.4932  0.7965
 9169SOL    HW238970   2.944   3.541   1.765 -2.0598  0.1954  2.5386
 9170SOL     OW38971   1.862   0.113  13.728  0.0938  0.1079  0.1137
 9170SOL    HW138972   1.907   0.194  13.753  1.8844 -0.9071  0.1621
 9170SOL    HW238973   1.784   0.118  13.784 -0.2711  1.8346 -0.5496
 9171SOL     OW38974   0.985   2.595   2.167  0.2038  0.1462 -0.9120
 9171SOL    HW138975   1.014   2.686   2.167 -1.0411  0.5544  0.1430
 9171SOL    HW238976   1.071   2.555   2.158 -0.0168 -0.0479 -2.0487
 9172SOL     OW38977   2.204   3.750   3.097  0.6190 -0.3507  0.3394
 9172SOL    HW138978   2.279   3.802   3.125  0.5435 -0.2979  0.4433
 9172SOL    HW238979   2.244   3.710   3.020  1.6631 -1.7056  1.5715
 9173SOL     OW38980   4.497   4.035  10.014  0.2546 -0.5854  0.4955
 9173SOL    HW138981   4.430   4.103  10.005 -1.9704 -2.6534  1.6684
 9173SOL    HW238982   4.501   4.024  10.109  1.1584 -2.2428  0.2652
 9174SOL     OW38983   1.168   2.325   5.619 -0.1288  0.3092 -0.1489
 9174SOL    HW138984   1.141   2.405   5.664 -1.6593  1.1736 -2.6555
 9174SOL    HW238985   1.231   2.359   5.556  0.5292 -1.0857 -0.2548
 9175SOL     OW38986   0.284   3.732   5.304  0.3255  0.8610 -0.3008
 9175SOL    HW138987   0.202   3.757   5.261  0.4260 -0.3968 -1.2061
 9175SOL    HW238988   0.250   3.715   5.391  1.0355 -1.3043 -0.4470
 9176SOL     OW38989   1.514   1.332   2.042  0.1744  0.0857  0.0220
 9176SOL    HW138990   1.460   1.406   2.070 -1.1362  0.8603 -4.4449
 9176SOL    HW238991   1.530   1.350   1.949  1.0912  0.3803  0.2403
 9177SOL     OW38992   1.079   2.703  13.405  0.6201 -0.2479 -0.3303
 9177SOL    HW138993   1.093   2.742  13.491 -0.2655 -0.3741 -0.1328
 9177SOL    HW238994   1.041   2.773  13.352  1.0021  1.0441  1.0897
 9178SOL     OW38995   4.288   2.934  17.585  0.0957 -0.6501  0.5569
 9178SOL    HW138996   4.330   2.858  17.626  0.8223 -0.3073  0.4463
 9178SOL    HW238997   4.286   2.906  17.493 -1.3419  1.9541 -0.1829
 9179SOL     OW38998   4.564   1.234  15.159 -0.9026  0.0768  0.4414
 9179SOL    HW138999   4.607   1.207  15.079  0.5114  0.9535  0.9152
 9179SOL    HW239000   4.530   1.155  15.202 -1.9763  0.0872 -0.3784
 9180SOL     OW39001   0.548   4.244   7.201 -0.0517 -0.0164 -0.1067
 9180SOL    HW139002   0.482   4.304   7.166 -0.0495 -0.2234 -0.4729
 9180SOL    HW239003   0.605   4.247   7.124  1.5992 -1.2604  1.0658
 9181SOL     OW39004   4.531   3.565   0.329 -0.1516  0.5772  0.1169
 9181SOL    HW139005   4.559   3.568   0.420  2.1611 -0.5312 -0.5295
 9181SOL    HW239006   4.477   3.643   0.322  1.2887  1.3506 -2.3720
 9182SOL     OW39007   3.438   1.161  14.095 -0.1535  0.2299  0.1080
 9182SOL    HW139008   3.494   1.239  14.098  1.5218 -0.9632 -0.5660
 9182SOL    HW239009   3.364   1.199  14.143 -0.8953  1.1458 -1.7504
 9183SOL     OW39010   2.233   4.336   3.283  0.6337  0.2855  0.0419
 9183SOL    HW139011   2.240   4.411   3.342 -1.7358 -0.1312  0.8732
 9183SOL    HW239012   2.217   4.266   3.347 -2.3009 -0.0634 -1.0636
 9184SOL     OW39013   1.025   1.926   2.629  0.9245  0.6980 -0.4268
 9184SOL    HW139014   1.020   1.895   2.539  1.4114  0.5945 -0.4218
 9184SOL    HW239015   0.986   2.013   2.622  2.2536  1.3758  0.5512
 9185SOL     OW39016   3.458   2.838  15.096  0.7941 -0.3462 -0.5470
 9185SOL    HW139017   3.434   2.871  15.010  1.4869 -2.4231 -1.5135
 9185SOL    HW239018   3.514   2.767  15.067  1.5965 -0.2731  0.8243
 9186SOL     OW39019   4.131   2.764   3.475 -0.0208 -0.1431  0.4865
 9186SOL    HW139020   4.046   2.736   3.442 -0.1730  1.4856 -0.5020
 9186SOL    HW239021   4.145   2.844   3.423  0.7493  0.1620  1.1481
 9187SOL     OW39022   3.634   1.826   1.348  0.0977  0.2614 -0.6621
 9187SOL    HW139023   3.597   1.896   1.401  1.1921  0.2174  0.1614
 9187SOL    HW239024   3.708   1.872   1.308  0.1331 -0.1053 -1.0220
 9188SOL     OW39025   2.206   2.144   4.680 -0.2728  0.4178 -0.4871
 9188SOL    HW139026   2.254   2.075   4.726 -0.0691  0.6639 -0.3348
 9188SOL    HW239027   2.141   2.169   4.746  2.0128 -1.1415  2.3535
 9189SOL     OW39028   1.373   0.378   2.645  0.1172 -0.5031  0.0025
 9189SOL    HW139029   1.416   0.357   2.729 -0.7872  0.1774  0.6404
 9189SOL    HW239030   1.374   0.474   2.639  2.4872 -0.5036  0.4498
 9190SOL     OW39031   2.420   1.956   2.180  0.0058 -0.1936  0.1145
 9190SOL    HW139032   2.327   1.963   2.197  0.6531  3.0851  2.1925
 9190SOL    HW239033   2.458   1.950   2.267  1.4631  2.0445 -0.3484
 9191SOL     OW39034   0.564   3.189   8.035 -0.2005 -0.0906 -0.7434
 9191SOL    HW139035   0.511   3.263   8.006  1.5050  1.4095 -0.0196
 9191SOL    HW239036   0.638   3.240   8.068  0.8023 -1.2088 -1.2323
 9192SOL     OW39037   3.602   4.525   3.700 -0.2561  0.1281 -0.2057
 9192SOL    HW139038   3.669   4.588   3.673  1.3200 -1.8564 -0.9125
 9192SOL    HW239039   3.650   4.471   3.762 -0.3312  1.7912  1.2861
 9193SOL     OW39040   1.724   0.208   9.343  0.0354 -0.2740 -0.1568
 9193SOL    HW139041   1.738   0.272   9.274  1.3753 -0.0714  0.2904
 9193SOL    HW239042   1.785   0.241   9.410 -0.0748  2.7531 -1.5563
 9194SOL     OW39043   1.576   1.853   0.313  0.0461 -0.0010  0.2014
 9194SOL    HW139044   1.657   1.901   0.332  0.4208 -0.2519 -0.7719
 9194SOL    HW239045   1.555   1.886   0.226  1.7008  0.8279  0.1066
 9195SOL     OW39046   3.029   0.288   3.176  0.0802  0.3029 -0.0765
 9195SOL    HW139047   3.117   0.277   3.211 -0.6303 -1.6316  1.1725
 9195SOL    HW239048   3.028   0.383   3.182  0.2889  0.3930 -1.5987
 9196SOL     OW39049   2.045   1.948   5.228  0.0221 -0.4258 -0.1561
 9196SOL    HW139050   2.135   1.927   5.202  0.0342  0.6715 -1.0086
 9196SOL    HW239051   2.027   1.868   5.277 -0.4006 -0.5577 -0.5250
 9197SOL     OW39052   3.937   1.557   4.938 -0.3423  0.1220 -0.1720
 9197SOL    HW139053   3.884   1.488   4.898  2.9477 -1.8246 -1.1758
 9197SOL    HW239054   3.918   1.628   4.877  1.5779  2.1761  1.6164
 9198SOL     OW39055   1.469   2.641   6.495 -0.0965 -0.0842  0.0648
 9198SOL    HW139056   1.459   2.681   6.582 -1.3741  0.6042 -0.3896
 9198SOL    HW239057   1.557   2.670   6.473 -0.0125 -1.8361 -1.9226
 9199SOL     OW39058   3.722   4.400   2.487 -0.1640 -0.5372  0.4469
 9199SOL    HW139059   3.722   4.309   2.460 -0.3542 -0.7512  1.1630
 9199SOL    HW239060   3.803   4.433   2.449  0.0370 -1.9393 -0.3402
 9200SOL     OW39061   2.277   3.689   7.833 -0.1279 -0.6211  0.5030
 9200SOL    HW139062   2.284   3.695   7.928 -1.4591  3.0084  0.3845
 9200SOL    HW239063   2.362   3.653   7.810  0.7601  2.3308 -0.7848
 9201SOL     OW39064   4.493   0.364   5.062  0.4129  0.1468 -0.2223
 9201SOL    HW139065   4.550   0.359   4.985  0.9516 -2.1188  0.3183
 9201SOL    HW239066   4.530   0.312   5.133  0.3942  1.2445  0.5932
 9202SOL     OW39067   1.557   0.480   7.908 -0.2600 -0.4108 -0.5426
 9202SOL    HW139068   1.507   0.513   7.833 -1.7067 -1.1964  0.0770
 9202SOL    HW239069   1.541   0.387   7.897  1.1351 -0.7132  0.0278
 9203SOL     OW39070   0.090   4.264   7.811  0.1463 -0.4874  0.3825
 9203SOL    HW139071   0.032   4.236   7.881  0.0360  0.0430  0.5080
 9203SOL    HW239072   0.028   4.277   7.739 -0.6698 -3.6719  0.5457
 9204SOL     OW39073   0.006   1.444  10.687  0.0645 -0.4480  0.0909
 9204SOL    HW139074   4.692   1.517  10.735  0.3016  1.1426 -2.1439
 9204SOL    HW239075   0.101   1.451  10.700 -0.4320  2.3567  2.1658
 9205SOL     OW39076   2.477   4.135  10.927  0.2839 -0.0347  0.0778
 9205SOL    HW139077   2.394   4.089  10.916 -0.9619  1.8857  1.4093
 9205SOL    HW239078   2.526   4.097  11.000 -0.1227 -3.3995 -1.4005
 9206SOL     OW39079   0.940   3.051   9.858 -0.2670 -0.1612  0.7682
 9206SOL    HW139080   0.896   2.998   9.924 -0.9465 -0.2160  0.2719
 9206SOL    HW239081   0.963   3.121   9.919  2.7877 -0.5597  0.0517
 9207SOL     OW39082   1.682   4.658  11.091 -0.0258 -0.0406 -0.1209
 9207SOL    HW139083   1.662   4.660  10.998  4.7238  0.0602 -1.1263
 9207SOL    HW239084   1.621   4.720  11.132  1.6771  1.7667 -0.3431
 9208SOL     OW39085   2.386   2.954   5.960  0.1165 -0.5846 -0.2551
 9208SOL    HW139086   2.480   2.970   5.971  0.2615 -2.3343  1.0240
 9208SOL    HW239087   2.366   3.048   5.960 -1.4163 -0.9163 -1.4552
 9209SOL     OW39088   4.156   3.833   0.240  0.0416 -0.0413  0.0398
 9209SOL    HW139089   4.110   3.892   0.180  0.9148  0.7172  0.1112
 9209SOL    HW239090   4.111   3.749   0.238 -0.3256  0.1769 -0.6627
 9210SOL     OW39091   3.115   3.201   2.574  0.5523  0.2594  0.0701
 9210SOL    HW139092   3.166   3.235   2.647  0.1847  3.3431 -1.1227
 9210SOL    HW239093   3.176   3.192   2.500 -0.5413 -0.7453 -0.7071
 9211SOL     OW39094   2.825   0.433   2.620 -0.3558 -0.2138  0.1145
 9211SOL    HW139095   2.827   0.525   2.646  0.3340 -0.6587  1.6686
 9211SOL    HW239096   2.736   0.414   2.590 -0.2804 -0.9212  0.3547
 9212SOL     OW39097   2.390   1.623  10.269 -0.5264  0.3622  0.3320
 9212SOL    HW139098   2.346   1.601  10.351 -1.3835  1.5241  0.1797
 9212SOL    HW239099   2.462   1.676  10.303 -0.5869  1.1966 -0.8378
 9213SOL     OW39100   2.864   2.748   6.054 -0.7275  0.2584 -0.0877
 9213SOL    HW139101   2.794   2.765   5.990 -1.1709  0.7209  0.5206
 9213SOL    HW239102   2.943   2.772   6.006  0.1665  0.8389  1.6591
 9214SOL     OW39103   2.854   2.120   2.329 -1.1720  0.0607  0.0065
 9214SOL    HW139104   2.790   2.053   2.303 -1.4358 -0.0105  0.8366
 9214SOL    HW239105   2.875   2.164   2.246 -3.7757  0.7215 -0.2835
 9215SOL     OW39106   0.614   4.315   4.892 -0.0416  0.1592 -0.2891
 9215SOL    HW139107   0.648   4.325   4.803 -2.8112  0.3637 -1.3176
 9215SOL    HW239108   0.533   4.265   4.885  0.8158 -1.6049  2.4891
 9216SOL     OW39109   1.317   2.430   4.157  0.3748 -0.1180  0.0362
 9216SOL    HW139110   1.370   2.385   4.223  0.9704  0.2632 -0.1855
 9216SOL    HW239111   1.303   2.513   4.204  0.0497 -1.4431  2.2802
 9217SOL     OW39112   2.099   4.524   6.039 -0.1361  0.0270  0.4739
 9217SOL    HW139113   2.121   4.602   6.090 -0.0357  0.4453 -0.2141
 9217SOL    HW239114   2.098   4.456   6.107 -1.1245 -0.2791  0.1559
 9218SOL     OW39115   3.171   1.359   8.830  0.0446 -0.1486  0.5900
 9218SOL    HW139116   3.235   1.396   8.890 -1.8750  0.4646  2.2566
 9218SOL    HW239117   3.101   1.424   8.829  0.6557  0.4949 -3.1124
 9219SOL     OW39118   2.244   3.200   4.818 -0.4300  0.5723 -0.0493
 9219SOL    HW139119   2.243   3.104   4.824  0.1530  0.5177 -0.8085
 9219SOL    HW239120   2.154   3.218   4.847 -1.5845 -0.1972 -3.0685
 9220SOL     OW39121   2.876   2.174   4.880  0.2686  0.2178  0.3171
 9220SOL    HW139122   2.934   2.099   4.870 -0.1883 -0.0681 -0.1494
 9220SOL    HW239123   2.942   2.231   4.920 -1.0875  0.4187  2.2803
 9221SOL     OW39124   3.580   4.706  17.444 -0.6754 -0.4052 -0.0598
 9221SOL    HW139125   3.601   0.071  17.470  1.0852 -0.3057 -1.7494
 9221SOL    HW239126   3.533   4.665  17.516  0.8867  0.9532  1.7343
 9222SOL     OW39127   1.975   0.678   8.857  0.1976  0.1621 -0.0747
 9222SOL    HW139128   2.065   0.697   8.830  0.9144 -1.9933  0.8089
 9222SOL    HW239129   1.983   0.685   8.952 -2.1533 -2.4900  0.3020
 9223SOL     OW39130   3.732   3.776   7.196  0.2760  0.8562 -0.0293
 9223SOL    HW139131   3.728   3.846   7.261  0.9409 -0.0705  1.0078
 9223SOL    HW239132   3.663   3.812   7.139 -2.2824 -0.5838  2.1351
 9224SOL     OW39133   2.145   4.322   0.059  0.0513  0.2640 -0.3956
 9224SOL    HW139134   2.164   4.322   0.153 -0.3063  2.3244 -0.3329
 9224SOL    HW239135   2.230   4.350   0.026 -0.5825  0.3727 -1.9031
 9225SOL     OW39136   1.532   4.458   6.177 -0.0100  0.6762 -0.5407
 9225SOL    HW139137   1.564   4.548   6.184 -2.8040  1.3989  2.9984
 9225SOL    HW239138   1.469   4.480   6.109 -0.1661 -0.1827 -0.6712
 9226SOL     OW39139   2.925   4.655   5.715  0.6124  0.4208 -0.3294
 9226SOL    HW139140   2.852   4.646   5.776  0.0837  0.1582 -1.0031
 9226SOL    HW239141   2.930   4.567   5.679  2.0656  0.7773 -0.9943
 9227SOL     OW39142   2.683   2.757   1.424  0.4399 -0.5574 -0.3732
 9227SOL    HW139143   2.749   2.732   1.359  1.7966  0.7587  0.5004
 9227SOL    HW239144   2.742   2.755   1.500 -0.2127  1.0527  0.1738
 9228SOL     OW39145   4.400   2.022   7.452  0.6739 -0.9236  0.4402
 9228SOL    HW139146   4.378   2.067   7.534 -1.7390 -2.8228  0.8257
 9228SOL    HW239147   4.493   2.045   7.456  0.8975 -1.5338 -1.2149
 9229SOL     OW39148   0.624   3.949   2.804  0.3481 -0.0926  0.1357
 9229SOL    HW139149   0.588   3.947   2.716  0.9306  0.8309 -0.1218
 9229SOL    HW239150   0.596   4.036   2.832  2.8123  0.7856 -0.1721
 9230SOL     OW39151   2.898   0.724   3.591  0.1266  0.3862  0.5470
 9230SOL    HW139152   2.969   0.748   3.651  1.3109 -3.0308  0.4705
 9230SOL    HW239153   2.846   0.659   3.638  2.7372 -1.0525  1.4410
 9231SOL     OW39154   2.451   2.582  14.442 -0.3241  0.5795 -0.4569
 9231SOL    HW139155   2.512   2.521  14.483 -1.4421 -0.5569 -0.4811
 9231SOL    HW239156   2.416   2.522  14.377 -0.8035 -0.3898  0.6961
 9232SOL     OW39157   2.898   3.003   2.547  0.5401  0.0666  0.4638
 9232SOL    HW139158   2.919   3.089   2.512  1.1084 -0.1178  0.3632
 9232SOL    HW239159   2.810   3.000   2.509  0.7207 -1.8153  0.2149
 9233SOL     OW39160   4.129   0.320  13.115 -0.3288 -0.1418 -0.2838
 9233SOL    HW139161   4.173   0.236  13.099 -2.2144 -1.1909  0.0991
 9233SOL    HW239162   4.164   0.361  13.036 -1.9301  1.5982 -0.0897
 9234SOL     OW39163   3.289   1.044  11.610  0.0049 -0.3386  0.8468
 9234SOL    HW139164   3.331   1.034  11.524  2.3549 -0.1016  1.9647
 9234SOL    HW239165   3.324   1.130  11.632  0.5830  0.1930 -2.1835
 9235SOL     OW39166   3.472   3.180   8.065  0.6845  0.0036 -0.5194
 9235SOL    HW139167   3.435   3.171   7.977 -0.5567 -1.0509  0.1056
 9235SOL    HW239168   3.524   3.100   8.078 -0.7721 -1.4952 -3.9553
 9236SOL     OW39169   2.539   0.072   2.254 -0.2861  0.5167 -0.0360
 9236SOL    HW139170   2.465   0.103   2.202 -1.0717 -0.6524  0.3840
 9236SOL    HW239171   2.605   0.039   2.193  0.9144  1.7858  0.5802
 9237SOL     OW39172   1.106   1.737  11.471  0.4998 -0.7826 -0.2421
 9237SOL    HW139173   1.072   1.684  11.543  1.7080 -0.6539  0.4141
 9237SOL    HW239174   1.186   1.773  11.509  0.6286 -1.1706 -0.1518
 9238SOL     OW39175   3.467   2.502   3.641  0.0734  0.1201 -0.5249
 9238SOL    HW139176   3.505   2.449   3.711 -1.2761 -0.0161  0.0927
 9238SOL    HW239177   3.554   2.515   3.602  0.3290 -0.4394 -0.1440
 9239SOL     OW39178   1.857   2.835  11.456  0.0313 -0.2979 -0.0173
 9239SOL    HW139179   1.872   2.919  11.412 -0.0426 -0.6604 -0.7362
 9239SOL    HW239180   1.920   2.773  11.418 -2.0249 -1.8689 -0.8525
 9240SOL     OW39181   1.240   4.351  12.830 -0.2459 -0.0354  0.0856
 9240SOL    HW139182   1.245   4.256  12.842 -0.4257 -0.2463 -1.5716
 9240SOL    HW239183   1.333   4.375  12.826 -0.3806  0.3866 -0.5166
 9241SOL     OW39184   0.223   2.717   4.430  0.3927 -0.2853  0.1092
 9241SOL    HW139185   0.224   2.633   4.383 -2.0480  0.0691 -0.5571
 9241SOL    HW239186   0.286   2.770   4.381  0.2084 -0.8550 -0.7441
 9242SOL     OW39187   3.284   3.915   9.463 -0.2416  0.3993  0.1334
 9242SOL    HW139188   3.268   3.998   9.507 -0.7881  0.7910 -0.8084
 9242SOL    HW239189   3.198   3.875   9.474  0.2760 -0.8145 -0.2129
 9243SOL     OW39190   4.579   4.648  10.749 -0.1690 -0.0472 -0.3858
 9243SOL    HW139191   4.511   4.592  10.710 -1.6941  0.9833  0.7813
 9243SOL    HW239192   4.529   4.704  10.809 -0.8252 -0.7689 -0.2529
 9244SOL     OW39193   0.217   1.518   6.397 -0.7526  0.0050 -0.2992
 9244SOL    HW139194   0.268   1.572   6.337 -3.8837  1.4791 -1.6439
 9244SOL    HW239195   0.132   1.562   6.398 -1.4092 -1.3052  1.5776
 9245SOL     OW39196   4.369   2.668   8.649 -0.6455  0.0171 -0.6759
 9245SOL    HW139197   4.293   2.639   8.598 -1.2262 -0.7359  0.6095
 9245SOL    HW239198   4.356   2.604   8.720  1.4636 -0.9926 -1.2293
 9246SOL     OW39199   1.190   2.880  12.609  0.1227  0.1163 -0.2888
 9246SOL    HW139200   1.173   2.840  12.695 -0.6082  0.3244 -0.3397
 9246SOL    HW239201   1.209   2.972  12.627 -1.4427 -0.2596  3.3099
 9247SOL     OW39202   1.129   4.147   8.797 -0.3028  0.2450  0.0501
 9247SOL    HW139203   1.155   4.204   8.725  1.2882 -2.1474 -1.2483
 9247SOL    HW239204   1.065   4.207   8.835  1.4212  0.6691  2.2831
 9248SOL     OW39205   0.925   3.504   4.127  0.4829 -0.1628 -0.2007
 9248SOL    HW139206   1.015   3.537   4.133 -0.2541  2.1316 -1.5540
 9248SOL    HW239207   0.914   3.511   4.032  2.2661  0.9815 -0.3245
 9249SOL     OW39208   1.910   0.924   2.337  0.2986 -0.2498 -0.4698
 9249SOL    HW139209   1.948   0.880   2.413 -0.5202  1.8777  1.1322
 9249SOL    HW239210   1.987   0.948   2.286 -0.4668 -1.5363 -2.2484
 9250SOL     OW39211   3.330   2.099   9.746 -0.6502 -0.3492  0.1585
 9250SOL    HW139212   3.235   2.092   9.745 -0.5593 -1.4611 -1.1408
 9250SOL    HW239213   3.343   2.193   9.761  1.9118 -0.8812  1.2454
 9251SOL     OW39214   2.603   0.223  13.186 -0.2979  0.4369 -0.0268
 9251SOL    HW139215   2.628   0.293  13.126  0.2984  1.1743  1.0800
 9251SOL    HW239216   2.507   0.221  13.181 -0.2072 -0.9208 -1.3988
 9252SOL     OW39217   4.165   4.261   6.835 -0.2845  0.2842 -0.0240
 9252SOL    HW139218   4.175   4.345   6.880 -0.3045 -1.1266  2.6303
 9252SOL    HW239219   4.220   4.208   6.893  1.0450  0.7140 -0.9038
 9253SOL     OW39220   1.950   2.181   3.409 -0.1561  0.2551  0.0550
 9253SOL    HW139221   1.974   2.228   3.329  2.0362  0.2359  0.6870
 9253SOL    HW239222   1.931   2.094   3.375 -1.0079  0.7684 -0.7959
 9254SOL     OW39223   2.500   0.368   0.522  0.6012  0.2746 -0.0475
 9254SOL    HW139224   2.511   0.463   0.525 -0.2216  0.3615  0.2363
 9254SOL    HW239225   2.447   0.348   0.599  0.8001 -0.2476 -0.0462
 9255SOL     OW39226   2.282   0.211   4.291 -1.1012  0.0800  0.6309
 9255SOL    HW139227   2.320   0.243   4.210  0.6006  0.7604  1.6942
 9255SOL    HW239228   2.197   0.254   4.300 -1.6969 -0.7944 -0.9452
 9256SOL     OW39229   4.148   3.685   3.719 -0.3461  0.4017 -0.0990
 9256SOL    HW139230   4.064   3.679   3.764  0.6839 -3.0009  1.3226
 9256SOL    HW239231   4.134   3.628   3.644  1.3523  0.2107 -0.2725
 9257SOL     OW39232   0.527   3.855   5.936  0.2722 -0.6253  0.1840
 9257SOL    HW139233   0.506   3.938   5.893  3.9534  0.1620 -0.1156
 9257SOL    HW239234   0.507   3.866   6.029  2.0273 -0.9395  0.5963
 9258SOL     OW39235   1.317   1.264  15.691  0.5614 -0.5303 -0.2165
 9258SOL    HW139236   1.378   1.203  15.733  1.1546  1.1137  1.3000
 9258SOL    HW239237   1.240   1.210  15.673  0.6027 -0.4816 -0.5433
 9259SOL     OW39238   2.647   2.135   0.961  0.3470 -0.2177  0.4601
 9259SOL    HW139239   2.568   2.084   0.979 -1.1175  1.2912 -1.6785
 9259SOL    HW239240   2.625   2.200   0.895 -3.0268 -0.2572  1.5663
 9260SOL     OW39241   1.397   2.707   5.188 -0.0991 -0.7601  0.0756
 9260SOL    HW139242   1.450   2.768   5.239 -1.4136 -0.0262  0.5577
 9260SOL    HW239243   1.320   2.696   5.243  0.2133  1.5826  0.9852
 9261SOL     OW39244   0.101   1.280   3.281  0.0929 -0.4238  0.1416
 9261SOL    HW139245   0.145   1.280   3.196 -0.2321  0.8186 -0.0310
 9261SOL    HW239246   0.052   1.199   3.272 -2.7564  1.0414  2.2349
 9262SOL     OW39247   2.924   0.171   7.388  0.0702 -0.4061 -0.2609
 9262SOL    HW139248   2.897   0.254   7.429 -0.5940 -1.0646  0.6628
 9262SOL    HW239249   2.962   0.190   7.303 -1.7584 -0.2368 -1.0328
 9263SOL     OW39250   3.083   4.128   5.405 -0.1721  0.4464 -0.0926
 9263SOL    HW139251   3.022   4.200   5.386 -0.0529  0.6102  0.1618
 9263SOL    HW239252   3.075   4.085   5.319  3.9267 -0.7294  0.1217
 9264SOL     OW39253   3.273   2.360   2.399  0.1426  0.1196 -0.0099
 9264SOL    HW139254   3.286   2.454   2.415 -1.9387  0.5787 -1.0775
 9264SOL    HW239255   3.364   2.335   2.411  0.4689  0.8758 -0.9167
 9265SOL     OW39256   0.624   4.372   4.610  0.2581 -0.0697  0.5398
 9265SOL    HW139257   0.695   4.437   4.612 -2.3334  2.7478  0.4845
 9265SOL    HW239258   0.553   4.426   4.575 -0.5280 -0.7917  1.0373
 9266SOL     OW39259   4.230   2.360  13.975  0.2904 -0.2831 -0.0061
 9266SOL    HW139260   4.267   2.448  13.978  0.2029 -0.2994  1.8892
 9266SOL    HW239261   4.286   2.323  13.907 -1.2168  0.5900 -1.7364
 9267SOL     OW39262   2.885   3.656   4.552 -0.0553  0.0163  0.3140
 9267SOL    HW139263   2.946   3.729   4.563  0.0237 -0.0348  0.2178
 9267SOL    HW239264   2.844   3.687   4.470  0.3595  1.4042  0.6246
 9268SOL     OW39265   4.427   3.236   2.721 -0.3271 -0.2729 -0.0949
 9268SOL    HW139266   4.376   3.259   2.798 -0.1804 -2.9317  0.8007
 9268SOL    HW239267   4.509   3.248   2.769  0.0445  0.2145 -0.8596
 9269SOL     OW39268   3.345   1.997  13.320  0.2612  0.7204 -0.1857
 9269SOL    HW139269   3.430   2.040  13.307  0.0344  1.1991 -0.0615
 9269SOL    HW239270   3.352   1.946  13.239 -0.8645  1.2561 -0.6176
 9270SOL     OW39271   2.423   1.617   4.026 -0.0460 -0.0858  0.2620
 9270SOL    HW139272   2.384   1.700   4.053  0.2715  0.8643 -2.1597
 9270SOL    HW239273   2.513   1.650   4.019  0.4605 -1.5803 -0.3213
 9271SOL     OW39274   3.744   3.549  13.902 -0.5467  0.2943  0.0651
 9271SOL    HW139275   3.689   3.607  13.850  0.6024  0.0896 -1.3573
 9271SOL    HW239276   3.773   3.612  13.968  3.3398 -2.4326  0.9836
 9272SOL     OW39277   2.624   0.742   6.271  0.3346 -0.2118  0.4068
 9272SOL    HW139278   2.561   0.672   6.257 -0.7703  1.3171 -2.2334
 9272SOL    HW239279   2.579   0.825   6.256  2.4520  0.9631  0.5461
 9273SOL     OW39280   3.534   0.716  16.011 -0.3152  0.4569  0.4463
 9273SOL    HW139281   3.605   0.732  15.948 -1.1018 -0.3546 -0.6408
 9273SOL    HW239282   3.521   0.802  16.052 -2.2370 -0.6291  2.0608
 9274SOL     OW39283   2.331   1.325   8.077 -0.1188  0.0040 -0.1533
 9274SOL    HW139284   2.344   1.420   8.077 -1.1503  0.1402  0.5705
 9274SOL    HW239285   2.419   1.296   8.053 -0.5266 -2.9406  1.8909
 9275SOL     OW39286   3.470   0.910   9.563 -0.1493 -0.3663  0.3933
 9275SOL    HW139287   3.467   0.849   9.636  1.6852 -0.9009  0.0241
 9275SOL    HW239288   3.526   0.975   9.604 -0.3420  1.8563 -2.8223
 9276SOL     OW39289   0.899   0.645  15.219 -0.6048  0.5847  0.3361
 9276SOL    HW139290   0.935   0.567  15.261  1.5232  1.0284 -0.6688
 9276SOL    HW239291   0.816   0.606  15.191 -0.8215  0.4901  1.1176
 9277SOL     OW39292   1.242   3.344   6.984 -0.2593 -0.2537  0.0293
 9277SOL    HW139293   1.254   3.396   6.905  1.8096  1.2773  1.3472
 9277SOL    HW239294   1.208   3.264   6.943  1.3863  0.2508 -2.2991
 9278SOL     OW39295   0.431   0.463   4.190 -0.2468  0.1602 -0.6484
 9278SOL    HW139296   0.394   0.505   4.112 -1.1337 -0.2584 -0.4511
 9278SOL    HW239297   0.378   0.507   4.257  1.2440  0.5626  0.2754
 9279SOL     OW39298   3.023   0.711   3.347 -0.2304 -0.7591 -0.3093
 9279SOL    HW139299   2.981   0.701   3.432 -0.1174  0.3701 -0.1238
 9279SOL    HW239300   3.114   0.727   3.372 -0.2206  0.6642 -1.2457
 9280SOL     OW39301   0.295   3.373   5.463 -0.5656  0.1679  0.0061
 9280SOL    HW139302   0.243   3.293   5.468  0.6517 -0.6999 -1.2344
 9280SOL    HW239303   0.253   3.412   5.386  0.1448  0.6529 -0.1455
 9281SOL     OW39304   0.930   4.610  12.433 -0.3448  0.5286 -0.2397
 9281SOL    HW139305   0.963   4.525  12.403  1.4958  0.1996  2.6506
 9281SOL    HW239306   0.999   4.669  12.405  1.2310 -1.4684 -0.5737
 9282SOL     OW39307   2.193   4.712   7.097 -0.1963  0.3430  0.1773
 9282SOL    HW139308   2.186   4.714   7.193 -0.1218  0.4267  0.1809
 9282SOL    HW239309   2.113   4.666   7.070  2.0452 -2.1168 -2.2048
 9283SOL     OW39310   2.131   3.611  10.525  0.1093 -0.5835 -0.2225
 9283SOL    HW139311   2.091   3.674  10.586 -1.0878 -1.6400  0.0863
 9283SOL    HW239312   2.098   3.648  10.443 -1.9625  1.4798  1.5300
 9284SOL     OW39313   3.815   3.288   2.705 -0.1016 -0.1276 -0.6863
 9284SOL    HW139314   3.773   3.370   2.731 -0.8816 -0.8882  0.4900
 9284SOL    HW239315   3.835   3.263   2.795  2.5651 -0.3202 -1.3445
 9285SOL     OW39316   0.416   1.944   7.011 -0.1589  0.0578 -0.7017
 9285SOL    HW139317   0.460   1.860   7.000  0.3793  0.1279  0.8854
 9285SOL    HW239318   0.484   1.988   7.063 -2.2168  0.3448  1.7723
 9286SOL     OW39319   2.094   0.339  15.108 -0.2207  0.0129 -0.1986
 9286SOL    HW139320   2.036   0.284  15.053 -0.2647  0.1283 -0.2677
 9286SOL    HW239321   2.095   0.424  15.064  0.4643 -0.6086 -1.3966
 9287SOL     OW39322   2.069   3.120   2.865  0.2540 -0.4079 -0.6008
 9287SOL    HW139323   2.057   3.148   2.956 -1.2486  0.2200 -0.9844
 9287SOL    HW239324   2.004   3.180   2.830 -1.1379 -1.6865 -0.2037
 9288SOL     OW39325   3.047   1.112   2.695 -0.1439 -0.1097 -0.3475
 9288SOL    HW139326   3.098   1.183   2.733  0.9008  0.0316 -1.9956
 9288SOL    HW239327   3.042   1.052   2.769  0.0602  0.0493 -0.2059
 9289SOL     OW39328   2.238   3.700   8.812 -0.0510  0.2324 -0.2593
 9289SOL    HW139329   2.292   3.777   8.823  1.5170 -0.9737  0.5117
 9289SOL    HW239330   2.153   3.734   8.785 -0.5420 -0.2330  0.7047
 9290SOL     OW39331   2.002   3.818   8.739 -0.6616 -0.8146  0.0354
 9290SOL    HW139332   2.013   3.913   8.746  0.7936 -1.1021  1.4808
 9290SOL    HW239333   1.908   3.812   8.718 -0.7606 -0.1500  0.3051
 9291SOL     OW39334   2.878   0.478  10.318  0.4309 -0.7767  0.4815
 9291SOL    HW139335   2.945   0.414  10.293  0.3270 -0.5167 -0.4696
 9291SOL    HW239336   2.811   0.425  10.360 -0.6286  2.7946  3.2264
 9292SOL     OW39337   3.587   0.345  16.651  0.1205  0.1866 -0.1827
 9292SOL    HW139338   3.664   0.296  16.625 -0.4891  0.2411 -2.1514
 9292SOL    HW239339   3.562   0.291  16.726  0.9060 -0.8771 -0.6930
 9293SOL     OW39340   0.369   1.951  16.737  0.5137 -0.4762 -0.5574
 9293SOL    HW139341   0.453   1.950  16.690  0.7321 -0.4382 -0.1741
 9293SOL    HW239342   0.351   1.857  16.738 -3.1934  0.2500  0.1317
 9294SOL     OW39343   1.361   3.519   4.474 -0.2149 -0.1343  0.5435
 9294SOL    HW139344   1.406   3.564   4.545  2.1413  1.1541 -1.7545
 9294SOL    HW239345   1.400   3.432   4.471  1.6675  0.7678 -1.4671
 9295SOL     OW39346   2.937   2.001   3.654 -0.5786  0.1358  0.2386
 9295SOL    HW139347   2.956   1.915   3.692  0.7541 -0.9977 -2.9826
 9295SOL    HW239348   2.872   1.967   3.593 -0.2047  0.2861 -0.2435
 9296SOL     OW39349   3.944   0.086   2.827 -0.3667 -0.7912  0.0011
 9296SOL    HW139350   3.892   0.036   2.890  0.8246 -2.7310 -0.5546
 9296SOL    HW239351   3.953   0.028   2.751 -1.5722 -0.3959 -0.4344
 9297SOL     OW39352   2.412   1.096   3.014 -0.5323  0.6179  0.3167
 9297SOL    HW139353   2.414   1.058   2.927  1.1421  1.7534 -0.1353
 9297SOL    HW239354   2.461   1.034   3.068  1.3542  2.3981  0.6567
 9298SOL     OW39355   3.129   2.079   7.535 -0.5256  0.3345 -0.3203
 9298SOL    HW139356   3.137   2.133   7.613  0.0165  0.4241 -0.4359
 9298SOL    HW239357   3.220   2.058   7.510 -1.0922 -2.7149  0.1480
 9299SOL     OW39358   1.393   1.193   1.478  0.2089  0.2552 -0.0727
 9299SOL    HW139359   1.349   1.130   1.421 -1.0549 -0.2709  1.4571
 9299SOL    HW239360   1.328   1.253   1.515 -0.4642 -0.9484  0.7129
 9300SOL     OW39361   0.377   0.875   7.831 -0.3415  0.7033 -0.0031
 9300SOL    HW139362   0.350   0.802   7.777  2.8462 -0.4896 -0.0150
 9300SOL    HW239363   0.306   0.937   7.818  0.6956  1.4675 -2.0311
 9301SOL     OW39364   1.507   2.743   3.732  0.2207 -0.1888  0.3107
 9301SOL    HW139365   1.439   2.678   3.749  0.8563 -0.9429 -0.0310
 9301SOL    HW239366   1.588   2.703   3.763  0.1645  0.4888  1.3247
 9302SOL     OW39367   3.321   1.528   1.076  0.4603  0.1234 -0.7417
 9302SOL    HW139368   3.328   1.464   1.147  1.8529  1.1985  0.0800
 9302SOL    HW239369   3.399   1.581   1.091 -0.4001  1.1940 -0.0512
 9303SOL     OW39370   0.897   1.881   7.058 -0.2667  0.6159 -0.3147
 9303SOL    HW139371   0.911   1.947   7.125 -1.3589  2.7404 -2.1622
 9303SOL    HW239372   0.841   1.932   6.999 -2.2788  0.4228  1.4406
 9304SOL     OW39373   3.774   1.063  10.405 -0.4797  0.2972 -0.2388
 9304SOL    HW139374   3.852   1.057  10.351 -0.6054 -0.2638 -0.3574
 9304SOL    HW239375   3.716   1.111  10.346 -1.1058  0.4171  0.4720
 9305SOL     OW39376   3.087   0.783   8.011  0.0099 -0.0109 -0.4048
 9305SOL    HW139377   3.165   0.816   7.967  0.4386  2.6189  2.3364
 9305SOL    HW239378   3.135   0.710   8.051 -1.9019  0.5982  3.0719
 9306SOL     OW39379   1.527   1.979  15.694 -0.2616  0.3426 -0.4918
 9306SOL    HW139380   1.566   2.055  15.651 -0.0734  0.5139 -0.0199
 9306SOL    HW239381   1.580   1.903  15.668  1.7969  0.4857  3.2740
 9307SOL     OW39382   0.820   1.853   8.344 -0.2865 -0.0996 -0.4868
 9307SOL    HW139383   0.876   1.779   8.369 -0.0786 -0.3790 -1.7959
 9307SOL    HW239384   0.887   1.912   8.312 -1.4820  1.1254 -0.7298
 9308SOL     OW39385   1.548   1.918  15.981 -0.0629  0.0320 -0.2638
 9308SOL    HW139386   1.565   1.921  15.887 -1.6079 -0.5242 -0.5625
 9308SOL    HW239387   1.498   1.999  15.995  2.7044  1.4412  1.5071
 9309SOL     OW39388   2.313   3.525  10.979  0.1393  0.6540 -0.0762
 9309SOL    HW139389   2.318   3.475  11.061  2.0044 -1.1808 -1.3113
 9309SOL    HW239390   2.244   3.479  10.932  0.2737 -1.3204  1.6535
 9310SOL     OW39391   2.577   3.825   8.268  0.3775  0.6127  0.4061
 9310SOL    HW139392   2.556   3.753   8.328  0.7988 -0.0088 -0.1969
 9310SOL    HW239393   2.521   3.897   8.297  2.0107  1.8024  0.5826
 9311SOL     OW39394   3.896   0.380   1.383 -0.5590 -0.1925  0.2251
 9311SOL    HW139395   3.844   0.436   1.325 -0.7818 -0.8445 -0.2131
 9311SOL    HW239396   3.827   0.338   1.433 -1.2216  1.5555  0.7733
 9312SOL     OW39397   4.160   1.233  10.282 -0.1477 -0.2509  0.2031
 9312SOL    HW139398   4.196   1.252  10.369  3.7639  1.1107 -1.6940
 9312SOL    HW239399   4.092   1.300  10.277 -0.1560 -0.0597  2.8399
 9313SOL     OW39400   0.670   3.597   9.584  0.1689  0.0481 -0.1313
 9313SOL    HW139401   0.697   3.679   9.626 -2.8165  0.4189  1.0618
 9313SOL    HW239402   0.752   3.573   9.541 -0.4890 -1.1536 -0.7301
 9314SOL     OW39403   1.944   2.475  10.292 -0.0543  0.0699  0.5783
 9314SOL    HW139404   1.890   2.449  10.218  0.6661 -2.1917  0.8245
 9314SOL    HW239405   1.968   2.387  10.321 -1.7140 -0.7876 -0.6717
 9315SOL     OW39406   3.220   1.822   4.209  0.5363 -0.0339 -0.3616
 9315SOL    HW139407   3.285   1.892   4.214 -0.2831  0.7835 -1.0044
 9315SOL    HW239408   3.227   1.789   4.298  1.6616  1.5836  0.1460
 9316SOL     OW39409   1.596   1.577   3.212  0.5266  0.1956  0.3708
 9316SOL    HW139410   1.668   1.554   3.270  1.0161  0.2293 -0.2212
 9316SOL    HW239411   1.530   1.517   3.245 -0.1190 -0.3534 -1.9498
 9317SOL     OW39412   1.217   0.973   8.781 -0.4722  0.1465  0.1480
 9317SOL    HW139413   1.309   0.997   8.791 -1.0122  2.3660 -0.2399
 9317SOL    HW239414   1.178   1.032   8.846 -0.4711 -0.6505  0.8789
 9318SOL     OW39415   0.578   2.305   5.896 -0.5140 -0.4002  0.3589
 9318SOL    HW139416   0.534   2.222   5.914 -1.1432 -0.7039 -2.6427
 9318SOL    HW239417   0.509   2.366   5.874  0.9276  0.4671 -1.8013
 9319SOL     OW39418   0.341   2.391   3.479 -0.2988  0.2679  0.5170
 9319SOL    HW139419   0.281   2.369   3.550 -2.1384  0.0007 -1.1273
 9319SOL    HW239420   0.400   2.315   3.474  0.6947  1.3329 -4.0417
 9320SOL     OW39421   1.214   1.501   8.396  0.4059 -0.4041 -0.7772
 9320SOL    HW139422   1.219   1.517   8.302 -2.3651 -1.2018 -1.0617
 9320SOL    HW239423   1.303   1.469   8.414 -0.4408 -1.2435  1.8318
 9321SOL     OW39424   4.389   0.469  13.640 -0.2201  0.0871  0.2379
 9321SOL    HW139425   4.301   0.487  13.605  0.4652 -1.5562 -2.3827
 9321SOL    HW239426   4.392   0.532  13.712  1.1408  1.3763 -0.9743
 9322SOL     OW39427   4.279   0.880   5.720  0.0068  0.0736  0.3428
 9322SOL    HW139428   4.253   0.964   5.682 -0.6162 -0.3387 -0.1472
 9322SOL    HW239429   4.231   0.817   5.666 -2.3045  0.5859  1.7762
 9323SOL     OW39430   1.991   2.455  10.762 -0.1425  0.1593  0.0659
 9323SOL    HW139431   2.072   2.496  10.790  0.0341 -0.0205 -0.1824
 9323SOL    HW239432   1.989   2.509  10.683 -2.4339  0.8724  0.6110
 9324SOL     OW39433   2.565   1.239  15.926 -0.4401 -0.2833 -0.0679
 9324SOL    HW139434   2.474   1.213  15.937  0.0945 -1.8943  0.5220
 9324SOL    HW239435   2.614   1.164  15.959  0.2265 -0.7458 -2.1274
 9325SOL     OW39436   4.519   0.153   6.216  0.5771  0.1183 -0.0890
 9325SOL    HW139437   4.580   0.214   6.258  2.0726 -1.9202  0.7423
 9325SOL    HW239438   4.577   0.114   6.150  1.1942  0.8502  0.0137
 9326SOL     OW39439   1.288   1.793  14.813 -0.4307  0.2239  0.0234
 9326SOL    HW139440   1.334   1.847  14.749 -1.6632 -1.0737 -1.9638
 9326SOL    HW239441   1.365   1.748  14.850 -1.1938 -1.2702 -0.1778
 9327SOL     OW39442   1.545   2.892   5.623 -0.2965 -0.0675 -0.3311
 9327SOL    HW139443   1.459   2.897   5.665  0.8359 -1.9164  2.2796
 9327SOL    HW239444   1.589   2.965   5.666  1.8119 -1.2274 -0.5386
 9328SOL     OW39445   0.014   0.294   8.187  0.0500 -0.3465  0.0989
 9328SOL    HW139446   0.021   0.384   8.220 -0.4544 -0.9715  1.8640
 9328SOL    HW239447   4.684   0.297   8.109  0.8562 -0.9881 -0.4985
 9329SOL     OW39448   1.396   3.087   6.521 -0.6641 -0.4714 -0.0185
 9329SOL    HW139449   1.490   3.069   6.523 -0.8757 -1.7191 -1.1544
 9329SOL    HW239450   1.378   3.033   6.444  2.2542 -1.7924  0.2074
 9330SOL     OW39451   0.287   2.218   4.344 -0.7587  0.2739 -0.0990
 9330SOL    HW139452   0.293   2.175   4.259 -0.2871  2.1048 -0.9879
 9330SOL    HW239453   0.364   2.194   4.396 -0.5410 -0.3426 -0.7128
 9331SOL     OW39454   1.631   2.900   9.974  0.7969  0.4625 -0.5141
 9331SOL    HW139455   1.597   2.976  10.021  1.3884 -0.0132  0.6858
 9331SOL    HW239456   1.662   2.845  10.046  1.6670 -0.7279 -1.7943
 9332SOL     OW39457   2.249   2.869   8.647  0.1856  0.2666  0.5765
 9332SOL    HW139458   2.288   2.956   8.637  0.6303  0.1343  1.1495
 9332SOL    HW239459   2.180   2.872   8.580  1.7709 -0.3188 -1.0765
 9333SOL     OW39460   2.327   0.709   3.117 -0.3024 -0.0366 -0.1501
 9333SOL    HW139461   2.244   0.755   3.128  1.5525  2.9072  1.4479
 9333SOL    HW239462   2.309   0.670   3.031 -0.4847 -1.7654  0.6728
 9334SOL     OW39463   3.498   4.579   2.350  0.1259  0.3696  0.4443
 9334SOL    HW139464   3.587   4.545   2.338 -1.1447 -2.8268  0.1166
 9334SOL    HW239465   3.451   4.501   2.378  0.3609  0.2792  0.5860
 9335SOL     OW39466   4.496   3.013   5.494  0.0493  0.2261  0.2399
 9335SOL    HW139467   4.543   3.075   5.550 -0.1125  2.0538 -1.6595
 9335SOL    HW239468   4.554   2.981   5.425  0.9456  3.9108 -0.7114
 9336SOL     OW39469   3.167   4.088   7.574  0.2255  0.4142  0.8928
 9336SOL    HW139470   3.238   4.073   7.636  0.9183  1.0725  0.2480
 9336SOL    HW239471   3.208   4.149   7.513  1.2646 -0.0260  1.1524
 9337SOL     OW39472   1.043   4.702  17.576  0.1703 -0.5371 -0.7956
 9337SOL    HW139473   0.983   0.051  17.566 -1.8640 -2.3485 -2.0416
 9337SOL    HW239474   1.124   0.026  17.587 -0.6546  1.1880 -2.3510
 9338SOL     OW39475   1.631   3.763   6.265  0.2012 -0.6219  0.1881
 9338SOL    HW139476   1.595   3.825   6.327  0.1384  0.4382 -0.9127
 9338SOL    HW239477   1.600   3.677   6.296  2.4928 -0.5762  2.6075
 9339SOL     OW39478   1.788   3.933   5.384  0.0544 -0.0886  0.1417
 9339SOL    HW139479   1.871   3.919   5.340 -0.7063 -0.0730 -1.2964
 9339SOL    HW239480   1.798   4.022   5.418 -1.0413 -0.6937  2.0750
 9340SOL     OW39481   4.309   2.931  16.977  0.2832  0.0029 -0.5245
 9340SOL    HW139482   4.398   2.902  16.998 -0.1263 -0.7321  0.1739
 9340SOL    HW239483   4.303   3.014  17.022  0.0286 -0.9308  1.1443
 9341SOL     OW39484   3.763   1.277   7.340  0.1366 -0.4209  0.0113
 9341SOL    HW139485   3.679   1.249   7.378  0.6002 -2.9874 -0.8427
 9341SOL    HW239486   3.747   1.358   7.291 -0.6322 -1.1249 -0.9256
 9342SOL     OW39487   4.567   3.526   3.013 -0.5041 -0.2594 -0.2213
 9342SOL    HW139488   4.474   3.547   2.999 -0.4353 -0.2430 -0.6443
 9342SOL    HW239489   4.605   3.555   2.930 -1.0495 -1.3616 -0.8532
 9343SOL     OW39490   2.551   2.685  14.682 -0.2730 -0.3560  0.4181
 9343SOL    HW139491   2.545   2.780  14.689 -1.2526 -0.3475 -0.6519
 9343SOL    HW239492   2.497   2.664  14.606 -0.3402  1.3784 -0.0050
 9344SOL     OW39493   0.404   3.754   4.147  0.2861 -0.3696  0.3875
 9344SOL    HW139494   0.401   3.673   4.197 -2.5352  0.1323  1.0081
 9344SOL    HW239495   0.430   3.816   4.216 -0.0268 -0.3413  0.4790
 9345SOL     OW39496   0.196   4.354  14.393 -0.5899 -0.1746 -0.2169
 9345SOL    HW139497   0.114   4.384  14.432 -0.7093 -0.1816 -0.4631
 9345SOL    HW239498   0.191   4.259  14.409  0.8260 -0.2096  0.0284
 9346SOL     OW39499   0.197   1.094   3.625  0.2495  0.1048 -0.0489
 9346SOL    HW139500   0.222   1.053   3.542  3.6128  1.4449  0.2957
 9346SOL    HW239501   0.197   1.188   3.605  2.0371  0.3582  1.1955
 9347SOL     OW39502   1.576   1.520   4.617 -0.5665  0.3452 -0.6395
 9347SOL    HW139503   1.659   1.513   4.664 -1.1047 -0.1961  0.2265
 9347SOL    HW239504   1.522   1.486   4.687  1.0099 -0.3888  0.2109
 9348SOL     OW39505   0.894   4.044   5.773  0.2571 -0.2223 -0.4029
 9348SOL    HW139506   0.839   4.011   5.845  0.0114 -1.4330 -1.1534
 9348SOL    HW239507   0.942   3.964   5.753  0.1106 -1.1612  2.9343
 9349SOL     OW39508   3.613   2.170   4.157  0.1850 -0.0635  0.4013
 9349SOL    HW139509   3.562   2.251   4.152  0.4240  0.2137  2.7059
 9349SOL    HW239510   3.693   2.205   4.117 -1.0492  0.7759 -1.3307
 9350SOL     OW39511   0.973   3.143   8.174 -0.4594  0.5329 -0.6251
 9350SOL    HW139512   0.932   3.153   8.261 -1.3444 -0.6281 -0.9098
 9350SOL    HW239513   0.943   3.223   8.131 -0.1066  0.8001 -0.3757
 9351SOL     OW39514   2.902   1.232   0.593  0.2921 -0.2925  0.2225
 9351SOL    HW139515   2.842   1.165   0.559 -0.2194 -0.4434  1.4230
 9351SOL    HW239516   2.972   1.169   0.607 -0.0743 -1.5285 -3.6027
 9352SOL     OW39517   3.756   1.634  10.971  0.0949 -0.6463 -0.1679
 9352SOL    HW139518   3.707   1.555  10.993  0.2643 -1.6683 -3.5018
 9352SOL    HW239519   3.834   1.597  10.930 -0.1238  0.5668 -1.6695
 9353SOL     OW39520   3.875   3.549   3.684 -0.1957  0.0602  0.1905
 9353SOL    HW139521   3.796   3.500   3.708  0.3121 -2.3464 -3.0693
 9353SOL    HW239522   3.934   3.475   3.672  2.3865  1.9292  1.4074
 9354SOL     OW39523   1.035   2.640   6.235 -0.6331 -0.1969  0.2334
 9354SOL    HW139524   1.014   2.571   6.173 -0.1769  0.0863 -0.2411
 9354SOL    HW239525   1.019   2.598   6.320  0.4599  1.9464  1.5175
 9355SOL     OW39526   1.509   4.224   2.499  0.5815 -0.1972 -0.4785
 9355SOL    HW139527   1.468   4.214   2.585  0.5874 -2.9082 -0.7739
 9355SOL    HW239528   1.562   4.303   2.507  0.1551  0.3044 -2.4079
 9356SOL     OW39529   1.425   3.692  11.933  0.1934  0.1341 -0.2941
 9356SOL    HW139530   1.394   3.782  11.941  0.7376  0.2596  0.4833
 9356SOL    HW239531   1.345   3.645  11.911  0.0715  0.2094 -0.0121
 9357SOL     OW39532   1.727   1.119   9.590  0.1983  0.4857 -0.0701
 9357SOL    HW139533   1.741   1.207   9.556  0.4981  0.1121 -0.9311
 9357SOL    HW239534   1.674   1.137   9.667 -1.9371  0.7709 -1.6041
 9358SOL     OW39535   2.713   1.326   2.364  0.3610 -0.4901  0.2864
 9358SOL    HW139536   2.761   1.371   2.434 -0.8308  1.8512 -0.4164
 9358SOL    HW239537   2.662   1.259   2.409  1.7040 -1.0199  1.0239
 9359SOL     OW39538   2.062   3.343   9.712 -0.1347 -0.3178  0.1194
 9359SOL    HW139539   2.044   3.423   9.761 -2.4857 -1.4625  1.1432
 9359SOL    HW239540   1.994   3.286   9.748  0.1684 -1.1237 -0.5984
 9360SOL     OW39541   0.402   2.283  11.295  0.1008  0.2316 -0.0256
 9360SOL    HW139542   0.332   2.327  11.247 -0.4523  0.0122  0.5770
 9360SOL    HW239543   0.419   2.342  11.369 -0.1899 -1.1574  1.1611
 9361SOL     OW39544   2.100   3.822   1.322  0.2681  0.2160  0.2721
 9361SOL    HW139545   2.116   3.729   1.302  0.5662  0.2467  0.3700
 9361SOL    HW239546   2.043   3.818   1.399 -0.8084 -1.2796 -0.5980
 9362SOL     OW39547   2.273   3.067  16.399 -0.4904  0.2045  0.4309
 9362SOL    HW139548   2.274   2.989  16.456 -1.8403  0.3185  0.6094
 9362SOL    HW239549   2.215   3.050  16.326 -0.4544 -0.8724  0.6377
 9363SOL     OW39550   3.907   1.388  10.936  0.5136 -0.2653 -0.0227
 9363SOL    HW139551   3.959   1.331  10.880  0.7525 -1.3445  1.2949
 9363SOL    HW239552   3.966   1.463  10.928  0.0222  0.2208  1.0214
 9364SOL     OW39553   3.194   3.606   1.622  0.4180 -0.2025  0.5682
 9364SOL    HW139554   3.105   3.642   1.626  0.8670  1.2774 -2.6381
 9364SOL    HW239555   3.218   3.580   1.533  1.5094  0.8904  0.5354
 9365SOL     OW39556   4.091   4.611   7.978  0.6698 -0.0761  0.5691
 9365SOL    HW139557   4.073   4.643   7.889  3.1669  0.1455  0.1326
 9365SOL    HW239558   4.155   4.541   7.965  0.8491 -0.1115  1.6904
 9366SOL     OW39559   3.886   2.591   4.464 -0.1154 -0.2128 -0.0869
 9366SOL    HW139560   3.881   2.603   4.559 -0.1230 -1.4205  0.0647
 9366SOL    HW239561   3.801   2.549   4.450 -0.4178 -0.4614  2.5874
 9367SOL     OW39562   1.335   1.185   7.802 -0.1535  0.1778 -0.4802
 9367SOL    HW139563   1.311   1.151   7.889  0.9018  0.5872 -0.0287
 9367SOL    HW239564   1.367   1.271   7.830 -0.1702 -0.0976  0.3954
 9368SOL     OW39565   1.335   4.403   5.342  0.3531  0.1121  0.6396
 9368SOL    HW139566   1.290   4.471   5.294  0.3804 -0.5016 -0.2497
 9368SOL    HW239567   1.317   4.414   5.436 -0.9379  1.8150  0.1910
 9369SOL     OW39568   3.866   1.775   5.900 -0.1309  0.6452  0.0147
 9369SOL    HW139569   3.935   1.801   5.961  1.8905  1.9597 -2.8370
 9369SOL    HW239570   3.813   1.707   5.940 -0.1203  2.3823  3.0575
 9370SOL     OW39571   1.715   3.688   4.271  0.1647 -0.3636  0.5555
 9370SOL    HW139572   1.714   3.599   4.306  0.2790  0.2392  2.0654
 9370SOL    HW239573   1.809   3.689   4.251 -0.0323 -1.1733 -0.4207
 9371SOL     OW39574   3.677   3.437   8.429 -0.2036 -0.3116 -0.1276
 9371SOL    HW139575   3.583   3.445   8.413 -0.1322  0.5877 -0.1054
 9371SOL    HW239576   3.704   3.440   8.337  0.7102  1.2179  0.1833
 9372SOL     OW39577   2.915   0.135  15.194  0.3105  0.2431  0.7255
 9372SOL    HW139578   2.857   0.181  15.254 -0.0627  0.1884  0.4068
 9372SOL    HW239579   2.864   0.055  15.185  0.1910  0.2691  1.1807
 9373SOL     OW39580   4.488   2.449   7.854  0.6795  0.5068  0.1388
 9373SOL    HW139581   4.532   2.492   7.781 -1.3132  0.4387 -1.1060
 9373SOL    HW239582   4.407   2.420   7.812  0.4529  0.4899  0.5826
 9374SOL     OW39583   1.593   1.666   1.808 -0.0561  0.7259 -0.4240
 9374SOL    HW139584   1.675   1.643   1.764 -1.1897 -3.2629 -0.5135
 9374SOL    HW239585   1.554   1.578   1.810  0.3925  0.5124 -1.0117
 9375SOL     OW39586   1.451   4.022   3.003  0.0403 -0.6773  0.2608
 9375SOL    HW139587   1.434   3.981   2.918 -1.2245 -2.5396  1.3960
 9375SOL    HW239588   1.540   3.989   3.014 -0.3378 -2.3325 -1.6626
 9376SOL     OW39589   2.967   4.322   4.792 -0.0392 -0.6217  0.5458
 9376SOL    HW139590   2.990   4.358   4.877 -1.6523 -0.8012  1.0398
 9376SOL    HW239591   3.009   4.392   4.741  0.2010 -1.9620 -1.0885
 9377SOL     OW39592   4.612   0.843   9.147  0.0877  0.0393 -0.0607
 9377SOL    HW139593   4.667   0.918   9.169  0.6442 -0.2956 -0.3283
 9377SOL    HW239594   4.659   0.805   9.073 -1.6590  1.2499 -1.7905
 9378SOL     OW39595   0.106   3.726   3.408 -0.3371 -0.2469  0.0124
 9378SOL    HW139596   0.103   3.788   3.335 -0.7462  0.7518  0.8814
 9378SOL    HW239597   0.178   3.667   3.386  0.6827  1.5219 -1.3496
 9379SOL     OW39598   0.879   1.204   9.322 -0.1723 -0.4766 -0.5782
 9379SOL    HW139599   0.866   1.277   9.382  2.5869 -0.7029  0.2787
 9379SOL    HW239600   0.947   1.253   9.276 -0.2902  0.6061  0.3996
 9380SOL     OW39601   0.664   4.490   9.983  0.3267 -0.5215  0.3304
 9380SOL    HW139602   0.697   4.401   9.969 -1.9416 -1.4592  0.9427
 9380SOL    HW239603   0.573   4.478  10.011  0.4830 -1.5212  0.4144
 9381SOL     OW39604   1.870   1.947   1.733 -0.0270  0.4072  0.9438
 9381SOL    HW139605   1.948   1.991   1.699  0.4598  0.9147  2.7537
 9381SOL    HW239606   1.877   1.961   1.827 -0.7727 -0.6462  1.1639
 9382SOL     OW39607   1.862   2.180   6.670  0.0172 -0.4907  0.3949
 9382SOL    HW139608   1.871   2.244   6.600  2.8229 -1.9398 -0.6126
 9382SOL    HW239609   1.900   2.233   6.740 -0.5271 -1.1185  1.1599
 9383SOL     OW39610   3.564   2.979   2.028  0.0472  0.0395  0.6729
 9383SOL    HW139611   3.634   3.038   1.999 -1.0663  2.1462  2.2916
 9383SOL    HW239612   3.486   3.029   2.002 -0.0442  0.0155  0.9076
 9384SOL     OW39613   4.610   0.403  13.230  0.3455  0.0376 -0.1430
 9384SOL    HW139614   4.552   0.328  13.242 -1.2629  1.2161 -0.5009
 9384SOL    HW239615   4.623   0.425  13.322  1.2097 -0.2266 -0.2035
 9385SOL     OW39616   2.930   3.692   1.658  0.2223  0.4734 -0.0160
 9385SOL    HW139617   2.951   3.785   1.653  0.4801  0.4393  0.4733
 9385SOL    HW239618   2.857   3.679   1.597 -1.1475 -0.3098  1.7853
 9386SOL     OW39619   1.239   3.939   5.053 -0.3307 -0.2512  0.6529
 9386SOL    HW139620   1.239   3.974   4.964 -0.8033  0.4532  0.9278
 9386SOL    HW239621   1.225   4.023   5.097  1.9139 -1.5125  3.7865
 9387SOL     OW39622   1.203   0.776   7.230 -0.2714 -0.4622  0.0551
 9387SOL    HW139623   1.175   0.688   7.252 -1.1210 -0.3650 -0.6453
 9387SOL    HW239624   1.267   0.770   7.159 -0.7996  3.3947 -0.7334
 9388SOL     OW39625   0.539   1.256   9.552  0.1649  0.2409 -0.4257
 9388SOL    HW139626   0.586   1.339   9.542  2.2583 -0.6922  1.5794
 9388SOL    HW239627   0.491   1.250   9.470  1.5071 -3.2573 -0.9362
 9389SOL     OW39628   3.147   2.437   8.937  0.0462  0.2481  0.2275
 9389SOL    HW139629   3.145   2.529   8.910  2.4114  0.5547  1.0872
 9389SOL    HW239630   3.230   2.450   8.983  1.2900 -3.0046 -1.0956
 9390SOL     OW39631   4.634   1.271   1.323 -0.1224  0.2283 -0.0199
 9390SOL    HW139632   4.716   1.319   1.312 -0.7340  1.2087 -0.2070
 9390SOL    HW239633   4.561   1.328   1.300  0.3747  1.0392  0.4534
 9391SOL     OW39634   2.507   3.435   5.801 -0.3092 -0.1213  0.3986
 9391SOL    HW139635   2.429   3.459   5.752 -0.4418 -1.1066  0.1198
 9391SOL    HW239636   2.549   3.380   5.735 -0.6443 -0.0529  0.1281
 9392SOL     OW39637   2.253   3.838   9.141 -0.7662 -0.3226  0.1472
 9392SOL    HW139638   2.262   3.835   9.237 -0.3844  0.9560  0.1472
 9392SOL    HW239639   2.164   3.803   9.143 -1.0387  0.4151  1.1889
 9393SOL     OW39640   1.837   1.397   7.019 -0.1529  0.5336  0.1553
 9393SOL    HW139641   1.771   1.466   7.015 -0.2990  0.4835  1.7404
 9393SOL    HW239642   1.919   1.445   7.027  0.2773 -0.3101  0.8072
 9394SOL     OW39643   0.034   2.583  14.748  0.0560  0.5287  0.3006
 9394SOL    HW139644   4.712   2.660  14.780 -1.8013 -0.7385  0.6462
 9394SOL    HW239645   0.110   2.627  14.710  0.1373 -1.3280 -1.6426
 9395SOL     OW39646   2.449   3.082  11.172  0.3531  0.0783 -0.4201
 9395SOL    HW139647   2.409   3.169  11.174 -2.5268 -1.2785  0.2274
 9395SOL    HW239648   2.538   3.098  11.204  1.0420 -0.8555 -1.8820
 9396SOL     OW39649   2.102   3.645   1.699  0.4685 -0.1261  0.7411
 9396SOL    HW139650   2.151   3.721   1.669 -0.7924 -0.6392 -2.6334
 9396SOL    HW239651   2.114   3.586   1.624  1.4557 -1.8182  2.2169
 9397SOL     OW39652   0.127   1.623   8.043  0.2402 -0.0363  0.1271
 9397SOL    HW139653   0.084   1.709   8.049 -4.2072 -2.0276 -2.9319
 9397SOL    HW239654   0.198   1.641   8.104  1.8527 -2.4842 -0.9995
 9398SOL     OW39655   0.266   2.057   3.404  0.1147  0.3113  0.2690
 9398SOL    HW139656   0.264   2.081   3.497 -1.5847  0.6771  0.1396
 9398SOL    HW239657   0.349   2.099   3.379  0.0683  0.5812  0.5622
 9399SOL     OW39658   1.865   2.008  16.240  0.1345  0.0199  0.2054
 9399SOL    HW139659   1.875   1.991  16.333 -1.8319 -3.0166 -0.1287
 9399SOL    HW239660   1.910   2.092  16.232  0.1324  0.2104  2.1722
 9400SOL     OW39661   3.532   2.857   4.531 -0.0228  0.1456  0.3371
 9400SOL    HW139662   3.572   2.929   4.483 -0.3623 -0.3062 -0.6197
 9400SOL    HW239663   3.490   2.806   4.461 -1.7215 -0.3589  1.7203
 9401SOL     OW39664   0.749   4.441   9.277 -0.1995 -0.2446  0.5008
 9401SOL    HW139665   0.678   4.503   9.295 -0.9605 -1.3373  1.2894
 9401SOL    HW239666   0.810   4.450   9.351  2.6622 -2.6479 -1.5774
 9402SOL     OW39667   1.417   0.027   1.398 -0.1266 -0.1055 -0.1556
 9402SOL    HW139668   1.370   4.713   1.324  0.6541 -0.6296 -0.3741
 9402SOL    HW239669   1.416   0.120   1.375 -1.7044  0.8538  3.7775
 9403SOL     OW39670   1.520   1.793   5.036 -0.6206 -0.1092  0.1772
 9403SOL    HW139671   1.610   1.805   5.006 -1.0659  0.9970 -0.6985
 9403SOL    HW239672   1.473   1.848   4.973  0.1179 -1.1051 -1.2516
 9404SOL     OW39673   1.376   3.480  12.971  0.7690 -0.2782  0.5879
 9404SOL    HW139674   1.420   3.464  13.054 -1.9608  0.9354  2.2754
 9404SOL    HW239675   1.285   3.497  12.995  0.3510 -1.7223  0.0581
 9405SOL     OW39676   1.662   3.089   5.250  0.5787  0.3833  0.3758
 9405SOL    HW139677   1.634   3.174   5.287 -0.6320 -0.1237  0.6322
 9405SOL    HW239678   1.626   3.092   5.161 -0.7961  1.2237  0.9437
 9406SOL     OW39679   4.292   3.231   8.787  0.7618 -0.1963 -0.3230
 9406SOL    HW139680   4.206   3.237   8.745  0.8953 -1.1041 -0.7433
 9406SOL    HW239681   4.300   3.135   8.782 -4.7794 -0.8124  2.5086
 9407SOL     OW39682   3.022   1.001   6.880  0.1799  0.1524  0.8387
 9407SOL    HW139683   2.930   0.984   6.859 -0.1934  0.6358  2.1029
 9407SOL    HW239684   3.058   0.984   6.793  1.4249  0.2177  1.3529
 9408SOL     OW39685   0.857   2.503   3.878 -0.2934  0.4620 -0.0594
 9408SOL    HW139686   0.904   2.580   3.908  0.9341 -0.1442 -0.4150
 9408SOL    HW239687   0.888   2.442   3.945  0.8617  0.6995 -0.3915
 9409SOL     OW39688   0.833   2.116   9.514  0.1826 -0.8157 -0.2203
 9409SOL    HW139689   0.740   2.096   9.514  0.5649 -2.5215  3.2365
 9409SOL    HW239690   0.861   2.086   9.428 -0.9360  0.3625 -1.0002
 9410SOL     OW39691   0.189   0.765  14.519  0.6686 -0.1303  0.1296
 9410SOL    HW139692   0.278   0.769  14.554  0.8455 -1.8337 -0.1002
 9410SOL    HW239693   0.199   0.711  14.441 -1.0074 -0.1255 -0.0872
 9411SOL     OW39694   4.535   3.530   3.281  0.1726  0.1835 -0.5018
 9411SOL    HW139695   4.475   3.604   3.293  1.3212  1.0179  0.1336
 9411SOL    HW239696   4.572   3.555   3.196  0.3427  0.3386 -0.3827
 9412SOL     OW39697   3.073   3.863  12.614 -0.0428 -0.0718  0.8266
 9412SOL    HW139698   3.052   3.908  12.696  1.0073  0.8597  0.5776
 9412SOL    HW239699   3.036   3.777  12.633 -2.5210  1.1703  1.6337
 9413SOL     OW39700   3.711   2.839  17.482  0.5759  0.5059  0.4044
 9413SOL    HW139701   3.806   2.836  17.494  0.7209 -0.6976 -1.1316
 9413SOL    HW239702   3.704   2.813  17.391  1.3109 -0.0419  0.5044
 9414SOL     OW39703   0.422   2.055   5.978 -0.5306  0.2889 -0.0970
 9414SOL    HW139704   0.421   1.985   6.044 -3.9059 -1.5139 -2.0878
 9414SOL    HW239705   0.385   2.026   5.895 -1.6402 -0.9517  0.8314
 9415SOL     OW39706   1.177   4.307   9.326 -0.0035 -0.5146 -0.0105
 9415SOL    HW139707   1.166   4.212   9.316  0.3865 -0.5921  0.3326
 9415SOL    HW239708   1.133   4.343   9.248 -0.3252  0.3816  0.5898
 9416SOL     OW39709   2.853   1.049   2.006  0.5528  0.0014 -0.1144
 9416SOL    HW139710   2.859   1.099   1.925  2.7031 -2.7809 -1.6948
 9416SOL    HW239711   2.857   1.118   2.072  0.9307 -0.0660 -0.0661
 9417SOL     OW39712   1.460   2.378  14.415  0.2909 -0.3177 -0.0889
 9417SOL    HW139713   1.441   2.419  14.330  0.6673 -0.0382 -0.0350
 9417SOL    HW239714   1.383   2.403  14.466  1.2912 -0.2530  1.3874
 9418SOL     OW39715   0.238   4.182   1.226  0.6010  0.4170  0.0507
 9418SOL    HW139716   0.317   4.163   1.175 -1.0438  2.5323 -3.3051
 9418SOL    HW239717   0.226   4.273   1.199  2.1291  0.5402 -0.2438
 9419SOL     OW39718   2.729   0.730   3.299  0.4126 -0.1717 -0.0516
 9419SOL    HW139719   2.811   0.772   3.323 -0.6957  1.2106  1.3186
 9419SOL    HW239720   2.729   0.646   3.345 -1.4969  0.1664  0.5821
 9420SOL     OW39721   3.132   3.529   3.594  0.0227 -0.3739 -0.0026
 9420SOL    HW139722   3.171   3.564   3.674  0.5105  2.0437 -1.3081
 9420SOL    HW239723   3.190   3.554   3.523 -0.9161  1.5956 -0.0840
 9421SOL     OW39724   3.184   3.513   6.095 -0.4208  0.2956  0.1975
 9421SOL    HW139725   3.193   3.586   6.156  0.1922 -0.1246  0.6089
 9421SOL    HW239726   3.170   3.437   6.151  0.8695 -0.2286 -0.2047
 9422SOL     OW39727   2.921   2.093   7.369 -0.4439 -0.7460  0.3419
 9422SOL    HW139728   2.993   2.097   7.432  2.3229  1.5696 -3.0100
 9422SOL    HW239729   2.907   2.185   7.348 -1.2264 -1.3081 -1.5933
 9423SOL     OW39730   2.086   2.410   1.946 -0.2047  0.3915  0.2324
 9423SOL    HW139731   2.133   2.335   1.909  0.4347  1.6730 -1.5343
 9423SOL    HW239732   2.157   2.474   1.948 -1.0493  1.2297  2.6869
 9424SOL     OW39733   1.397   1.051   3.355 -0.5553 -0.1635 -0.2459
 9424SOL    HW139734   1.451   1.032   3.278 -1.2994 -1.0486 -0.5404
 9424SOL    HW239735   1.312   1.013   3.335  0.7381 -2.6735 -1.0167
 9425SOL     OW39736   3.049   4.546   6.572 -0.0276  0.5234 -0.1397
 9425SOL    HW139737   3.059   4.641   6.576  1.3468  0.5419 -3.6234
 9425SOL    HW239738   3.117   4.521   6.509  0.1950  1.1214 -0.1347
 9426SOL     OW39739   1.731   0.588   8.103  0.1768 -0.8934 -0.2098
 9426SOL    HW139740   1.657   0.582   8.042  0.5415 -1.4145 -0.6071
 9426SOL    HW239741   1.694   0.540   8.177 -0.9792  0.3964  0.0433
 9427SOL     OW39742   1.499   4.193   8.499 -0.4136  0.1486 -0.3690
 9427SOL    HW139743   1.448   4.193   8.418  0.6492 -0.3719 -1.0436
 9427SOL    HW239744   1.565   4.260   8.481  2.0749 -2.0286  0.7097
 9428SOL     OW39745   3.385   0.131   7.763 -0.4990 -0.1879  1.3514
 9428SOL    HW139746   3.388   0.158   7.672  0.4630 -2.3061  0.7493
 9428SOL    HW239747   3.472   0.162   7.787 -0.8018  1.3939  0.3961
 9429SOL     OW39748   0.471   3.244   9.246 -0.0417  0.3652 -0.1450
 9429SOL    HW139749   0.440   3.298   9.173 -1.3625 -0.7402 -0.4187
 9429SOL    HW239750   0.405   3.268   9.311 -0.9477 -0.3224 -0.7950
 9430SOL     OW39751   0.082   3.812   6.549 -0.3165 -0.0506 -0.2240
 9430SOL    HW139752   0.158   3.869   6.539  0.6256 -1.1991  0.4548
 9430SOL    HW239753   0.077   3.803   6.644  0.9511  0.4824 -0.1091
 9431SOL     OW39754   2.775   0.894   4.183  0.1888 -0.1186 -0.6383
 9431SOL    HW139755   2.844   0.842   4.225 -0.9064  0.0555  1.3713
 9431SOL    HW239756   2.778   0.868   4.091  0.0046 -0.9299 -0.4150
 9432SOL     OW39757   1.939   3.775  17.583 -0.1087  0.5484 -0.2210
 9432SOL    HW139758   1.894   3.698  17.618 -1.0828  1.5934  0.8392
 9432SOL    HW239759   1.897   3.843  17.635  0.3923 -0.1588  1.1039
 9433SOL     OW39760   0.502   3.997   5.679  0.2592 -0.1532 -0.4412
 9433SOL    HW139761   0.439   4.008   5.608  0.1732 -0.7984 -0.4703
 9433SOL    HW239762   0.542   3.914   5.652 -1.5372 -1.7006  1.6999
 9434SOL     OW39763   1.086   1.272   8.422 -0.6552  0.0105  0.0479
 9434SOL    HW139764   1.135   1.354   8.428  0.0570 -0.5143  1.2943
 9434SOL    HW239765   1.143   1.216   8.474 -2.4340  1.2898  3.3913
 9435SOL     OW39766   0.661   4.278   7.980 -0.4194 -0.0507 -0.0838
 9435SOL    HW139767   0.656   4.336   8.056 -3.0174 -1.1362  0.5845
 9435SOL    HW239768   0.731   4.216   7.998  0.1425  1.1956  2.0008
 9436SOL     OW39769   2.728   4.575  13.907 -0.5708 -0.4133  0.1948
 9436SOL    HW139770   2.689   4.618  13.983 -1.0306  0.3100 -0.4432
 9436SOL    HW239771   2.653   4.537  13.861 -0.2808 -0.3336 -0.3468
 9437SOL     OW39772   0.022   3.151  13.318  0.2525 -0.2650  0.0612
 9437SOL    HW139773   4.702   3.210  13.378 -1.4292 -1.9718  0.4616
 9437SOL    HW239774   0.024   3.209  13.242  1.6296  0.9287  1.0104
 9438SOL     OW39775   1.594   3.084   6.253 -0.1669 -0.2709 -0.6110
 9438SOL    HW139776   1.527   3.024   6.285 -0.3391  0.5844  0.6026
 9438SOL    HW239777   1.664   3.018   6.251  2.0330  2.0684 -1.5921
 9439SOL     OW39778   2.012   4.429   8.705  0.6623  0.0176 -0.0575
 9439SOL    HW139779   1.955   4.376   8.761  1.0594 -1.3798 -0.9660
 9439SOL    HW239780   1.970   4.515   8.713 -1.3598 -0.8857 -0.8524
 9440SOL     OW39781   3.564   3.024   8.454 -0.4990  0.0083  0.3602
 9440SOL    HW139782   3.659   3.023   8.466 -0.5266 -1.4368  0.4742
 9440SOL    HW239783   3.546   2.944   8.405  1.2518 -0.3637  0.3397
 9441SOL     OW39784   0.844   2.281   9.741  0.5147  0.0130 -0.5705
 9441SOL    HW139785   0.837   2.227   9.662 -0.2478 -1.4761  0.4978
 9441SOL    HW239786   0.786   2.251   9.811  0.7831  0.0443 -0.3375
 9442SOL     OW39787   0.898   0.941   3.772  0.2142 -0.0887  0.4151
 9442SOL    HW139788   0.826   1.004   3.783  0.8009  0.2799  2.1389
 9442SOL    HW239789   0.860   0.872   3.827 -0.8561  1.3923  1.5301
 9443SOL     OW39790   4.309   3.249   5.857  0.1221  0.0004  0.2784
 9443SOL    HW139791   4.252   3.307   5.906 -0.2951 -2.4075  2.6461
 9443SOL    HW239792   4.279   3.277   5.771 -0.4957  0.5590  0.6807
 9444SOL     OW39793   2.553   2.310   3.043  0.0021 -0.1119  0.3673
 9444SOL    HW139794   2.628   2.251   3.038  2.0421  2.5196 -0.0647
 9444SOL    HW239795   2.583   2.383   2.989  0.1320 -0.3167  0.1667
 9445SOL     OW39796   1.912   4.693   1.423 -0.3958  0.0374 -0.3855
 9445SOL    HW139797   1.820   4.677   1.399 -1.0470  0.4980  1.8190
 9445SOL    HW239798   1.926   0.060   1.402  1.8141  0.1372  1.5725
 9446SOL     OW39799   3.629   0.476   5.363  0.7047  0.4218 -0.0153
 9446SOL    HW139800   3.627   0.406   5.429  3.3769 -0.5540 -0.9552
 9446SOL    HW239801   3.553   0.527   5.391 -0.0613 -0.7666  0.0737
 9447SOL     OW39802   4.371   1.467   3.997 -0.6461 -0.5146  0.1848
 9447SOL    HW139803   4.449   1.448   3.945  0.1356  0.7388  0.8989
 9447SOL    HW239804   4.330   1.529   3.937  1.2898 -0.5043 -1.1215
 9448SOL     OW39805   4.646   2.550   9.312  0.3172  0.0781  0.3114
 9448SOL    HW139806   4.632   2.456   9.310  0.1457  0.1436 -1.6177
 9448SOL    HW239807   4.618   2.575   9.223  1.1547  0.0215  0.0327
 9449SOL     OW39808   1.163   0.863   3.214 -0.6259  0.4215  0.3286
 9449SOL    HW139809   1.078   0.893   3.246 -0.0585  0.6733  1.5879
 9449SOL    HW239810   1.173   0.900   3.126  0.8986 -2.6075 -0.7591
 9450SOL     OW39811   4.237   2.171  17.462 -0.5527 -0.3834  0.0053
 9450SOL    HW139812   4.293   2.111  17.412 -0.2130  0.3466 -0.4843
 9450SOL    HW239813   4.215   2.234  17.393  1.4919 -1.5847 -1.7452
 9451SOL     OW39814   0.178   2.291   7.474 -0.0908 -0.4897  0.2488
 9451SOL    HW139815   0.161   2.380   7.506  2.2755  0.2300 -0.4986
 9451SOL    HW239816   0.186   2.312   7.381  0.1958 -1.0078  0.1572
 9452SOL     OW39817   3.623   0.806   3.420 -0.2904 -0.2152 -0.0815
 9452SOL    HW139818   3.640   0.838   3.332 -1.7828  1.5437  0.2735
 9452SOL    HW239819   3.697   0.853   3.459 -1.8704  1.5122  0.8034
 9453SOL     OW39820   4.709   1.711   0.051 -0.3340 -0.3342  0.2261
 9453SOL    HW139821   0.021   1.798   0.037  1.7559 -1.4943 -1.3290
 9453SOL    HW239822   4.620   1.716   0.015  0.5010  0.3989 -1.7046
 9454SOL     OW39823   4.545   0.074   3.113  0.9722  0.1309  0.2309
 9454SOL    HW139824   4.541   0.168   3.094 -0.5453  0.1105  0.4790
 9454SOL    HW239825   4.454   0.047   3.106  1.2001 -0.4768 -0.3770
 9455SOL     OW39826   3.689   1.605   5.327  0.6087  0.2166  0.1135
 9455SOL    HW139827   3.665   1.655   5.405 -1.6054  0.0646 -0.4767
 9455SOL    HW239828   3.617   1.543   5.324 -1.0572  2.1436  0.1854
 9456SOL     OW39829   1.657   1.998  17.495 -0.1431  0.2728  0.8374
 9456SOL    HW139830   1.638   2.078  17.448 -3.0870 -0.0256  1.5372
 9456SOL    HW239831   1.651   1.932  17.426  0.7783  0.7715  0.2790
 9457SOL     OW39832   2.539   3.854  15.994  0.5850 -0.2207  0.3983
 9457SOL    HW139833   2.580   3.912  16.058 -0.9500 -0.5916  1.7313
 9457SOL    HW239834   2.472   3.802  16.040  2.1744 -0.7103  2.1639
 9458SOL     OW39835   1.726   0.025   5.318 -0.4683 -0.1352  0.0769
 9458SOL    HW139836   1.792   0.066   5.375  0.7209 -1.0053 -0.6621
 9458SOL    HW239837   1.693   0.097   5.264 -0.7772 -0.7153 -0.5011
 9459SOL     OW39838   1.611   4.702  10.817 -0.6672 -0.1620  0.2145
 9459SOL    HW139839   1.546   0.041  10.847 -0.6276 -0.4711  0.9760
 9459SOL    HW239840   1.564   4.660  10.745 -1.1626 -0.0426  0.4654
 9460SOL     OW39841   3.511   2.250   0.611 -0.5334  0.2745 -0.5225
 9460SOL    HW139842   3.581   2.296   0.566  0.2821 -0.4231  0.0275
 9460SOL    HW239843   3.516   2.161   0.575  1.0474  0.0685  0.2201
 9461SOL     OW39844   4.544   1.002   2.946 -0.8298 -0.2432  0.2228
 9461SOL    HW139845   4.585   0.931   2.896  0.6707  0.1446  0.9024
 9461SOL    HW239846   4.508   0.947   3.016 -1.7994  0.4109  0.2425
 9462SOL     OW39847   0.766   1.925   4.756  0.3451  0.5774 -0.0423
 9462SOL    HW139848   0.709   1.877   4.696 -0.3781  0.3149  0.8562
 9462SOL    HW239849   0.836   1.862   4.775  0.3693  1.0492  1.4652
 9463SOL     OW39850   1.543   1.674   2.426  0.2396  0.5646  0.4240
 9463SOL    HW139851   1.631   1.640   2.408  1.2322  2.8748  0.9293
 9463SOL    HW239852   1.543   1.760   2.385 -1.1558 -0.1381 -1.0794
 9464SOL     OW39853   0.134   1.628  15.380 -0.1172 -0.1189  0.8783
 9464SOL    HW139854   0.190   1.573  15.435  0.0820 -0.0455  0.7467
 9464SOL    HW239855   0.173   1.605  15.296 -2.7658 -0.6870 -0.2117
 9465SOL     OW39856   3.730   2.579   6.516  0.2461 -0.2790  0.2658
 9465SOL    HW139857   3.778   2.587   6.434  2.1235 -1.0746  1.2862
 9465SOL    HW239858   3.793   2.612   6.581 -1.7346  1.0148  1.5212
 9466SOL     OW39859   1.375   3.522  11.019  0.4816 -0.0893  0.0268
 9466SOL    HW139860   1.352   3.450  10.960 -1.8752  1.8206 -1.3837
 9466SOL    HW239861   1.342   3.595  10.966  0.7391 -0.9853 -1.3885
 9467SOL     OW39862   1.195   2.321   4.477  0.0869  0.7572  0.7738
 9467SOL    HW139863   1.190   2.370   4.560 -1.6085 -1.2104  1.8542
 9467SOL    HW239864   1.259   2.255   4.503  1.8462  1.5855 -1.4919
 9468SOL     OW39865   2.465   4.315   6.227 -0.5322 -0.3652  0.0926
 9468SOL    HW139866   2.490   4.273   6.309  0.5802  1.4880  0.6903
 9468SOL    HW239867   2.380   4.356   6.243 -0.6783  0.1744 -1.9868
 9469SOL     OW39868   0.896   3.297   7.053  0.4254  0.3094 -0.0406
 9469SOL    HW139869   0.905   3.341   7.138  1.0600  1.3753 -0.6692
 9469SOL    HW239870   0.906   3.372   6.994 -1.3359 -0.0167 -0.7542
 9470SOL     OW39871   4.401   3.851   4.170 -0.8041 -0.1246  0.1549
 9470SOL    HW139872   4.318   3.804   4.160 -1.3657  0.9117 -0.0730
 9470SOL    HW239873   4.456   3.814   4.102 -0.3686 -1.3399  1.1908
 9471SOL     OW39874   1.900   1.343   2.386 -0.1030  0.3479 -0.3509
 9471SOL    HW139875   1.975   1.382   2.341 -0.6363 -1.8902 -3.1797
 9471SOL    HW239876   1.844   1.301   2.321 -0.4400 -2.7880  1.9814
 9472SOL     OW39877   2.796   1.217   0.327  0.2258 -0.3915 -0.0608
 9472SOL    HW139878   2.775   1.154   0.396  0.5785  0.1827  0.5706
 9472SOL    HW239879   2.783   1.167   0.246  0.4377 -1.0617  0.3229
 9473SOL     OW39880   2.828   3.402   2.430 -0.0093  0.2192 -0.2326
 9473SOL    HW139881   2.742   3.393   2.472 -0.3933 -0.1660 -1.0900
 9473SOL    HW239882   2.826   3.318   2.384 -0.3824  0.4948 -0.7282
 9474SOL     OW39883   0.779   0.762   7.096 -0.4898  0.1362  0.2548
 9474SOL    HW139884   0.845   0.826   7.067  0.7889 -0.9548  0.7476
 9474SOL    HW239885   0.814   0.678   7.066  2.4220  1.2155  0.5690
 9475SOL     OW39886   2.125   3.701  10.260 -0.2003 -0.0172 -0.0948
 9475SOL    HW139887   2.115   3.771  10.196 -4.1787  0.7878  1.3622
 9475SOL    HW239888   2.050   3.646  10.238  0.1877 -0.6586  0.1968
 9476SOL     OW39889   2.946   4.349  15.506  0.0396  0.3286  0.2931
 9476SOL    HW139890   2.870   4.399  15.536 -1.7998 -1.8698 -0.6825
 9476SOL    HW239891   2.919   4.332  15.416  1.4953 -0.7456  0.0578
 9477SOL     OW39892   1.480   3.698   4.707  0.2097  0.0987  0.1004
 9477SOL    HW139893   1.509   3.789   4.714 -0.2671  0.3040 -0.6292
 9477SOL    HW239894   1.563   3.658   4.681  1.4349  1.6331  1.7248
 9478SOL     OW39895   1.782   2.360  10.591 -0.3026  0.5174  0.0080
 9478SOL    HW139896   1.832   2.399  10.662  2.2059 -1.9175 -0.4325
 9478SOL    HW239897   1.808   2.268  10.597  0.9349  1.0986  3.7184
 9479SOL     OW39898   1.368   2.311  17.091 -0.0482 -0.2412  0.7061
 9479SOL    HW139899   1.275   2.300  17.072 -0.2082  0.9003  0.8327
 9479SOL    HW239900   1.381   2.217  17.104 -0.3320 -0.5118 -0.9881
 9480SOL     OW39901   2.178   4.651   1.679  0.4655 -0.2035  0.1676
 9480SOL    HW139902   2.180   4.632   1.585  1.0307  3.3645 -0.5249
 9480SOL    HW239903   2.239   4.583   1.708  0.3117 -0.6139 -0.4499
 9481SOL     OW39904   2.641   3.226   4.184  0.7000 -0.1700  0.1357
 9481SOL    HW139905   2.654   3.186   4.270  1.3027 -3.0692 -1.2822
 9481SOL    HW239906   2.594   3.306   4.205  1.6462  0.3714  0.1932
 9482SOL     OW39907   3.620   1.711   5.580 -0.0509 -0.0122 -0.3559
 9482SOL    HW139908   3.525   1.702   5.587  0.3295 -1.5851  2.9107
 9482SOL    HW239909   3.639   1.804   5.579 -1.1264  0.2223  0.9216
 9483SOL     OW39910   0.241   2.848   3.835 -0.6921  0.0285  0.2202
 9483SOL    HW139911   0.235   2.815   3.745 -2.1091 -0.1252  0.3679
 9483SOL    HW239912   0.218   2.940   3.821  1.1204  0.4910  0.3026
 9484SOL     OW39913   1.985   2.081   5.867 -0.2334 -0.6177 -0.3832
 9484SOL    HW139914   1.982   2.120   5.955 -0.3237  0.4969 -0.8814
 9484SOL    HW239915   1.895   2.058   5.845 -0.7445  1.5599 -0.5224
 9485SOL     OW39916   1.997   1.969  12.811  0.2946  0.0331 -0.1370
 9485SOL    HW139917   2.088   1.953  12.785  0.1673 -0.1270 -0.4860
 9485SOL    HW239918   1.968   2.038  12.752  0.0206  0.3769  0.3997
 9486SOL     OW39919   2.387   2.232   8.084  0.2891 -0.2378  0.0303
 9486SOL    HW139920   2.305   2.272   8.113  1.2731  0.7330  1.4582
 9486SOL    HW239921   2.376   2.143   8.118 -0.0933 -1.1018 -2.3762
 9487SOL     OW39922   0.615   2.871   8.734  0.5262 -0.0410  0.1635
 9487SOL    HW139923   0.674   2.894   8.806 -0.2010  0.5519  0.5770
 9487SOL    HW239924   0.636   2.933   8.665  2.0988  0.9512  1.5194
 9488SOL     OW39925   2.265   3.273   6.378 -0.3975  0.2407 -0.1065
 9488SOL    HW139926   2.244   3.333   6.305 -0.5604  0.6842  0.3020
 9488SOL    HW239927   2.271   3.189   6.333  1.4909  0.4481 -0.2139
 9489SOL     OW39928   0.090   0.167   4.938 -0.5531  0.0996  0.3317
 9489SOL    HW139929   0.176   0.137   4.968  0.3927  2.5393  0.0693
 9489SOL    HW239930   0.085   0.110   4.861 -0.7896 -0.2688  0.6183
 9490SOL     OW39931   2.125   3.636   3.760  0.7410  0.3630  0.5648
 9490SOL    HW139932   2.087   3.681   3.836 -1.0490  2.6444 -1.6948
 9490SOL    HW239933   2.176   3.565   3.800 -0.0720  0.0779  1.1092
 9491SOL     OW39934   4.620   1.303   4.343  0.0494 -0.3325  0.2791
 9491SOL    HW139935   4.681   1.324   4.271  0.6329  1.9697  1.4488
 9491SOL    HW239936   4.673   1.284   4.420 -0.6675 -0.5744  0.7013
 9492SOL     OW39937   4.663   1.461   8.183 -0.5618 -0.2336 -0.5871
 9492SOL    HW139938   0.003   1.445   8.251  0.5077 -1.2183 -1.8380
 9492SOL    HW239939   4.721   1.470   8.107 -0.7309  1.5214 -0.5187
 9493SOL     OW39940   2.450   4.608  14.105 -0.3757 -0.1968  0.2107
 9493SOL    HW139941   2.433   4.585  14.013  0.9118 -2.6332  0.5830
 9493SOL    HW239942   2.491   4.693  14.090 -2.4471  0.7417 -0.1272
 9494SOL     OW39943   0.547   2.305   4.907 -0.5590  0.8616  0.4211
 9494SOL    HW139944   0.475   2.356   4.869 -1.2824 -0.6959 -0.3268
 9494SOL    HW239945   0.612   2.373   4.927  0.4016  0.7921 -2.3873
 9495SOL     OW39946   1.996   2.243   2.691 -0.9148 -0.6942  0.3351
 9495SOL    HW139947   1.917   2.240   2.745 -0.2328 -0.5225  1.3433
 9495SOL    HW239948   2.025   2.334   2.701 -2.8582 -0.0291 -0.0697
 9496SOL     OW39949   0.746   1.685  15.603  0.3224 -0.1793 -0.3672
 9496SOL    HW139950   0.807   1.732  15.660  0.1622  1.0717 -1.2241
 9496SOL    HW239951   0.785   1.598  15.597  2.9583  1.0611 -1.6370
 9497SOL     OW39952   1.140   1.120   7.191 -0.6062 -0.0040  0.0380
 9497SOL    HW139953   1.083   1.181   7.238 -0.0843 -0.2091  0.9431
 9497SOL    HW239954   1.223   1.134   7.237  0.2093  0.1230 -1.4805
 9498SOL     OW39955   1.122   0.049   9.309 -0.7464  0.1611  0.2101
 9498SOL    HW139956   1.191   0.046   9.243 -2.5526 -1.0344 -1.6065
 9498SOL    HW239957   1.049   0.077   9.254  0.4722 -1.4006 -2.1763
 9499SOL     OW39958   2.281   0.273   4.641  0.6127  0.4579  0.0561
 9499SOL    HW139959   2.330   0.285   4.722 -0.2348  1.7511  0.3830
 9499SOL    HW239960   2.229   0.354   4.643  0.9540  0.6695  0.3715
 9500SOL     OW39961   4.522   3.603  14.485 -0.3221  0.1493  0.3643
 9500SOL    HW139962   4.500   3.528  14.541 -0.7410  0.6123  0.8173
 9500SOL    HW239963   4.456   3.588  14.417  0.6934 -1.7430 -0.2286
 9501SOL     OW39964   2.068   0.336   5.995  0.3768  0.4272  0.7556
 9501SOL    HW139965   2.012   0.380   5.930  0.1698 -0.7353  0.1356
 9501SOL    HW239966   2.098   0.408   6.051 -1.9345  1.4328  0.7088
 9502SOL     OW39967   4.314   1.792   7.955  0.1794 -0.1989 -0.4272
 9502SOL    HW139968   4.382   1.749   8.007  1.6602  2.2761 -0.2919
 9502SOL    HW239969   4.309   1.732   7.881 -0.3467 -0.3091 -0.3018
 9503SOL     OW39970   2.785   2.100  13.265  0.5247  0.4288  0.0147
 9503SOL    HW139971   2.801   2.035  13.333  1.5919 -0.0597 -0.7158
 9503SOL    HW239972   2.831   2.048  13.200  0.3583 -0.9722  1.0233
 9504SOL     OW39973   0.891   3.392   8.370 -0.1233  1.0419 -0.0117
 9504SOL    HW139974   0.897   3.373   8.464  0.5638  2.9260  0.3324
 9504SOL    HW239975   0.918   3.484   8.367 -0.0241  0.9406 -1.7273
 9505SOL     OW39976   1.331   4.529   3.774 -0.0157 -0.5446 -0.2695
 9505SOL    HW139977   1.305   4.602   3.830  1.6748  0.3480 -0.6485
 9505SOL    HW239978   1.346   4.460   3.837 -0.0602 -0.1246  0.2016
 9506SOL     OW39979   4.316   0.404  11.678 -0.0467  0.3791  0.0662
 9506SOL    HW139980   4.349   0.494  11.682  0.4831  0.2805 -2.7439
 9506SOL    HW239981   4.226   0.412  11.646 -0.4332 -1.0709  0.7722
 9507SOL     OW39982   2.671   4.492  13.229 -0.0960  0.3789 -0.5034
 9507SOL    HW139983   2.654   4.401  13.207 -1.4445  0.6720 -0.7453
 9507SOL    HW239984   2.589   4.519  13.187 -1.1782  0.9362  1.9784
 9508SOL     OW39985   2.595   4.145   4.700  0.0384  0.0268  0.0902
 9508SOL    HW139986   2.581   4.050   4.697  1.7174 -0.2910  1.7956
 9508SOL    HW239987   2.659   4.154   4.629 -0.6106  1.0448 -0.3561
 9509SOL     OW39988   4.509   3.305  17.078 -0.3395 -0.1247 -0.0235
 9509SOL    HW139989   4.572   3.249  17.034  1.3883 -0.7694  3.2858
 9509SOL    HW239990   4.559   3.354  17.143  0.3265 -1.4525  0.4563
 9510SOL     OW39991   3.535   2.866  13.495  0.2129  0.0188 -0.0357
 9510SOL    HW139992   3.534   2.815  13.414  0.1844 -0.3600  0.2020
 9510SOL    HW239993   3.627   2.865  13.523 -0.4366 -4.1178  1.9999
 9511SOL     OW39994   2.889   2.752   6.727  0.5817  0.0976 -0.0811
 9511SOL    HW139995   2.924   2.840   6.738 -1.0092  0.6586  0.5992
 9511SOL    HW239996   2.828   2.757   6.654 -0.1372 -1.1276  0.4344
 9512SOL     OW39997   4.386   4.356  11.612 -0.2486 -0.3372 -0.6351
 9512SOL    HW139998   4.301   4.319  11.633  0.7190 -2.6052 -0.6889
 9512SOL    HW239999   4.384   4.340  11.518 -0.5111  1.0719 -0.8653
 9513SOL     OW40000   4.565   0.303   7.959 -0.1357  0.2031 -0.2627
 9513SOL    HW140001   4.553   0.308   7.864  1.6674  0.6533 -0.4664
 9513SOL    HW240002   4.520   0.381   7.992  0.9328  0.0053  1.6202
 9514SOL     OW40003   0.593   3.115   2.303 -0.2256 -0.1406 -0.4502
 9514SOL    HW140004   0.532   3.182   2.332  1.7714  3.0125 -3.4824
 9514SOL    HW240005   0.605   3.127   2.209  0.2531  0.3341 -0.3288
 9515SOL     OW40006   3.639   3.778  12.819  0.6936 -0.2636  0.4206
 9515SOL    HW140007   3.546   3.801  12.812  1.0315  1.9087  2.6787
 9515SOL    HW240008   3.650   3.770  12.725 -0.5368  1.6671  0.0896
 9516SOL     OW40009   2.205   0.454  13.978 -0.6072  0.2801  0.4721
 9516SOL    HW140010   2.211   0.545  14.006 -0.2636  1.2069 -2.6102
 9516SOL    HW240011   2.116   0.445  14.013 -0.8601  0.6047 -0.0806
 9517SOL     OW40012   0.075   1.840   4.668  0.2010 -0.3939  0.7545
 9517SOL    HW140013   0.127   1.915   4.640 -1.3946  0.4531  0.0223
 9517SOL    HW240014   0.144   1.780   4.694 -0.3099 -1.4910 -0.3809
 9518SOL     OW40015   3.701   1.395   3.567  0.0227  0.4348 -0.3998
 9518SOL    HW140016   3.611   1.424   3.581 -0.2305 -0.9843  0.9454
 9518SOL    HW240017   3.741   1.467   3.518  0.2543 -0.6210 -1.7652
 9519SOL     OW40018   4.689   3.437   5.362  0.1178  0.3798 -0.0329
 9519SOL    HW140019   4.724   3.444   5.273  0.7628  0.7413  0.2484
 9519SOL    HW240020   0.008   3.355   5.383  0.2535  0.5356  0.2940
 9520SOL     OW40021   4.366   2.214   2.239 -0.2739  0.0462  0.1804
 9520SOL    HW140022   4.453   2.188   2.268  0.7027  1.8592 -1.1297
 9520SOL    HW240023   4.353   2.296   2.286  0.8166 -1.0108  2.3231
 9521SOL     OW40024   1.404   0.280   1.307 -0.4390 -0.3883  0.2458
 9521SOL    HW140025   1.498   0.279   1.288 -0.4922  1.2544 -0.1501
 9521SOL    HW240026   1.413   0.339   1.383 -0.2239 -0.0798 -0.0162
 9522SOL     OW40027   0.855   2.200  13.232  0.5964 -0.1416  0.2675
 9522SOL    HW140028   0.838   2.262  13.161  1.5259 -1.3574 -1.0156
 9522SOL    HW240029   0.951   2.205  13.229  0.5362  0.2286 -1.2023
 9523SOL     OW40030   4.114   1.749  11.896 -0.0071 -0.0422 -0.3786
 9523SOL    HW140031   4.064   1.797  11.830  0.8628  1.6880  0.2260
 9523SOL    HW240032   4.184   1.711  11.843  1.2460 -2.4203  2.9573
 9524SOL     OW40033   2.241   4.112  14.544 -0.6695 -0.8510 -0.1077
 9524SOL    HW140034   2.192   4.174  14.599  0.2858 -0.0379 -0.1745
 9524SOL    HW240035   2.242   4.157  14.459  0.2211  1.4854  1.1262
 9525SOL     OW40036   1.596   3.196   3.366  0.1157 -0.0264  0.2971
 9525SOL    HW140037   1.502   3.177   3.362  0.3283 -0.6790 -1.6466
 9525SOL    HW240038   1.592   3.278   3.316  0.0471 -0.2323 -0.0390
 9526SOL     OW40039   3.605   3.453   5.714  0.1130  0.5633  0.1126
 9526SOL    HW140040   3.562   3.479   5.632  0.2607 -1.4598 -0.6211
 9526SOL    HW240041   3.693   3.483   5.692  0.6774 -1.2515 -0.1537
 9527SOL     OW40042   4.069   4.651  16.940  0.0213 -0.7376 -0.5811
 9527SOL    HW140043   4.043   4.581  17.000 -1.2575 -0.8299 -1.2494
 9527SOL    HW240044   4.104   4.711  17.006 -4.8486  0.4601  0.8773
 9528SOL     OW40045   2.893   1.286  13.536  0.1690 -0.0595  0.1655
 9528SOL    HW140046   2.930   1.200  13.554  0.7392 -0.6076 -3.5718
 9528SOL    HW240047   2.957   1.329  13.479 -1.8031 -0.6974 -2.5765
 9529SOL     OW40048   1.041   4.233   2.400  0.1186 -0.1278  0.5992
 9529SOL    HW140049   0.956   4.224   2.358  0.8692  0.5470 -1.0628
 9529SOL    HW240050   1.090   4.160   2.362 -0.2393  0.5274 -1.0881
 9530SOL     OW40051   4.504   0.425   7.064  0.3543 -0.1322  0.0705
 9530SOL    HW140052   4.486   0.408   6.971  1.7717 -2.6700  0.2638
 9530SOL    HW240053   4.562   0.501   7.065  0.6923 -0.3935  0.0741
 9531SOL     OW40054   2.780   2.470  16.749 -0.3910 -0.1085 -0.1641
 9531SOL    HW140055   2.754   2.379  16.735  1.4256 -0.7797  0.7778
 9531SOL    HW240056   2.874   2.460  16.764 -0.7526 -0.8273  1.6277
 9532SOL     OW40057   0.721   2.005   7.405  0.4576  0.0488  0.2710
 9532SOL    HW140058   0.720   1.943   7.478  1.1087  0.2501  0.4508
 9532SOL    HW240059   0.629   2.009   7.380  0.3768  1.5882  0.8267
 9533SOL     OW40060   1.093   2.917   7.583 -0.6965 -0.3893 -0.7114
 9533SOL    HW140061   1.086   2.823   7.598 -1.7030 -0.1789  0.0917
 9533SOL    HW240062   1.022   2.958   7.631 -1.8831 -2.4185 -0.7364
 9534SOL     OW40063   1.434   3.455   7.721 -0.1674  0.3160 -0.4269
 9534SOL    HW140064   1.340   3.465   7.703 -0.1186  1.1240 -0.2254
 9534SOL    HW240065   1.440   3.368   7.762 -0.6995 -0.0411 -1.1149
 9535SOL     OW40066   1.582   3.376   1.248  0.4633  0.1160  0.0768
 9535SOL    HW140067   1.568   3.336   1.334  0.3797  1.7129  0.7983
 9535SOL    HW240068   1.562   3.306   1.186  0.0621 -1.2276  1.7376
 9536SOL     OW40069   0.381   2.719   7.539  0.0467  0.3957  0.3109
 9536SOL    HW140070   0.431   2.753   7.613 -2.7369  1.3551  1.7756
 9536SOL    HW240071   0.408   2.628   7.539 -2.3082 -0.3237  2.1797
 9537SOL     OW40072   1.929   2.485  17.656  0.0834  0.5260 -0.4144
 9537SOL    HW140073   1.979   2.404  17.646  0.3931  0.5258  1.1294
 9537SOL    HW240074   1.838   2.461  17.671 -0.3368  1.9469 -0.6812
 9538SOL     OW40075   2.237   0.246   8.456  0.1897 -0.0722  0.1021
 9538SOL    HW140076   2.278   0.168   8.420  1.6598  0.2689  1.0265
 9538SOL    HW240077   2.255   0.310   8.387  0.7189 -0.4556 -0.1116
 9539SOL     OW40078   4.282   4.050   6.971 -0.0960 -0.2314  0.0130
 9539SOL    HW140079   4.366   4.014   7.001 -0.2307 -0.6846 -0.1466
 9539SOL    HW240080   4.277   4.013   6.882 -0.1140  1.6682 -0.7758
 9540SOL     OW40081   0.304   1.048  13.094  0.2182  0.4615 -0.0149
 9540SOL    HW140082   0.224   1.046  13.042 -0.4733 -2.1069  1.1344
 9540SOL    HW240083   0.301   1.118  13.159 -1.2691  1.2059 -0.9060
 9541SOL     OW40084   2.858   3.762   6.306  0.3869  0.2862  0.6747
 9541SOL    HW140085   2.847   3.693   6.241 -1.0653  1.0514  0.1077
 9541SOL    HW240086   2.928   3.724   6.360  0.1954 -1.1264 -0.0584
 9542SOL     OW40087   0.248   2.618   4.708 -0.4937 -0.6738  0.2475
 9542SOL    HW140088   0.183   2.557   4.672  0.0043  0.0771 -1.8974
 9542SOL    HW240089   0.286   2.654   4.628 -0.2112 -0.2007  0.5944
 9543SOL     OW40090   1.774   3.201   4.345 -0.3881 -0.0820 -0.3274
 9543SOL    HW140091   1.757   3.113   4.377 -0.1733 -0.1763 -0.4788
 9543SOL    HW240092   1.838   3.176   4.279  0.5545 -0.5661  0.7776
 9544SOL     OW40093   3.064   0.976  17.537 -0.0496  0.1788  0.2697
 9544SOL    HW140094   3.115   1.057  17.544 -0.7625  0.6763 -0.3226
 9544SOL    HW240095   3.129   0.910  17.561 -1.5910 -1.6012 -0.5410
 9545SOL     OW40096   0.450   1.431   6.101  0.0232  0.0866  0.5346
 9545SOL    HW140097   0.370   1.387   6.070  2.0400 -4.6262  2.0184
 9545SOL    HW240098   0.476   1.373   6.173  0.5325 -1.1845 -0.6519
 9546SOL     OW40099   3.905   3.201   2.157 -0.1019 -0.0493  0.3187
 9546SOL    HW140100   3.992   3.185   2.120  0.3556 -0.0117  1.3640
 9546SOL    HW240101   3.854   3.175   2.080  1.5569  1.5732 -1.3243
 9547SOL     OW40102   4.524   0.810   9.396  0.0591 -0.3206  0.3169
 9547SOL    HW140103   4.504   0.904   9.387  0.6822 -0.3017 -0.8836
 9547SOL    HW240104   4.584   0.804   9.322  0.9415 -0.3897  1.0522
 9548SOL     OW40105   1.188   1.082   5.779 -0.6558 -0.1519  0.1027
 9548SOL    HW140106   1.170   1.040   5.694 -0.7755  0.2865 -0.0918
 9548SOL    HW240107   1.104   1.062   5.821 -0.6381 -1.9335 -0.6981
 9549SOL     OW40108   0.728   0.773   3.877  0.0449 -0.2264 -0.2285
 9549SOL    HW140109   0.779   0.712   3.931  2.1759  2.0780  0.3874
 9549SOL    HW240110   0.658   0.725   3.834 -0.0108  0.2999 -0.7175
 9550SOL     OW40111   0.733   3.315   4.122 -0.0707  0.3019 -0.0914
 9550SOL    HW140112   0.775   3.256   4.059  0.9207 -0.3707  1.1969
 9550SOL    HW240113   0.805   3.372   4.150 -0.1197 -0.5379  1.7409
 9551SOL     OW40114   1.745   2.257   9.495  0.2168  0.0967  0.5547
 9551SOL    HW140115   1.835   2.230   9.480 -1.0442 -2.6059 -2.2703
 9551SOL    HW240116   1.749   2.345   9.456 -0.9465 -0.3062 -0.4898
 9552SOL     OW40117   0.591   2.382   0.557 -0.1822 -0.2305 -0.1406
 9552SOL    HW140118   0.600   2.313   0.490 -0.9672 -0.0777 -0.3961
 9552SOL    HW240119   0.673   2.364   0.603  0.0153 -0.0443 -0.4126
 9553SOL     OW40120   1.379   2.266  16.742  1.0164  0.4352 -0.6196
 9553SOL    HW140121   1.399   2.183  16.699 -1.1342 -0.6360  0.4255
 9553SOL    HW240122   1.292   2.253  16.781  1.7598 -0.7694  0.6118
 9554SOL     OW40123   3.409   1.906  17.044 -0.2920 -0.5703  0.4698
 9554SOL    HW140124   3.352   1.934  17.115  1.6184 -1.7509  2.4514
 9554SOL    HW240125   3.369   1.964  16.979  0.2652 -0.0753  0.5743
 9555SOL     OW40126   1.802   2.425   3.049  0.0630  0.0703  0.8157
 9555SOL    HW140127   1.723   2.465   3.086 -0.7407  1.0870 -2.0176
 9555SOL    HW240128   1.874   2.454   3.105  1.5343 -1.6100 -0.2086
 9556SOL     OW40129   1.029   2.846   2.129  0.2311 -0.1580  0.0785
 9556SOL    HW140130   1.097   2.911   2.117  1.9884 -1.8730  0.8131
 9556SOL    HW240131   0.952   2.889   2.092  0.7548  1.2901  0.7045
 9557SOL     OW40132   2.700   3.863   2.384  0.1964 -0.3675 -0.3140
 9557SOL    HW140133   2.615   3.825   2.405  1.0299 -2.2007 -0.2622
 9557SOL    HW240134   2.731   3.899   2.467  0.5628  1.1558 -1.1133
 9558SOL     OW40135   2.685   2.585   7.634 -0.2495 -0.1305 -0.4016
 9558SOL    HW140136   2.666   2.496   7.661 -0.5704  0.0989  0.1133
 9558SOL    HW240137   2.765   2.575   7.582  1.1272 -0.9441  1.9039
 9559SOL     OW40138   4.406   0.488   5.348  0.2253  0.2114  0.8279
 9559SOL    HW140139   4.472   0.437   5.301 -0.0625  1.7465 -1.2050
 9559SOL    HW240140   4.326   0.447   5.314 -1.3498  3.7707  0.2636
 9560SOL     OW40141   2.925   0.890   7.386 -0.3554  0.0964 -0.0264
 9560SOL    HW140142   2.936   0.924   7.475 -1.3441 -0.4194  0.2897
 9560SOL    HW240143   2.970   0.806   7.384  1.4653  1.0555  0.8784
 9561SOL     OW40144   2.326   2.168   4.140 -0.2444  0.3884  0.5171
 9561SOL    HW140145   2.271   2.175   4.218  1.3248  1.5596  1.5247
 9561SOL    HW240146   2.266   2.206   4.076  0.3627  0.6446  0.1071
 9562SOL     OW40147   3.707   1.437   9.289  0.0770 -0.0158  0.1151
 9562SOL    HW140148   3.702   1.366   9.226 -0.9572 -0.3165  0.5341
 9562SOL    HW240149   3.651   1.402   9.359  0.0228 -1.3260 -0.5870
 9563SOL     OW40150   2.672   2.190   2.764  0.0662 -0.0513 -0.6705
 9563SOL    HW140151   2.747   2.237   2.800 -0.1145  1.5347 -2.3972
 9563SOL    HW240152   2.673   2.217   2.672  1.3576 -2.8293 -1.5034
 9564SOL     OW40153   3.627   3.322   5.016 -0.0851  0.0063  0.5961
 9564SOL    HW140154   3.668   3.247   4.974  0.2894  0.0415  0.8914
 9564SOL    HW240155   3.548   3.325   4.962  0.6091  1.9072 -0.3253
 9565SOL     OW40156   0.549   0.996   9.632  0.1081  0.2524 -0.3447
 9565SOL    HW140157   0.576   1.087   9.621 -0.3213  0.5958  1.4747
 9565SOL    HW240158   0.468   1.007   9.582 -1.1680  2.3618  2.1949
 9566SOL     OW40159   4.074   2.551  13.601 -0.0139 -0.0259  0.1234
 9566SOL    HW140160   4.130   2.626  13.620  0.5608 -0.3036 -0.4296
 9566SOL    HW240161   4.128   2.500  13.540 -1.8963 -1.0244 -0.7051
 9567SOL     OW40162   2.384   3.439   1.668  0.4035  0.6376  0.1339
 9567SOL    HW140163   2.296   3.440   1.630  0.6790 -1.3014 -0.5469
 9567SOL    HW240164   2.442   3.452   1.593 -0.9195  0.3744 -0.9388
 9568SOL     OW40165   2.140   1.170   8.511 -0.5664  0.5228  0.1914
 9568SOL    HW140166   2.115   1.146   8.600  0.1918  2.3041  0.8813
 9568SOL    HW240167   2.073   1.236   8.495  0.7753  2.2038  1.4515
   4.72514   4.72514  17.70194
