Membrane in water
40167
    1TCq1    O1    1   2.677   4.472  11.959 -0.3743 -0.0597 -0.3812
    1TCq1    C1    2   2.554   4.529  11.974  0.9486 -0.6854 -1.0012
    1TCq1    O2    3   2.521   4.595  12.072 -0.1642  0.3745 -0.6252
    1TCq1    C2    4   2.483   4.524  11.851  0.1101  0.3225  0.6421
    1TCq1    C3    5   2.553   4.544  11.733  0.7941  0.1993 -0.1008
    1TCq1    C4    6   2.484   4.550  11.618 -0.0205  0.5451  0.5254
    1TCq1    C5    7   2.344   4.530  11.612 -0.0801  0.1216  0.3910
    1TCq1    C6    8   2.277   4.513  11.730  0.4616  0.2745 -0.0186
    1TCq1    C7    9   2.341   4.503  11.853 -0.0861  0.5813 -0.0275
    1TCq1    C8   10   2.144   4.451  11.728  0.4987  0.2239  0.0836
    1TCq1    O4   11   2.069   4.490  11.814 -0.3389 -0.2796  0.1444
    1TCq1    C9   12   2.551   4.560  11.490 -0.3339 -0.7669  0.4482
    1TCq1    O5   13   2.673   4.591  11.500  0.6309 -0.4318 -0.4050
    1TCq1    O6   14   2.481   4.527  11.388 -0.1972  0.0390 -0.1650
    1TCq1    H1   15   2.692   4.434  11.869 -0.5151  1.3828 -1.0005
    1TCq1    H2   16   2.657   4.570  11.745  0.0241  2.4171  1.9193
    1TCq1    H3   17   2.296   4.552  11.518  1.3105 -1.5782 -0.7175
    1TCq1    H4   18   2.289   4.486  11.946 -0.5256  1.4985 -0.1043
    2MPD2     C   19   1.807   4.164  11.478 -0.5410 -0.7479  0.3476
    2MPD2    C1   20   1.795   4.229  11.593  0.6416 -0.0983  0.0488
    2MPD2    C2   21   1.904   4.303  11.645 -0.0328 -0.0120  0.3586
    2MPD2    C3   22   2.024   4.285  11.582 -0.1038  0.0526  0.1686
    2MPD2    C4   23   2.034   4.214  11.464 -0.5306 -0.0551 -0.5909
    2MPD2    C5   24   1.927   4.158  11.407  0.2320  0.4517  0.0536
    2MPD2     H   25   1.890   4.358  11.738  0.8194 -0.7783  0.9386
    2MPD2    H1   26   2.129   4.194  11.415 -0.4467 -0.5935 -0.2096
    2MPD2    H2   27   1.739   4.095  11.429  0.0545 -2.1434  1.5008
    2MPD2    H3   28   1.941   4.096  11.320 -1.1780 -0.2335  0.3077
    2MPD2     N   29   2.144   4.348  11.630 -0.6494  0.1219 -0.1972
    2MPD2    H5   30   2.229   4.335  11.575  0.9177 -1.6598  2.6120
    2MPD2    N1   31   1.677   4.226  11.667 -0.1967  0.0933 -0.4257
    2MPD2    H7   32   1.671   4.293  11.742 -6.2600 -2.3475  1.2785
    3TCq1    O1   33   0.350   4.323  11.109 -0.5904 -0.3750 -0.2095
    3TCq1    C1   34   0.473   4.300  11.173  0.5840  0.1556  0.1647
    3TCq1    O2   35   0.485   4.207  11.250  0.2902 -0.2461 -0.0716
    3TCq1    C2   36   0.543   4.431  11.197  0.4975 -0.6945 -0.0022
    3TCq1    C3   37   0.633   4.431  11.298  0.4414 -0.1348  0.4438
    3TCq1    C4   38   0.698   4.547  11.334 -0.9193  0.3136  1.2409
    3TCq1    C5   39   0.673   4.659  11.270 -0.4747  0.1505  0.0671
    3TCq1    C6   40   0.575   4.663  11.174 -1.0285  0.1673 -0.1198
    3TCq1    C7   41   0.512   4.549  11.127  0.9519 -0.6468  0.1836
    3TCq1    C8   42   0.555   0.057  11.098  0.7364  0.3178 -0.3509
    3TCq1    O4   43   0.523   0.055  10.983 -0.4377 -0.0877 -0.2041
    3TCq1    C9   44   0.784   4.546  11.451 -0.5465 -0.1934  0.1774
    3TCq1    O5   45   0.781   4.445  11.523 -0.1689 -0.2133 -0.1895
    3TCq1    O6   46   0.861   4.647  11.468  0.5636  0.0062  0.0615
    3TCq1    H1   47   0.348   4.394  11.041  0.7185  0.1585  0.3192
    3TCq1    H2   48   0.644   4.349  11.368 -0.2567 -0.6156 -0.0130
    3TCq1    H3   49   0.735   0.021  11.292  2.6430 -2.5344  1.6689
    3TCq1    H4   50   0.446   4.547  11.041 -1.8171  2.2331  2.2435
    4MPD2     C   51   0.590   0.575  11.071 -0.0115 -0.1526  0.1646
    4MPD2    C1   52   0.580   0.542  11.206  0.1614 -0.1223  0.2900
    4MPD2    C2   53   0.586   0.405  11.238 -0.0308  1.0798  0.3542
    4MPD2    C3   54   0.575   0.303  11.139  0.1162  0.8378 -0.2845
    4MPD2    C4   55   0.569   0.350  11.009  0.0802  0.5924  0.5352
    4MPD2    C5   56   0.588   0.477  10.978  1.0827  1.0424 -0.2620
    4MPD2     H   57   0.587   0.374  11.342  0.9451  0.2363  0.1008
    4MPD2    H1   58   0.560   0.277  10.930  0.4038 -0.1539  1.1857
    4MPD2    H2   59   0.598   0.672  11.025  1.3401 -0.0791  0.5446
    4MPD2    H3   60   0.586   0.517  10.877 -1.5583  0.2457 -0.5382
    4MPD2     N   61   0.571   0.167  11.185 -1.2002  0.8836  0.3926
    4MPD2    H5   62   0.592   0.145  11.282  1.4000 -0.7242 -0.5334
    4MPD2    N1   63   0.564   0.637  11.311  0.3220  0.0911 -0.1394
    4MPD2    H7   64   0.539   0.602  11.402  0.2021 -0.5616 -0.4260
    5TCq1    O1   65   0.396   1.883  11.023 -0.5089  0.4471  0.5472
    5TCq1    C1   66   0.469   1.993  10.984  0.1522  0.1879  0.0317
    5TCq1    O2   67   0.464   2.035  10.874 -0.0595 -0.2184  0.3690
    5TCq1    C2   68   0.586   2.009  11.073 -0.2689  0.3341 -0.1265
    5TCq1    C3   69   0.576   2.021  11.210  0.5662 -0.7800  0.1778
    5TCq1    C4   70   0.699   2.036  11.274  0.0723  0.1115 -0.0151
    5TCq1    C5   71   0.816   2.039  11.205  0.5113 -0.1270 -0.2083
    5TCq1    C6   72   0.816   2.023  11.069  0.1062  0.5964 -1.1383
    5TCq1    C7   73   0.699   2.009  11.004 -0.4267  0.4934  0.0895
    5TCq1    C8   74   0.941   2.014  11.001  0.4589  0.0627 -0.1437
    5TCq1    O4   75   0.953   1.929  10.914 -0.3823  0.4629  0.0040
    5TCq1    C9   76   0.700   2.027  11.415 -0.0702  0.4953  0.0492
    5TCq1    O5   77   0.592   1.982  11.464 -0.8171  0.0480  0.2961
    5TCq1    O6   78   0.803   2.038  11.475  0.2361  0.2187 -0.3449
    5TCq1    H1   79   0.425   1.853  11.112  0.0735 -1.3978 -0.2623
    5TCq1    H2   80   0.484   2.009  11.266  1.1834  1.5759  1.7012
    5TCq1    H3   81   0.912   2.042  11.256  0.0089  0.7126  0.6945
    5TCq1    H4   82   0.691   1.980  10.900 -0.3097 -2.1396  0.8010
    6MPD2     C   83   1.247   2.188  11.104 -0.8902 -0.3603  0.4255
    6MPD2    C1   84   1.173   2.096  11.034 -0.7619 -0.1730  0.1627
    6MPD2    C2   85   1.229   1.995  10.968 -1.0537 -0.3850 -0.2115
    6MPD2    C3   86   1.371   1.984  10.958 -0.7497  0.1549 -0.4241
    6MPD2    C4   87   1.448   2.077  11.027 -0.6186 -0.1812 -1.3198
    6MPD2    C5   88   1.382   2.177  11.094  0.4294  0.2398 -0.0233
    6MPD2     H   89   1.170   1.913  10.928 -1.0046 -0.8238  0.6260
    6MPD2    H1   90   1.556   2.079  11.027 -0.6332  0.7911 -0.8267
    6MPD2    H2   91   1.201   2.257  11.174 -2.6224 -2.4943  1.3797
    6MPD2    H3   92   1.446   2.244  11.150  3.9245 -1.1813 -2.3199
    6MPD2     N   93   1.414   1.868  10.893  0.5812 -0.0230 -0.4144
    6MPD2    H5   94   1.342   1.812  10.850  1.8855 -2.5278  0.6941
    6MPD2    N1   95   1.033   2.095  11.058 -0.2299  0.3987 -0.0886
    6MPD2    H7   96   1.001   2.171  11.117  1.3593  2.0858 -1.3863
    7TCq1    O1   97   4.475   1.616  13.631  0.3471  0.2151 -0.0760
    7TCq1    C1   98   4.408   1.503  13.629  0.3430  0.2012  0.0788
    7TCq1    O2   99   4.460   1.390  13.636 -0.1920 -0.2343  0.0921
    7TCq1    C2  100   4.271   1.534  13.631  0.4758 -0.4282  0.6878
    7TCq1    C3  101   4.225   1.655  13.682  0.1117  0.0314  0.4500
    7TCq1    C4  102   4.088   1.676  13.681  0.6820  0.2199  0.0518
    7TCq1    C5  103   3.997   1.585  13.640 -0.4643 -0.7041 -0.1830
    7TCq1    C6  104   4.053   1.466  13.595  0.0410  0.4413  1.0001
    7TCq1    C7  105   4.188   1.432  13.600  0.1859  0.0314  0.1944
    7TCq1    C8  106   3.954   1.382  13.527 -0.1407 -0.9864  0.7333
    7TCq1    O4  107   3.838   1.408  13.560 -0.2735  0.0039 -0.4130
    7TCq1    C9  108   4.041   1.803  13.727 -0.0243  0.0529  0.6482
    7TCq1    O5  109   3.921   1.820  13.747 -0.6362  0.3322  0.3820
    7TCq1    O6  110   4.131   1.882  13.775 -0.0129  0.2606 -0.1051
    7TCq1    H1  111   4.422   1.689  13.593 -0.9772 -1.9906 -2.4217
    7TCq1    H2  112   4.283   1.740  13.715  0.1881  0.4573 -0.7683
    7TCq1    H3  113   3.893   1.611  13.629 -0.6507 -1.3019  0.1540
    7TCq1    H4  114   4.228   1.340  13.560  2.3888  0.5614  1.1321
    8MPD2     C  115   3.768   1.006  13.243 -0.2462 -0.4196 -0.3141
    8MPD2    C1  116   3.711   1.085  13.340 -0.1733  0.2587 -0.3064
    8MPD2    C2  117   3.787   1.180  13.398 -0.9044 -0.3792  0.3239
    8MPD2    C3  118   3.921   1.180  13.383 -0.5698 -0.2502  0.2107
    8MPD2    C4  119   3.985   1.082  13.306  0.1554 -0.4719 -0.3655
    8MPD2    C5  120   3.902   1.002  13.232 -0.0014  0.2763  0.1652
    8MPD2     H  121   3.736   1.261  13.449  0.8296  0.1488  1.2167
    8MPD2    H1  122   4.092   1.083  13.293  0.0570 -1.5665 -1.3147
    8MPD2    H2  123   3.710   0.934  13.186 -0.8337 -0.2583  0.0736
    8MPD2    H3  124   3.945   0.942  13.152 -3.3175  1.6773 -2.6798
    8MPD2     N  125   4.010   1.273  13.455 -1.1769  0.6834  0.1440
    8MPD2    H5  126   4.109   1.273  13.430 -1.6245  0.7821 -1.6234
    8MPD2    N1  127   3.571   1.066  13.361  0.1177 -0.2962  0.2236
    8MPD2    H7  128   3.519   0.996  13.308 -1.4347  1.8277 -1.0377
    9TCq1    O1  129   1.075   4.666  11.299 -0.7548 -0.3549 -0.9200
    9TCq1    C1  130   1.063   4.576  11.197  0.5615  0.1253  0.1759
    9TCq1    O2  131   0.970   4.517  11.148 -0.5113  0.0154  0.4980
    9TCq1    C2  132   1.199   4.533  11.177  0.0368 -0.5298  0.4279
    9TCq1    C3  133   1.219   4.420  11.121 -0.5432  0.6432  0.4031
    9TCq1    C4  134   1.330   4.396  11.049 -0.3421  0.2816  0.0214
    9TCq1    C5  135   1.428   4.494  11.039 -0.3026  0.3448  0.6014
    9TCq1    C6  136   1.418   4.605  11.119  0.4392  0.1880  0.2755
    9TCq1    C7  137   1.297   4.630  11.180 -0.4501 -0.3795 -0.7617
    9TCq1    C8  138   1.531   4.701  11.132 -0.1242  0.5126  0.4991
    9TCq1    O4  139   1.624   4.693  11.055  0.4683 -0.3381  0.5101
    9TCq1    C9  140   1.350   4.273  10.985  0.1273 -0.0627  0.0425
    9TCq1    O5  141   1.301   4.164  11.030  0.5379 -0.0952  0.0909
    9TCq1    O6  142   1.457   4.263  10.913  0.7963  0.0307 -0.4220
    9TCq1    H1  143   0.995   4.664  11.355 -1.4804  2.1096 -1.9094
    9TCq1    H2  144   1.153   4.341  11.156  0.4089 -1.1285 -1.7767
    9TCq1    H3  145   1.518   4.479  10.981 -0.6353 -2.6928  0.8593
    9TCq1    H4  146   1.284   0.011  11.201 -0.8275 -0.2393 -1.7233
   10MPD2     C  147   1.721   0.191  11.224  0.0287 -0.6495  0.2366
   10MPD2    C1  148   1.607   0.149  11.292 -0.3112 -0.2199  0.7237
   10MPD2    C2  149   1.578   0.210  11.417 -0.0539  0.1025  0.1910
   10MPD2    C3  150   1.662   0.301  11.476 -0.1776  0.1503 -0.0571
   10MPD2    C4  151   1.769   0.344  11.399  0.1908  0.2959  0.2540
   10MPD2    C5  152   1.802   0.290  11.277 -0.3346  1.1992  0.2742
   10MPD2     H  153   1.488   0.183  11.470 -1.1380 -1.0362 -2.2179
   10MPD2    H1  154   1.833   0.420  11.442  0.0955 -0.2413  1.3644
   10MPD2    H2  155   1.748   0.149  11.128 -1.0000 -1.9440  0.5129
   10MPD2    H3  156   1.885   0.334  11.222  0.2570 -0.0188  0.1818
   10MPD2     N  157   1.650   0.363  11.605 -0.1062  0.2643  0.0684
   10MPD2    H5  158   1.700   0.451  11.615  0.7668 -0.1774 -0.4406
   10MPD2    N1  159   1.517   0.048  11.249  0.4625 -0.2038  0.4021
   10MPD2    H7  160   1.440   0.032  11.313 -1.2188  0.3820 -1.4860
   11TCq1    O1  161   2.390   0.671  13.987  0.7115 -0.2204 -0.3500
   11TCq1    C1  162   2.356   0.661  14.116 -0.4067  0.5507 -0.1127
   11TCq1    O2  163   2.335   0.753  14.188 -0.0960  0.2632 -0.8485
   11TCq1    C2  164   2.262   0.549  14.125  0.0999 -0.1047 -0.2817
   11TCq1    C3  165   2.294   0.429  14.080 -0.2713 -0.1778  0.1428
   11TCq1    C4  166   2.223   0.320  14.124  0.3821 -0.3259 -0.2713
   11TCq1    C5  167   2.101   0.328  14.185 -0.2997  0.5305  0.1795
   11TCq1    C6  168   2.066   0.460  14.222 -0.3384 -0.1141  0.5453
   11TCq1    C7  169   2.141   0.571  14.195 -0.0997 -0.8150  0.0593
   11TCq1    C8  170   1.930   0.491  14.272  0.2587 -0.2778 -0.3328
   11TCq1    O4  171   1.894   0.605  14.306 -0.0655 -0.2597 -0.3325
   11TCq1    C9  172   2.267   0.193  14.084  0.0926  0.1215 -0.8120
   11TCq1    O5  173   2.191   0.095  14.112 -0.2381 -0.5891  0.0730
   11TCq1    O6  174   2.362   0.187  14.007 -0.2341  0.6435  0.6250
   11TCq1    H1  175   2.358   0.596  13.932 -0.1489 -0.4428  0.4451
   11TCq1    H2  176   2.389   0.426  14.027 -1.3393  3.3821 -2.0499
   11TCq1    H3  177   2.055   0.238  14.222 -1.4684  0.3131 -1.7702
   11TCq1    H4  178   2.119   0.667  14.239 -1.0866 -1.5245  1.1304
   12MPD2     C  179   1.625   0.481  14.284 -0.4502 -0.3408 -0.1951
   12MPD2    C1  180   1.710   0.366  14.270 -0.2081 -0.7654 -0.7224
   12MPD2    C2  181   1.657   0.239  14.271 -0.1993  0.3573  0.4274
   12MPD2    C3  182   1.517   0.227  14.289  0.4419 -0.3970 -0.4037
   12MPD2    C4  183   1.442   0.336  14.302 -0.2905  0.6566  0.5051
   12MPD2    C5  184   1.487   0.461  14.304 -0.5956 -0.6971  1.0586
   12MPD2     H  185   1.714   0.154  14.236 -2.2436 -0.1614 -1.6940
   12MPD2    H1  186   1.334   0.326  14.299 -0.3542  1.6990 -0.6123
   12MPD2    H2  187   1.666   0.580  14.273  0.5607 -0.8433 -1.0140
   12MPD2    H3  188   1.414   0.539  14.319 -0.9354 -0.9398  0.6902
   12MPD2     N  189   1.446   0.108  14.276  0.0402  0.3954  0.9585
   12MPD2    H5  190   1.350   0.120  14.245 -0.0722 -1.2589  0.6994
   12MPD2    N1  191   1.847   0.380  14.255  0.0529 -0.2634 -0.2648
   12MPD2    H7  192   1.897   0.295  14.231 -2.9272 -1.5773 -1.8315
   13TCq1    O1  193   2.212   0.100  11.394 -0.2838 -0.5973  0.1647
   13TCq1    C1  194   2.090   0.073  11.455 -0.0324 -0.3851  0.2569
   13TCq1    O2  195   2.043   0.127  11.559  0.0571 -0.0162  0.3958
   13TCq1    C2  196   2.031   4.677  11.402 -0.2504 -0.5530  0.0066
   13TCq1    C3  197   2.090   4.597  11.304  0.6592 -0.3532  0.5875
   13TCq1    C4  198   2.012   4.504  11.234 -0.3183  0.6657  0.2124
   13TCq1    C5  199   1.878   4.486  11.264  0.5983 -0.1765  0.9768
   13TCq1    C6  200   1.825   4.563  11.363 -0.7121 -0.3228  0.8628
   13TCq1    C7  201   1.895   4.657  11.428 -0.8212 -0.5017  0.0334
   13TCq1    C8  202   1.690   4.539  11.409  0.8340 -0.4509 -0.2031
   13TCq1    O4  203   1.650   4.603  11.506  0.1358  0.0917 -0.1126
   13TCq1    C9  204   2.069   4.423  11.124  0.2317 -0.8950  0.5352
   13TCq1    O5  205   2.194   4.409  11.125 -0.0388  0.2936  0.1961
   13TCq1    O6  206   1.994   4.364  11.043 -0.0371 -0.1558 -0.4190
   13TCq1    H1  207   2.239   0.054  11.312 -1.9483 -3.4691  1.1993
   13TCq1    H2  208   2.191   4.613  11.270 -0.3111  1.4242 -1.5015
   13TCq1    H3  209   1.819   4.425  11.196 -1.3023  3.5957 -0.7652
   13TCq1    H4  210   1.841   0.004  11.490 -0.4339 -0.1612 -0.0202
   14MPD2     C  211   1.474   4.242  11.341  1.0608  0.5241  0.0093
   14MPD2    C1  212   1.504   4.370  11.385 -0.2724 -0.1067 -0.1662
   14MPD2    C2  213   1.419   4.449  11.464  0.5101  0.1446 -0.5308
   14MPD2    C3  214   1.301   4.391  11.511 -0.4184 -0.5319 -0.4913
   14MPD2    C4  215   1.272   4.254  11.477 -0.1204  0.4722  0.5660
   14MPD2    C5  216   1.354   4.190  11.386  0.7402  0.2090 -0.2223
   14MPD2     H  217   1.442   4.554  11.477 -0.3013  0.2128  0.3656
   14MPD2    H1  218   1.184   4.205  11.518 -1.8654  0.9799 -2.6440
   14MPD2    H2  219   1.534   4.193  11.265  0.3861 -2.1989  1.2291
   14MPD2    H3  220   1.321   4.103  11.331  0.0203  0.5423 -0.3171
   14MPD2     N  221   1.219   4.474  11.594 -1.0101 -0.4323 -0.1013
   14MPD2    H5  222   1.250   4.569  11.614 -1.2771 -0.2374 -0.6176
   14MPD2    N1  223   1.632   4.428  11.346  0.3284 -0.1677  0.4266
   14MPD2    H7  224   1.702   4.385  11.286  2.1096  1.2993  1.4741
   15TCq1    O1  225   2.446   3.599   1.881  0.0695 -0.0457  0.6962
   15TCq1    C1  226   2.322   3.558   1.882  0.5178  0.0275 -0.6453
   15TCq1    O2  227   2.244   3.566   1.976 -0.3620 -0.0474  0.3271
   15TCq1    C2  228   2.278   3.552   1.744 -0.5044 -0.7808 -0.4618
   15TCq1    C3  229   2.143   3.575   1.727 -0.4237 -0.3041  0.5981
   15TCq1    C4  230   2.092   3.577   1.600  0.0070 -0.0153 -1.0580
   15TCq1    C5  231   2.180   3.558   1.491 -0.5047 -0.8374 -0.6055
   15TCq1    C6  232   2.316   3.536   1.511  0.0660  0.6358 -0.1742
   15TCq1    C7  233   2.367   3.530   1.636 -0.6714 -1.1772 -0.3084
   15TCq1    C8  234   2.410   3.528   1.397 -0.2628 -0.8657  0.4064
   15TCq1    O4  235   2.529   3.540   1.426 -0.2548  0.2397 -0.4870
   15TCq1    C9  236   1.955   3.610   1.569  0.2747 -1.2730 -0.4133
   15TCq1    O5  237   1.884   3.635   1.673  0.2321  0.1464  0.5938
   15TCq1    O6  238   1.930   3.621   1.443  0.4280 -0.1260  0.0918
   15TCq1    H1  239   2.489   3.579   1.795 -1.7252 -1.0729  0.0316
   15TCq1    H2  240   2.078   3.594   1.812 -0.0703  0.8184  0.6122
   15TCq1    H3  241   2.132   3.561   1.394  3.9330  0.1148 -2.7758
   15TCq1    H4  242   2.473   3.510   1.650 -0.7146  0.1032  1.8600
   16MPD2     C  243   2.341   3.487   1.036  0.3466 -0.5381 -0.0958
   16MPD2    C1  244   2.417   3.506   1.148 -0.4372  0.3067  0.7936
   16MPD2    C2  245   2.554   3.504   1.128  0.8028 -0.6586  0.7933
   16MPD2    C3  246   2.617   3.482   1.005 -0.0738 -0.1320 -0.1635
   16MPD2    C4  247   2.535   3.456   0.897  0.1237  0.4390 -0.7769
   16MPD2    C5  248   2.403   3.462   0.915  0.5485 -1.2421 -0.1083
   16MPD2     H  249   2.620   3.540   1.206 -0.2918  0.4664  1.1869
   16MPD2    H1  250   2.576   3.439   0.798 -0.7440  2.8432 -1.5388
   16MPD2    H2  251   2.234   3.470   1.041  0.1640  0.6190 -0.0924
   16MPD2    H3  252   2.334   3.451   0.832 -0.4029 -1.0090  0.6612
   16MPD2     N  253   2.761   3.477   1.020  0.2836  0.6034 -0.4062
   16MPD2    H5  254   2.801   3.512   1.106  3.4715  0.3098 -1.7383
   16MPD2    N1  255   2.350   3.512   1.278 -0.0573 -0.6053 -0.9051
   16MPD2    H7  256   2.249   3.506   1.270 -0.1029  0.7834 -1.3145
   17TCq1    O1  257   0.991   2.947  10.392 -0.3542  0.5644 -0.0979
   17TCq1    C1  258   1.109   2.963  10.454  0.7124 -0.2226 -0.2037
   17TCq1    O2  259   1.141   2.905  10.556 -0.6077 -0.0490  0.4332
   17TCq1    C2  260   1.150   3.099  10.421  0.4555  0.1038  0.5364
   17TCq1    C3  261   1.132   3.138  10.290  0.8420 -0.2065  0.3299
   17TCq1    C4  262   1.182   3.259  10.263  0.8537  0.7734  0.2021
   17TCq1    C5  263   1.237   3.337  10.355 -0.3387  0.0024  0.4444
   17TCq1    C6  264   1.251   3.300  10.489 -0.5972 -0.6854 -0.0910
   17TCq1    C7  265   1.208   3.178  10.522 -0.1687  0.1027 -0.0552
   17TCq1    C8  266   1.349   3.359  10.575 -0.3126  0.3260  0.0261
   17TCq1    O4  267   1.341   3.328  10.696 -0.3369 -0.0570 -0.2179
   17TCq1    C9  268   1.191   3.300  10.127 -0.1097  0.3940 -0.7358
   17TCq1    O5  269   1.273   3.393  10.099 -0.4912 -0.7173  0.3662
   17TCq1    O6  270   1.100   3.264  10.047 -0.5564 -0.0278 -0.3122
   17TCq1    H1  271   0.977   3.020  10.328  0.0144 -0.0715 -0.9039
   17TCq1    H2  272   1.102   3.072  10.210  0.1319  0.3030  0.1812
   17TCq1    H3  273   1.282   3.434  10.334 -0.6422 -0.3646 -1.8535
   17TCq1    H4  274   1.202   3.142  10.623  0.0643  0.6490  0.1556
   18MPD2     C  275   1.603   3.446  10.695  0.5014 -0.4459 -0.0405
   18MPD2    C1  276   1.574   3.454  10.559 -0.4858 -0.3708  0.3874
   18MPD2    C2  277   1.682   3.479  10.474 -0.0583 -0.2079 -0.2344
   18MPD2    C3  278   1.809   3.499  10.520  0.5736 -0.1471 -0.0833
   18MPD2    C4  279   1.834   3.497  10.651  0.1790 -0.5582 -0.1963
   18MPD2    C5  280   1.733   3.465  10.734 -0.0613  0.4348  0.4284
   18MPD2     H  281   1.664   3.489  10.367 -1.8727 -0.0620  0.0742
   18MPD2    H1  282   1.932   3.498  10.697 -0.4530 -0.2544  1.1375
   18MPD2    H2  283   1.530   3.417  10.770 -0.6577  2.5092 -0.0107
   18MPD2    H3  284   1.762   3.456  10.838 -0.5930 -0.5613  0.4850
   18MPD2     N  285   1.925   3.520  10.441  0.0422  0.0035 -0.0207
   18MPD2    H5  286   2.011   3.555  10.482 -0.1822  1.6278 -0.9463
   18MPD2    N1  287   1.451   3.410  10.506  0.6491  0.2623  0.1212
   18MPD2    H7  288   1.428   3.414  10.407 -1.7343 -2.5775  0.5521
   19TMC2    C1  289   2.989   4.633  14.055  0.1280  0.3474  0.1171
   19TMC2    C2  290   2.962   4.694  13.937 -0.0899  0.1584 -0.5805
   19TMC2    C3  291   2.848   4.663  13.883  0.6868  0.0368  0.1349
   19TMC2    C4  292   2.911   4.542  14.114  0.0442 -0.1105 -0.1770
   19TMC2    C5  293   2.800   4.508  14.052  0.2032 -0.0218  0.0562
   19TMC2    C6  294   2.763   4.565  13.933 -0.0090 -0.2112  0.1906
   19TMC2     C  295   3.116   4.679  14.114 -0.3432 -0.9403 -0.5375
   19TMC2     O  296   3.199   0.003  14.041  0.0618  0.5140 -1.0670
   19TMC2     H  297   3.028   0.049  13.903  0.4322 -0.2565 -0.5364
   19TMC2    H1  298   2.957   4.475  14.186 -2.1702 -2.7302 -1.1991
   19TMC2    H2  299   2.672   4.532  13.883  1.1613 -0.4740 -1.7336
   19TMC2    C7  300   2.718   4.400  14.108 -0.7455  0.5743  0.3474
   19TMC2    C8  301   2.822   4.724  13.754 -0.2662  0.3868 -0.0590
   19TMC2    O1  302   2.625   4.363  14.043 -0.5300  0.4118 -0.0195
   19TMC2    O2  303   2.911   0.010  13.672  0.1358 -0.0504  0.1790
   19TMC2    O5  304   2.692   4.710  13.718  0.4887  0.8108  0.3412
   19TMC2    H5  305   2.629   4.697  13.792 -0.1044  0.5269 -0.2172
   20MPD2     C  306   3.345   4.711  14.295 -0.0110 -0.1375 -0.3170
   20MPD2    C1  307   3.223   4.684  14.344 -0.6834  0.5806  0.9323
   20MPD2    C2  308   3.206   4.687  14.483  0.3671  0.1472 -0.5179
   20MPD2    C3  309   3.307   0.006  14.569  0.1606  0.0227  0.1827
   20MPD2    C4  310   3.423   0.052  14.511  0.7775 -0.4367  0.4372
   20MPD2    C5  311   3.442   0.030  14.380 -0.1187  0.3733  0.1166
   20MPD2     H  312   3.110   4.648  14.514  0.0916  0.9828 -0.3130
   20MPD2    H1  313   3.501   0.096  14.572  2.1904 -0.7941 -1.1073
   20MPD2    H2  314   3.371   4.700  14.191  0.5913  0.6027 -0.2502
   20MPD2    H3  315   3.532   0.071  14.335  0.2196 -0.2975  0.1735
   20MPD2     N  316   3.294   0.024  14.715 -0.0204 -1.1818 -0.1137
   20MPD2    H5  317   3.373   0.063  14.764 -0.1125 -2.7095  1.2531
   20MPD2    N1  318   3.120   4.648  14.252 -0.6021  0.0631  0.0405
   20MPD2    H7  319   3.031   4.625  14.295 -0.3820  1.3600  1.1647
   21MPD2     C  320   0.710   0.487  14.875 -0.0909  0.3881  0.1636
   21MPD2    C1  321   0.786   0.416  14.781 -0.2134 -0.1175 -0.4353
   21MPD2    C2  322   0.751   0.419  14.650 -0.0336  0.3057  0.3719
   21MPD2    C3  323   0.638   0.480  14.605  0.6940  0.0298 -0.0526
   21MPD2    C4  324   0.562   0.544  14.702  0.2794 -0.8508  0.2525
   21MPD2    C5  325   0.595   0.539  14.840 -0.3150 -0.1125 -0.6484
   21MPD2     H  326   0.814   0.362  14.584  0.3547  1.0295  0.1242
   21MPD2    H1  327   0.481   0.613  14.683  0.8969 -0.2062 -0.0462
   21MPD2    H2  328   0.746   0.501  14.976  0.0644  3.9800 -0.3704
   21MPD2    H3  329   0.543   0.609  14.905 -0.2208  0.8498 -1.6051
   21MPD2     N  330   0.606   0.486  14.469 -0.4420  0.1726  0.2221
   21MPD2    H5  331   0.519   0.535  14.451 -1.4099 -1.5043  0.2337
   21MPD2    N1  332   0.909   0.348  14.804  0.6240 -0.6365 -0.2466
   21MPD2    H7  333   0.957   0.317  14.720 -0.7322 -0.4887 -1.0901
   22TCq2    C1  334   0.675   0.417  14.368 -0.5107 -0.3493  0.1904
   22TCq2    O2  335   0.769   0.341  14.369 -0.0116  0.1088 -0.5174
   22TCq2    C2  336   0.630   0.457  14.239 -0.5468  0.4032  0.0438
   22TCq2    C3  337   0.698   0.400  14.134 -0.7486 -0.2931 -0.2589
   22TCq2    C4  338   0.645   0.400  14.008  0.2645 -0.4063  0.9582
   22TCq2    C5  339   0.532   0.471  13.987  0.2040 -0.1108 -0.2820
   22TCq2    C6  340   0.469   0.539  14.090  0.6423  0.2418  0.5420
   22TCq2    C7  341   0.512   0.521  14.223  0.5507  1.1255  0.4404
   22TCq2    C8  342   0.333   0.591  14.057 -0.1789  0.4691  0.3941
   22TCq2    O4  343   0.275   0.549  13.959  0.5866  0.3143 -0.8290
   22TCq2    C9  344   0.704   0.315  13.910 -0.4565 -0.2668  0.1234
   22TCq2    O5  345   0.634   0.287  13.812 -0.2758  0.2789 -0.3881
   22TCq2    O6  346   0.814   0.259  13.929  0.0344 -0.2996  0.6033
   22TCq2    H2  347   0.788   0.343  14.152 -0.2881  0.9291  1.2609
   22TCq2    H3  348   0.490   0.477  13.887  0.7229  0.6244 -0.4562
   22TCq2    H4  349   0.473   0.582  14.304  0.0368 -0.1404  1.1469
   23MPD2     C  350   2.432   0.986  14.547  0.6237 -0.2253 -0.4752
   23MPD2    C1  351   2.372   1.063  14.645  0.2903 -0.0170  0.0149
   23MPD2    C2  352   2.315   1.186  14.609  0.2612 -0.7193  0.0717
   23MPD2    C3  353   2.310   1.228  14.472 -0.2423 -0.4333  0.0866
   23MPD2    C4  354   2.367   1.140  14.383  0.2190 -0.2223 -0.7917
   23MPD2    C5  355   2.429   1.028  14.420 -0.0907 -0.5161 -0.7695
   23MPD2     H  356   2.279   1.249  14.689  1.5724  0.2512 -0.1066
   23MPD2    H1  357   2.360   1.160  14.277 -2.2165  0.8321 -0.4324
   23MPD2    H2  358   2.474   0.890  14.576  1.0511  0.2653  0.5387
   23MPD2    H3  359   2.485   0.974  14.344 -2.0847 -3.1479 -0.3658
   23MPD2     N  360   2.245   1.336  14.411 -0.0229 -0.5965 -0.2619
   23MPD2    H5  361   2.259   1.349  14.311  0.1113  2.6538  0.1792
   23MPD2    N1  362   2.363   1.016  14.779  0.8400  0.1469  0.0536
   23MPD2    H7  363   2.317   1.070  14.851  1.3304 -2.9759  2.6981
   24TCq2    C1  364   2.152   1.423  14.458  0.8078 -0.4324  0.2439
   24TCq2    O2  365   2.118   1.435  14.577 -0.3148  0.1377 -0.2550
   24TCq2    C2  366   2.099   1.512  14.360  0.0110 -0.5685 -0.3932
   24TCq2    C3  367   2.129   1.503  14.224  0.4280 -0.7061  0.1301
   24TCq2    C4  368   2.045   1.575  14.137  0.5131  0.2822  0.1467
   24TCq2    C5  369   1.963   1.677  14.182  0.3527  0.4455 -0.4656
   24TCq2    C6  370   1.938   1.689  14.312 -0.2257 -0.6174  0.1485
   24TCq2    C7  371   2.003   1.604  14.403 -0.4024  0.5091  0.8247
   24TCq2    C8  372   1.862   1.800  14.369 -0.2438 -1.0098  0.3335
   24TCq2    O4  373   1.895   1.846  14.479 -0.5391 -0.6688 -0.6442
   24TCq2    C9  374   2.061   1.565  13.990  1.2509  0.0384 -0.1270
   24TCq2    O5  375   2.049   1.673  13.927 -0.0119  0.5365  0.2950
   24TCq2    O6  376   2.051   1.452  13.941  0.9535 -0.2773  0.1976
   24TCq2    H2  377   2.186   1.429  14.169 -0.2252 -0.8518 -0.3547
   24TCq2    H3  378   1.917   1.738  14.105 -3.0323  1.2935  2.2243
   24TCq2    H4  379   1.978   1.611  14.508  2.2068  0.6309  1.4255
   25TMC2    C1  380   1.000   3.606  11.410  0.3049  0.7429 -0.8994
   25TMC2    C2  381   1.075   3.719  11.408  0.8424  0.7529  0.6527
   25TMC2    C3  382   1.103   3.789  11.526 -0.6011  0.2515 -0.0274
   25TMC2    C4  383   0.936   3.565  11.524  0.4171 -0.2172  0.7086
   25TMC2    C5  384   0.959   3.632  11.637  0.5171  1.1501 -0.5596
   25TMC2    C6  385   1.041   3.742  11.642 -0.3536 -0.6848  0.2358
   25TMC2     C  386   0.989   3.535  11.283  0.1042  0.4434  0.2029
   25TMC2     O  387   1.058   3.570  11.187  0.3147  0.1879 -0.3398
   25TMC2     H  388   1.125   3.756  11.320  1.3657 -0.9935  0.2226
   25TMC2    H1  389   0.861   3.486  11.523  0.4265 -0.2337  1.0288
   25TMC2    H2  390   1.063   3.776  11.742  0.3695  1.9537 -0.8174
   25TMC2    C7  391   0.896   3.584  11.761 -0.3954  0.0433  0.0096
   25TMC2    C8  392   1.233   3.851  11.537  0.7793  0.1209 -1.0028
   25TMC2    O1  393   0.894   3.663  11.856  0.0106  0.2054  0.1038
   25TMC2    O2  394   1.328   3.802  11.474  0.0996  0.1153 -0.6407
   25TMC2    O5  395   1.242   3.888  11.667 -0.2772  0.3276 -0.1510
   25TMC2    H5  396   1.161   3.931  11.702 -0.8608 -0.1421 -0.9243
   26MPD2     C  397   0.875   3.145  10.970 -0.6113  0.5640  0.2917
   26MPD2    C1  398   0.803   3.133  11.088 -1.1989 -0.2754 -0.7429
   26MPD2    C2  399   0.815   3.226  11.188  0.6504  0.0426 -0.3377
   26MPD2    C3  400   0.887   3.344  11.171  0.5409 -0.5527 -1.0871
   26MPD2    C4  401   0.938   3.360  11.045 -0.4742  0.4090  0.3870
   26MPD2    C5  402   0.938   3.258  10.950  0.1500 -0.6459  0.2318
   26MPD2     H  403   0.778   3.220  11.289 -0.4988  1.6509 -0.6587
   26MPD2    H1  404   0.999   3.445  11.017 -1.0884  0.4768 -0.7361
   26MPD2    H2  405   0.881   3.066  10.895 -0.7490  0.2906  0.5714
   26MPD2    H3  406   0.983   3.285  10.856 -0.6353 -2.2087 -0.5986
   26MPD2     N  407   0.910   3.430  11.282 -0.5445 -0.0546 -0.2639
   26MPD2    H5  408   0.874   3.409  11.374 -0.9166  1.5206 -0.0473
   26MPD2    N1  409   0.758   3.001  11.112 -0.1890  0.6151 -0.7485
   26MPD2    H7  410   0.766   2.930  11.040  1.4500 -2.3295  2.3303
   27TMC2    C1  411   0.032   1.066  12.119  0.5064  0.3384 -0.1810
   27TMC2    C2  412   0.170   1.067  12.129  0.0827 -0.0437  0.2783
   27TMC2    C3  413   0.239   1.188  12.136 -0.3868  0.3485 -0.4003
   27TMC2    C4  414   4.687   1.188  12.106 -0.1056  0.1329 -0.1251
   27TMC2    C5  415   0.034   1.305  12.091  0.4791 -0.3066  0.1540
   27TMC2    C6  416   0.165   1.305  12.132  0.2592 -0.4257  0.3742
   27TMC2     C  417   4.684   0.943  12.156 -0.6727 -0.3351  0.4194
   27TMC2     O  418   0.011   0.831  12.174  0.3063  0.3408  0.3618
   27TMC2     H  419   0.222   0.974  12.147 -1.3446 -0.9413 -0.2704
   27TMC2    H1  420   4.581   1.195  12.081 -0.6537 -0.6883  1.9984
   27TMC2    H2  421   0.205   1.395  12.176 -0.1235  0.2615 -0.6875
   27TMC2    C7  422   4.697   1.413  12.148 -0.0028 -0.3244  0.7098
   27TMC2    C8  423   0.320   1.190  12.254  0.2962  0.7899  0.0869
   27TMC2    O1  424   4.678   1.507  12.077 -0.5305 -0.0947 -0.1365
   27TMC2    O2  425   0.273   1.247  12.352 -0.4057 -0.3666 -0.7171
   27TMC2    O5  426   0.409   1.094  12.250 -0.3399 -0.3101 -0.5495
   27TMC2    H5  427   0.433   1.058  12.161  2.0042 -0.1666  0.0106
   28MPD2     C  428   4.318   0.762  12.457 -0.4682  0.0804 -0.2231
   28MPD2    C1  429   4.329   0.895  12.474 -0.2664 -0.2531 -0.2865
   28MPD2    C2  430   4.418   0.967  12.403  0.4854  0.6962  0.2882
   28MPD2    C3  431   4.497   0.899  12.312  0.2224  0.4198 -0.8016
   28MPD2    C4  432   4.476   0.767  12.289 -0.2101  0.4463  0.5333
   28MPD2    C5  433   4.383   0.701  12.359  0.2342 -0.5718  0.6510
   28MPD2     H  434   4.418   1.074  12.420  1.7668  0.9456 -1.2976
   28MPD2    H1  435   4.522   0.711  12.207  1.3933  0.0450  1.7092
   28MPD2    H2  436   4.249   0.708  12.522 -1.4421  1.7704  0.1383
   28MPD2    H3  437   4.360   0.601  12.322  1.3993 -0.3178 -0.7923
   28MPD2     N  438   4.577   0.989  12.229  0.2038  0.2230 -0.3848
   28MPD2    H5  439   4.566   1.089  12.242  3.2231  0.4532  0.3797
   28MPD2    N1  440   4.229   0.955  12.552 -0.3028 -0.6086 -0.2736
   28MPD2    H7  441   4.152   0.896  12.581  0.6595 -2.0446 -0.6482
   29MPD2     C  442   3.347   3.233  14.021 -0.6392 -0.9573  0.6687
   29MPD2    C1  443   3.444   3.191  14.109  0.0835  0.1027 -0.2808
   29MPD2    C2  444   3.522   3.284  14.177  0.6848 -0.6439  0.0634
   29MPD2    C3  445   3.483   3.417  14.173 -0.5501  0.2267  0.7320
   29MPD2    C4  446   3.386   3.460  14.083 -0.5208  0.2102  0.1932
   29MPD2    C5  447   3.319   3.368  14.014 -0.3062  0.1404  0.2728
   29MPD2     H  448   3.600   3.248  14.243  0.5710 -1.5598 -0.2996
   29MPD2    H1  449   3.346   3.560  14.072  0.2478  0.5181  0.1478
   29MPD2    H2  450   3.283   3.164  13.968  0.6705 -2.0865  0.5622
   29MPD2    H3  451   3.238   3.407  13.954 -0.6517  0.4182  0.9160
   29MPD2     N  452   3.540   3.522  14.258  0.0423  0.1543  0.0670
   29MPD2    H5  453   3.509   3.614  14.229 -2.1584 -1.3893 -2.5406
   29MPD2    N1  454   3.474   3.051  14.132 -0.6672 -0.2328  0.4007
   29MPD2    H7  455   3.542   3.044  14.207  0.6486 -1.3166 -0.8881
   30TCq2    C1  456   3.605   3.497  14.378  0.1899 -0.6911  0.3073
   30TCq2    O2  457   3.618   3.393  14.443  0.3817  0.0628 -0.2960
   30TCq2    C2  458   3.677   3.615  14.432 -0.1604  0.0178  0.1513
   30TCq2    C3  459   3.691   3.634  14.566  0.1044  0.2740  0.1699
   30TCq2    C4  460   3.748   3.746  14.618  0.2595  0.0455 -0.0828
   30TCq2    C5  461   3.787   3.853  14.542 -0.0133  0.4107 -0.1642
   30TCq2    C6  462   3.770   3.831  14.405  0.1104 -0.1232 -0.6891
   30TCq2    C7  463   3.722   3.712  14.344 -0.0248  0.6781 -0.1474
   30TCq2    C8  464   3.860   3.894  14.311  0.1197 -0.3385 -0.6326
   30TCq2    O4  465   3.832   3.887  14.193 -0.3940 -0.0830  0.3899
   30TCq2    C9  466   3.758   3.759  14.759 -0.1137 -0.1667 -0.2768
   30TCq2    O5  467   3.721   3.663  14.834  0.2791 -0.0439 -0.2358
   30TCq2    O6  468   3.834   3.855  14.804 -0.6765  0.2502  0.3673
   30TCq2    H2  469   3.635   3.569  14.632 -1.9831  2.1049  0.2087
   30TCq2    H3  470   3.829   3.947  14.577 -0.8223  0.2251  1.2679
   30TCq2    H4  471   3.718   3.694  14.237  0.4414 -0.9814  0.1076
   31MPD2     C  472   1.891   2.182  14.877  0.4520 -0.5490  0.1271
   31MPD2    C1  473   1.773   2.246  14.858 -0.0248  0.1727  0.1012
   31MPD2    C2  474   1.683   2.247  14.964 -0.5189 -0.8560 -1.0232
   31MPD2    C3  475   1.718   2.182  15.081  0.3777 -0.3315  0.0736
   31MPD2    C4  476   1.833   2.122  15.102  0.0510 -0.2595  0.5967
   31MPD2    C5  477   1.924   2.118  14.997 -0.6284 -0.2061  0.4850
   31MPD2     H  478   1.587   2.296  14.949  0.0718  0.1314 -1.6050
   31MPD2    H1  479   1.860   2.072  15.195  0.3504 -0.0178  0.6410
   31MPD2    H2  480   1.961   2.187  14.794  1.9210 -2.8243  1.2289
   31MPD2    H3  481   2.020   2.069  15.010  0.2640  1.4345  0.0640
   31MPD2     N  482   1.637   2.178  15.196  0.3936 -0.5796  0.5755
   31MPD2    H5  483   1.667   2.123  15.276  0.1371 -1.8007 -0.1786
   31MPD2    N1  484   1.749   2.314  14.736  0.4767 -0.1886 -0.0998
   31MPD2    H7  485   1.829   2.321  14.674 -0.0654 -2.6131 -1.0827
   32TCq2    C1  486   1.527   2.255  15.221  0.1651  0.0281  0.2452
   32TCq2    O2  487   1.475   2.330  15.142 -0.4158  0.5585  0.1464
   32TCq2    C2  488   1.487   2.248  15.363  0.9130 -0.0309  0.7044
   32TCq2    C3  489   1.395   2.338  15.404 -0.0595  0.2719 -0.0386
   32TCq2    C4  490   1.338   2.328  15.523  0.4307 -0.8682 -0.7217
   32TCq2    C5  491   1.374   2.225  15.600  0.4458  0.0439  0.5286
   32TCq2    C6  492   1.472   2.135  15.559  0.3857 -0.1998  0.3711
   32TCq2    C7  493   1.536   2.148  15.436  0.8271 -0.3327  0.1273
   32TCq2    C8  494   1.521   2.032  15.654 -0.3815 -0.5069  0.2368
   32TCq2    O4  495   1.633   1.984  15.635  1.0128  0.2201 -0.1450
   32TCq2    C9  496   1.242   2.429  15.568 -0.3022 -0.2470  0.2903
   32TCq2    O5  497   1.191   2.491  15.476  0.2722  0.8968 -0.5216
   32TCq2    O6  498   1.193   2.422  15.682  0.7768 -0.2958  0.0355
   32TCq2    H2  499   1.371   2.423  15.341  1.7799  0.5596 -0.3496
   32TCq2    H3  500   1.334   2.229  15.701 -0.7241 -1.3571  0.1212
   32TCq2    H4  501   1.595   2.065  15.401  1.6911  0.3413 -0.0087
   33MPD2     C  502   2.027   3.351   9.675 -0.0244  0.3744 -0.3026
   33MPD2    C1  503   2.140   3.423   9.717  0.6523 -0.3416 -0.3030
   33MPD2    C2  504   2.239   3.459   9.625  0.5913  0.4943 -0.1665
   33MPD2    C3  505   2.222   3.417   9.495 -0.2645  0.5107 -0.5401
   33MPD2    C4  506   2.106   3.354   9.450  0.5892 -0.2013 -0.1830
   33MPD2    C5  507   2.006   3.323   9.540  0.4287 -0.0559  0.1902
   33MPD2     H  508   2.331   3.510   9.651  0.5387  1.2817 -1.5297
   33MPD2    H1  509   2.094   3.328   9.345 -2.8558  1.7152 -0.2825
   33MPD2    H2  510   1.948   3.326   9.745 -0.3758 -3.2478 -1.9614
   33MPD2    H3  511   1.925   3.257   9.512  0.8351 -0.8825  0.9732
   33MPD2     N  512   2.309   3.449   9.395  0.6030  0.3702  0.1821
   33MPD2    H5  513   2.275   3.430   9.301  1.5790 -2.1873  0.3332
   33MPD2    N1  514   2.137   3.445   9.855 -0.5635  1.1983 -0.0795
   33MPD2    H7  515   2.058   3.411   9.910 -1.1451  0.9967 -1.0435
   34TCq2    C1  516   2.435   3.499   9.411 -0.4289  0.3352 -0.4306
   34TCq2    O2  517   2.491   3.540   9.512 -0.6567  0.5122  0.3059
   34TCq2    C2  518   2.511   3.519   9.290 -0.1297 -0.4844  0.2920
   34TCq2    C3  519   2.459   3.464   9.173  0.4430  0.1185 -0.3465
   34TCq2    C4  520   2.508   3.513   9.051 -0.0165  0.4179 -0.3534
   34TCq2    C5  521   2.599   3.625   9.042 -0.3184  0.3893  0.5590
   34TCq2    C6  522   2.634   3.682   9.167  0.8218 -0.7801  0.3702
   34TCq2    C7  523   2.594   3.632   9.285  0.1015  0.2883 -0.0503
   34TCq2    C8  524   2.711   3.804   9.170 -0.5264 -0.4672 -0.1490
   34TCq2    O4  525   2.759   3.830   9.278  0.4859 -0.0785  0.4512
   34TCq2    C9  526   2.464   3.448   8.930  0.1696 -0.0017  1.1070
   34TCq2    O5  527   2.530   3.475   8.826 -0.4305 -0.2253 -0.4709
   34TCq2    O6  528   2.352   3.382   8.931  0.4101  0.3206 -0.7833
   34TCq2    H2  529   2.411   3.367   9.171  0.1291  0.2484  0.7747
   34TCq2    H3  530   2.635   3.660   8.946 -1.8175 -0.0244 -0.1620
   34TCq2    H4  531   2.627   3.666   9.382 -1.6834 -0.2857  0.7609
   35MPD2     C  532   3.926   1.597  11.905  0.6117 -0.4051  0.3642
   35MPD2    C1  533   3.884   1.463  11.913  0.4256 -0.3454  0.1072
   35MPD2    C2  534   3.807   1.421  11.808 -0.7604  0.0308 -0.4082
   35MPD2    C3  535   3.762   1.498  11.701 -0.3988 -0.2087  0.3502
   35MPD2    C4  536   3.821   1.623  11.689  0.8151 -0.8682 -0.7525
   35MPD2    C5  537   3.900   1.670  11.789 -0.1423 -0.0099  0.3473
   35MPD2     H  538   3.774   1.317  11.804 -1.1871  0.1890 -1.0470
   35MPD2    H1  539   3.815   1.689  11.604 -1.3449  0.6738  0.5996
   35MPD2    H2  540   3.997   1.635  11.977  0.7159  1.1717 -0.5749
   35MPD2    H3  541   3.945   1.767  11.778 -1.0779  0.7687  3.3434
   35MPD2     N  542   3.676   1.446  11.598 -0.4054  0.4365 -0.1299
   35MPD2    H5  543   3.651   1.348  11.605 -1.4508  0.5381 -2.3040
   35MPD2    N1  544   3.932   1.384  12.018 -0.5507  0.1498 -0.3650
   35MPD2    H7  545   3.999   1.428  12.080 -0.2228  0.1797 -0.7442
   36TCq2    C1  546   3.646   1.511  11.474  0.6302 -0.2430 -0.3981
   36TCq2    O2  547   3.699   1.609  11.426  0.0619  0.6338  0.0860
   36TCq2    C2  548   3.549   1.448  11.384 -1.3660 -0.1141  0.4618
   36TCq2    C3  549   3.535   1.519  11.260  0.6654 -0.4431 -0.5669
   36TCq2    C4  550   3.430   1.491  11.182 -0.5702 -0.6047  0.4883
   36TCq2    C5  551   3.336   1.398  11.220 -0.2091 -0.5385  0.0155
   36TCq2    C6  552   3.352   1.324  11.337 -0.4346 -0.1987 -0.1782
   36TCq2    C7  553   3.458   1.354  11.419  0.3974  0.3549  0.1012
   36TCq2    C8  554   3.262   1.217  11.372  0.1586 -0.1483  0.2055
   36TCq2    O4  555   3.299   1.117  11.428 -0.3744 -0.1272 -0.2486
   36TCq2    C9  556   3.399   1.571  11.064 -0.0266 -0.1331 -0.2449
   36TCq2    O5  557   3.286   1.551  11.011 -0.5318  0.2677  0.2334
   36TCq2    O6  558   3.481   1.661  11.023 -0.3342 -0.4110 -0.0397
   36TCq2    H2  559   3.608   1.589  11.219  1.6463 -0.1873  1.6031
   36TCq2    H3  560   3.254   1.378  11.153 -1.1968 -0.1749  1.1186
   36TCq2    H4  561   3.463   1.303  11.515  2.4263  0.1033 -0.1306
   37TMC2    C1  562   0.817   0.843  12.101 -0.1238  0.4500 -0.5056
   37TMC2    C2  563   0.777   0.740  12.019 -0.0522 -0.2241 -0.1319
   37TMC2    C3  564   0.858   0.721  11.908  0.3327 -0.6916  0.5987
   37TMC2    C4  565   0.917   0.926  12.074  0.1406 -0.4428 -0.1882
   37TMC2    C5  566   0.989   0.907  11.964 -0.0102  0.2072  0.0986
   37TMC2    C6  567   0.970   0.796  11.888  0.2282  0.8959  0.4719
   37TMC2     C  568   0.738   0.865  12.221  0.5137 -0.2690 -0.4077
   37TMC2     O  569   0.630   0.806  12.220  0.6322 -0.1939  0.0761
   37TMC2     H  570   0.706   0.665  12.050  1.7444 -2.7181 -2.0854
   37TMC2    H1  571   0.926   1.015  12.134  0.6907 -0.8696  0.3659
   37TMC2    H2  572   1.046   0.775  11.814 -0.0969 -2.4900  1.1043
   37TMC2    C7  573   1.068   1.022  11.923  0.3705  0.2015 -0.1455
   37TMC2    C8  574   0.828   0.616  11.820  0.4638 -0.2153 -0.1014
   37TMC2    O1  575   1.140   1.075  12.008 -0.9215 -0.4677  0.1233
   37TMC2    O2  576   0.744   0.535  11.855 -0.0746  0.1612  0.5468
   37TMC2    O5  577   0.837   0.656  11.691  0.2991 -0.4255  0.1712
   37TMC2    H5  578   0.866   0.746  11.667 -1.1519  0.0882  0.3295
   38MPD2     C  579   0.642   1.016  12.703 -0.1577  0.3145  0.2612
   38MPD2    C1  580   0.771   1.050  12.680  0.2002  0.5620  0.0569
   38MPD2    C2  581   0.818   1.025  12.553  0.5595 -0.8591  0.0497
   38MPD2    C3  582   0.755   0.949  12.454  0.5985  0.0498 -0.3103
   38MPD2    C4  583   0.623   0.922  12.487  0.3448 -0.0465  0.8249
   38MPD2    C5  584   0.572   0.952  12.604  0.1680  0.3104 -0.0281
   38MPD2     H  585   0.920   1.060  12.537  1.8307 -3.1989  3.0858
   38MPD2    H1  586   0.549   0.864  12.434  0.8782 -0.1089  0.1476
   38MPD2    H2  587   0.583   1.043  12.789  1.6534  0.6081  1.3942
   38MPD2    H3  588   0.464   0.944  12.615  0.1442 -1.2599 -1.4898
   38MPD2     N  589   0.805   0.930  12.323  0.6978  1.0445 -0.0673
   38MPD2    H5  590   0.898   0.963  12.300  2.3794 -1.2077  3.3982
   38MPD2    N1  591   0.851   1.120  12.769 -0.1168  0.0732 -0.1217
   38MPD2    H7  592   0.951   1.120  12.753  0.0396 -0.6933  0.8458
   39MPD2     C  593   3.742   3.394   1.617  0.4228  0.5427  0.1440
   39MPD2    C1  594   3.643   3.416   1.710  0.7064  0.4667  0.1947
   39MPD2    C2  595   3.526   3.335   1.695  0.1751  0.3446  0.1754
   39MPD2    C3  596   3.505   3.253   1.587 -0.1053 -0.7983  0.4175
   39MPD2    C4  597   3.609   3.217   1.509  0.3543 -1.1887 -0.0891
   39MPD2    C5  598   3.723   3.292   1.522  0.0997  0.7099  0.7406
   39MPD2     H  599   3.442   3.361   1.759 -1.9751 -2.3705 -1.5793
   39MPD2    H1  600   3.602   3.169   1.412 -1.2018  0.0120 -0.5642
   39MPD2    H2  601   3.833   3.453   1.611  1.1412 -0.5477  0.2994
   39MPD2    H3  602   3.800   3.287   1.446 -1.0398  0.2833 -0.3862
   39MPD2     N  603   3.376   3.201   1.550  0.2106  0.0979  0.5857
   39MPD2    H5  604   3.376   3.134   1.474 -2.8403  0.3339  0.3743
   39MPD2    N1  605   3.677   3.507   1.814 -0.1545 -0.1599 -0.1566
   39MPD2    H7  606   3.771   3.546   1.809 -0.6103  0.8422 -0.8228
   40TCq2    C1  607   3.593   3.529   1.921  0.2557  0.1391 -0.2967
   40TCq2    O2  608   3.484   3.476   1.956 -0.1281  0.4966  0.0631
   40TCq2    C2  609   3.665   3.596   2.028 -0.1865  1.3378 -0.2544
   40TCq2    C3  610   3.603   3.607   2.154 -0.6992 -0.3058  0.6695
   40TCq2    C4  611   3.674   3.671   2.255  0.0176  0.1644  0.0265
   40TCq2    C5  612   3.798   3.735   2.238 -0.2183  0.4604 -0.0109
   40TCq2    C6  613   3.844   3.738   2.108  0.6518  0.4558 -0.0536
   40TCq2    C7  614   3.778   3.675   2.005 -0.0394  0.3162  0.2154
   40TCq2    C8  615   3.961   3.819   2.071  0.5293  0.0457 -1.3465
   40TCq2    O4  616   4.051   3.825   2.153 -0.1531 -0.0540 -0.4563
   40TCq2    C9  617   3.611   3.676   2.377 -0.3049 -0.5783  0.0619
   40TCq2    O5  618   3.684   3.724   2.464  0.2058 -0.3088  0.1067
   40TCq2    O6  619   3.499   3.623   2.397 -0.2419  0.6819 -0.2008
   40TCq2    H2  620   3.507   3.563   2.174 -1.0008 -0.9031 -2.1370
   40TCq2    H3  621   3.840   3.804   2.310 -1.4892 -0.0384  1.2069
   40TCq2    H4  622   3.822   3.672   1.906  2.1464  0.4117  1.1759
   41TMC2    C1  623   2.840   1.288  14.068  0.3799  0.2898  0.6883
   41TMC2    C2  624   2.729   1.362  14.082  0.1127 -0.2855 -0.0978
   41TMC2    C3  625   2.717   1.479  14.006 -0.2780  0.4914 -0.1287
   41TMC2    C4  626   2.934   1.312  13.977  0.0747 -0.5150  0.1484
   41TMC2    C5  627   2.925   1.429  13.908 -0.1043  0.8713  0.0046
   41TMC2    C6  628   2.821   1.523  13.929  0.0371  0.2473  0.3477
   41TMC2     C  629   2.835   1.157  14.125 -0.5398 -0.0213 -0.0149
   41TMC2     O  630   2.876   1.062  14.060 -0.3824  0.0308  0.0801
   41TMC2     H  631   2.655   1.317  14.148  0.2271  0.8139  0.7649
   41TMC2    H1  632   3.028   1.259  13.970 -0.0115 -0.6022 -0.3167
   41TMC2    H2  633   2.825   1.625  13.891  0.2389  0.5394  1.1359
   41TMC2    C7  634   3.032   1.466  13.830 -0.1352 -0.2481 -0.0558
   41TMC2    C8  635   2.603   1.566  14.042 -0.3803 -0.0142  0.0218
   41TMC2    O1  636   3.145   1.438  13.865 -0.1695 -0.3824  0.3118
   41TMC2    O2  637   2.535   1.546  14.141 -0.0784 -0.5591  0.9605
   41TMC2    O5  638   2.599   1.673  13.963  0.2597 -0.3843 -0.2114
   41TMC2    H5  639   2.654   1.680  13.882  2.5830  1.1016  1.4942
   42MPD2     C  640   2.753   0.908  14.273  0.6294  0.0553 -0.6291
   42MPD2    C1  641   2.780   1.034  14.333 -0.1681 -0.5780  0.8496
   42MPD2    C2  642   2.791   1.031  14.470  0.1176  0.2827  0.2494
   42MPD2    C3  643   2.773   0.919  14.547  0.0290 -0.0711 -0.0349
   42MPD2    C4  644   2.739   0.799  14.484 -0.9014  0.1596 -0.2238
   42MPD2    C5  645   2.734   0.796  14.346  0.2691  0.0946 -0.9591
   42MPD2     H  646   2.822   1.125  14.515  0.8152 -0.8455  2.1149
   42MPD2    H1  647   2.740   0.706  14.541 -1.9070  0.6266  0.5596
   42MPD2    H2  648   2.739   0.899  14.166  0.9939 -1.9399 -0.5000
   42MPD2    H3  649   2.710   0.703  14.297  0.3059 -0.8562  0.8125
   42MPD2     N  650   2.782   0.923  14.686 -0.2817 -0.1463 -0.0270
   42MPD2    H5  651   2.777   0.834  14.733 -1.5121  0.1988  0.4934
   42MPD2    N1  652   2.797   1.152  14.260  0.8857 -0.6503 -0.2004
   42MPD2    H7  653   2.803   1.243  14.305  0.4672  0.3871 -2.2296
   43MPD2     C  654   3.467   3.869   0.497 -0.1527 -0.5758  0.0650
   43MPD2    C1  655   3.574   3.904   0.577  0.2150 -0.2359  0.2289
   43MPD2    C2  656   3.549   3.966   0.698  0.2262 -0.2138 -0.0067
   43MPD2    C3  657   3.423   4.002   0.736  0.2631  0.6841  0.3889
   43MPD2    C4  658   3.317   3.972   0.652 -1.2469 -0.2262  0.2067
   43MPD2    C5  659   3.340   3.902   0.537  0.4316  0.4613 -0.0631
   43MPD2     H  660   3.636   3.985   0.761  0.4427 -0.7414 -0.1522
   43MPD2    H1  661   3.213   3.991   0.675 -0.4770 -1.1016  4.3444
   43MPD2    H2  662   3.480   3.812   0.406  0.0565  0.4257 -0.5349
   43MPD2    H3  663   3.250   3.864   0.491  1.0041 -0.8854 -0.0739
   43MPD2     N  664   3.384   4.075   0.849  0.1880  0.4551  0.0702
   43MPD2    H5  665   3.286   4.101   0.857 -0.7369 -2.5551 -1.2167
   43MPD2    N1  666   3.709   3.887   0.540  0.2364 -0.1152  0.2354
   43MPD2    H7  667   3.778   3.921   0.606 -1.7987  2.6182  0.9839
   44TCq2    C1  668   3.496   4.366   1.352  0.2343  0.3414  0.1050
   44TCq2    O2  669   3.613   4.336   1.336 -0.2374 -1.0636 -0.4171
   44TCq2    C2  670   3.406   4.286   1.267 -0.7832 -0.1047  0.0004
   44TCq2    C3  671   3.277   4.341   1.257 -0.1201 -0.2629 -0.3455
   44TCq2    C4  672   3.208   4.321   1.140 -0.1749 -0.5363 -0.3657
   44TCq2    C5  673   3.267   4.253   1.040  0.9036  0.1441 -0.6506
   44TCq2    C6  674   3.394   4.196   1.056  0.4788  0.4425  0.6786
   44TCq2    C7  675   3.468   4.212   1.171  0.5246  0.0000 -0.1357
   44TCq2    C8  676   3.465   4.122   0.953  0.7388 -0.3533  0.5048
   44TCq2    O4  677   3.583   4.102   0.974  0.1947 -0.2480 -0.3725
   44TCq2    C9  678   3.077   4.379   1.128  0.4703  0.0457 -1.0656
   44TCq2    O5  679   3.035   4.441   1.228  0.1367 -0.2111  0.5975
   44TCq2    O6  680   3.033   4.393   1.012 -0.1063  0.4861 -0.3856
   44TCq2    H2  681   3.226   4.388   1.340 -0.6536 -0.5864 -0.4862
   44TCq2    H3  682   3.218   4.264   0.944  0.4615  1.1783 -0.3029
   44TCq2    H4  683   3.570   4.175   1.175  0.6155  0.1398 -1.1936
   45TMC2    C1  684   1.380   0.968  10.121 -0.2851  0.2228 -0.7624
   45TMC2    C2  685   1.494   0.903  10.164  0.2546  0.6905 -0.1839
   45TMC2    C3  686   1.602   0.984  10.177 -0.7813  0.3690  0.2206
   45TMC2    C4  687   1.375   1.100  10.083 -0.4536  0.1903  0.4325
   45TMC2    C5  688   1.490   1.171  10.101  0.3966  0.3881 -0.0173
   45TMC2    C6  689   1.603   1.115  10.148  0.8191 -0.4801 -0.7783
   45TMC2     C  690   1.278   0.877  10.064  0.2050 -0.2250  0.5320
   45TMC2     O  691   1.300   0.755  10.084  0.0233 -0.7729 -0.3170
   45TMC2     H  692   1.481   0.807  10.213 -3.4869  1.2648 -0.0932
   45TMC2    H1  693   1.294   1.136  10.021  1.9604 -0.1005 -2.9187
   45TMC2    H2  694   1.696   1.169  10.159 -0.0273  1.0589 -1.2065
   45TMC2    C7  695   1.491   1.303  10.048  0.8818 -0.3888 -0.3571
   45TMC2    C8  696   1.723   0.930  10.210  0.2819 -0.3214  0.3712
   45TMC2    O1  697   1.596   1.354  10.015  0.0887  0.3180 -0.1695
   45TMC2    O2  698   1.816   0.993  10.255  0.0212  0.2294 -0.0845
   45TMC2    O5  699   1.735   0.825  10.124  0.1394  0.0121 -0.2476
   45TMC2    H5  700   1.660   0.808  10.062 -0.1215 -0.9484  0.3282
   46MPD2     C  701   1.072   0.745   9.890  0.1907  0.4333 -0.7960
   46MPD2    C1  702   1.072   0.877   9.926  0.0766  0.0398 -0.4340
   46MPD2    C2  703   0.971   0.963   9.877  0.7566 -0.1560 -0.8513
   46MPD2    C3  704   0.876   0.922   9.792 -0.5094  0.2260 -0.4697
   46MPD2    C4  705   0.874   0.791   9.751 -0.6300 -0.3651 -0.0929
   46MPD2    C5  706   0.967   0.700   9.805  0.7901 -0.0579  0.1538
   46MPD2     H  707   0.977   1.066   9.911  0.7106 -0.2329 -0.6085
   46MPD2    H1  708   0.808   0.753   9.674  0.5378  0.3655 -1.4350
   46MPD2    H2  709   1.147   0.674   9.923 -1.8635 -1.8098 -0.8878
   46MPD2    H3  710   0.958   0.594   9.783 -1.6362 -0.0507  1.0374
   46MPD2     N  711   0.781   1.022   9.748 -0.5393  0.1483 -0.5034
   46MPD2    H5  712   0.781   1.118   9.778  3.2687 -0.2261  0.7055
   46MPD2    N1  713   1.171   0.939  10.006  0.7106  0.2388  0.3161
   46MPD2    H7  714   1.169   1.039  10.021  1.7334  0.3258 -0.1078
   47TMC2    C1  715   2.988   1.666   9.644 -0.4392  0.2613  0.1654
   47TMC2    C2  716   3.000   1.772   9.562  0.7079 -0.1696  0.5332
   47TMC2    C3  717   2.883   1.823   9.505 -0.6255 -0.2434  0.6108
   47TMC2    C4  718   2.868   1.604   9.658 -0.2513 -0.3043 -0.6921
   47TMC2    C5  719   2.757   1.663   9.612 -0.2416 -0.5810 -0.2056
   47TMC2    C6  720   2.760   1.775   9.534 -0.4924  0.6642 -0.8812
   47TMC2     C  721   3.103   1.633   9.722 -0.2824  0.7468 -0.0919
   47TMC2     O  722   3.198   1.708   9.730 -0.6343 -0.3272 -0.1029
   47TMC2     H  723   3.100   1.807   9.540 -0.0661  1.6511 -0.1314
   47TMC2    H1  724   2.852   1.519   9.723 -3.8102  1.9926  1.4533
   47TMC2    H2  725   2.671   1.814   9.486 -1.5901 -0.8972 -0.1008
   47TMC2    C7  726   2.629   1.619   9.672 -0.1145  0.5009  0.1936
   47TMC2    C8  727   2.881   1.947   9.437 -1.2690 -0.0642  0.3682
   47TMC2    O1  728   2.623   1.498   9.692 -0.1966 -0.4480 -0.4128
   47TMC2    O2  729   2.804   1.948   9.344 -0.0807 -0.1825 -0.4168
   47TMC2    O5  730   2.897   2.035   9.534  0.1350  0.0926  0.1805
   47TMC2    H5  731   2.949   1.995   9.608  0.6485  0.4379  0.0014
   48MPD2     C  732   3.341   1.476   9.839  0.3611  0.6688  0.0133
   48MPD2    C1  733   3.224   1.421   9.795  0.0345 -0.5171  0.9685
   48MPD2    C2  734   3.219   1.282   9.808 -1.0901 -0.3583 -0.3656
   48MPD2    C3  735   3.317   1.210   9.866  0.0427 -0.0984 -0.5413
   48MPD2    C4  736   3.425   1.274   9.922  0.4855  0.1946  0.6861
   48MPD2    C5  737   3.442   1.411   9.898 -0.1481 -0.9631 -0.3459
   48MPD2     H  738   3.131   1.242   9.759 -0.1872 -0.4063 -1.9427
   48MPD2    H1  739   3.506   1.229   9.978 -0.6577 -0.2442  1.9692
   48MPD2    H2  740   3.364   1.582   9.829  1.0066  0.5364  0.1055
   48MPD2    H3  741   3.523   1.472   9.936  1.4751 -1.9455 -2.2389
   48MPD2     N  742   3.296   1.068   9.879 -0.3286  0.0752  0.0553
   48MPD2    H5  743   3.211   1.029   9.840  0.9369  1.0672 -3.6244
   48MPD2    N1  744   3.117   1.497   9.734  0.0377  0.3506  0.3688
   48MPD2    H7  745   3.038   1.440   9.704 -1.5405  0.8477  3.5595
   49MPD2     C  746   0.805   3.296  10.338  0.8647  0.5062 -0.2164
   49MPD2    C1  747   0.679   3.239  10.349 -0.0697 -0.0221  0.4095
   49MPD2    C2  748   0.624   3.215  10.477 -0.6519 -0.0067  0.6236
   49MPD2    C3  749   0.700   3.253  10.589 -0.5866  0.9391 -0.5100
   49MPD2    C4  750   0.818   3.329  10.579  0.7391 -0.1170  0.2965
   49MPD2    C5  751   0.871   3.344  10.452 -0.0277 -0.4653 -0.3526
   49MPD2     H  752   0.528   3.165  10.483 -0.8331  0.2826  0.1154
   49MPD2    H1  753   0.873   3.376  10.660  0.7050 -0.2869  0.4201
   49MPD2    H2  754   0.846   3.313  10.239  2.4012  0.8555  0.4887
   49MPD2    H3  755   0.961   3.405  10.443 -0.4501  0.2871  0.5647
   49MPD2     N  756   0.649   3.232  10.722 -0.4785  0.1718  0.3597
   49MPD2    H5  757   0.700   3.287  10.791 -1.3713  2.3712 -0.7442
   49MPD2    N1  758   0.598   3.194  10.239 -0.1037  0.1073 -0.7427
   49MPD2    H7  759   0.508   3.152  10.260  0.8108 -1.7115 -0.4237
   50TCq2    C1  760   0.627   3.207  10.107  0.6344  0.2176 -0.2235
   50TCq2    O2  761   0.720   3.260  10.051 -0.4446 -0.0414 -0.3451
   50TCq2    C2  762   0.532   3.136  10.027  0.0541  0.3141  0.6422
   50TCq2    C3  763   0.510   3.184   9.900 -0.1327 -0.9051  0.2930
   50TCq2    C4  764   0.408   3.129   9.831  0.2127 -0.2012  0.0622
   50TCq2    C5  765   0.329   3.035   9.888 -0.8345 -0.1541 -0.7100
   50TCq2    C6  766   0.355   2.989  10.010 -0.2903 -0.0823 -0.7445
   50TCq2    C7  767   0.445   3.055  10.089 -0.3982  0.0798 -0.4624
   50TCq2    C8  768   0.284   2.874  10.055  0.1304  0.2480  0.7576
   50TCq2    O4  769   0.182   2.846  10.000 -0.1375  0.0664 -0.7202
   50TCq2    C9  770   0.385   3.173   9.697 -0.2754 -0.0447 -0.4983
   50TCq2    O5  771   0.469   3.237   9.638 -0.5091  0.3717 -0.0431
   50TCq2    O6  772   0.300   3.108   9.636 -0.2307  0.4847 -0.3573
   50TCq2    H2  773   0.570   3.262   9.855  0.6156 -3.3079 -2.8783
   50TCq2    H3  774   0.251   2.996   9.823 -3.0593  0.3132  1.7129
   50TCq2    H4  775   0.469   3.014  10.187  2.0594  0.1607 -1.0361
   51MPD2     C  776   0.942   2.309   1.729 -0.2096 -0.3649 -0.1098
   51MPD2    C1  777   0.889   2.193   1.782  0.2893 -0.1140  0.1131
   51MPD2    C2  778   0.840   2.192   1.915  0.2325 -0.0596  0.1448
   51MPD2    C3  779   0.831   2.312   1.988  0.5887 -0.3711 -0.1831
   51MPD2    C4  780   0.890   2.422   1.935  0.0797  0.1850  0.1245
   51MPD2    C5  781   0.927   2.426   1.809  0.1858  0.1036 -0.3435
   51MPD2     H  782   0.809   2.100   1.963 -1.5993  0.1236 -0.6696
   51MPD2    H1  783   0.890   2.512   1.996 -0.2486 -0.2885  0.8195
   51MPD2    H2  784   0.970   2.326   1.626  0.9100 -0.4349  0.1867
   51MPD2    H3  785   0.963   2.518   1.763  2.0120  0.1365  1.1466
   51MPD2     N  786   0.793   2.334   2.120 -0.0504  0.0327  0.1392
   51MPD2    H5  787   0.820   2.417   2.171  2.4685 -0.3759 -0.5307
   51MPD2    N1  788   0.894   2.072   1.702  1.0981  0.3970  0.1040
   51MPD2    H7  789   0.840   1.999   1.746  2.2997  0.4009  1.5736
   52TCq2    C1  790   0.732   2.235   2.203 -0.2509  0.7710 -0.7383
   52TCq2    O2  791   0.685   2.125   2.164  0.2690 -0.5178  0.3226
   52TCq2    C2  792   0.704   2.282   2.338  0.2753 -0.4207  0.3452
   52TCq2    C3  793   0.651   2.193   2.428 -0.1813 -0.6495 -0.3874
   52TCq2    C4  794   0.637   2.223   2.558  0.3755  0.0527  0.4153
   52TCq2    C5  795   0.691   2.342   2.607 -0.5125  0.7010 -0.2850
   52TCq2    C6  796   0.753   2.430   2.520  0.4110  0.1244  0.3224
   52TCq2    C7  797   0.758   2.407   2.384 -0.4164 -0.4013 -0.5374
   52TCq2    C8  798   0.823   2.544   2.573 -0.1596 -0.4261  1.0236
   52TCq2    O4  799   0.872   2.611   2.487 -0.1751  0.0339  0.6549
   52TCq2    C9  800   0.573   2.130   2.651 -0.3461 -0.2939  0.0737
   52TCq2    O5  801   0.486   2.044   2.607  0.7245 -0.0635 -0.2102
   52TCq2    O6  802   0.591   2.151   2.773 -0.0971  0.6891  0.2157
   52TCq2    H2  803   0.613   2.095   2.398 -0.5182 -1.0535  1.3703
   52TCq2    H3  804   0.685   2.353   2.715  1.0026  0.8022 -0.2092
   52TCq2    H4  805   0.819   2.469   2.319  0.4173 -1.8616 -1.1495
   53TMC2    C1  806   1.681   1.409  11.801  0.3833 -0.2804 -0.2337
   53TMC2    C2  807   1.809   1.379  11.840  1.1050  0.2506  0.7958
   53TMC2    C3  808   1.838   1.388  11.970  0.5685  0.5618  0.7690
   53TMC2    C4  809   1.595   1.462  11.893 -0.4753 -0.2888  0.8665
   53TMC2    C5  810   1.631   1.479  12.021 -0.8195  0.0615  0.2285
   53TMC2    C6  811   1.757   1.439  12.059 -0.3966  0.4410  0.0430
   53TMC2     C  812   1.616   1.319  11.707 -0.5426  0.1241 -0.9338
   53TMC2     O  813   1.672   1.306  11.597  0.2081 -0.9206  0.1805
   53TMC2     H  814   1.880   1.335  11.772  0.7318  2.8802 -1.2785
   53TMC2    H1  815   1.497   1.493  11.860 -1.1792 -0.8340  2.4435
   53TMC2    H2  816   1.788   1.435  12.162 -1.0189 -1.4035  0.1699
   53TMC2    C7  817   1.523   1.498  12.112  0.5385  0.3392  0.9932
   53TMC2    C8  818   1.960   1.340  12.013 -0.1737 -0.3151 -0.2165
   53TMC2    O1  819   1.406   1.501  12.066  0.3616 -0.1673  0.2296
   53TMC2    O2  820   2.030   1.408  12.092  0.5912  0.0627  0.3761
   53TMC2    O5  821   1.995   1.241  11.934  0.0390  0.4267 -0.2961
   53TMC2    H5  822   1.918   1.194  11.896 -0.3055  0.1329  0.7582
   54MPD2     C  823   1.424   1.141  11.566  0.6800 -0.4413  0.1964
   54MPD2    C1  824   1.403   1.190  11.693 -0.4333 -0.1941  0.3975
   54MPD2    C2  825   1.299   1.143  11.773  0.7465 -0.7756 -0.0373
   54MPD2    C3  826   1.200   1.058  11.716  1.1540 -0.2210 -0.9244
   54MPD2    C4  827   1.223   1.016  11.591  0.1307  0.0970  0.6434
   54MPD2    C5  828   1.328   1.056  11.520 -0.3804 -0.6729 -0.2831
   54MPD2     H  829   1.299   1.174  11.876 -0.6099 -0.1879 -0.2176
   54MPD2    H1  830   1.148   0.948  11.552 -0.2228 -0.7098  2.7044
   54MPD2    H2  831   1.513   1.166  11.509 -0.3197  0.7226 -0.8656
   54MPD2    H3  832   1.346   1.009  11.424  3.0005  2.0291 -0.9367
   54MPD2     N  833   1.087   1.008  11.790  0.4027 -0.0940 -0.0189
   54MPD2    H5  834   1.008   0.973  11.737  2.0061 -1.4129 -1.5578
   54MPD2    N1  835   1.493   1.281  11.750  0.7862  0.3013 -0.7740
   54MPD2    H7  836   1.469   1.305  11.845 -0.3782  1.6540 -1.4099
   55MPD2     C  837   1.577   4.081  17.532  0.3965 -0.6769 -0.8647
   55MPD2    C1  838   1.572   3.964  17.610  0.3068  0.1544 -0.5543
   55MPD2    C2  839   1.503   3.960   0.029 -0.7576 -0.7661 -0.0620
   55MPD2    C3  840   1.428   4.068   0.062  0.0862 -0.1801 -0.2277
   55MPD2    C4  841   1.429   4.177  17.683  0.3586  0.5578 -0.8414
   55MPD2    C5  842   1.496   4.185  17.562  0.0906  0.4210 -0.6722
   55MPD2     H  843   1.492   3.873   0.092  0.0058 -0.4236  0.5547
   55MPD2    H1  844   1.381   4.269   0.015 -2.7942 -1.3956  0.0999
   55MPD2    H2  845   1.623   4.081  17.433 -1.2119 -0.5831 -1.6074
   55MPD2    H3  846   1.489   4.268  17.493  2.0016 -0.0585 -1.4476
   55MPD2     N  847   1.351   4.054   0.181  0.2075  0.1596  0.1754
   55MPD2    H5  848   1.351   3.961   0.221 -2.3435  0.3336  0.5696
   55MPD2    N1  849   1.638   3.855  17.551  0.6474 -0.0284 -0.1515
   55MPD2    H7  850   1.686   3.878  17.465 -0.3162 -1.1069 -0.9738
   56TCq2    C1  851   1.656   3.726  17.613  0.3609  0.6721 -0.3206
   56TCq2    O2  852   1.589   3.678   0.003 -0.1436  0.7219  0.0683
   56TCq2    C2  853   1.753   3.637  17.545 -0.1931 -0.8202  0.7247
   56TCq2    C3  854   1.859   3.692  17.477 -0.2307  0.4464 -0.3898
   56TCq2    C4  855   1.973   3.618  17.442  0.5465  0.0217 -0.4958
   56TCq2    C5  856   1.996   3.493  17.499  0.4641 -0.5508 -0.5709
   56TCq2    C6  857   1.899   3.448  17.578  0.2965  0.3050  0.0506
   56TCq2    C7  858   1.784   3.524  17.609  0.7792 -0.7507  0.1296
   56TCq2    C8  859   1.913   3.322  17.643 -0.2587 -0.0517 -0.8950
   56TCq2    O4  860   1.979   3.232  17.589 -0.1238 -0.4552 -0.6070
   56TCq2    C9  861   2.054   3.669  17.339  0.2946  0.4302  0.1514
   56TCq2    O5  862   2.152   3.601  17.309  0.0212  0.0692  0.0632
   56TCq2    O6  863   2.007   3.770  17.274  0.1954  0.0601  0.0724
   56TCq2    H2  864   1.848   3.796  17.446  4.6300  1.2171  0.5965
   56TCq2    H3  865   2.078   3.432  17.462  0.2955 -0.0874 -1.7259
   56TCq2    H4  866   1.709   3.481  17.675  0.2775  0.4852  0.3653
   57TMC2    C1  867   1.019   0.526  13.979  0.7668 -0.1185 -0.3241
   57TMC2    C2  868   1.040   0.437  14.078  0.3957 -0.0818  0.3417
   57TMC2    C3  869   1.097   0.317  14.052 -0.2026 -0.6083 -0.1937
   57TMC2    C4  870   1.047   0.500  13.846 -0.2424 -0.5963  0.0198
   57TMC2    C5  871   1.122   0.389  13.828 -0.4712 -0.3716 -0.1529
   57TMC2    C6  872   1.142   0.292  13.927 -0.2029  0.7798 -0.3970
   57TMC2     C  873   0.917   0.620  13.996  0.6472 -0.4615 -1.0508
   57TMC2     O  874   0.851   0.644  13.895 -0.4784  0.1250  0.1496
   57TMC2     H  875   0.989   0.444  14.173 -1.0768  1.2437 -0.5514
   57TMC2    H1  876   1.023   0.562  13.761 -1.8124 -1.2487 -0.0099
   57TMC2    H2  877   1.194   0.198  13.910 -0.0831  0.9022 -0.6992
   57TMC2    C7  878   1.215   0.396  13.711  0.2343 -0.5243 -0.1615
   57TMC2    C8  879   1.086   0.205  14.143 -0.6769  0.0248 -0.1647
   57TMC2    O1  880   1.204   0.495  13.634 -0.4744 -0.0642 -0.1557
   57TMC2    O2  881   1.188   0.151  14.177 -0.0354 -0.0725  0.7398
   57TMC2    O5  882   0.982   0.140  14.073  0.3526 -0.8701  0.3241
   57TMC2    H5  883   0.918   0.197  14.026  0.4037 -1.4208 -0.4148
   58MPD2     C  884   0.629   0.955  14.262 -0.1692 -0.0185 -0.2322
   58MPD2    C1  885   0.613   0.905  14.135 -0.2699 -0.4291  0.5722
   58MPD2    C2  886   0.703   0.806  14.094 -0.3723  0.6478 -0.0370
   58MPD2    C3  887   0.809   0.757  14.172 -0.3148 -0.1144 -0.1215
   58MPD2    C4  888   0.825   0.813  14.305  0.5362  0.0617 -0.2722
   58MPD2    C5  889   0.729   0.907  14.345 -0.7141 -0.4176 -0.2141
   58MPD2     H  890   0.694   0.778  13.990 -0.9984  1.0359 -0.0865
   58MPD2    H1  891   0.910   0.782  14.364 -0.7078 -1.9210  0.4649
   58MPD2    H2  892   0.572   1.035  14.307  0.2880  0.7738 -1.0543
   58MPD2    H3  893   0.736   0.949  14.445 -0.6586 -0.5425 -0.1640
   58MPD2     N  894   0.915   0.671  14.125  0.1642 -0.5586  0.2716
   58MPD2    H5  895   0.993   0.653  14.187 -0.8250  1.3070  2.0476
   58MPD2    N1  896   0.503   0.942  14.048  0.1272 -0.1238 -0.0543
   58MPD2    H7  897   0.506   0.907  13.953 -0.4298  2.9875 -1.2168
   59MPD2     C  898   3.598   0.676  13.423 -0.0115 -0.1583 -0.3536
   59MPD2    C1  899   3.718   0.659  13.362 -0.2285  0.6049 -0.1076
   59MPD2    C2  900   3.834   0.713  13.418 -0.5621 -0.9305  0.0160
   59MPD2    C3  901   3.820   0.784  13.542 -0.5093  0.5525  0.5253
   59MPD2    C4  902   3.695   0.803  13.600 -0.0055  0.3647  0.0245
   59MPD2    C5  903   3.581   0.752  13.541  0.5079  0.4607  0.0757
   59MPD2     H  904   3.931   0.715  13.371  0.2137  1.3425  1.7251
   59MPD2    H1  905   3.684   0.852  13.696  1.1129  0.9966 -0.1841
   59MPD2    H2  906   3.514   0.639  13.366 -0.8122  0.8814  0.1520
   59MPD2    H3  907   3.486   0.765  13.593  0.6990  1.7006  0.1093
   59MPD2     N  908   3.936   0.826  13.611 -0.7327 -0.3695 -0.4078
   59MPD2    H5  909   3.934   0.901  13.679  0.0591  0.7511 -1.6131
   59MPD2    N1  910   3.723   0.581  13.240 -0.3572  0.1829 -0.0370
   59MPD2    H7  911   3.641   0.525  13.219  0.6376 -2.1937  2.3122
   60TCq2    C1  912   3.824   0.585  13.147 -0.5223 -0.8318  0.8598
   60TCq2    O2  913   3.928   0.647  13.148 -0.2255 -0.2155 -0.3752
   60TCq2    C2  914   3.821   0.475  13.051 -0.2317 -0.0552  0.5601
   60TCq2    C3  915   3.746   0.363  13.074 -0.1085  0.4951 -0.0226
   60TCq2    C4  916   3.744   0.268  12.978  0.1558  0.2649  0.2080
   60TCq2    C5  917   3.823   0.281  12.866 -0.3405  0.5529  0.6152
   60TCq2    C6  918   3.904   0.385  12.851  0.2209  0.3105 -0.8513
   60TCq2    C7  919   3.904   0.484  12.938 -0.1260 -0.5633 -0.1013
   60TCq2    C8  920   3.976   0.402  12.730 -0.4866 -0.4122  0.0020
   60TCq2    O4  921   4.011   0.291  12.691 -0.3057  0.1231  0.6725
   60TCq2    C9  922   3.642   0.166  12.983 -0.5788  0.6221  0.7331
   60TCq2    O5  923   3.661   0.060  12.917  0.0412  0.8961  0.5151
   60TCq2    O6  924   3.552   0.180  13.070  1.0089 -0.3805 -0.1579
   60TCq2    H2  925   3.691   0.348  13.166  0.8180 -0.6169  0.3487
   60TCq2    H3  926   3.811   0.202  12.794 -1.3773 -0.3001  1.7338
   60TCq2    H4  927   3.971   0.566  12.914 -2.1159  0.6498 -1.4574
   61MPD2     C  928   2.914   1.455  14.773 -0.3705 -0.2389  0.9731
   61MPD2    C1  929   2.991   1.566  14.804 -0.8217 -0.5036  0.3244
   61MPD2    C2  930   2.962   1.688  14.746 -0.5181  0.4771  0.4991
   61MPD2    C3  931   2.848   1.696  14.665  0.1762 -0.3438  0.0524
   61MPD2    C4  932   2.780   1.586  14.631  0.0795  0.1380 -0.6918
   61MPD2    C5  933   2.803   1.465  14.694  0.3992 -0.3409 -0.4005
   61MPD2     H  934   3.026   1.773  14.762  0.6556  0.1313 -2.3383
   61MPD2    H1  935   2.690   1.597  14.571 -0.5410  3.6897  0.9257
   61MPD2    H2  936   2.942   1.355  14.804 -0.5855 -1.4341 -2.6720
   61MPD2    H3  937   2.751   1.375  14.661 -0.0602  0.6921 -2.4657
   61MPD2     N  938   2.800   1.817  14.606 -0.0236 -0.2884  0.1545
   61MPD2    H5  939   2.733   1.800  14.531  0.1074 -0.6335  0.1192
   61MPD2    N1  940   3.091   1.564  14.909  0.0389  0.2981  0.0062
   61MPD2    H7  941   3.132   1.652  14.939 -1.2343  0.6889  0.6257
   62TCq2    C1  942   3.141   1.454  14.967  0.2491  0.5516 -0.6506
   62TCq2    O2  943   3.132   1.331  14.941 -0.2763  0.5720 -0.1836
   62TCq2    C2  944   3.235   1.498  15.063 -0.1120  0.1169  0.2021
   62TCq2    C3  945   3.240   1.419  15.171 -0.1497 -0.0115 -0.5450
   62TCq2    C4  946   3.266   1.471  15.293  0.3045 -0.4237 -0.0585
   62TCq2    C5  947   3.270   1.604  15.321  0.6946 -0.6678 -0.3627
   62TCq2    C6  948   3.273   1.685  15.210  0.4521 -0.5253 -0.3653
   62TCq2    C7  949   3.257   1.633  15.082 -0.0628 -0.2066 -0.2267
   62TCq2    C8  950   3.242   1.823  15.233 -0.3475  0.3402  0.2857
   62TCq2    O4  951   3.260   1.901  15.138 -0.4531  0.2795 -0.0640
   62TCq2    C9  952   3.261   1.383  15.407 -0.5279 -0.5859 -0.2195
   62TCq2    O5  953   3.236   1.265  15.382  0.3827 -0.3095 -0.3684
   62TCq2    O6  954   3.236   1.435  15.522 -0.0335  0.2614 -0.5535
   62TCq2    H2  955   3.216   1.315  15.150 -1.8683  0.0828  0.9414
   62TCq2    H3  956   3.305   1.629  15.420 -0.2329 -3.9003  0.7740
   62TCq2    H4  957   3.253   1.709  15.005 -2.9665  1.6729  1.8049
   63TMC2    C1  958   2.702   1.812  10.942  0.1488 -0.1211  0.5328
   63TMC2    C2  959   2.723   1.884  11.059  0.6672  0.2624  0.1084
   63TMC2    C3  960   2.849   1.952  11.072 -0.0853 -0.4739  0.1470
   63TMC2    C4  961   2.801   1.820  10.848  0.5049 -0.1428  0.1576
   63TMC2    C5  962   2.931   1.868  10.876  0.5163  0.2414  0.4339
   63TMC2    C6  963   2.962   1.935  10.994 -0.2492 -0.2983  0.8984
   63TMC2     C  964   2.572   1.753  10.912  0.2492 -0.3680 -0.1475
   63TMC2     O  965   2.476   1.812  10.956  0.2164  0.2308 -0.5880
   63TMC2     H  966   2.640   1.897  11.127 -0.1837  1.8590 -1.2340
   63TMC2    H1  967   2.774   1.768  10.756  2.5021 -1.8779  0.5510
   63TMC2    H2  968   3.066   1.953  11.017  0.4563 -2.5288 -0.5195
   63TMC2    C7  969   3.032   1.852  10.769  0.5938  0.4916 -0.7148
   63TMC2    C8  970   2.872   2.020  11.198  0.0200 -0.4137  0.4510
   63TMC2    O1  971   2.983   1.822  10.660  0.5772 -0.6100  0.3172
   63TMC2    O2  972   2.800   2.022  11.298 -0.1065  0.6879 -0.0511
   63TMC2    O5  973   2.956   2.124  11.169  0.3010 -0.3424  0.1291
   63TMC2    H5  974   2.982   2.132  11.074  2.9588 -1.0323  0.8286
   64MPD2     C  975   2.316   1.324  10.928 -0.5318 -0.9498 -0.2600
   64MPD2    C1  976   2.439   1.297  10.885 -0.3353 -0.2038 -0.8999
   64MPD2    C2  977   2.530   1.400  10.871  0.1303 -0.2786  0.4488
   64MPD2    C3  978   2.486   1.524  10.897 -0.6718  0.5003  0.2683
   64MPD2    C4  979   2.363   1.549  10.941 -0.2935 -0.0889 -0.3221
   64MPD2    C5  980   2.275   1.452  10.955 -0.0709  0.3492 -0.2278
   64MPD2     H  981   2.627   1.376  10.830 -0.5610 -1.4157 -0.5566
   64MPD2    H1  982   2.322   1.649  10.952 -1.1953 -0.7282  2.0317
   64MPD2    H2  983   2.246   1.248  10.961  2.3855 -2.3396  2.7295
   64MPD2    H3  984   2.175   1.476  10.990 -0.1587  3.0717 -2.3971
   64MPD2     N  985   2.588   1.621  10.881 -0.2337  0.0317  0.5599
   64MPD2    H5  986   2.683   1.586  10.872 -0.3403  0.2994 -1.7136
   64MPD2    N1  987   2.485   1.164  10.869 -0.6891 -0.2042  0.0507
   64MPD2    H7  988   2.578   1.150  10.830 -0.1035 -1.4979  1.8738
   65MPD2     C  989   3.812   0.964  15.805  0.1375  0.2706  0.2876
   65MPD2    C1  990   3.819   0.967  15.671 -0.2462 -0.4727 -0.1473
   65MPD2    C2  991   3.740   0.881  15.593 -0.4111  0.1760  0.1415
   65MPD2    C3  992   3.657   0.786  15.657  0.3363  0.0168 -0.3408
   65MPD2    C4  993   3.641   0.795  15.796  0.5425 -0.1828 -0.3416
   65MPD2    C5  994   3.723   0.884  15.870  0.4968  0.4456  0.4537
   65MPD2     H  995   3.754   0.889  15.486 -0.1403 -2.2831  0.0037
   65MPD2    H1  996   3.569   0.745  15.860  0.2358 -1.4664 -1.6941
   65MPD2    H2  997   3.867   1.038  15.862 -2.0210  1.0888  1.3461
   65MPD2    H3  998   3.712   0.905  15.976  3.1816  2.4293  0.3428
   65MPD2     N  999   3.572   0.695  15.595  0.0322 -0.5340 -0.2029
   65MPD2    H5 1000   3.505   0.650  15.657  0.4997 -2.8870 -1.4086
   65MPD2    N1 1001   3.895   1.063  15.598  0.2750  0.2968 -0.0373
   65MPD2    H7 1002   3.871   1.059  15.499  2.1590  0.0066 -0.4848
   66TCq2    C1 1003   3.963   1.173  15.644 -0.1804  0.1691  0.1669
   66TCq2    O2 1004   3.994   1.206  15.757 -0.1046  0.8434 -0.0551
   66TCq2    C2 1005   4.007   1.255  15.535 -0.1784 -0.4381  0.7264
   66TCq2    C3 1006   4.031   1.203  15.407 -0.0188  0.2904  0.1446
   66TCq2    C4 1007   4.039   1.299  15.302 -0.2079  0.2336 -0.3031
   66TCq2    C5 1008   4.026   1.434  15.327  0.1227  0.1092 -0.4548
   66TCq2    C6 1009   4.012   1.479  15.454 -0.2186  0.1378  0.9078
   66TCq2    C7 1010   4.002   1.391  15.560  0.0871  0.2376  0.5902
   66TCq2    C8 1011   3.974   1.618  15.475 -0.4295  0.1801  0.9468
   66TCq2    O4 1012   3.955   1.696  15.383  0.1959 -0.0777  0.1669
   66TCq2    C9 1013   4.045   1.248  15.167  0.2452 -0.2522  0.8210
   66TCq2    O5 1014   4.061   1.329  15.075  0.0791 -0.0346  0.2212
   66TCq2    O6 1015   4.028   1.125  15.154 -0.1308 -0.7509  0.5200
   66TCq2    H2 1016   4.048   1.097  15.392  0.8051  0.6111 -1.1854
   66TCq2    H3 1017   4.016   1.501  15.242 -0.5976 -1.0749 -1.3167
   66TCq2    H4 1018   3.971   1.419  15.661  2.0525  1.6300  0.8242
   67MPD2     C 1019   3.630   0.729  14.043  0.2066 -0.0551 -0.3795
   67MPD2    C1 1020   3.572   0.780  14.157 -0.3058 -0.4119  0.1402
   67MPD2    C2 1021   3.432   0.758  14.175 -0.0164  0.1312 -0.3681
   67MPD2    C3 1022   3.364   0.678  14.081 -0.5334 -0.3878  1.3008
   67MPD2    C4 1023   3.426   0.648  13.963 -0.1317  0.2482 -0.6792
   67MPD2    C5 1024   3.558   0.662  13.954 -1.4621  0.1860 -0.4577
   67MPD2     H 1025   3.373   0.796  14.258  0.2623  0.1998 -0.2019
   67MPD2    H1 1026   3.384   0.599  13.876  0.7831 -2.9593  0.7148
   67MPD2    H2 1027   3.737   0.732  14.027  0.0234 -0.7888 -1.7016
   67MPD2    H3 1028   3.613   0.619  13.872  0.3018  2.4654 -0.4487
   67MPD2     N 1029   3.229   0.650  14.085 -0.1728 -0.4754  0.0495
   67MPD2    H5 1030   3.182   0.614  14.002  0.6143  0.5639 -0.8536
   67MPD2    N1 1031   3.640   0.866  14.248 -0.0750  0.6311  0.3252
   67MPD2    H7 1032   3.579   0.902  14.321  0.2360  1.0881  0.3588
   68TCq2    C1 1033   3.767   0.904  14.243 -0.1893  0.4394 -0.4668
   68TCq2    O2 1034   3.844   0.897  14.149 -0.2937  0.3154 -0.0874
   68TCq2    C2 1035   3.803   1.000  14.346  0.2852  0.0559 -0.2983
   68TCq2    C3 1036   3.715   1.076  14.421  0.6558 -0.5653 -0.2127
   68TCq2    C4 1037   3.754   1.133  14.540 -0.3778 -0.1385  0.2422
   68TCq2    C5 1038   3.885   1.117  14.579 -0.7218  0.0876  0.3520
   68TCq2    C6 1039   3.966   1.041  14.500  0.0337  0.0652 -0.6099
   68TCq2    C7 1040   3.932   0.990  14.381 -0.0703  0.3258 -0.2676
   68TCq2    C8 1041   4.102   1.021  14.547 -0.1684  0.3825 -0.2179
   68TCq2    O4 1042   4.191   1.016  14.461 -0.8223 -1.0133  0.1627
   68TCq2    C9 1043   3.665   1.224  14.607 -0.0838 -0.3806  0.9998
   68TCq2    O5 1044   3.552   1.231  14.563  0.6656 -0.0027  0.0186
   68TCq2    O6 1045   3.708   1.282  14.708  0.4659 -0.5527  0.1627
   68TCq2    H2 1046   3.608   1.074  14.401  0.4760 -2.6038  0.9521
   68TCq2    H3 1047   3.914   1.177  14.665  0.6095  0.3885 -0.3079
   68TCq2    H4 1048   4.007   0.940  14.321  0.2122  1.7115 -1.0694
   69TMC2    C1 1049   1.340   1.837  12.470  0.4826 -0.0597  0.1829
   69TMC2    C2 1050   1.215   1.811  12.418 -0.0142  0.3504  0.6514
   69TMC2    C3 1051   1.186   1.831  12.287 -0.0461 -0.1376  0.4972
   69TMC2    C4 1052   1.443   1.855  12.378 -0.0389 -0.2213  0.0520
   69TMC2    C5 1053   1.414   1.843  12.245 -0.0999  0.3768  0.0548
   69TMC2    C6 1054   1.284   1.863  12.197  0.2622 -0.1137 -0.7186
   69TMC2     C 1055   1.358   1.836  12.617  0.3054  0.6555 -0.1304
   69TMC2     O 1056   1.272   1.786  12.692  0.2187 -0.1179 -0.5588
   69TMC2     H 1057   1.132   1.785  12.483 -0.0470  1.4239  1.0528
   69TMC2    H1 1058   1.549   1.858  12.401  0.0924 -2.7095 -0.2596
   69TMC2    H2 1059   1.264   1.844  12.092 -0.8813  0.5151 -0.6141
   69TMC2    C7 1060   1.523   1.849  12.152  0.1254 -0.0546 -0.2118
   69TMC2    C8 1061   1.056   1.795  12.238 -0.7124  0.3586 -1.2428
   69TMC2    O1 1062   1.630   1.804  12.192 -0.2371  0.2840  0.3661
   69TMC2    O2 1063   0.980   1.718  12.299 -0.3111  0.0859 -0.1580
   69TMC2    O5 1064   1.015   1.879  12.137 -0.0347  0.2950  0.8328
   69TMC2    H5 1065   1.085   1.939  12.102 -3.9063  4.2204 -0.1540
   70MPD2     C 1066   1.690   1.923  12.763  0.9437 -0.5942  0.0737
   70MPD2    C1 1067   1.572   1.856  12.756  0.6089 -0.1312  0.4606
   70MPD2    C2 1068   1.546   1.744  12.838  0.3281 -0.2484  0.4699
   70MPD2    C3 1069   1.651   1.703  12.924 -0.9184 -0.1688  0.0440
   70MPD2    C4 1070   1.761   1.785  12.935 -0.4444  0.4270  0.3318
   70MPD2    C5 1071   1.780   1.896  12.855  0.7833 -0.8471  0.2653
   70MPD2     H 1072   1.449   1.699  12.823 -0.0777  1.4560 -2.0460
   70MPD2    H1 1073   1.833   1.762  13.012 -1.5332 -0.1718  1.1718
   70MPD2    H2 1074   1.707   2.018  12.715 -1.3743  0.2252  0.8657
   70MPD2    H3 1075   1.867   1.959  12.870  0.5283 -0.7487  1.3635
   70MPD2     N 1076   1.650   1.588  13.008  0.7186 -0.2020 -0.3066
   70MPD2    H5 1077   1.719   1.570  13.080  1.3514  0.5203 -0.7295
   70MPD2    N1 1078   1.485   1.888  12.652 -0.6684 -0.0237 -0.4799
   70MPD2    H7 1079   1.526   1.956  12.589 -0.9445 -0.1718 -0.8250
   71TMC2    C1 1080   3.939   2.927   1.538 -0.3112  0.9597  0.6576
   71TMC2    C2 1081   4.046   3.011   1.567 -0.0350  0.1693  0.5424
   71TMC2    C3 1082   4.023   3.124   1.642  0.2996 -0.3726  0.4188
   71TMC2    C4 1083   3.816   2.960   1.598 -0.3485  0.6179 -0.4407
   71TMC2    C5 1084   3.812   3.047   1.704  0.0566  0.1475 -0.1809
   71TMC2    C6 1085   3.915   3.132   1.733 -0.1250 -1.0479  0.2002
   71TMC2     C 1086   3.946   2.843   1.428  0.3114  0.0519 -0.1684
   71TMC2     O 1087   3.848   2.830   1.352 -0.9543 -0.0601 -0.1255
   71TMC2     H 1088   4.144   2.990   1.526  1.0521  0.6537  2.9245
   71TMC2    H1 1089   3.726   2.910   1.564 -0.4129 -0.6431  1.5616
   71TMC2    H2 1090   3.905   3.218   1.798  2.1312 -1.5356  1.1913
   71TMC2    C7 1091   3.738   3.001   1.819 -0.9664 -0.2897  0.0482
   71TMC2    C8 1092   4.132   3.215   1.653  0.0996 -0.2693 -0.0232
   71TMC2    O1 1093   3.769   3.067   1.918  0.3212 -0.3599  0.1046
   71TMC2    O2 1094   4.154   3.277   1.759  0.4502  0.0449  0.0137
   71TMC2    O5 1095   4.149   3.270   1.532  0.4105  0.5320  0.1170
   71TMC2    H5 1096   4.119   3.218   1.455  2.0958  1.0330 -0.8760
   72MPD2     C 1097   4.236   2.633   1.074  0.1893  1.1209  0.1460
   72MPD2    C1 1098   4.111   2.692   1.061  0.6118  0.4862  0.6168
   72MPD2    C2 1099   4.050   2.744   1.173 -0.1883  0.4785  0.2246
   72MPD2    C3 1100   4.117   2.732   1.295  0.4175  1.2651 -0.5731
   72MPD2    C4 1101   4.240   2.671   1.303  0.4431 -0.3326  0.0694
   72MPD2    C5 1102   4.298   2.620   1.189 -0.4851 -0.8050 -0.1577
   72MPD2     H 1103   3.952   2.787   1.159  0.6696  1.6228 -2.2635
   72MPD2    H1 1104   4.294   2.660   1.396 -0.1782  0.1751  0.4855
   72MPD2    H2 1105   4.291   2.597   0.988  1.4693  1.2502  0.9127
   72MPD2    H3 1106   4.396   2.575   1.175  0.3209  0.6109  0.8057
   72MPD2     N 1107   4.073   2.793   1.414 -0.2548 -0.6176  0.2095
   72MPD2    H5 1108   4.137   2.793   1.494 -0.6207  0.5978  0.4935
   72MPD2    N1 1109   4.039   2.699   0.941 -0.0994  0.0821 -0.7111
   72MPD2    H7 1110   3.951   2.750   0.945  0.0287  0.4518 -2.5624
   73TMC2    C1 1111   2.944   4.038  14.068 -0.1996 -0.4066  0.4111
   73TMC2    C2 1112   2.857   4.025  14.165  0.1353 -0.3232 -0.0537
   73TMC2    C3 1113   2.909   3.972  14.278  0.5164 -0.3821  0.4286
   73TMC2    C4 1114   3.075   4.009  14.079  0.0768 -0.0996 -0.0181
   73TMC2    C5 1115   3.128   3.966  14.201  0.8043 -0.5836 -0.6327
   73TMC2    C6 1116   3.039   3.947  14.302  0.5563  0.1356  0.0487
   73TMC2     C 1117   2.951   4.162  13.996  0.1597  0.0327 -0.6077
   73TMC2     O 1118   3.046   4.235  14.018  0.3051  0.1064  0.2968
   73TMC2     H 1119   2.752   4.045  14.148  0.2066 -0.6220 -0.8326
   73TMC2    H1 1120   3.130   4.017  13.986 -1.2423  0.1355 -0.7869
   73TMC2    H2 1121   3.060   3.914  14.403 -0.0071 -0.7238 -0.1119
   73TMC2    C7 1122   3.260   4.015  14.225 -0.2204  0.3035 -0.3832
   73TMC2    C8 1123   2.825   3.933  14.384  1.0535  0.6099  0.1522
   73TMC2    O1 1124   3.342   3.938  14.277 -0.1496  0.0695  0.1479
   73TMC2    O2 1125   2.854   3.931  14.501  0.8657 -0.3725  0.5277
   73TMC2    O5 1126   2.726   3.859  14.317  0.3615  0.1441 -0.2300
   73TMC2    H5 1127   2.727   3.868  14.219 -2.7522  1.0667 -0.1763
   74MPD2     C 1128   2.857   4.376  13.536 -0.0853 -0.0021 -0.3707
   74MPD2    C1 1129   2.972   4.384  13.612 -0.1170  0.7120 -0.8720
   74MPD2    C2 1130   2.968   4.314  13.736  0.6187  0.2998 -0.1020
   74MPD2    C3 1131   2.857   4.245  13.778 -0.5870  0.5440 -0.2814
   74MPD2    C4 1132   2.743   4.248  13.697  0.5096  0.6704 -0.1699
   74MPD2    C5 1133   2.746   4.305  13.573 -0.1414  0.3441 -0.2380
   74MPD2     H 1134   3.060   4.314  13.792  0.7352  0.7328 -0.2945
   74MPD2    H1 1135   2.664   4.178  13.720  0.1562  0.3390 -2.3976
   74MPD2    H2 1136   2.855   4.434  13.444  3.2723  0.6531 -0.0267
   74MPD2    H3 1137   2.658   4.290  13.511 -0.5794  1.2788  0.1560
   74MPD2     N 1138   2.861   4.162  13.893  0.1056  0.3641  0.9179
   74MPD2    H5 1139   2.783   4.097  13.898 -0.4599  0.8811 -1.0870
   74MPD2    N1 1140   3.089   4.444  13.558  0.2188  1.0112  0.1160
   74MPD2    H7 1141   3.083   4.483  13.465 -1.4667 -0.2617 -0.3095
   75TCq2    C1 1142   3.143   0.667  14.191 -0.4746 -0.2402  0.1141
   75TCq2    O2 1143   3.172   0.675  14.308  0.3239 -0.4081 -0.4275
   75TCq2    C2 1144   3.004   0.653  14.150 -0.2993 -0.1365  0.7055
   75TCq2    C3 1145   2.911   0.571  14.217 -1.0539  0.0311 -0.6415
   75TCq2    C4 1146   2.800   0.525  14.151 -0.1396 -0.3150 -0.1351
   75TCq2    C5 1147   2.769   0.572  14.028  0.3088 -0.7052  0.2436
   75TCq2    C6 1148   2.857   0.656  13.968  0.2772 -0.4274 -0.5906
   75TCq2    C7 1149   2.972   0.701  14.027  0.9074 -0.4529  0.0056
   75TCq2    C8 1150   2.827   0.711  13.838  0.4189  0.4020 -0.7693
   75TCq2    O4 1151   2.812   0.639  13.743  0.1405 -0.5498 -0.0692
   75TCq2    C9 1152   2.703   0.445  14.217 -0.4415  0.7108 -0.1906
   75TCq2    O5 1153   2.603   0.404  14.151 -0.2395  0.2280  0.1314
   75TCq2    O6 1154   2.710   0.432  14.344  0.8614  0.4862  0.7441
   75TCq2    H2 1155   2.922   0.538  14.320 -0.8434  0.5718 -0.4885
   75TCq2    H3 1156   2.672   0.550  13.986 -1.3097  1.6364  2.8252
   75TCq2    H4 1157   3.030   0.773  13.970 -1.1456 -0.2014 -1.8083
   76MPD2     C 1158   2.341   1.314  12.193  0.2968  0.2327  0.3755
   76MPD2    C1 1159   2.385   1.336  12.067 -0.3244 -0.0571  0.6084
   76MPD2    C2 1160   2.521   1.329  12.033 -0.5030  0.0023 -0.1861
   76MPD2    C3 1161   2.610   1.302  12.132  0.1008 -0.2448 -0.3283
   76MPD2    C4 1162   2.567   1.283  12.261 -0.6074  0.3204  0.1293
   76MPD2    C5 1163   2.430   1.287  12.291 -0.2626  0.8902 -0.3316
   76MPD2     H 1164   2.567   1.327  11.935 -2.3743  2.1818 -1.1119
   76MPD2    H1 1165   2.645   1.256  12.331 -0.3388 -0.5172 -0.4937
   76MPD2    H2 1166   2.237   1.322  12.220  0.4617 -0.1677  1.1279
   76MPD2    H3 1167   2.389   1.254  12.386  1.9401  0.8927  0.6232
   76MPD2     N 1168   2.752   1.303  12.117  0.1108  0.1453  0.2797
   76MPD2    H5 1169   2.811   1.252  12.182  1.5368 -0.1400 -1.2182
   76MPD2    N1 1170   2.288   1.365  11.963 -0.1128 -0.1687 -0.4048
   76MPD2    H7 1171   2.190   1.358  11.987  0.7286  1.0811  3.4332
   77TCq2    C1 1172   2.830   1.342  12.012  0.1795  0.2311  0.8155
   77TCq2    O2 1173   2.799   1.380  11.901 -0.3183  0.2117  0.0581
   77TCq2    C2 1174   2.969   1.316  12.037 -0.3005  0.1870 -0.3224
   77TCq2    C3 1175   3.062   1.316  11.933 -0.2590  0.0088 -0.4652
   77TCq2    C4 1176   3.187   1.267  11.965  0.2662  0.7792 -0.3202
   77TCq2    C5 1177   3.228   1.269  12.092  0.3927 -0.3479 -0.0147
   77TCq2    C6 1178   3.142   1.300  12.193 -0.0944 -0.3167 -0.0676
   77TCq2    C7 1179   3.008   1.322  12.173 -0.4823 -0.4512  0.3685
   77TCq2    C8 1180   3.196   1.298  12.317 -0.4472 -0.1200 -0.4610
   77TCq2    O4 1181   3.265   1.202  12.340  0.6750  0.8598  0.3769
   77TCq2    C9 1182   3.278   1.226  11.862 -0.1102 -0.0332  0.2516
   77TCq2    O5 1183   3.241   1.246  11.744  0.1534  0.1752 -0.0032
   77TCq2    O6 1184   3.380   1.163  11.894  0.0939 -0.4117  0.1051
   77TCq2    H2 1185   3.038   1.316  11.827 -4.0893  1.8937  0.4047
   77TCq2    H3 1186   3.334   1.256  12.111 -0.2755  1.4775  4.9348
   77TCq2    H4 1187   2.938   1.340  12.254 -0.4457  0.1211  0.2673
   78MPD1     C 1188   0.616   0.729   1.812  0.4866  0.2860  0.7109
   78MPD1    C1 1189   0.656   0.866   1.822 -0.3885 -0.1692 -0.0810
   78MPD1    C2 1190   0.559   0.954   1.796  0.8689  0.5436 -0.3168
   78MPD1    C3 1191   0.430   0.920   1.753 -0.1229 -0.7846 -0.3280
   78MPD1    C4 1192   0.403   0.787   1.749 -0.7463 -0.1752 -1.2331
   78MPD1    C5 1193   0.497   0.690   1.778 -0.2786  0.0026  0.2186
   78MPD1     H 1194   0.582   1.058   1.815  0.7905  0.4563  0.2411
   78MPD1    H1 1195   0.311   0.754   1.702 -1.0599  1.0874 -1.4896
   78MPD1    H2 1196   0.691   0.654   1.837 -0.4918 -1.3378 -1.1717
   78MPD1    H3 1197   0.466   0.587   1.771  1.6601 -0.6124  0.5479
   78MPD1     N 1198   0.328   1.014   1.721  0.5236 -0.1502 -0.7825
   78MPD1    H5 1199   0.253   0.973   1.668 -1.2613  2.1703 -0.0534
   78MPD1    N1 1200   0.780   0.903   1.880 -0.1371 -0.5146 -0.8183
   78MPD1    H6 1201   0.845   0.825   1.876 -0.0827 -0.4534 -1.1052
   78MPD1    H7 1202   0.767   0.932   1.977  2.1420 -3.1464  0.2866
   79TCq2    C1 1203   0.337   1.147   1.752 -0.0172  0.8291 -0.6127
   79TCq2    O2 1204   0.426   1.213   1.807  0.2598  0.4348 -0.3548
   79TCq2    C2 1205   0.213   1.221   1.726  0.3554  0.6925  0.3616
   79TCq2    C3 1206   0.085   1.167   1.700  0.5539  0.1812  0.4130
   79TCq2    C4 1207   4.708   1.254   1.675 -0.7195 -0.6999 -0.1771
   79TCq2    C5 1208   0.006   1.390   1.685  0.0421  0.2873 -0.1281
   79TCq2    C6 1209   0.137   1.442   1.683  0.4898  0.0087  0.0872
   79TCq2    C7 1210   0.234   1.353   1.703 -0.4421  0.7941  0.5433
   79TCq2    C8 1211   0.158   1.567   1.750 -0.2896 -0.1827  0.4206
   79TCq2    O4 1212   0.254   1.637   1.725 -0.8759 -0.4279  0.2107
   79TCq2    C9 1213   4.578   1.208   1.643 -1.2032 -0.2673  0.7550
   79TCq2    O5 1214   4.566   1.091   1.598  0.6336 -0.6466 -0.3878
   79TCq2    O6 1215   4.487   1.284   1.665  0.0203 -0.0151 -0.1277
   79TCq2    H2 1216   0.056   1.065   1.720  1.6062 -0.0610  0.7282
   79TCq2    H3 1217   4.649   1.460   1.676  0.3341  0.5437 -0.7792
   79TCq2    H4 1218   0.322   1.409   1.733  0.4912 -0.8068  0.7835
   80MPD2     C 1219   1.673   1.177  12.560  0.4841 -0.0653  0.0476
   80MPD2    C1 1220   1.543   1.146  12.521  1.1720  0.2890 -0.1584
   80MPD2    C2 1221   1.442   1.164  12.612  0.7388  0.0477  0.7790
   80MPD2    C3 1222   1.460   1.219  12.735 -0.3838  0.2199 -0.0252
   80MPD2    C4 1223   1.591   1.253  12.768  0.5989  0.3030 -0.3867
   80MPD2    C5 1224   1.698   1.222  12.684 -0.5064  0.3958 -0.2505
   80MPD2     H 1225   1.343   1.150  12.570  1.3264 -0.7256 -0.3634
   80MPD2    H1 1226   1.604   1.303  12.863 -1.1702 -0.0574  0.0591
   80MPD2    H2 1227   1.762   1.167  12.499  0.6267  0.0599  0.2335
   80MPD2    H3 1228   1.800   1.247  12.710 -0.6606  1.2391 -0.4725
   80MPD2     N 1229   1.358   1.258  12.827 -0.3035  0.4697  0.0697
   80MPD2    H5 1230   1.385   1.315  12.907  0.9530 -1.3223  0.9213
   80MPD2    N1 1231   1.517   1.105  12.390  0.1982 -0.2543 -0.1247
   80MPD2    H7 1232   1.431   1.057  12.364 -0.4163  0.6747  0.1921
   81TCq2    C1 1233   1.605   1.110  12.280  0.1962  0.0675  0.8922
   81TCq2    O2 1234   1.708   1.176  12.275 -0.8999 -0.3512 -0.1321
   81TCq2    C2 1235   1.573   1.016  12.170  0.0312  0.0908 -0.6417
   81TCq2    C3 1236   1.667   1.023  12.071  0.3287  0.2463 -0.0460
   81TCq2    C4 1237   1.648   0.955  11.957 -0.4926  0.0523  0.4718
   81TCq2    C5 1238   1.533   0.879  11.944 -0.0529 -0.2111 -0.1475
   81TCq2    C6 1239   1.441   0.866  12.044 -0.1972  0.2499 -0.2684
   81TCq2    C7 1240   1.456   0.939  12.161 -0.6100  0.2841  0.0089
   81TCq2    C8 1241   1.341   0.768  12.032  0.4040 -0.2162  0.4443
   81TCq2    O4 1242   1.333   0.711  11.928  0.7664  0.3558 -0.2673
   81TCq2    C9 1243   1.739   0.968  11.851  0.2341 -0.1043 -0.4328
   81TCq2    O5 1244   1.822   1.063  11.859  0.1023 -0.4715  0.5321
   81TCq2    O6 1245   1.729   0.891  11.748 -0.2900 -0.0435  0.0647
   81TCq2    H2 1246   1.761   1.077  12.073  0.5179 -0.1174  0.6301
   81TCq2    H3 1247   1.524   0.807  11.864  0.2963  0.5899 -0.9058
   81TCq2    H4 1248   1.385   0.940  12.243  0.5157 -1.2095  0.9985
   82MPD2     C 1249   0.104   0.903  10.787 -0.1544 -0.3010  0.3287
   82MPD2    C1 1250   0.093   0.779  10.727 -0.0122  0.6048 -0.6061
   82MPD2    C2 1251   0.139   0.675  10.804 -0.0145 -0.7592  0.3029
   82MPD2    C3 1252   0.188   0.685  10.935  0.2287 -0.4843  0.0955
   82MPD2    C4 1253   0.218   0.814  10.975 -0.3733  0.2672  0.7326
   82MPD2    C5 1254   0.159   0.917  10.911  0.1763 -0.2049  0.2633
   82MPD2     H 1255   0.120   0.577  10.762 -1.8929  0.1281 -0.9043
   82MPD2    H1 1256   0.263   0.837  11.071  3.3216  0.4679 -1.0193
   82MPD2    H2 1257   0.057   0.994  10.752  1.5065  0.4821  0.1385
   82MPD2    H3 1258   0.158   1.019  10.946  1.7656  0.3439 -1.2702
   82MPD2     N 1259   0.231   0.579  11.021 -0.1104  0.0433 -0.8948
   82MPD2    H5 1260   0.286   0.604  11.102 -2.8641 -1.0920  1.2923
   82MPD2    N1 1261   0.032   0.759  10.601 -0.5446  0.3911 -0.3799
   82MPD2    H7 1262   0.001   0.845  10.558 -0.2268  1.3575  1.3323
   83TCq2    C1 1263   0.201   0.446  10.993  0.1458 -0.1800  0.3810
   83TCq2    O2 1264   0.177   0.387  10.888  0.5847 -0.0290 -0.4996
   83TCq2    C2 1265   0.227   0.353  11.102 -0.3870  0.5564  0.4166
   83TCq2    C3 1266   0.265   0.407  11.227 -0.3597 -0.6354 -0.5441
   83TCq2    C4 1267   0.278   0.315  11.329  0.1198 -0.0204 -0.4761
   83TCq2    C5 1268   0.264   0.178  11.317  0.1620 -0.1814 -0.3446
   83TCq2    C6 1269   0.225   0.125  11.195 -0.3825 -0.1888  0.0663
   83TCq2    C7 1270   0.192   0.220  11.099 -0.1522  0.6690 -0.0347
   83TCq2    C8 1271   0.135   0.012  11.208  0.2078 -0.6827  0.1604
   83TCq2    O4 1272   0.128   4.693  11.320  0.8059  0.9075  0.6461
   83TCq2    C9 1273   0.324   0.362  11.462  0.3746 -0.5490 -0.0225
   83TCq2    O5 1274   0.337   0.284  11.559 -0.2081 -0.0934  0.4968
   83TCq2    O6 1275   0.374   0.477  11.470 -0.1202  0.4722 -0.1997
   83TCq2    H2 1276   0.304   0.507  11.243 -1.0766 -0.4563  0.0584
   83TCq2    H3 1277   0.282   0.117  11.405 -1.6147  0.8020  0.7262
   83TCq2    H4 1278   0.146   0.190  11.006 -0.6742  0.2601  0.3556
   84TCq2    C1 1279   0.541   3.154  10.746  0.5558 -0.9901 -0.7213
   84TCq2    O2 1280   0.484   3.075  10.672 -0.3812  0.2966  0.2988
   84TCq2    C2 1281   0.486   3.172  10.879  0.6808 -0.0859 -0.7053
   84TCq2    C3 1282   0.365   3.106  10.908  0.2375 -0.5225 -0.6485
   84TCq2    C4 1283   0.313   3.114  11.037 -0.0645  0.6684  0.6941
   84TCq2    C5 1284   0.369   3.185  11.142 -0.0997  0.4594 -0.0058
   84TCq2    C6 1285   0.475   3.265  11.099  0.0656 -0.2327 -0.1643
   84TCq2    C7 1286   0.538   3.256  10.977  0.1518  0.3629  0.1928
   84TCq2    C8 1287   0.521   3.372  11.189 -0.3225 -1.0638  0.4803
   84TCq2    O4 1288   0.567   3.477  11.149  0.6590  0.8788  0.2739
   84TCq2    C9 1289   0.192   3.039  11.059  0.0730 -0.1696 -0.3815
   84TCq2    O5 1290   0.154   2.964  10.966 -0.1515  0.1084 -0.2735
   84TCq2    O6 1291   0.122   3.080  11.160  0.0962 -0.2027  0.3407
   84TCq2    H2 1292   0.315   3.047  10.832  0.3447 -1.0654 -0.2957
   84TCq2    H3 1293   0.316   3.200  11.235  0.2561 -2.2172  0.6408
   84TCq2    H4 1294   0.614   3.325  10.946 -0.0268  0.4156 -0.1259
   85MPD2     C 1295   1.228   2.127  16.586 -0.7267 -0.3043  0.7297
   85MPD2    C1 1296   1.199   2.160  16.452  1.0506 -0.2567  0.1455
   85MPD2    C2 1297   1.264   2.264  16.387  0.8620  0.4805  0.0632
   85MPD2    C3 1298   1.348   2.350  16.455  0.1343  0.1317 -1.0132
   85MPD2    C4 1299   1.386   2.317  16.582  0.0300 -0.2130 -0.1086
   85MPD2    C5 1300   1.328   2.204  16.646 -0.1694 -0.0950 -1.2651
   85MPD2     H 1301   1.239   2.294  16.286 -1.2028 -2.6272 -0.3515
   85MPD2    H1 1302   1.452   2.382  16.638 -0.1222 -0.6372  0.5519
   85MPD2    H2 1303   1.177   2.048  16.639 -2.9682 -0.7128 -2.0488
   85MPD2    H3 1304   1.360   2.183  16.748 -0.8307 -0.1800 -1.0790
   85MPD2     N 1305   1.394   2.467  16.389 -0.3107 -0.1942 -0.8130
   85MPD2    H5 1306   1.384   2.473  16.288 -1.9844  1.2197 -0.5577
   85MPD2    N1 1307   1.108   2.083  16.376  0.0614  1.5004 -0.7172
   85MPD2    H7 1308   1.108   2.103  16.276 -0.6092  2.9195 -0.4382
   86TCq2    C1 1309   1.411   2.584  16.458  0.0514 -0.3322  0.1095
   86TCq2    O2 1310   1.389   2.610  16.579 -0.1125 -0.4059 -0.2441
   86TCq2    C2 1311   1.445   2.692  16.368  0.3415  0.0521  0.1550
   86TCq2    C3 1312   1.410   2.821  16.396 -0.0664 -0.3663  0.0058
   86TCq2    C4 1313   1.458   2.917  16.317 -0.1202  0.2921 -0.5762
   86TCq2    C5 1314   1.553   2.892  16.220 -0.1080  0.3326  0.8757
   86TCq2    C6 1315   1.595   2.764  16.207 -0.0870 -0.4971  0.1571
   86TCq2    C7 1316   1.544   2.661  16.286 -0.8057  0.7664 -0.2069
   86TCq2    C8 1317   1.639   2.721  16.079 -0.8774 -0.2030 -0.7352
   86TCq2    O4 1318   1.671   2.604  16.079 -0.4129  0.2900  0.1546
   86TCq2    C9 1319   1.408   3.051  16.332 -0.2781 -0.1034 -0.0143
   86TCq2    O5 1320   1.454   3.146  16.268  0.0420 -0.3519  1.1915
   86TCq2    O6 1321   1.309   3.060  16.409  0.5388  0.1118 -0.3910
   86TCq2    H2 1322   1.328   2.841  16.464  0.1012  1.6739 -0.3974
   86TCq2    H3 1323   1.596   2.967  16.155 -1.9800  0.5107 -0.1671
   86TCq2    H4 1324   1.583   2.560  16.279 -2.9099 -0.0126 -0.5381
   87MPD2     C 1325   3.526   0.374   1.105 -0.0008 -0.0335  0.2537
   87MPD2    C1 1326   3.403   0.410   1.048 -1.0765 -0.1193 -1.0252
   87MPD2    C2 1327   3.346   0.528   1.077 -0.3751 -0.6231 -0.4003
   87MPD2    C3 1328   3.410   0.615   1.167  0.0959 -0.0749  0.3559
   87MPD2    C4 1329   3.529   0.590   1.208 -0.1114 -0.2873 -0.4502
   87MPD2    C5 1330   3.590   0.469   1.184  0.6161  0.2117  0.3462
   87MPD2     H 1331   3.252   0.550   1.028 -0.2331  0.7322 -0.0623
   87MPD2    H1 1332   3.574   0.668   1.269 -2.2417 -0.1019  0.8797
   87MPD2    H2 1333   3.575   0.282   1.076 -2.3331 -0.9447 -0.7936
   87MPD2    H3 1334   3.689   0.437   1.214  0.3461 -0.1566  0.8480
   87MPD2     N 1335   3.347   0.737   1.196  0.1119 -0.0334  0.7013
   87MPD2    H5 1336   3.402   0.815   1.229  3.4925 -1.4478 -1.5320
   87MPD2    N1 1337   3.345   0.322   0.957  0.2721  0.0054 -0.2257
   87MPD2    H7 1338   3.409   0.250   0.925  0.0504  0.2848 -1.2673
   88TCq2    C1 1339   3.217   0.322   0.911 -0.1952  0.0333  0.4445
   88TCq2    O2 1340   3.124   0.391   0.957  0.1672 -0.3588  0.0626
   88TCq2    C2 1341   3.187   0.216   0.817 -0.6226  0.0754  0.4279
   88TCq2    C3 1342   3.057   0.176   0.809  0.3144 -0.1405 -0.0703
   88TCq2    C4 1343   3.025   0.075   0.723  0.4161  0.6514  0.3306
   88TCq2    C5 1344   3.116   4.723   0.657  0.1165 -0.6346  0.7158
   88TCq2    C6 1345   3.243   0.050   0.669  0.5746 -0.6949  0.4056
   88TCq2    C7 1346   3.283   0.151   0.748 -0.8325  0.2515  1.2469
   88TCq2    C8 1347   3.348   4.707   0.596  0.2692  0.6685 -0.2743
   88TCq2    O4 1348   3.434   0.054   0.549  0.0463  0.3048 -0.0398
   88TCq2    C9 1349   2.882   0.048   0.697 -0.0416 -0.0707  0.3026
   88TCq2    O5 1350   2.807   0.150   0.713  0.1720 -0.1399 -0.8194
   88TCq2    O6 1351   2.861   4.664   0.643  0.1124  0.2785  0.4753
   88TCq2    H2 1352   2.970   0.232   0.841  1.0185  0.8750  0.1064
   88TCq2    H3 1353   3.081   4.655   0.580 -1.1103 -0.1520  0.8527
   88TCq2    H4 1354   3.385   0.187   0.741 -1.0232  0.6851  0.7167
   89MPD2     C 1355   4.210   3.903   1.915  0.0054 -1.2083 -0.0709
   89MPD2    C1 1356   4.082   3.914   1.871 -0.3828 -0.4096  0.0885
   89MPD2    C2 1357   4.056   3.980   1.751  0.2647  0.3701 -0.5331
   89MPD2    C3 1358   4.159   4.016   1.667  0.0757 -0.1909 -0.7297
   89MPD2    C4 1359   4.290   3.999   1.706 -0.1388  0.1177 -0.5021
   89MPD2    C5 1360   4.305   3.945   1.831 -0.3078 -0.4707 -0.2325
   89MPD2     H 1361   3.954   3.982   1.715  0.1431 -0.4001 -0.2175
   89MPD2    H1 1362   4.374   4.012   1.638  1.5628 -0.6389  1.4820
   89MPD2    H2 1363   4.223   3.851   2.009  1.1000 -1.0642 -0.1412
   89MPD2    H3 1364   4.406   3.917   1.860 -0.8147  0.2354  2.2068
   89MPD2     N 1365   4.130   4.069   1.541 -0.0757 -0.1723 -0.8664
   89MPD2    H5 1366   4.031   4.071   1.519 -0.0958 -1.8710 -0.9177
   89MPD2    N1 1367   3.968   3.871   1.944  0.1964 -0.2919  0.0243
   89MPD2    H7 1368   3.880   3.890   1.896  0.9186  0.3682 -1.0546
   90TCq2    C1 1369   4.218   4.122   1.445 -0.1668  0.4236  0.3161
   90TCq2    O2 1370   4.337   4.143   1.447  0.0548  0.0639 -0.4984
   90TCq2    C2 1371   4.150   4.144   1.320 -0.0372  0.7481  0.1976
   90TCq2    C3 1372   4.032   4.079   1.292  0.2288  0.2100 -0.3716
   90TCq2    C4 1373   3.989   4.086   1.160 -1.0291  0.3778  0.9652
   90TCq2    C5 1374   4.063   4.141   1.062  0.3416  0.1961 -0.4340
   90TCq2    C6 1375   4.192   4.188   1.094 -0.1304 -0.3724 -0.5260
   90TCq2    C7 1376   4.236   4.195   1.222  0.3439  0.5129  0.6034
   90TCq2    C8 1377   4.266   4.248   0.976 -0.6104  0.0243  0.0601
   90TCq2    O4 1378   4.204   4.267   0.868  0.0581  0.2635 -0.0732
   90TCq2    C9 1379   3.885   3.999   1.117  0.2207  0.1142 -0.4221
   90TCq2    O5 1380   3.795   3.955   1.196  0.1354  0.1677 -0.2764
   90TCq2    O6 1381   3.874   3.979   0.991  0.0898 -0.4643  0.0392
   90TCq2    H2 1382   3.974   4.025   1.367 -1.8007  3.3899  0.3628
   90TCq2    H3 1383   4.038   4.136   0.957 -0.8837  1.5606 -0.2051
   90TCq2    H4 1384   4.314   4.266   1.246  0.7731 -0.3400  1.7371
   91TMC2    C1 1385   0.724   3.309  16.869  0.2439  0.0898  0.4467
   91TMC2    C2 1386   0.826   3.364  16.798  0.3530 -0.0898  0.1482
   91TMC2    C3 1387   0.817   3.358  16.660  0.0438  0.2241  0.5367
   91TMC2    C4 1388   0.621   3.243  16.809 -0.1330  0.1241 -0.4399
   91TMC2    C5 1389   0.620   3.226  16.673  0.3450 -0.0508  0.1748
   91TMC2    C6 1390   0.716   3.290  16.596 -0.4503 -0.2427  0.2736
   91TMC2     C 1391   0.761   3.266  17.000  0.0073  0.3518  0.3732
   91TMC2     O 1392   0.676   3.269  17.087  0.2245 -0.5589  1.0331
   91TMC2     H 1393   0.909   3.413  16.848 -0.2684  1.3403 -0.2256
   91TMC2    H1 1394   0.552   3.186  16.871  0.3048  0.2145  0.1357
   91TMC2    H2 1395   0.714   3.289  16.488  0.3974 -1.8782  0.2710
   91TMC2    C7 1396   0.546   3.117  16.627  0.0854 -1.0771  0.2934
   91TMC2    C8 1397   0.906   3.441  16.575  0.2802  0.2105  0.0645
   91TMC2    O1 1398   0.541   3.020  16.699 -1.2843  0.2598  0.6845
   91TMC2    O2 1399   0.862   3.494  16.469  0.1823  0.2636 -0.1298
   91TMC2    O5 1400   1.039   3.431  16.612  0.6896 -0.2912  0.3261
   91TMC2    H5 1401   1.050   3.366  16.685 -3.4202 -1.4030 -0.0721
   92MPD2     C 1402   0.885   3.151  17.232  0.0671 -0.3125 -0.3840
   92MPD2    C1 1403   0.953   3.169  17.119 -0.5394 -0.4824  0.2936
   92MPD2    C2 1404   1.087   3.123  17.109 -0.0759 -0.1915 -0.8683
   92MPD2    C3 1405   1.144   3.055  17.211  0.1168 -0.5079 -0.1045
   92MPD2    C4 1406   1.072   3.038  17.327 -0.2990  0.0747 -0.2644
   92MPD2    C5 1407   0.949   3.093  17.335 -0.5987 -1.1293  1.2345
   92MPD2     H 1408   1.141   3.137  17.016 -0.2606 -0.1072 -0.9630
   92MPD2    H1 1409   1.131   3.015  17.414  0.3947 -1.9997 -1.2749
   92MPD2    H2 1410   0.782   3.180  17.246  0.4748  1.2593 -0.6945
   92MPD2    H3 1411   0.890   3.105  17.425  0.7556 -0.8236  2.0791
   92MPD2     N 1412   1.285   3.030  17.197  0.0525 -0.2808 -0.0122
   92MPD2    H5 1413   1.330   3.060  17.111  0.9818  0.7171  0.8143
   92MPD2    N1 1414   0.890   3.220  17.000  0.4706 -0.2948 -0.0251
   92MPD2    H7 1415   0.949   3.227  16.917 -1.6226 -2.3334 -1.6985
   93MPD2     C 1416   2.663   3.375  13.338 -0.4334  1.0674 -0.0162
   93MPD2    C1 1417   2.617   3.389  13.466  0.9447 -0.0464 -0.4748
   93MPD2    C2 1418   2.496   3.328  13.495 -0.0178 -0.3226  0.6027
   93MPD2    C3 1419   2.412   3.258  13.406  0.1504  0.0082 -0.1364
   93MPD2    C4 1420   2.460   3.257  13.273  0.0788  0.5174 -0.4694
   93MPD2    C5 1421   2.578   3.324  13.242 -0.3433 -0.3762 -0.3632
   93MPD2     H 1422   2.456   3.331  13.596 -1.4485 -0.0444  0.0264
   93MPD2    H1 1423   2.390   3.230  13.194  0.0841  2.2870 -1.0866
   93MPD2    H2 1424   2.744   3.436  13.298 -1.0820  1.6648 -0.4168
   93MPD2    H3 1425   2.596   3.332  13.135  0.8174 -0.0804 -0.1524
   93MPD2     N 1426   2.291   3.192  13.446  0.4570 -0.1019  0.0550
   93MPD2    H5 1427   2.265   3.215  13.541 -0.0912  0.5494 -0.2460
   93MPD2    N1 1428   2.678   3.461  13.566  0.3407  0.8165 -0.0580
   93MPD2    H7 1429   2.647   3.453  13.663  1.4478  3.6018  0.5376
   94TCq2    C1 1430   2.801   3.525  13.554  0.5558 -0.3353  0.3058
   94TCq2    O2 1431   2.876   3.532  13.458 -0.5638 -0.6068 -0.2130
   94TCq2    C2 1432   2.813   3.631  13.659 -0.0138  0.3877  0.7582
   94TCq2    C3 1433   2.721   3.647  13.752 -0.0852  0.3521  0.3314
   94TCq2    C4 1434   2.751   3.712  13.869 -0.3073 -0.0517 -0.2299
   94TCq2    C5 1435   2.875   3.755  13.894  0.5915 -0.2975 -0.0672
   94TCq2    C6 1436   2.964   3.748  13.792 -0.0405 -0.1413 -0.3699
   94TCq2    C7 1437   2.934   3.693  13.667 -0.4633  0.4829 -0.2298
   94TCq2    C8 1438   3.105   3.786  13.816 -0.5629 -0.5693 -0.4688
   94TCq2    O4 1439   3.158   3.762  13.924 -0.0725 -0.5745 -0.0003
   94TCq2    C9 1440   2.649   3.725  13.970 -0.2174  0.2080 -0.3932
   94TCq2    O5 1441   2.677   3.816  14.057  0.0378 -0.4837  0.7579
   94TCq2    O6 1442   2.549   3.648  13.969  0.1976 -0.2637 -0.4462
   94TCq2    H2 1443   2.623   3.605  13.732 -0.3853  1.6684 -1.0014
   94TCq2    H3 1444   2.902   3.805  13.987 -0.4831 -0.3586  0.2767
   94TCq2    H4 1445   3.007   3.666  13.592  0.1034  0.1712  0.4306
   95TMC2    C1 1446   2.567   0.160  15.690 -0.2009  0.6084 -0.7008
   95TMC2    C2 1447   2.547   0.063  15.596 -0.0188 -0.2449 -0.6291
   95TMC2    C3 1448   2.426   4.717  15.608 -0.6472 -0.3857 -0.4403
   95TMC2    C4 1449   2.477   0.184  15.794  0.0266  0.3440 -0.3468
   95TMC2    C5 1450   2.365   0.108  15.799  0.4844 -0.6651  0.4069
   95TMC2    C6 1451   2.331   0.017  15.704  0.1016 -0.0306 -0.0692
   95TMC2     C 1452   2.707   0.204  15.699  0.6723  0.2587 -0.3123
   95TMC2     O 1453   2.773   0.180  15.596  0.3516  0.3207 -0.2826
   95TMC2     H 1454   2.627   0.028  15.531  1.5744  2.3071 -0.0134
   95TMC2    H1 1455   2.505   0.250  15.876 -1.7898  1.7818 -0.8814
   95TMC2    H2 1456   2.234   4.695  15.718  0.7882 -0.6816  2.5065
   95TMC2    C7 1457   2.258   0.149  15.887  0.8975  0.3168 -0.0029
   95TMC2    C8 1458   2.388   4.602  15.519  0.1826 -0.2085  0.3416
   95TMC2    O1 1459   2.138   0.128  15.862  0.4793 -0.2569  0.1352
   95TMC2    O2 1460   2.356   4.631  15.405 -0.2894 -0.0540 -0.1428
   95TMC2    O5 1461   2.346   4.502  15.588  0.4486  0.3754  0.1020
   95TMC2    H5 1462   2.377   4.511  15.681  1.8523  3.1579 -0.6376
   96MPD2     C 1463   3.110   0.438  15.901 -0.0096  0.1102 -0.6539
   96MPD2    C1 1464   3.080   0.415  15.766  0.3854 -0.9947  0.1267
   96MPD2    C2 1465   2.954   0.356  15.740 -0.4290  0.4031 -0.8971
   96MPD2    C3 1466   2.868   0.317  15.838  0.7395 -0.5105  0.1971
   96MPD2    C4 1467   2.905   0.332  15.969 -0.0383 -0.0322  0.6828
   96MPD2    C5 1468   3.019   0.403  15.998  0.5322 -0.5389  0.3658
   96MPD2     H 1469   2.922   0.339  15.638 -0.5389  1.8831 -1.1072
   96MPD2    H1 1470   2.838   0.317  16.053 -1.6719 -1.3141 -0.8389
   96MPD2    H2 1471   3.197   0.492  15.934  0.5551 -0.0847 -1.8348
   96MPD2    H3 1472   3.037   0.437  16.100  0.7472  0.2126  0.0775
   96MPD2     N 1473   2.746   0.253  15.822  0.4350 -0.0268  0.0792
   96MPD2    H5 1474   2.680   0.250  15.899 -1.4257 -0.7889 -1.5621
   96MPD2    N1 1475   3.177   0.440  15.659  0.3202  1.1203  0.4440
   96MPD2    H7 1476   3.264   0.483  15.689  1.9744 -1.2857 -0.8830
   97MPD2     C 1477   0.152   2.556   1.927 -0.0630  0.3519  0.4771
   97MPD2    C1 1478   0.180   2.643   1.826 -0.2063 -0.2589 -0.3491
   97MPD2    C2 1479   0.202   2.608   1.694  0.3029 -0.8156 -0.7409
   97MPD2    C3 1480   0.211   2.475   1.667 -0.3120 -0.1753 -0.4448
   97MPD2    C4 1481   0.182   2.386   1.768  0.4917 -0.8523  0.2263
   97MPD2    C5 1482   0.154   2.422   1.896  0.4090 -0.1557  0.4548
   97MPD2     H 1483   0.211   2.682   1.616 -0.4801  3.4250  3.1687
   97MPD2    H1 1484   0.196   2.280   1.751  1.6006 -1.0279  2.2997
   97MPD2    H2 1485   0.124   2.577   2.030  1.3062 -0.0471  0.9424
   97MPD2    H3 1486   0.128   2.346   1.969  1.1737  0.6385  1.5421
   97MPD2     N 1487   0.245   2.420   1.541  0.7318 -0.0808 -0.1214
   97MPD2    H5 1488   0.232   2.320   1.530  0.8989 -0.3472  2.0787
   97MPD2    N1 1489   0.178   2.783   1.862  0.3721  0.1097 -0.3315
   97MPD2    H7 1490   0.171   2.814   1.958  1.6983  0.6016 -0.3950
   98TCq2    C1 1491   0.288   2.499   1.432 -0.5149 -0.3472 -0.2834
   98TCq2    O2 1492   0.334   2.615   1.429 -0.4410 -0.6607  0.2355
   98TCq2    C2 1493   0.320   2.425   1.313  0.0154  0.2172 -0.4426
   98TCq2    C3 1494   0.307   2.289   1.324 -0.1000 -0.2027 -0.3787
   98TCq2    C4 1495   0.377   2.210   1.236 -0.0605  0.1553 -0.5817
   98TCq2    C5 1496   0.469   2.271   1.144 -0.7331  0.3302 -0.0369
   98TCq2    C6 1497   0.468   2.409   1.141 -0.7297 -1.2024 -0.4676
   98TCq2    C7 1498   0.391   2.492   1.220  0.3284 -0.0425 -0.1491
   98TCq2    C8 1499   0.481   2.464   1.007  0.0875 -0.5625 -0.1926
   98TCq2    O4 1500   0.590   2.468   0.963 -0.2204 -0.3361 -0.4011
   98TCq2    C9 1501   0.347   2.068   1.223  0.1964  0.0684  0.7188
   98TCq2    O5 1502   0.274   2.017   1.314 -0.1096  0.2988  0.4028
   98TCq2    O6 1503   0.392   2.001   1.128  0.9682 -0.0996  1.2489
   98TCq2    H2 1504   0.237   2.241   1.392 -1.3894 -0.0338 -1.5760
   98TCq2    H3 1505   0.509   2.211   1.063  0.2355 -1.9037  2.1210
   98TCq2    H4 1506   0.400   2.599   1.206 -0.8850  0.1675  0.7649
   99MPD2     C 1507   3.622   0.096   1.566  0.4751 -0.1530 -0.6531
   99MPD2    C1 1508   3.486   0.088   1.547 -0.1198 -0.0591 -0.2627
   99MPD2    C2 1509   3.431   4.700   1.501  0.1460 -0.3736 -0.3664
   99MPD2    C3 1510   3.506   4.588   1.468 -0.0669 -0.0804 -0.4485
   99MPD2    C4 1511   3.642   4.591   1.500 -0.0853  0.2910 -0.3608
   99MPD2    C5 1512   3.700   4.708   1.537 -0.2201 -0.9847 -0.4668
   99MPD2     H 1513   3.324   4.701   1.485  0.0767 -1.5947  0.0280
   99MPD2    H1 1514   3.715   4.512   1.486 -0.1874  0.2940 -0.8823
   99MPD2    H2 1515   3.675   0.183   1.603 -0.1327 -0.3133  0.5889
   99MPD2    H3 1516   3.808   4.701   1.541 -0.2104  0.6395  1.7093
   99MPD2     N 1517   3.437   4.476   1.412 -0.5641  0.5099 -0.0213
   99MPD2    H5 1518   3.338   4.488   1.393 -0.2434  0.7158 -1.6294
   99MPD2    N1 1519   3.397   0.194   1.573  0.3573  0.3105 -0.4867
   99MPD2    H7 1520   3.297   0.186   1.558  0.1522 -1.5336  1.9359
  100TCq2    C1 1521   3.444   0.324   1.592  0.1092 -0.2049 -0.5192
  100TCq2    O2 1522   3.555   0.374   1.594  0.0242  0.6579  0.2866
  100TCq2    C2 1523   3.333   0.420   1.590  1.0007  0.7865 -0.1424
  100TCq2    C3 1524   3.364   0.545   1.573  0.1024 -0.2009 -0.8098
  100TCq2    C4 1525   3.265   0.635   1.602 -0.0517 -0.7337  0.0539
  100TCq2    C5 1526   3.138   0.605   1.648  0.3764  0.5947 -0.8951
  100TCq2    C6 1527   3.115   0.475   1.673 -0.1748 -0.6051 -0.2572
  100TCq2    C7 1528   3.209   0.383   1.647 -0.8487  0.0471 -0.0047
  100TCq2    C8 1529   2.987   0.441   1.731  0.1359  0.0551  0.0203
  100TCq2    O4 1530   2.912   0.532   1.761  0.5408 -0.2613  0.2150
  100TCq2    C9 1531   3.290   0.775   1.569  0.0141 -0.0994 -0.5006
  100TCq2    O5 1532   3.194   0.848   1.594  0.2207  0.0938  0.0037
  100TCq2    O6 1533   3.410   0.807   1.543  0.2789 -0.0959  0.1983
  100TCq2    H2 1534   3.465   0.577   1.547  0.1335 -1.0848 -1.7995
  100TCq2    H3 1535   3.060   0.680   1.659  0.3124  0.4847 -0.6096
  100TCq2    H4 1536   3.199   0.284   1.690 -0.0529  0.0775  0.2482
  101MPD2     C 1537   0.092   1.245  13.229  0.8609  0.0519  0.4452
  101MPD2    C1 1538   4.712   1.327  13.258 -0.1337 -0.8503  0.5818
  101MPD2    C2 1539   4.617   1.282  13.349  0.1971  0.7672 -0.6145
  101MPD2    C3 1540   4.625   1.154  13.399 -0.7113  0.2847 -0.9022
  101MPD2    C4 1541   0.011   1.076  13.372 -0.0936  0.6160 -0.2469
  101MPD2    C5 1542   0.110   1.123  13.288  0.5552 -0.1764  0.8364
  101MPD2     H 1543   4.539   1.353  13.374  2.2231  2.3574  1.1977
  101MPD2    H1 1544   0.030   0.978  13.414 -1.1847 -0.1281 -1.4791
  101MPD2    H2 1545   0.176   1.283  13.173  0.1009 -1.7000 -1.8844
  101MPD2    H3 1546   0.188   1.052  13.261  0.7034  0.1212  0.4730
  101MPD2     N 1547   4.518   1.107  13.480 -0.1283 -0.3853 -0.1492
  101MPD2    H5 1548   4.443   1.173  13.502  1.6174  1.2660  0.8754
  101MPD2    N1 1549   4.707   1.454  13.189  0.1953  0.3114 -0.1566
  101MPD2    H7 1550   0.039   1.464  13.105  0.2170 -2.2746 -0.4389
  102TCq2    C1 1551   0.102   1.649  12.813  0.0333 -0.5267  0.4913
  102TCq2    O2 1552   0.200   1.587  12.858 -0.0278  0.0526  0.6158
  102TCq2    C2 1553   0.001   1.693  12.909  0.6275  0.4010  0.1030
  102TCq2    C3 1554   4.611   1.749  12.866  0.2888 -0.4290 -0.5860
  102TCq2    C4 1555   4.523   1.788  12.963 -0.1946  0.5334  0.3251
  102TCq2    C5 1556   4.547   1.752  13.088 -0.1355  0.0139  0.0466
  102TCq2    C6 1557   4.657   1.682  13.127 -0.4324 -0.2430 -0.1794
  102TCq2    C7 1558   0.034   1.660  13.039  0.2385 -0.4104  1.0230
  102TCq2    C8 1559   4.621   1.562  13.201 -0.3439  0.6167  0.1083
  102TCq2    O4 1560   4.529   1.566  13.282  0.0275 -0.6203 -0.3708
  102TCq2    C9 1561   4.395   1.853  12.943  0.1483  0.5533 -0.0993
  102TCq2    O5 1562   4.333   1.889  13.045 -0.0913  0.6149 -0.2472
  102TCq2    O6 1563   4.358   1.883  12.822 -0.5883 -0.1275 -0.2179
  102TCq2    H2 1564   4.580   1.772  12.764 -1.2637 -0.2697 -0.0867
  102TCq2    H3 1565   4.489   1.790  13.171  1.2039  0.5678  0.7484
  102TCq2    H4 1566   0.129   1.616  13.068 -1.0745 -2.2379  2.5569
  103TMC2    C1 1567   2.888   1.758  12.897  0.9613 -0.0712 -0.6781
  103TMC2    C2 1568   2.910   1.890  12.868  0.5542  0.1461 -0.2891
  103TMC2    C3 1569   2.934   1.974  12.975  0.5245 -0.6689 -0.1212
  103TMC2    C4 1570   2.890   1.710  13.027  0.1968 -0.4104 -0.3916
  103TMC2    C5 1571   2.919   1.800  13.123 -0.7383  0.1620 -1.0314
  103TMC2    C6 1572   2.947   1.935  13.102 -0.2074 -0.1773 -0.5835
  103TMC2     C 1573   2.933   1.670  12.796  0.4305  0.2653 -0.5068
  103TMC2     O 1574   2.914   1.711  12.682  0.7124 -0.1635  0.0270
  103TMC2     H 1575   2.918   1.929  12.768  0.1943  1.5446  0.2347
  103TMC2    H1 1576   2.860   1.606  13.038 -3.0947  0.9842  4.0357
  103TMC2    H2 1577   2.950   2.010  13.181  0.1305 -2.2815  1.4014
  103TMC2    C7 1578   2.948   1.741  13.253 -0.0511  0.0285  0.3414
  103TMC2    C8 1579   2.964   2.108  12.926 -0.7446 -0.0269 -0.2395
  103TMC2    O1 1580   2.918   1.621  13.263  0.2659 -0.7775 -0.2748
  103TMC2    O2 1581   2.890   2.173  12.851 -0.4360 -0.1022 -0.1798
  103TMC2    O5 1582   3.084   2.131  12.970  0.2199  0.1188  0.6133
  103TMC2    H5 1583   3.122   2.065  13.031 -0.1853 -0.9537 -0.2944
  104MPD2     C 1584   3.206   1.428  12.812 -0.8391 -0.5288 -0.0285
  104MPD2    C1 1585   3.102   1.496  12.752  0.1624 -0.1413 -0.2286
  104MPD2    C2 1586   3.087   1.485  12.615  0.2986 -0.0936  0.1157
  104MPD2    C3 1587   3.169   1.407  12.539 -0.0500 -0.5737  0.3704
  104MPD2    C4 1588   3.268   1.330  12.603 -0.2317  0.3524  0.3133
  104MPD2    C5 1589   3.287   1.357  12.734  0.1674 -0.0784 -0.2521
  104MPD2     H 1590   3.002   1.538  12.571 -1.7383  0.0838  4.2713
  104MPD2    H1 1591   3.332   1.257  12.555 -1.3897 -0.0464 -0.6379
  104MPD2    H2 1592   3.220   1.433  12.919 -3.0454  2.4084  0.1032
  104MPD2    H3 1593   3.362   1.296  12.784  0.1880  0.0076 -0.1767
  104MPD2     N 1594   3.141   1.395  12.401  0.5585  0.4136 -0.7081
  104MPD2    H5 1595   3.075   1.460  12.358 -0.5921  1.1941  2.1884
  104MPD2    N1 1596   3.021   1.569  12.842 -0.5063 -0.3559  0.1182
  104MPD2    H7 1597   3.054   1.565  12.938  3.4742 -1.2894 -1.2911
  105MPD2     C 1598   0.029   0.080   0.030 -0.4540 -0.4540 -0.2145
  105MPD2    C1 1599   4.656   0.132  17.646  0.6209 -0.0130 -0.9300
  105MPD2    C2 1600   4.530   0.096  17.667 -0.0179  0.5256  0.1617
  105MPD2    C3 1601   4.496   0.006   0.064 -0.5195 -0.5495 -0.7499
  105MPD2    C4 1602   4.588   4.659   0.124 -0.1228 -0.3048  0.2862
  105MPD2    C5 1603   4.712   4.697   0.108  0.9093 -0.2916  0.0872
  105MPD2     H 1604   4.455   0.140  17.603  0.2274  0.9158  0.1364
  105MPD2    H1 1605   4.568   4.587   0.202  1.3591  0.3113  1.2347
  105MPD2    H2 1606   0.134   0.098   0.010 -0.9410  2.5104 -0.1133
  105MPD2    H3 1607   0.061   4.645   0.168 -0.1600 -1.6755  0.2002
  105MPD2     N 1608   4.355   4.717   0.084 -0.4285  0.4882  0.3177
  105MPD2    H5 1609   4.299   0.063   0.035 -0.3734  0.4938  0.2631
  105MPD2    N1 1610   4.687   0.223  17.540 -0.7109 -0.0571 -0.5980
  105MPD2    H7 1611   4.614   0.237  17.471 -0.4338 -1.8286 -1.2783
  106TCq2    C1 1612   4.296   4.613   0.155  0.1647 -0.0126 -0.1566
  106TCq2    O2 1613   4.343   4.516   0.214 -0.1303  0.9042 -0.4177
  106TCq2    C2 1614   4.154   4.650   0.176 -0.6642  0.2276  0.1760
  106TCq2    C3 1615   4.112   0.048   0.149  0.1206 -0.1355 -0.0139
  106TCq2    C4 1616   3.978   0.076   0.140 -0.3054 -0.0639  0.0565
  106TCq2    C5 1617   3.890   4.703   0.179  0.5548 -0.8161  0.8204
  106TCq2    C6 1618   3.939   4.579   0.212  0.4295 -0.0407 -0.3185
  106TCq2    C7 1619   4.073   4.547   0.209  0.2028 -0.3776  0.1504
  106TCq2    C8 1620   3.849   4.478   0.255  0.4274 -0.4189 -0.4721
  106TCq2    O4 1621   3.898   4.371   0.263  0.3897  0.0882  0.1046
  106TCq2    C9 1622   3.937   0.202   0.083 -0.1083 -0.1136 -0.8212
  106TCq2    O5 1623   3.815   0.225   0.073  0.4324 -0.6140 -0.1963
  106TCq2    O6 1624   4.029   0.276   0.028  0.9676 -0.3806 -0.2068
  106TCq2    H2 1625   4.183   0.129   0.136 -0.5626  0.5095  0.2710
  106TCq2    H3 1626   3.786   0.005   0.162  1.3965  1.1970 -1.2520
  106TCq2    H4 1627   4.114   4.458   0.255 -0.8330 -0.9476 -0.0387
  107TMC2    C1 1628   0.668   4.167  11.724 -0.6014  0.0247 -0.0163
  107TMC2    C2 1629   0.772   4.189  11.637  0.0182 -0.0547 -1.2201
  107TMC2    C3 1630   0.791   4.093  11.546  0.1994  0.5499 -0.1288
  107TMC2    C4 1631   0.589   4.054  11.714  0.6613  0.2330  0.2768
  107TMC2    C5 1632   0.616   3.965  11.617  0.4619  0.0898 -0.4523
  107TMC2    C6 1633   0.722   3.976  11.536 -0.3053  0.3285  0.3293
  107TMC2     C 1634   0.606   4.267  11.814 -0.0721  0.1090  0.1589
  107TMC2     O 1635   0.539   4.219  11.901  1.3194 -0.0784 -0.3202
  107TMC2     H 1636   0.842   4.268  11.661 -0.4296  0.4475 -1.5655
  107TMC2    H1 1637   0.499   4.039  11.773  0.8506 -0.2327  0.4463
  107TMC2    H2 1638   0.755   3.907  11.459 -1.9893 -1.4030  1.1851
  107TMC2    C7 1639   0.565   3.831  11.648 -0.0487 -0.5041  0.2021
  107TMC2    C8 1640   0.914   4.109  11.465 -0.4184  0.0392  0.1289
  107TMC2    O1 1641   0.515   3.810  11.758 -0.1044 -0.2707 -0.1686
  107TMC2    O2 1642   0.935   4.022  11.384 -0.2532 -0.3851 -0.4325
  107TMC2    O5 1643   0.902   4.240  11.420 -0.0201 -0.0238  0.6051
  107TMC2    H5 1644   0.850   4.301  11.475  0.6542  0.7288  0.4108
  108MPD2     C 1645   0.611   4.637  11.785  0.0169  0.0257  0.5011
  108MPD2    C1 1646   0.594   4.515  11.852  0.5416 -0.5679 -0.3304
  108MPD2    C2 1647   0.516   4.522  11.974  0.9085  0.3229  0.2217
  108MPD2    C3 1648   0.436   4.629  12.002 -0.0254  0.4685 -0.1590
  108MPD2    C4 1649   0.453   0.021  11.928 -0.7639  0.4514  0.1144
  108MPD2    C5 1650   0.547   0.027  11.831  0.1770 -0.2855 -0.3921
  108MPD2     H 1651   0.519   4.433  12.035 -2.9980  0.8474  1.1621
  108MPD2    H1 1652   0.380   0.097  11.952 -1.3545 -1.0291  3.0318
  108MPD2    H2 1653   0.673   4.643  11.696 -1.3923 -1.2131 -0.5679
  108MPD2    H3 1654   0.554   0.123  11.781 -1.2825  0.2427  0.4216
  108MPD2     N 1655   0.345   4.628  12.105  0.4196  0.3531 -0.0084
  108MPD2    H5 1656   0.283   4.708  12.114  1.1805  0.7737  1.6397
  108MPD2    N1 1657   0.634   4.396  11.781  0.3094 -0.1130 -0.8482
  108MPD2    H7 1658   0.684   4.406  11.694  0.5068  0.6200 -0.6487
  109MPD2     C 1659   0.275   2.381   2.525  1.0319  0.2585  0.3650
  109MPD2    C1 1660   0.356   2.448   2.444  0.1363  0.1839 -0.2754
  109MPD2    C2 1661   0.414   2.563   2.484 -0.8351 -0.9292  0.1753
  109MPD2    C3 1662   0.411   2.601   2.616 -0.0531 -0.7078 -0.4280
  109MPD2    C4 1663   0.321   2.536   2.695 -0.1619 -0.1382  0.7398
  109MPD2    C5 1664   0.253   2.427   2.653  0.0351  0.0608  0.2199
  109MPD2     H 1665   0.499   2.611   2.437 -2.1793  0.9025 -0.3831
  109MPD2    H1 1666   0.298   2.577   2.793  0.3643  1.4105  0.2139
  109MPD2    H2 1667   0.209   2.297   2.508  0.4290  0.7099  0.4843
  109MPD2    H3 1668   0.175   2.385   2.715  0.1857  0.6965  0.8344
  109MPD2     N 1669   0.483   2.715   2.655 -0.0189  0.3525  0.1442
  109MPD2    H5 1670   0.550   2.758   2.591 -1.9307  2.8635 -0.1813
  109MPD2    N1 1671   0.367   2.389   2.319 -0.1404  0.2372 -0.7246
  109MPD2    H7 1672   0.311   2.305   2.309 -2.2977  1.7305 -1.1502
  110TCq2    C1 1673   0.484   2.767   2.785 -0.0210 -0.5029 -0.2532
  110TCq2    O2 1674   0.420   2.721   2.881 -0.9713  0.8388 -0.0722
  110TCq2    C2 1675   0.537   2.899   2.806 -0.7836  1.3947  0.5323
  110TCq2    C3 1676   0.504   2.974   2.912 -0.0368  0.2872  1.6781
  110TCq2    C4 1677   0.548   3.103   2.922 -0.0382  0.5527  0.4629
  110TCq2    C5 1678   0.603   3.173   2.820  0.3480  0.5297 -0.1625
  110TCq2    C6 1679   0.619   3.099   2.703 -0.8810 -1.0131 -1.1700
  110TCq2    C7 1680   0.597   2.963   2.703  0.6524 -0.1396 -0.2262
  110TCq2    C8 1681   0.608   3.168   2.575 -0.0888  1.2151  0.5063
  110TCq2    O4 1682   0.613   3.087   2.482 -0.6696 -0.7809 -0.1399
  110TCq2    C9 1683   0.527   3.171   3.048  0.1176  0.3280 -0.6170
  110TCq2    O5 1684   0.458   3.119   3.138  0.2159  0.0221  0.1169
  110TCq2    O6 1685   0.594   3.274   3.073 -0.3150 -0.2223 -0.2958
  110TCq2    H2 1686   0.459   2.921   2.995 -0.1970 -1.3954  0.5188
  110TCq2    H3 1687   0.634   3.275   2.836  1.0463  0.2803  0.1061
  110TCq2    H4 1688   0.616   2.904   2.615 -0.9914  1.6687 -1.8088
  111TMC2    C1 1689   0.108   1.754  11.619 -0.2526  0.0618  0.7883
  111TMC2    C2 1690   0.013   1.799  11.705 -0.4085  0.3246  0.4244
  111TMC2    C3 1691   0.017   1.750  11.834 -0.7945 -0.4127  0.1831
  111TMC2    C4 1692   0.216   1.684  11.666 -0.1379  0.3675 -0.6553
  111TMC2    C5 1693   0.220   1.647  11.802  0.0831  0.6471  0.0825
  111TMC2    C6 1694   0.123   1.689  11.886  0.2401  0.2444  0.1282
  111TMC2     C 1695   0.114   1.796  11.477  0.5617 -0.2909  0.1373
  111TMC2     O 1696   0.193   1.738  11.403  0.5701 -0.0399 -0.6257
  111TMC2     H 1697   4.663   1.869  11.670  1.6454  2.3241  0.0357
  111TMC2    H1 1698   0.285   1.641  11.595  0.7635  1.1865 -0.2794
  111TMC2    H2 1699   0.117   1.642  11.984  1.7650 -1.0891 -0.4135
  111TMC2    C7 1700   0.337   1.599  11.863 -0.8344  0.3420  0.1330
  111TMC2    C8 1701   4.654   1.821  11.925 -0.1901  0.5528 -0.7898
  111TMC2    O1 1702   0.328   1.552  11.979 -0.7842 -1.0618  0.0565
  111TMC2    O2 1703   4.628   1.939  11.904  0.9278  0.2412  0.3527
  111TMC2    O5 1704   4.643   1.766  12.050 -0.0507  0.3895  0.0939
  111TMC2    H5 1705   4.637   1.668  12.047  0.7263  0.3900 -1.2195
  112MPD2     C 1706   0.019   2.119  11.107 -0.0073 -0.1291  0.3773
  112MPD2    C1 1707   0.038   1.982  11.102  0.2637  0.3461 -0.2328
  112MPD2    C2 1708   0.062   1.911  11.218 -0.0005  0.1015  0.6516
  112MPD2    C3 1709   0.042   1.980  11.339  0.5165  0.3207 -0.2132
  112MPD2    C4 1710   4.723   2.113  11.341 -0.2889  0.0920 -0.4785
  112MPD2    C5 1711   4.718   2.180  11.225 -0.3682 -0.0929 -0.1701
  112MPD2     H 1712   0.085   1.806  11.230 -0.2567 -0.0175  0.0939
  112MPD2    H1 1713   4.690   2.156  11.435 -1.6111 -0.6204 -0.6247
  112MPD2    H2 1714   4.723   2.177  11.018 -1.4687 -1.9460 -0.4727
  112MPD2    H3 1715   4.682   2.282  11.225 -0.8430 -0.2601 -1.5853
  112MPD2     N 1716   0.060   1.919  11.462 -0.4046 -0.0299  0.1441
  112MPD2    H5 1717   0.047   1.971  11.547 -0.6150 -1.2188  0.8387
  112MPD2    N1 1718   0.063   1.915  10.981 -0.3950 -0.1382 -0.2469
  112MPD2    H7 1719   0.097   1.820  10.982  0.3253  0.1436  2.1168
  113MPD2     C 1720   2.529   4.073   1.086  0.0670  0.3158  0.6045
  113MPD2    C1 1721   2.486   4.147   0.973  0.1370  0.6591  0.5480
  113MPD2    C2 1722   2.406   4.075   0.891  0.1005  0.3974  0.4639
  113MPD2    C3 1723   2.363   3.945   0.911 -0.1211 -0.0107  0.0508
  113MPD2    C4 1724   2.406   3.880   1.023 -0.3807  0.2421  0.1179
  113MPD2    C5 1725   2.482   3.946   1.106 -0.1862  0.1828 -0.3361
  113MPD2     H 1726   2.371   4.125   0.801 -1.7400  0.0780  0.9967
  113MPD2    H1 1727   2.382   3.777   1.045  1.0990 -0.2423 -0.5497
  113MPD2    H2 1728   2.604   4.107   1.156 -1.3711  1.2895  1.6680
  113MPD2    H3 1729   2.518   3.895   1.195  0.3853  0.4913 -0.3884
  113MPD2     N 1730   2.273   3.874   0.820  0.8214  0.6354 -0.1410
  113MPD2    H5 1731   2.238   3.785   0.851  1.7227  1.0320  2.0185
  113MPD2    N1 1732   2.517   4.292   0.953  0.1711 -0.2358  0.2040
  113MPD2    H7 1733   2.459   4.341   0.886 -0.6093 -1.1085  0.2335
  114TCq2    C1 1734   2.220   3.932   0.708  0.3645  0.3668  0.1448
  114TCq2    O2 1735   2.228   4.050   0.670  0.4671  0.5578 -0.0107
  114TCq2    C2 1736   2.130   3.840   0.639 -0.6027 -0.1886  0.1705
  114TCq2    C3 1737   2.059   3.895   0.544 -0.5590 -0.5223 -0.9251
  114TCq2    C4 1738   1.966   3.815   0.484 -0.2502  0.2860 -0.6368
  114TCq2    C5 1739   1.950   3.681   0.513  0.3967  0.2914  0.1418
  114TCq2    C6 1740   2.027   3.633   0.616  0.1750 -0.5872 -0.8311
  114TCq2    C7 1741   2.118   3.709   0.675 -0.4392  0.6067  0.6914
  114TCq2    C8 1742   2.007   3.488   0.651  0.2673 -0.5269 -0.0475
  114TCq2    O4 1743   1.937   3.425   0.572 -0.3239  0.2265  0.1420
  114TCq2    C9 1744   1.863   3.866   0.397  0.3096 -0.1197 -0.3991
  114TCq2    O5 1745   1.850   3.990   0.381 -0.2929 -0.2827  0.2339
  114TCq2    O6 1746   1.791   3.777   0.348  0.1668 -0.4175 -0.0065
  114TCq2    H2 1747   2.049   4.001   0.522 -0.4165 -0.2101  0.5068
  114TCq2    H3 1748   1.877   3.618   0.463  1.6033 -1.1638  0.2093
  114TCq2    H4 1749   2.172   3.665   0.757  0.5863 -1.3126 -1.0342
  115TMC2    C1 1750   3.438   1.973   0.228 -0.1917  0.2207 -0.3917
  115TMC2    C2 1751   3.442   1.917   0.353 -0.8064 -0.2070 -1.3686
  115TMC2    C3 1752   3.427   1.998   0.457 -0.2530  0.4169 -0.1503
  115TMC2    C4 1753   3.440   2.108   0.208 -0.3504  0.4036  0.1318
  115TMC2    C5 1754   3.438   2.186   0.318 -0.9817  0.8280  0.4536
  115TMC2    C6 1755   3.425   2.130   0.441 -0.4109 -0.0790  0.4023
  115TMC2     C 1756   3.410   1.888   0.110  0.5018 -0.0445 -0.7361
  115TMC2     O 1757   3.442   1.928  17.699 -0.6723  0.1351 -0.6270
  115TMC2     H 1758   3.439   1.811   0.375 -1.5341  0.4987  1.9666
  115TMC2    H1 1759   3.421   2.149   0.109  0.7881  1.8264  0.5049
  115TMC2    H2 1760   3.410   2.201   0.522 -2.8256  0.0307 -0.1404
  115TMC2    C7 1761   3.405   2.328   0.301 -0.3659 -0.8189  0.2318
  115TMC2    C8 1762   3.420   1.933   0.585 -0.1089 -0.1536 -0.7718
  115TMC2    O1 1763   3.343   2.382   0.391 -0.3262  0.4744  0.3520
  115TMC2    O2 1764   3.351   1.838   0.617  0.3591  0.0460 -0.5878
  115TMC2    O5 1765   3.466   2.024   0.673  0.5666  0.8987  0.2805
  115TMC2    H5 1766   3.541   2.076   0.637  1.1392  0.4432  0.8128
  116MPD2     C 1767   3.321   1.423  17.589  0.0224  0.2486  0.2281
  116MPD2    C1 1768   3.363   1.545  17.541 -0.0071 -0.6193 -0.0179
  116MPD2    C2 1769   3.378   1.657  17.621 -0.2046  0.0684 -0.0094
  116MPD2    C3 1770   3.339   1.648   0.059  0.3587 -0.5403 -0.6338
  116MPD2    C4 1771   3.287   1.533   0.105  0.5848  0.0096 -0.2132
  116MPD2    C5 1772   3.277   1.418   0.019  0.0914 -0.5488 -0.1734
  116MPD2     H 1773   3.416   1.747  17.574 -2.1618  0.8165 -0.1574
  116MPD2    H1 1774   3.247   1.518   0.204 -1.9051  0.8250 -1.1105
  116MPD2    H2 1775   3.322   1.342  17.518 -2.5855 -0.0400  0.5053
  116MPD2    H3 1776   3.223   1.336   0.065 -2.7409  0.3451 -1.9164
  116MPD2     N 1777   3.360   1.761   0.148  1.0776  0.0180 -0.3719
  116MPD2    H5 1778   3.327   1.747   0.243  1.9929 -1.0458 -0.2164
  116MPD2    N1 1779   3.408   1.547  17.409  0.1400  0.2891  0.5544
  116MPD2    H7 1780   3.417   1.456  17.365  0.5769  0.1091  1.0147
  117TMC2    C1 1781   2.089   3.769  14.177 -0.0189 -0.5824  0.4811
  117TMC2    C2 1782   2.161   3.665  14.216  0.4621  0.7339  0.1781
  117TMC2    C3 1783   2.299   3.681  14.219  0.1676  0.3462 -0.2516
  117TMC2    C4 1784   2.140   3.895  14.159  0.4032 -0.1623 -0.8125
  117TMC2    C5 1785   2.275   3.907  14.189 -0.0054  0.0283  0.7316
  117TMC2    C6 1786   2.360   3.802  14.216 -0.4821 -0.1382 -0.2617
  117TMC2     C 1787   1.954   3.755  14.136  0.2545 -0.2212 -0.1857
  117TMC2     O 1788   1.929   3.649  14.080  0.1263  0.1173 -0.0896
  117TMC2     H 1789   2.113   3.568  14.216 -2.3466  2.1402  0.0107
  117TMC2    H1 1790   2.083   3.986  14.143  1.1360  0.7834  2.0430
  117TMC2    H2 1791   2.465   3.819  14.235 -0.5357  0.4102 -0.4589
  117TMC2    C7 1792   2.339   4.029  14.203  0.0332 -0.1287  0.0975
  117TMC2    C8 1793   2.383   3.587  14.292  0.4539  0.2297 -0.3182
  117TMC2    O1 1794   2.340   4.105  14.104 -0.0856  0.0984  0.1159
  117TMC2    O2 1795   2.341   3.507  14.373 -0.1932 -0.9522 -0.9146
  117TMC2    O5 1796   2.478   3.568  14.204  0.0086  0.4073 -0.4467
  117TMC2    H5 1797   2.489   3.627  14.126  0.9887  0.5166 -0.2319
  118MPD2     C 1798   2.529   4.129  14.490 -0.3466  0.4161 -0.1352
  118MPD2    C1 1799   2.499   4.124  14.360  0.6354  0.5402  0.0342
  118MPD2    C2 1800   2.559   4.212  14.276  0.0502 -0.3509  1.0808
  118MPD2    C3 1801   2.669   4.289  14.320 -0.5946 -0.0093 -0.3785
  118MPD2    C4 1802   2.711   4.267  14.451  0.3174 -0.4141 -0.2486
  118MPD2    C5 1803   2.628   4.203  14.540  0.0102  0.3506  0.2213
  118MPD2     H 1804   2.521   4.222  14.175  4.0577 -1.4909 -0.5719
  118MPD2    H1 1805   2.799   4.313  14.495  0.8323 -2.1282  0.5209
  118MPD2    H2 1806   2.465   4.076  14.559  1.0330 -1.1466 -0.0399
  118MPD2    H3 1807   2.642   4.194  14.648 -1.4239 -1.1597  0.2841
  118MPD2     N 1808   2.748   4.370  14.238 -0.3634 -0.8610 -0.5451
  118MPD2    H5 1809   2.823   4.420  14.285 -0.4603 -1.6123  0.4092
  118MPD2    N1 1810   2.395   4.037  14.326  0.4320 -0.2900 -0.4065
  118MPD2    H7 1811   2.366   3.979  14.404  0.1944  0.6311  0.2028
  119MPD2     C 1812   0.507   1.072  13.398  0.2987 -0.1865  0.6681
  119MPD2    C1 1813   0.423   0.979  13.460 -0.1647  0.3499  0.1373
  119MPD2    C2 1814   0.407   0.850  13.406  0.6519  0.0573 -0.1181
  119MPD2    C3 1815   0.458   0.829  13.279 -0.3003 -0.4004  0.3402
  119MPD2    C4 1816   0.528   0.934  13.215 -0.1233 -0.4301 -0.3242
  119MPD2    C5 1817   0.569   1.042  13.282  0.5809 -0.2201 -0.8185
  119MPD2     H 1818   0.367   0.769  13.466 -0.0188  1.3039  1.1189
  119MPD2    H1 1819   0.572   0.914  13.117  1.6342  2.9714 -0.2410
  119MPD2    H2 1820   0.519   1.165  13.451 -1.3569  0.5042 -0.1807
  119MPD2    H3 1821   0.630   1.125  13.247 -1.2593  2.3428  2.0166
  119MPD2     N 1822   0.449   0.702  13.218 -0.2354 -0.1115  0.7451
  119MPD2    H5 1823   0.494   0.690  13.128  1.4812  1.1588  1.4348
  119MPD2    N1 1824   0.368   1.017  13.588  0.1260 -0.5821  0.0374
  119MPD2    H7 1825   0.386   1.107  13.631  1.4266 -1.4457  1.2971
  120TCq2    C1 1826   0.385   0.595  13.266  0.4294 -0.3227  0.1790
  120TCq2    O2 1827   0.323   0.569  13.365 -0.3983  0.1423 -0.0889
  120TCq2    C2 1828   0.396   0.471  13.179  0.2329  0.1209  0.0672
  120TCq2    C3 1829   0.487   0.449  13.077  0.6324 -0.4473  0.0382
  120TCq2    C4 1830   0.490   0.324  13.006  0.2281  0.3302 -0.2536
  120TCq2    C5 1831   0.415   0.224  13.042 -0.2478  0.0753 -0.6484
  120TCq2    C6 1832   0.331   0.241  13.156  0.5873  0.3622  0.6418
  120TCq2    C7 1833   0.329   0.356  13.231  0.2999 -0.2390  0.8789
  120TCq2    C8 1834   0.228   0.144  13.179 -0.3994 -0.4901 -0.2377
  120TCq2    O4 1835   0.184   0.070  13.091 -0.3621 -0.3009 -0.1676
  120TCq2    C9 1836   0.573   0.322  12.880  0.1008 -1.0838 -0.1565
  120TCq2    O5 1837   0.573   0.431  12.820 -0.0050 -0.3851 -0.2883
  120TCq2    O6 1838   0.601   0.206  12.841 -0.5787 -0.4639  0.4448
  120TCq2    H2 1839   0.554   0.531  13.053 -0.8101  0.9643  0.8830
  120TCq2    H3 1840   0.415   0.137  12.977  1.0032 -1.3303  1.2250
  120TCq2    H4 1841   0.261   0.361  13.315  0.0603  1.7687  0.5784
  121TMC2    C1 1842   2.086   2.586  13.998 -0.1185  0.3067  0.5014
  121TMC2    C2 1843   2.107   2.470  14.074  0.1936 -0.3395 -0.6282
  121TMC2    C3 1844   1.999   2.381  14.090 -0.1688  0.2827 -0.2481
  121TMC2    C4 1845   1.966   2.605  13.939  0.2604  0.2688  0.0542
  121TMC2    C5 1846   1.863   2.518  13.961  0.7344  0.0543  0.2345
  121TMC2    C6 1847   1.876   2.405  14.031  0.1995  0.5032  0.0541
  121TMC2     C 1848   2.201   2.672  13.978  0.0837  0.5801 -0.6109
  121TMC2     O 1849   2.288   2.668  14.062  0.0040 -0.1734  0.6998
  121TMC2     H 1850   2.206   2.451  14.115 -0.6032  2.0182  2.4013
  121TMC2    H1 1851   1.955   2.694  13.878  1.8611 -2.0880 -3.6500
  121TMC2    H2 1852   1.793   2.341  14.058 -0.1900  0.9552 -0.0696
  121TMC2    C7 1853   1.750   2.541  13.875 -0.1213 -0.2564  0.9761
  121TMC2    C8 1854   2.033   2.257  14.156 -0.3041 -0.2421  0.2422
  121TMC2    O1 1855   1.743   2.656  13.829  0.3984  0.2514 -0.3026
  121TMC2    O2 1856   1.967   2.206  14.243  0.0638  0.3103  0.1569
  121TMC2    O5 1857   2.149   2.213  14.118  0.2079 -0.0491 -0.1944
  121TMC2    H5 1858   2.178   2.266  14.040 -0.3055  3.0823  1.7528
  122MPD2     C 1859   2.390   2.882  13.858  0.2734  0.7734  0.1231
  122MPD2    C1 1860   2.311   2.796  13.785  0.5584  0.0593 -0.7306
  122MPD2    C2 1861   2.319   2.797  13.648  0.2994  0.1024  0.0517
  122MPD2    C3 1862   2.413   2.872  13.584 -0.8859 -0.2846 -0.1855
  122MPD2    C4 1863   2.481   2.968  13.652  0.0938  0.1027  0.3675
  122MPD2    C5 1864   2.484   2.960  13.788  0.5477 -0.0853 -0.0435
  122MPD2     H 1865   2.249   2.742  13.587 -0.4688  2.6606 -1.4121
  122MPD2    H1 1866   2.556   3.031  13.605  0.5081 -1.1885 -0.7024
  122MPD2    H2 1867   2.378   2.884  13.966  0.2477  1.8297  0.1021
  122MPD2    H3 1868   2.534   3.039  13.843 -1.1896  2.8124 -2.6232
  122MPD2     N 1869   2.447   2.853  13.443  0.2421  0.0656  0.3272
  122MPD2    H5 1870   2.499   2.920  13.388 -1.0796  0.6340 -0.2226
  122MPD2    N1 1871   2.208   2.716  13.849 -0.5310  0.7219  0.1473
  122MPD2    H7 1872   2.146   2.663  13.789 -0.0988 -1.2954  1.4622
  123MPD2     C 1873   1.337   4.205   9.508 -0.4689  0.3130  0.0863
  123MPD2    C1 1874   1.408   4.191   9.622  0.1070 -0.4049  0.6802
  123MPD2    C2 1875   1.519   4.106   9.625  0.1723 -0.3487 -0.7367
  123MPD2    C3 1876   1.567   4.048   9.512  0.4919 -0.1096 -0.2754
  123MPD2    C4 1877   1.482   4.053   9.395 -0.7072  0.0985 -0.3876
  123MPD2    C5 1878   1.371   4.134   9.396 -0.0997 -0.2437  0.1799
  123MPD2     H 1879   1.575   4.088   9.716  1.1790 -0.5485 -1.3932
  123MPD2    H1 1880   1.505   3.998   9.304 -0.4171  1.6563 -1.2729
  123MPD2    H2 1881   1.258   4.277   9.493 -1.1851 -0.6153 -0.5930
  123MPD2    H3 1882   1.313   4.144   9.305  1.1622  1.4060 -0.4525
  123MPD2     N 1883   1.683   3.962   9.522 -0.6110  0.0034  0.0717
  123MPD2    H5 1884   1.738   3.951   9.606 -0.5442  1.3040  0.2020
  123MPD2    N1 1885   1.371   4.274   9.727  0.4827 -0.9131 -0.0494
  123MPD2    H7 1886   1.295   4.338   9.706 -0.3605 -1.1612  2.3014
  124TCq2    C1 1887   1.737   3.903   9.407 -0.7586 -0.2425  0.6771
  124TCq2    O2 1888   1.720   3.932   9.289 -0.5236  0.0910  0.0456
  124TCq2    C2 1889   1.849   3.820   9.452 -0.8492 -0.1184 -0.0741
  124TCq2    C3 1890   1.962   3.860   9.388 -0.2368  0.3437  0.5034
  124TCq2    C4 1891   2.084   3.853   9.445 -0.2304 -0.5326 -0.1937
  124TCq2    C5 1892   2.094   3.820   9.578  0.0785  0.3089  0.1930
  124TCq2    C6 1893   1.983   3.777   9.641 -0.4109  0.0631  0.0509
  124TCq2    C7 1894   1.857   3.784   9.585 -0.4654  0.2542  0.4413
  124TCq2    C8 1895   1.983   3.758   9.786  0.3240 -0.2420  0.3941
  124TCq2    O4 1896   1.884   3.700   9.831 -0.2820  0.3952 -0.2525
  124TCq2    C9 1897   2.200   3.905   9.375  0.0696  0.8295  0.2194
  124TCq2    O5 1898   2.189   3.902   9.253  0.1564  0.4378 -0.2453
  124TCq2    O6 1899   2.286   3.962   9.445 -0.2089 -0.2197 -0.4680
  124TCq2    H2 1900   1.960   3.884   9.283 -0.2513  1.3180  0.7296
  124TCq2    H3 1901   2.198   3.815   9.608  0.3298 -2.4979 -1.1622
  124TCq2    H4 1902   1.770   3.747   9.637 -1.2233 -1.1753 -1.8768
  125TMC2    C1 1903   1.867   1.124   9.908  0.4339  0.6017 -0.0549
  125TMC2    C2 1904   1.959   1.038   9.965 -0.3802 -1.0635 -0.7077
  125TMC2    C3 1905   2.084   1.090  10.007  0.1396  1.3392  0.2438
  125TMC2    C4 1906   1.901   1.245   9.864 -0.7749 -0.1427 -0.0591
  125TMC2    C5 1907   2.029   1.288   9.892 -0.5381  0.0530 -0.7026
  125TMC2    C6 1908   2.121   1.214   9.967  0.1577  0.0527  0.0132
  125TMC2     C 1909   1.756   1.066   9.841 -0.2168 -0.0941  0.2353
  125TMC2     O 1910   1.747   0.942   9.839 -0.0389  0.3731 -0.2361
  125TMC2     H 1911   1.921   0.940   9.990 -0.6456 -1.1453 -1.4230
  125TMC2    H1 1912   1.842   1.302   9.793  0.1551  0.3548 -0.4345
  125TMC2    H2 1913   2.222   1.250   9.976  1.2667 -2.9266 -0.6248
  125TMC2    C7 1914   2.053   1.421   9.850  0.3676  0.6427 -0.0376
  125TMC2    C8 1915   2.187   0.991   9.997 -0.3715  0.3577  0.9604
  125TMC2    O1 1916   1.951   1.486   9.841 -0.0645 -0.5440 -0.3632
  125TMC2    O2 1917   2.257   0.967   9.899 -1.0691  0.2429 -0.1495
  125TMC2    O5 1918   2.158   0.900  10.093 -0.0697  0.1313  1.0221
  125TMC2    H5 1919   2.125   0.941  10.176  0.4720 -1.4858  2.0454
  126MPD1     C 1920   1.252   1.083   9.695  0.5074  0.1538 -0.0867
  126MPD1    C1 1921   1.306   1.211   9.710 -0.0497 -0.6800 -0.2273
  126MPD1    C2 1922   1.441   1.229   9.723 -0.0737 -0.0701  0.0569
  126MPD1    C3 1923   1.522   1.125   9.762  0.9138 -0.2928 -0.5833
  126MPD1    C4 1924   1.470   0.994   9.758 -0.3621  0.1130 -0.7170
  126MPD1    C5 1925   1.335   0.977   9.728  0.0384  0.5174  0.2498
  126MPD1     H 1926   1.483   1.329   9.726  1.5326 -0.8230  2.2216
  126MPD1    H1 1927   1.533   0.909   9.783 -1.6589 -0.2858  1.2436
  126MPD1    H2 1928   1.146   1.063   9.682  0.9679 -0.9049 -2.1870
  126MPD1    H3 1929   1.300   0.875   9.719  1.1012  0.1791  0.0265
  126MPD1     N 1930   1.654   1.158   9.808 -0.8826  0.1929  0.3724
  126MPD1    H5 1931   1.669   1.258   9.815 -1.4086  0.1713  1.7522
  126MPD1    N1 1932   1.230   1.317   9.663 -0.8512 -0.1629 -0.4085
  126MPD1    H6 1933   1.251   1.402   9.716  0.3468 -0.5936 -0.1996
  126MPD1    H7 1934   1.129   1.306   9.666 -0.9213  0.0608 -1.8458
  127MPD2     C 1935   2.825   0.297   9.515 -0.4588 -0.3883 -0.3319
  127MPD2    C1 1936   2.941   0.234   9.556  0.0388  0.1762 -0.2976
  127MPD2    C2 1937   3.029   0.306   9.639 -0.4289 -0.8571  0.0713
  127MPD2    C3 1938   3.006   0.433   9.664  0.2794 -0.6415 -0.7342
  127MPD2    C4 1939   2.895   0.499   9.609 -0.3721 -0.2280  0.9314
  127MPD2    C5 1940   2.804   0.424   9.548  0.0613 -0.6150  0.0646
  127MPD2     H 1941   3.122   0.267   9.679 -0.3117  0.3729  1.0011
  127MPD2    H1 1942   2.866   0.600   9.636  0.6417  0.1503  0.6092
  127MPD2    H2 1943   2.741   0.251   9.464 -1.9750  2.2216 -0.2107
  127MPD2    H3 1944   2.713   0.466   9.508 -1.1415 -2.6327  0.6609
  127MPD2     N 1945   3.089   0.501   9.753 -0.0236  0.0847 -0.5619
  127MPD2    H5 1946   3.159   0.447   9.803  0.2760  0.2911 -0.7671
  127MPD2    N1 1947   2.964   0.101   9.524 -0.2206  0.3839  0.2962
  127MPD2    H7 1948   2.882   0.051   9.491 -1.0856  1.7633  0.3702
  128TCq2    C1 1949   3.083   0.032   9.542 -0.1178  0.3285 -0.0706
  128TCq2    O2 1950   3.185   0.070   9.597  0.2339  1.0703 -0.2666
  128TCq2    C2 1951   3.078   4.618   9.495  0.9766 -0.4558 -0.1345
  128TCq2    C3 1952   3.162   4.524   9.549  0.5468  0.4637  0.1442
  128TCq2    C4 1953   3.183   4.408   9.485  0.1082 -0.0025 -0.6271
  128TCq2    C5 1954   3.121   4.377   9.371 -0.0427 -0.4410  0.1503
  128TCq2    C6 1955   3.039   4.472   9.321 -0.0521 -0.2079 -0.4654
  128TCq2    C7 1956   3.012   4.596   9.381 -0.3471 -0.6099  0.4644
  128TCq2    C8 1957   2.937   4.432   9.223 -0.4550 -0.8352 -0.5469
  128TCq2    O4 1958   2.879   4.520   9.161  0.1837  0.0229 -0.0493
  128TCq2    C9 1959   3.260   4.308   9.545 -0.1069  0.3343 -0.4573
  128TCq2    O5 1960   3.267   4.195   9.487 -0.0533  0.0674 -0.0922
  128TCq2    O6 1961   3.311   4.333   9.657 -0.1967 -0.0584 -0.3470
  128TCq2    H2 1962   3.203   4.545   9.647  1.5742  1.1110 -0.4233
  128TCq2    H3 1963   3.141   4.279   9.328  2.2328 -0.4487  1.1929
  128TCq2    H4 1964   2.955   4.669   9.323 -0.6359 -1.1168  0.1037
  129MPD2     C 1965   0.452   1.221   1.426  0.5471 -0.4864 -0.7633
  129MPD2    C1 1966   0.584   1.180   1.437  0.5665  0.4566  0.3414
  129MPD2    C2 1967   0.681   1.278   1.455 -1.0946  0.3745  0.5814
  129MPD2    C3 1968   0.650   1.414   1.448 -0.5751  0.1261 -0.5017
  129MPD2    C4 1969   0.515   1.447   1.445  0.1484  0.3351  0.4270
  129MPD2    C5 1970   0.415   1.354   1.433  0.2604 -0.2889  0.0712
  129MPD2     H 1971   0.785   1.251   1.467 -0.5190  2.9249  1.3897
  129MPD2    H1 1972   0.480   1.549   1.454 -0.0220  0.3769 -0.7362
  129MPD2    H2 1973   0.365   1.158   1.410 -0.9427  2.0401 -2.5357
  129MPD2    H3 1974   0.312   1.384   1.423  1.1714  2.5653 -0.6733
  129MPD2     N 1975   0.756   1.512   1.475 -0.0151  0.6290  0.3940
  129MPD2    H5 1976   0.848   1.474   1.454 -0.2464 -0.3229  1.0741
  129MPD2    N1 1977   0.629   1.052   1.426 -0.5061 -0.1090  0.2539
  129MPD2    H7 1978   0.729   1.043   1.442 -0.2271  0.8212 -0.9305
  130TCq2    C1 1979   0.548   0.944   1.409 -0.3286 -0.6173  0.0702
  130TCq2    O2 1980   0.432   0.939   1.374  0.3305  0.0136 -0.2491
  130TCq2    C2 1981   0.613   0.814   1.414  0.2146 -0.1834  0.1512
  130TCq2    C3 1982   0.745   0.797   1.410  0.0741 -0.1145 -0.4176
  130TCq2    C4 1983   0.797   0.666   1.411  0.8937  0.3134  0.3988
  130TCq2    C5 1984   0.716   0.560   1.414  0.0654 -0.6199 -0.4337
  130TCq2    C6 1985   0.583   0.583   1.412 -0.3666  0.0850  0.6143
  130TCq2    C7 1986   0.524   0.714   1.426  0.2895 -1.4116 -0.4369
  130TCq2    C8 1987   0.485   0.472   1.410  0.2813  0.1663  0.8391
  130TCq2    O4 1988   0.368   0.498   1.393 -0.4210 -0.0385 -0.2804
  130TCq2    C9 1989   0.937   0.642   1.402 -0.5293 -0.4814  0.0094
  130TCq2    O5 1990   1.007   0.744   1.366 -0.2297 -0.4564 -0.3853
  130TCq2    O6 1991   0.971   0.520   1.411  0.1302 -0.3352 -0.2465
  130TCq2    H2 1992   0.807   0.886   1.416 -1.4621  0.9497 -0.3353
  130TCq2    H3 1993   0.764   0.464   1.402  0.0811 -0.6367 -0.2429
  130TCq2    H4 1994   0.416   0.722   1.425  0.4042  0.2868  0.0905
  131MPD2     C 1995   0.872   0.394   9.943  0.6489  0.3544 -0.2960
  131MPD2    C1 1996   0.966   0.391  10.044  0.5039 -0.8526  0.1632
  131MPD2    C2 1997   1.057   0.286  10.057  0.4340  0.2373 -0.4417
  131MPD2    C3 1998   1.051   0.180   9.968 -0.1952  0.2987  0.5672
  131MPD2    C4 1999   0.956   0.187   9.866 -0.7508 -0.1851 -0.0965
  131MPD2    C5 2000   0.863   0.288   9.860  0.3226 -0.0833  1.2878
  131MPD2     H 2001   1.133   0.286  10.135  0.1527  0.2770 -0.1640
  131MPD2    H1 2002   0.940   0.096   9.810 -0.9761  0.7308 -1.5498
  131MPD2    H2 2003   0.802   0.476   9.931 -0.1919 -0.1796  0.9100
  131MPD2    H3 2004   0.788   0.285   9.782  1.1694 -1.3316  0.5322
  131MPD2     N 2005   1.141   0.068   9.988 -0.4242 -0.1320 -0.3051
  131MPD2    H5 2006   1.195   0.068  10.073 -0.0985 -1.2569 -0.5069
  131MPD2    N1 2007   0.963   0.503  10.132 -0.4089  0.4013  0.1784
  131MPD2    H7 2008   0.911   0.584  10.101 -0.5502  0.1673 -0.2070
  132TCq2    C1 2009   1.307   0.813  10.472 -0.1413  0.1184  0.0023
  132TCq2    O2 2010   1.377   0.719  10.447 -0.0162 -0.0323  0.3996
  132TCq2    C2 2011   1.166   0.801  10.427  0.2015  0.4410 -0.5525
  132TCq2    C3 2012   1.099   0.902  10.370  0.4199 -0.2505 -0.0596
  132TCq2    C4 2013   0.988   0.878  10.290  0.0544  0.3043 -0.0298
  132TCq2    C5 2014   0.952   0.755  10.262 -0.2618 -0.0468 -0.4882
  132TCq2    C6 2015   1.031   0.651  10.306 -0.0064  0.0491  0.3086
  132TCq2    C7 2016   1.136   0.671  10.393  0.0317 -0.3600  0.0065
  132TCq2    C8 2017   1.020   0.513  10.255 -0.4595 -0.8536 -0.3892
  132TCq2    O4 2018   1.084   0.428  10.313  0.6224  0.4004 -0.0510
  132TCq2    C9 2019   0.902   0.986  10.244  0.6857 -0.1426  0.1564
  132TCq2    O5 2020   0.782   0.957  10.223  0.0244 -0.2300 -0.0997
  132TCq2    O6 2021   0.950   1.102  10.257  0.7438 -0.4990 -0.5626
  132TCq2    H2 2022   1.122   1.005  10.396 -0.0610 -0.2843  0.4885
  132TCq2    H3 2023   0.858   0.735  10.212 -0.2417  0.5769 -0.7724
  132TCq2    H4 2024   1.200   0.589  10.424 -0.4091 -1.0640 -0.9358
  133MPD2     C 2025   0.447   1.956   9.777  0.2577 -0.0706  0.2554
  133MPD2    C1 2026   0.563   1.898   9.725 -0.0538 -0.1615 -0.2104
  133MPD2    C2 2027   0.557   1.761   9.702  0.3869 -0.0665  0.3892
  133MPD2    C3 2028   0.450   1.683   9.741 -0.0915 -0.1072 -0.1117
  133MPD2    C4 2029   0.335   1.737   9.801  0.0778 -0.1580  0.2122
  133MPD2    C5 2030   0.340   1.875   9.822  0.0822  0.2682 -0.1197
  133MPD2     H 2031   0.638   1.713   9.649  0.2136 -0.2836  0.3194
  133MPD2    H1 2032   0.250   1.676   9.830 -0.0800  0.5690  1.2961
  133MPD2    H2 2033   0.429   2.062   9.783  2.0558  0.1914  0.8221
  133MPD2    H3 2034   0.249   1.920   9.860 -0.0448 -0.4978  0.4581
  133MPD2     N 2035   0.451   1.544   9.713 -0.2237  0.6978  0.0345
  133MPD2    H5 2036   0.363   1.501   9.741  0.1878  0.5974  1.1951
  133MPD2    N1 2037   0.664   1.984   9.699  0.5397  0.2309  0.6138
  133MPD2    H7 2038   0.647   2.082   9.720  0.2270  0.5386 -1.0080
  134TCq2    C1 2039   0.785   1.952   9.642  0.5550 -0.1303 -0.1689
  134TCq2    O2 2040   0.824   1.843   9.601 -0.2577  0.3631 -0.2409
  134TCq2    C2 2041   0.872   2.063   9.641 -0.1007  0.1655  0.2471
  134TCq2    C3 2042   0.962   2.062   9.541 -0.2634 -0.4495  0.1516
  134TCq2    C4 2043   1.046   2.162   9.526  0.4685 -0.3934  0.2825
  134TCq2    C5 2044   1.034   2.271   9.612  0.6221 -0.5581  0.5592
  134TCq2    C6 2045   0.943   2.272   9.715  0.3955  0.3924  0.3092
  134TCq2    C7 2046   0.853   2.166   9.727 -0.4493  0.3748 -0.4761
  134TCq2    C8 2047   0.946   2.386   9.801 -0.1097  0.5340  0.3501
  134TCq2    O4 2048   1.015   2.479   9.764 -0.3748  0.7649  0.0745
  134TCq2    C9 2049   1.157   2.151   9.432  0.8709 -0.1488  0.0093
  134TCq2    O5 2050   1.222   2.257   9.411  0.1957  0.1359 -0.3487
  134TCq2    O6 2051   1.194   2.040   9.386 -0.3037  0.6974 -0.0649
  134TCq2    H2 2052   0.963   1.975   9.476 -0.7183  0.5162 -1.1353
  134TCq2    H3 2053   1.100   2.357   9.606 -1.4624  0.9444 -0.7329
  134TCq2    H4 2054   0.792   2.155   9.816  0.0779 -1.7980 -0.3676
  135MPD2     C 2055   3.313   2.164   9.622 -0.8862  0.5165 -0.7501
  135MPD2    C1 2056   3.232   2.170   9.511 -0.3139  0.5713  0.1828
  135MPD2    C2 2057   3.233   2.065   9.421  0.5506 -0.2155 -0.9474
  135MPD2    C3 2058   3.305   1.951   9.444  0.0770  0.6869  0.0655
  135MPD2    C4 2059   3.389   1.946   9.554 -0.2229  0.2361 -0.0783
  135MPD2    C5 2060   3.393   2.054   9.640  1.1279  0.0909  0.6867
  135MPD2     H 2061   3.163   2.073   9.338 -1.5623 -0.3621  0.8033
  135MPD2    H1 2062   3.449   1.857   9.567 -2.4179 -1.5139 -1.9459
  135MPD2    H2 2063   3.326   2.241   9.696 -1.3622 -0.6458  0.5466
  135MPD2    H3 2064   3.456   2.043   9.728  0.0292  0.0358  1.4723
  135MPD2     N 2065   3.312   1.843   9.351 -0.5700 -0.1128 -0.4497
  135MPD2    H5 2066   3.380   1.774   9.378  0.1296  1.2475  1.2446
  135MPD2    N1 2067   3.130   2.271   9.498  0.0141 -0.1834  0.3285
  135MPD2    H7 2068   3.072   2.259   9.415 -0.1820 -2.0457  0.7170
  136TCq2    C1 2069   3.121   2.382   9.575 -0.2899 -0.0730 -0.1029
  136TCq2    O2 2070   3.200   2.413   9.667  0.1495 -0.4618  0.7250
  136TCq2    C2 2071   2.994   2.453   9.562 -0.4166  0.2481 -0.8270
  136TCq2    C3 2072   2.980   2.553   9.655  0.6330  0.2672 -0.4626
  136TCq2    C4 2073   2.857   2.604   9.669 -0.8985  0.3826  0.1633
  136TCq2    C5 2074   2.750   2.546   9.617 -0.9406  0.1035  0.5064
  136TCq2    C6 2075   2.769   2.441   9.529 -0.1692  0.0624 -0.7993
  136TCq2    C7 2076   2.891   2.395   9.490 -0.2199 -0.1393  0.5602
  136TCq2    C8 2077   2.656   2.348   9.503 -0.7126  0.1473  0.0838
  136TCq2    O4 2078   2.660   2.265   9.412  0.2873 -0.5742 -0.8913
  136TCq2    C9 2079   2.834   2.716   9.763  0.3798  0.0721 -0.1545
  136TCq2    O5 2080   2.930   2.780   9.813 -0.0095  0.9275  0.4275
  136TCq2    O6 2081   2.716   2.746   9.789 -0.4771 -0.5029  0.1028
  136TCq2    H2 2082   3.066   2.593   9.707  0.6022 -2.2014  1.4491
  136TCq2    H3 2083   2.652   2.593   9.620 -0.4900  1.1225 -0.7240
  136TCq2    H4 2084   2.888   2.323   9.409  0.8464  0.8639 -0.3580
  137MPD2     C 2085   2.141   0.847  10.600  0.8195  0.2681  0.3277
  137MPD2    C1 2086   2.271   0.887  10.564  0.2050  0.8551  0.2562
  137MPD2    C2 2087   2.302   1.020  10.569  0.5046 -0.6984  0.5914
  137MPD2    C3 2088   2.219   1.112  10.632 -0.5534  0.8292 -0.9475
  137MPD2    C4 2089   2.103   1.066  10.691  0.7977 -0.5574 -0.2716
  137MPD2    C5 2090   2.060   0.937  10.673 -0.0468  0.1882 -0.6029
  137MPD2     H 2091   2.393   1.057  10.524 -2.2719  3.8277 -1.3483
  137MPD2    H1 2092   2.039   1.139  10.742  1.5645  0.8443 -1.3206
  137MPD2    H2 2093   2.112   0.743  10.585  2.0452 -0.1976  1.1178
  137MPD2    H3 2094   1.962   0.910  10.711  0.9246 -1.8472  0.4892
  137MPD2     N 2095   2.242   1.252  10.636  0.8013  0.5473 -0.1021
  137MPD2    H5 2096   2.166   1.311  10.667  0.5518  0.9054 -1.3872
  137MPD2    N1 2097   2.357   0.793  10.506  0.6359 -0.3032  0.2645
  137MPD2    H7 2098   2.327   0.698  10.486  1.0632 -0.2233 -0.7707
  138TCq2    C1 2099   2.494   0.808  10.493 -0.1929 -0.7928 -0.0609
  138TCq2    O2 2100   2.561   0.895  10.543 -0.8657 -0.4721  0.2197
  138TCq2    C2 2101   2.543   0.749  10.366 -0.0573 -0.7056 -0.8865
  138TCq2    C3 2102   2.454   0.667  10.308  0.1870 -0.2438 -0.3517
  138TCq2    C4 2103   2.415   0.681  10.175 -0.9464 -0.1136 -0.4714
  138TCq2    C5 2104   2.475   0.770  10.091  0.4268 -0.4502  0.4516
  138TCq2    C6 2105   2.545   0.863  10.162  0.2516  0.0009  0.5525
  138TCq2    C7 2106   2.586   0.853  10.292 -0.5534 -0.4776  0.8472
  138TCq2    C8 2107   2.561   0.992  10.099  0.6169  0.0846 -0.1415
  138TCq2    O4 2108   2.617   1.003   9.988  0.5483  0.6677 -0.6778
  138TCq2    C9 2109   2.327   0.595  10.104 -0.0488  0.0316  0.1189
  138TCq2    O5 2110   2.321   0.600   9.981 -0.0131  0.2808 -0.0585
  138TCq2    O6 2111   2.275   0.502  10.172  0.1059 -0.2917 -0.1763
  138TCq2    H2 2112   2.413   0.582  10.361  0.9526 -0.0975  0.4785
  138TCq2    H3 2113   2.444   0.792   9.990 -2.0842  0.5854  1.4476
  138TCq2    H4 2114   2.635   0.936  10.342 -0.1831  0.2262 -0.6720
  139TMC2    C1 2115   2.013   0.111  13.444  0.9309  0.2899 -0.2359
  139TMC2    C2 2116   2.118   0.182  13.402  0.4103 -0.0954  0.4899
  139TMC2    C3 2117   2.110   0.318  13.377  0.0883 -0.5538 -0.1278
  139TMC2    C4 2118   1.898   0.177  13.480 -0.3138 -0.2927 -0.0525
  139TMC2    C5 2119   1.885   0.308  13.466 -0.3819 -0.4758  0.1920
  139TMC2    C6 2120   1.989   0.382  13.417  0.9535 -0.1784 -0.0160
  139TMC2     C 2121   1.998   4.693  13.418 -1.2499  1.4293  0.7104
  139TMC2     O 2122   2.060   4.656  13.320  0.1046 -0.2307  0.1397
  139TMC2     H 2123   2.210   0.130  13.379  1.2284  1.4098  0.3571
  139TMC2    H1 2124   1.820   0.114  13.521  1.6636 -2.2543  0.7798
  139TMC2    H2 2125   1.973   0.489  13.411  0.4553 -0.1415  1.9338
  139TMC2    C7 2126   1.792   0.381  13.542  0.1175  1.4414  0.0041
  139TMC2    C8 2127   2.227   0.392  13.345  0.8416 -0.3750 -0.7190
  139TMC2    O1 2128   1.754   0.487  13.497  0.5205 -0.3178 -0.1977
  139TMC2    O2 2129   2.340   0.368  13.388  0.2781 -0.1609  0.3286
  139TMC2    O5 2130   2.177   0.500  13.283 -0.1230  0.1998  0.3836
  139TMC2    H5 2131   2.080   0.492  13.271  0.1728 -0.2304 -1.8092
  140MPD2     C 2132   1.867   4.425  13.623 -0.3216  1.4993 -0.0371
  140MPD2    C1 2133   1.919   4.481  13.512  0.2327 -0.1329  0.0644
  140MPD2    C2 2134   1.922   4.406  13.398 -0.2389  0.1261  0.2555
  140MPD2    C3 2135   1.873   4.273  13.404  0.6095 -0.2167 -0.2595
  140MPD2    C4 2136   1.822   4.222  13.522  0.0987  0.6001  0.0398
  140MPD2    C5 2137   1.818   4.301  13.628  0.0178 -0.7390 -0.0275
  140MPD2     H 2138   1.970   4.442  13.308  0.9958  0.2384  0.9535
  140MPD2    H1 2139   1.779   4.123  13.534  1.1809  0.2231  0.7965
  140MPD2    H2 2140   1.852   4.495  13.705 -0.4586 -0.0390  1.2372
  140MPD2    H3 2141   1.760   4.264  13.712  1.7297  0.3668  1.6380
  140MPD2     N 2142   1.903   4.193  13.294  0.0338 -0.2024 -0.1483
  140MPD2    H5 2143   1.948   4.239  13.215 -0.5479 -0.5971 -0.7151
  140MPD2    N1 2144   1.940   4.618  13.516  0.5707 -1.1540  0.8975
  140MPD2    H7 2145   1.915   4.662  13.603  1.6870  0.8071  0.2238
  141TCq2    C1 2146   2.787   1.035  14.762  0.2588 -0.0228  0.3545
  141TCq2    O2 2147   2.762   1.147  14.731  0.1351 -0.3061 -0.2042
  141TCq2    C2 2148   2.786   1.008  14.901  0.9012  0.0437  0.2095
  141TCq2    C3 2149   2.773   0.881  14.952  0.4233  0.3642  0.1857
  141TCq2    C4 2150   2.809   0.857  15.083 -0.8967  0.2360  0.8380
  141TCq2    C5 2151   2.843   0.964  15.165  0.0804  1.1334  0.4746
  141TCq2    C6 2152   2.843   1.091  15.115  0.5689  0.3863 -0.5734
  141TCq2    C7 2153   2.821   1.117  14.987  0.2749  0.1279  0.3146
  141TCq2    C8 2154   2.863   1.205  15.205 -0.3896 -0.2343 -0.0633
  141TCq2    O4 2155   2.930   1.185  15.305  0.2026 -0.1625  0.7945
  141TCq2    C9 2156   2.815   0.731  15.143 -0.1940 -0.1594  0.0646
  141TCq2    O5 2157   2.894   0.710  15.237  0.0472  0.5814 -0.2517
  141TCq2    O6 2158   2.742   0.652  15.079 -0.5725  0.0545  0.2761
  141TCq2    H2 2159   2.735   0.796  14.895  2.0344 -1.0991  1.3072
  141TCq2    H3 2160   2.869   0.945  15.268  1.4724 -1.3751 -0.3425
  141TCq2    H4 2161   2.837   1.211  14.936 -0.4686 -1.1296 -2.2648
  142MPD2     C 2162   0.896   3.660  10.581 -0.0880  0.8016  0.1350
  142MPD2    C1 2163   0.955   3.675  10.459  0.1272  0.5722  0.1579
  142MPD2    C2 2164   1.091   3.718  10.455  0.4151  0.0720 -0.2870
  142MPD2    C3 2165   1.162   3.729  10.574  0.7153  0.0483  0.2544
  142MPD2    C4 2166   1.095   3.711  10.694  0.2734 -1.7199 -0.5338
  142MPD2    C5 2167   0.962   3.687  10.698 -0.1205 -0.0962 -0.1427
  142MPD2     H 2168   1.135   3.753  10.362  3.0769  0.6914  1.1924
  142MPD2    H1 2169   1.150   3.719  10.787 -0.5575  2.3972 -0.4261
  142MPD2    H2 2170   0.794   3.623  10.591  0.1244  0.3587  0.6287
  142MPD2    H3 2171   0.915   3.680  10.795  3.2289  1.6635  1.5938
  142MPD2     N 2172   1.300   3.764  10.579  0.3161 -0.3554  0.7275
  142MPD2    H5 2173   1.345   3.781  10.669  1.0166  0.7430  0.1613
  142MPD2    N1 2174   0.879   3.670  10.343  0.3619 -0.0301 -0.8034
  142MPD2    H7 2175   0.788   3.628  10.358  0.2658  0.3414 -0.3443
  143TCq2    C1 2176   1.385   3.782  10.460  0.0575  0.7310 -0.5144
  143TCq2    O2 2177   1.353   3.765  10.343 -0.6042  0.0168  0.7825
  143TCq2    C2 2178   1.521   3.796  10.490 -0.4579 -0.0309 -0.0602
  143TCq2    C3 2179   1.561   3.848  10.610 -0.1065 -0.2385  0.4165
  143TCq2    C4 2180   1.691   3.893  10.626  0.4422 -0.3991 -0.3471
  143TCq2    C5 2181   1.789   3.864  10.527 -0.4798  0.3218 -0.5316
  143TCq2    C6 2182   1.743   3.806  10.409  0.6038 -0.5223 -0.2939
  143TCq2    C7 2183   1.607   3.779  10.390  0.3130  0.1304  0.0590
  143TCq2    C8 2184   1.821   3.820  10.287 -0.8119  0.2712  0.0339
  143TCq2    O4 2185   1.761   3.802  10.182 -0.2565  0.3638  0.1616
  143TCq2    C9 2186   1.729   3.979  10.732 -0.5030 -0.0382  0.6080
  143TCq2    O5 2187   1.845   4.033  10.722  0.1381  0.5100 -0.3714
  143TCq2    O6 2188   1.640   4.026  10.805  0.1129 -0.4640 -0.1932
  143TCq2    H2 2189   1.491   3.894  10.679  0.8967  0.5245  0.9276
  143TCq2    H3 2190   1.891   3.898  10.547 -0.3175  0.1448 -1.0549
  143TCq2    H4 2191   1.577   3.727  10.300  0.8266 -0.9044  0.4812
  144MPD2     C 2192   2.589   3.830   0.646 -0.3872 -0.4495 -0.0382
  144MPD2    C1 2193   2.653   3.724   0.597  0.0489 -0.8107 -0.2614
  144MPD2    C2 2194   2.786   3.702   0.634 -0.5670 -0.8455  0.5289
  144MPD2    C3 2195   2.851   3.779   0.729 -0.2708 -0.4726  0.4745
  144MPD2    C4 2196   2.779   3.885   0.788  0.1283  0.8578 -0.3850
  144MPD2    C5 2197   2.657   3.903   0.740 -0.4707  0.7425 -0.3028
  144MPD2     H 2198   2.829   3.615   0.586 -0.2992 -2.3068  3.4588
  144MPD2    H1 2199   2.818   3.950   0.865 -0.8138  1.7876 -0.6944
  144MPD2    H2 2200   2.488   3.846   0.610 -0.6219  1.5873  1.5526
  144MPD2    H3 2201   2.598   3.988   0.772  2.3597  2.1402  1.1803
  144MPD2     N 2202   2.978   3.755   0.788 -0.4291 -0.2613 -0.0610
  144MPD2    H5 2203   2.992   3.801   0.877 -1.0035 -1.4730  0.6680
  144MPD2    N1 2204   2.601   3.634   0.498  0.9956 -0.0900  0.0356
  144MPD2    H7 2205   2.659   3.556   0.467  1.5748 -0.2002  1.3904
  145TCq2    C1 2206   3.076   3.695   0.712 -0.4580  0.1573 -0.4358
  145TCq2    O2 2207   3.077   3.667   0.593 -0.0599  0.7809 -0.4833
  145TCq2    C2 2208   3.194   3.680   0.789 -0.7190 -0.0907 -0.4832
  145TCq2    C3 2209   3.299   3.604   0.737 -0.2763  0.2273 -0.4234
  145TCq2    C4 2210   3.416   3.600   0.803  0.1698 -0.1834 -0.8012
  145TCq2    C5 2211   3.429   3.662   0.928  0.4469 -0.3011  0.1461
  145TCq2    C6 2212   3.324   3.722   0.990  0.4024  0.3361 -0.1968
  145TCq2    C7 2213   3.203   3.730   0.919  0.2768  0.7052 -0.0308
  145TCq2    C8 2214   3.356   3.804   1.107 -0.5508  0.4011  0.0182
  145TCq2    O4 2215   3.473   3.826   1.130  0.0405  0.4969  0.9961
  145TCq2    C9 2216   3.528   3.528   0.741 -0.4454  0.5005  0.7879
  145TCq2    O5 2217   3.641   3.548   0.792 -0.0406  0.0130 -0.7066
  145TCq2    O6 2218   3.516   3.474   0.630  0.0806  0.0848  0.6248
  145TCq2    H2 2219   3.292   3.544   0.647  0.4693  1.3508 -1.2383
  145TCq2    H3 2220   3.524   3.637   0.974  0.8517  0.7000 -0.1392
  145TCq2    H4 2221   3.124   3.793   0.960  0.1283 -0.9428  2.1979
  146TMC2    C1 2222   4.640   2.453  12.265 -0.5967 -0.5539  0.7201
  146TMC2    C2 2223   4.520   2.480  12.206 -0.4792  0.0703  0.4129
  146TMC2    C3 2224   4.495   2.415  12.091  0.0537  0.3173 -0.1662
  146TMC2    C4 2225   0.003   2.358  12.217 -0.1855  0.1232  0.3499
  146TMC2    C5 2226   4.703   2.305  12.095  0.0139  0.2442 -0.3985
  146TMC2    C6 2227   4.591   2.336  12.027 -0.7377 -0.4618  0.1722
  146TMC2     C 2228   4.653   2.500  12.399 -0.1599 -0.2252 -0.0186
  146TMC2     O 2229   4.585   2.593  12.437  0.3356  0.3301  0.3839
  146TMC2     H 2230   4.445   2.531  12.264 -0.5287  0.4142  0.0476
  146TMC2    H1 2231   0.091   2.330  12.273 -0.9598 -1.3412  0.8357
  146TMC2    H2 2232   4.559   2.269  11.948 -2.7004 -1.5687  1.9017
  146TMC2    C7 2233   0.051   2.202  12.038  0.3817  0.4654 -0.2758
  146TMC2    C8 2234   4.371   2.453  12.032 -0.0818  0.2482 -0.2084
  146TMC2    O1 2235   0.075   2.209  11.921  0.0914 -0.0829 -0.1328
  146TMC2    O2 2236   4.276   2.488  12.102 -0.3771  0.7479  0.5575
  146TMC2    O5 2237   4.384   2.467  11.890  0.4428 -0.4083  0.1658
  146TMC2    H5 2238   4.472   2.453  11.848  0.4524 -0.1587  0.1041
  147MPD2     C 2239   0.427   1.870  12.085  0.1949 -0.1712 -0.2035
  147MPD2    C1 2240   0.387   1.908  12.211  0.4288 -0.2294 -0.2091
  147MPD2    C2 2241   0.270   1.979  12.220  0.1908 -0.4266  0.1612
  147MPD2    C3 2242   0.203   2.021  12.106 -0.5381  0.6618 -0.0526
  147MPD2    C4 2243   0.252   1.990  11.978 -0.3345  0.3331 -0.3758
  147MPD2    C5 2244   0.363   1.912  11.975  0.7579  0.2219 -0.4883
  147MPD2     H 2245   0.221   2.005  12.313  0.5685 -0.6973  0.4372
  147MPD2    H1 2246   0.208   2.027  11.886  0.0165 -0.1811 -0.7499
  147MPD2    H2 2247   0.515   1.809  12.069 -0.0722 -0.7798  0.6224
  147MPD2    H3 2248   0.395   1.892  11.874  4.2264 -1.6970  0.9734
  147MPD2     N 2249   0.092   2.104  12.129  0.4176  0.9314 -0.0946
  147MPD2    H5 2250   0.054   2.109  12.224 -1.8619  1.2594 -1.0085
  147MPD2    N1 2251   0.466   1.877  12.324  0.9118  0.3360  0.6722
  147MPD2    H7 2252   0.554   1.832  12.298 -1.2148 -1.2542 -3.7145
  148MPD2     C 2253   0.592   1.208  10.874  0.4073  0.7348  0.3522
  148MPD2    C1 2254   0.620   1.077  10.920 -0.5417  0.0422 -0.0664
  148MPD2    C2 2255   0.572   0.972  10.853 -0.3076  0.5205  0.1156
  148MPD2    C3 2256   0.497   0.985  10.737 -0.0464  0.4624 -0.1740
  148MPD2    C4 2257   0.468   1.111  10.697  0.5991  0.5601  0.0942
  148MPD2    C5 2258   0.515   1.221  10.761 -0.1221  0.4528  0.6403
  148MPD2     H 2259   0.607   0.876  10.892  1.7138  0.4755 -1.8042
  148MPD2    H1 2260   0.413   1.139  10.607 -0.8342 -1.7291  0.2541
  148MPD2    H2 2261   0.631   1.297  10.921  0.6109  1.0298 -0.3871
  148MPD2    H3 2262   0.506   1.320  10.717  1.4114 -0.3771 -1.5072
  148MPD2     N 2263   0.434   0.882  10.665 -0.0805  0.5906  0.0457
  148MPD2    H5 2264   0.363   0.915  10.601 -0.0867 -1.7285 -1.1410
  148MPD2    N1 2265   0.692   1.049  11.036 -0.1037  0.7375 -0.0100
  148MPD2    H7 2266   0.700   0.950  11.059  0.5478  0.8331  0.1729
  149TCq2    C1 2267   0.745   1.137  11.128  0.8655 -0.2936  0.0429
  149TCq2    O2 2268   0.736   1.256  11.142  0.4075  0.8068 -0.1527
  149TCq2    C2 2269   0.842   1.064  11.214  0.7050  0.1026 -0.7145
  149TCq2    C3 2270   0.817   1.075  11.350 -0.4077 -0.8266 -0.7384
  149TCq2    C4 2271   0.865   0.980  11.432  0.6656  0.1081  0.9644
  149TCq2    C5 2272   0.911   0.862  11.387 -0.2862  0.1632 -0.4619
  149TCq2    C6 2273   0.940   0.852  11.253 -0.0930  0.6081  0.8600
  149TCq2    C7 2274   0.911   0.951  11.162 -0.6415 -0.2282 -0.4478
  149TCq2    C8 2275   0.965   0.725  11.195  0.0857  0.3803  0.0606
  149TCq2    O4 2276   1.005   0.731  11.078  0.1401 -0.4877  0.0187
  149TCq2    C9 2277   0.832   0.986  11.572 -0.4301  0.0952 -0.1285
  149TCq2    O5 2278   0.787   1.096  11.622 -0.4389  0.1223 -0.1132
  149TCq2    O6 2279   0.901   0.897  11.635 -0.2886  0.0224  0.3255
  149TCq2    H2 2280   0.762   1.163  11.381 -1.7159 -2.3078  1.2004
  149TCq2    H3 2281   0.929   0.775  11.450 -2.2183  0.3387  0.3175
  149TCq2    H4 2282   0.935   0.944  11.056 -2.3948 -1.0319 -0.8032
  150MPD2     C 2283   1.861   0.772  12.331 -0.5614  0.2336 -0.0407
  150MPD2    C1 2284   1.872   0.752  12.195 -0.4348  0.8576 -0.1834
  150MPD2    C2 2285   1.978   0.800  12.120  0.2151 -0.2087 -0.6577
  150MPD2    C3 2286   2.089   0.856  12.192 -0.7204  0.2658  0.5278
  150MPD2    C4 2287   2.084   0.877  12.327  0.3440  0.7280  0.3718
  150MPD2    C5 2288   1.973   0.827  12.393  0.2255  0.1300  0.1955
  150MPD2     H 2289   2.001   0.785  12.015 -0.2435  0.2314 -0.8143
  150MPD2    H1 2290   2.164   0.926  12.381 -1.0255  2.1317  1.1291
  150MPD2    H2 2291   1.789   0.720  12.392 -0.8676 -0.0032 -0.6028
  150MPD2    H3 2292   1.970   0.831  12.501  0.7746 -1.9975  0.2840
  150MPD2     N 2293   2.189   0.917  12.118  0.2711  0.2096 -0.4916
  150MPD2    H5 2294   2.187   0.894  12.019 -1.1939 -2.0514  0.0519
  150MPD2    N1 2295   1.785   0.662  12.134 -0.6157  0.6523  0.1392
  150MPD2    H7 2296   1.716   0.628  12.201 -0.7843 -0.6666 -0.7001
  151TCq2    C1 2297   2.313   0.957  12.166  0.5944 -0.4705 -0.1329
  151TCq2    O2 2298   2.352   0.959  12.283 -0.1889 -0.1781 -0.8624
  151TCq2    C2 2299   2.401   1.004  12.059 -0.0236 -0.1444  0.4377
  151TCq2    C3 2300   2.349   1.029  11.930 -0.8573 -0.1858  0.3564
  151TCq2    C4 2301   2.440   1.041  11.833  0.2554  0.2024 -0.2822
  151TCq2    C5 2302   2.571   1.033  11.856 -0.4997  0.0947  1.1687
  151TCq2    C6 2303   2.619   0.986  11.972  0.2934  0.9282 -0.4695
  151TCq2    C7 2304   2.533   0.974  12.079  0.2240  0.2141  0.0901
  151TCq2    C8 2305   2.762   0.985  11.992  0.0385  0.1614  0.0602
  151TCq2    O4 2306   2.841   1.027  11.905 -0.0897 -0.1963  0.2622
  151TCq2    C9 2307   2.390   1.053  11.700  0.1248  0.4125  0.7066
  151TCq2    O5 2308   2.478   1.076  11.612 -0.7205 -0.0715 -0.4136
  151TCq2    O6 2309   2.278   1.000  11.682 -0.1868  0.5300 -0.1570
  151TCq2    H2 2310   2.243   1.040  11.913 -0.5411  2.5421  0.1573
  151TCq2    H3 2311   2.631   1.058  11.769 -1.7275 -1.6422 -0.1705
  151TCq2    H4 2312   2.569   0.938  12.175  0.0883  0.1022  0.0992
  152MPD2     C 2313   1.645   4.505  12.709 -0.3228  0.2885 -0.1477
  152MPD2    C1 2314   1.661   4.635  12.670  0.4828  0.0628 -0.0393
  152MPD2    C2 2315   1.553   4.712  12.648 -0.1073 -0.0741  0.2443
  152MPD2    C3 2316   1.430   4.668  12.682 -0.1931  0.2206  0.0511
  152MPD2    C4 2317   1.411   4.535  12.723 -0.0121  0.3070  0.3750
  152MPD2    C5 2318   1.520   4.454  12.730  0.3453 -0.6314  0.2347
  152MPD2     H 2319   1.562   0.090  12.612  2.2807 -0.5235 -0.4272
  152MPD2    H1 2320   1.311   4.495  12.736  0.5184 -0.2535  2.8111
  152MPD2    H2 2321   1.727   4.451  12.756  0.8509 -1.4577 -4.1718
  152MPD2    H3 2322   1.504   4.352  12.763 -2.6162  0.2568  1.6400
  152MPD2     N 2323   1.319   0.027  12.674 -0.1831  0.2055  0.2701
  152MPD2    H5 2324   1.345   0.118  12.639 -0.5938  0.0558 -0.4124
  152MPD2    N1 2325   1.791   4.702  12.657 -0.0880 -0.5209  0.4381
  152MPD2    H7 2326   1.799   0.079  12.652  0.6450 -0.7350 -2.2369
  153TCq2    C1 2327   1.909   4.634  12.642 -0.3398  0.4759  0.0695
  153TCq2    O2 2328   1.925   4.526  12.589  0.0147 -0.8715  0.1127
  153TCq2    C2 2329   2.026   4.721  12.644 -0.2087 -0.8627 -0.6100
  153TCq2    C3 2330   2.134   4.679  12.582  0.0298 -0.0248 -0.1249
  153TCq2    C4 2331   2.251   0.017  12.609  0.8759  0.3540  0.2508
  153TCq2    C5 2332   2.267   0.122  12.696 -0.3677  0.4087 -0.1742
  153TCq2    C6 2333   2.154   0.162  12.763 -0.5096 -0.2582 -0.9445
  153TCq2    C7 2334   2.032   0.095  12.740 -0.1394 -0.1869  0.4659
  153TCq2    C8 2335   2.149   0.283  12.843 -0.8558 -0.2233  0.2467
  153TCq2    O4 2336   2.035   0.324  12.865  0.7642  0.0948  0.2591
  153TCq2    C9 2337   2.363   4.707  12.523 -0.8146  0.0631  0.0451
  153TCq2    O5 2338   2.347   4.598  12.463 -0.0370  0.1405  0.4289
  153TCq2    O6 2339   2.474   0.040  12.538  0.4170 -1.0017 -0.4120
  153TCq2    H2 2340   2.130   4.588  12.524 -0.3559 -0.7863  1.0927
  153TCq2    H3 2341   2.368   0.162  12.698 -0.7152  1.0882  3.5398
  153TCq2    H4 2342   1.945   0.131  12.795 -0.5047  0.8401 -0.7791
  154MPD2     C 2343   3.380   0.404   0.088 -0.2967  0.0135  0.1876
  154MPD2    C1 2344   3.275   0.319   0.064 -0.1313 -0.7491 -0.1888
  154MPD2    C2 2345   3.147   0.355   0.101 -0.0755  0.2914  0.2651
  154MPD2    C3 2346   3.122   0.478   0.150  0.2557  0.3157  0.5071
  154MPD2    C4 2347   3.228   0.566   0.167 -0.4792 -0.4480  0.5946
  154MPD2    C5 2348   3.358   0.529   0.137 -0.0626  0.1688  0.4915
  154MPD2     H 2349   3.064   0.291   0.071 -0.2405  1.3032 -1.4097
  154MPD2    H1 2350   3.215   0.669   0.198  0.5799 -0.2726  0.4543
  154MPD2    H2 2351   3.476   0.375   0.048  0.6968  0.5070  2.2297
  154MPD2    H3 2352   3.443   0.595   0.132  0.9389 -1.1600  0.0382
  154MPD2     N 2353   2.991   0.509   0.179  0.5865 -0.1119 -0.5410
  154MPD2    H5 2354   2.920   0.438   0.169  0.9660 -0.3098 -1.7487
  154MPD2    N1 2355   3.301   0.207  17.679  0.1721 -0.5826 -0.0579
  154MPD2    H7 2356   3.397   0.195  17.651 -0.1789 -0.2095 -1.4032
  155TCq2    C1 2357   3.212   0.109  17.641 -0.2328 -0.1564 -0.1332
  155TCq2    O2 2358   3.102   0.087  17.689  0.0517  0.2739 -0.6297
  155TCq2    C2 2359   3.288   0.011  17.561  0.0585  0.4062  0.3814
  155TCq2    C3 2360   3.397   0.051  17.489 -0.3102  0.0044 -0.0136
  155TCq2    C4 2361   3.463   4.675  17.425  0.1715  0.1119 -0.1981
  155TCq2    C5 2362   3.410   4.549  17.414  0.3384 -0.8804 -0.2498
  155TCq2    C6 2363   3.289   4.517  17.473  0.2287 -0.1144  0.0370
  155TCq2    C7 2364   3.228   4.614  17.550 -0.5560  0.2256  0.3208
  155TCq2    C8 2365   3.247   4.375  17.468 -0.5192 -0.3539  0.2447
  155TCq2    O4 2366   3.336   4.297  17.441 -0.4406  0.5696 -0.6768
  155TCq2    C9 2367   3.600   4.699  17.385 -0.6635  0.0201  0.1481
  155TCq2    O5 2368   3.661   4.611  17.315  0.5121 -0.1748 -0.2662
  155TCq2    O6 2369   3.649   0.084  17.421 -0.0964 -0.0004 -0.7774
  155TCq2    H2 2370   3.434   0.153  17.480  0.5394 -0.1183  2.2854
  155TCq2    H3 2371   3.460   4.480  17.347  1.0151  0.4345 -1.1004
  155TCq2    H4 2372   3.147   4.588  17.618 -1.2761  0.7546 -0.3368
  156MPD2     C 2373   1.907   2.012  12.316 -0.5619  0.2311 -0.2462
  156MPD2    C1 2374   1.927   2.095  12.210  0.3136 -0.2776 -0.5653
  156MPD2    C2 2375   1.913   2.231  12.235 -0.3212 -0.2495 -0.3213
  156MPD2    C3 2376   1.889   2.278  12.361  0.3318 -0.0840 -1.0480
  156MPD2    C4 2377   1.881   2.192  12.467 -0.4335  0.1204 -0.1288
  156MPD2    C5 2378   1.894   2.059  12.451 -0.4463 -0.4678 -0.1838
  156MPD2     H 2379   1.918   2.306  12.157 -1.3553  0.5807  0.4084
  156MPD2    H1 2380   1.878   2.228  12.569 -0.0352 -0.5926  0.1380
  156MPD2    H2 2381   1.917   1.906  12.296  1.2934  0.7566 -2.0619
  156MPD2    H3 2382   1.894   1.991  12.535 -0.2402 -2.1782 -1.5519
  156MPD2     N 2383   1.876   2.412  12.377 -0.4926 -0.1664  0.1809
  156MPD2    H5 2384   1.860   2.464  12.292  2.8730  0.2450 -0.2025
  156MPD2    N1 2385   1.960   2.041  12.088  0.6368 -0.2687  0.1233
  156MPD2    H7 2386   1.980   1.942  12.079  1.7509  0.0034 -0.3615
  157TCq2    C1 2387   1.935   2.104  11.966 -0.1093  0.0808  0.0379
  157TCq2    O2 2388   1.868   2.200  11.942  0.6839 -0.0821 -0.3568
  157TCq2    C2 2389   2.019   2.043  11.861  0.0487  0.2568 -0.6784
  157TCq2    C3 2390   2.122   1.958  11.889 -0.1611 -0.2370  0.5403
  157TCq2    C4 2391   2.208   1.911  11.790  0.7215 -0.1571  0.0991
  157TCq2    C5 2392   2.197   1.959  11.664  0.2123 -0.0348  0.1060
  157TCq2    C6 2393   2.098   2.054  11.634  0.1350  0.1063  0.3657
  157TCq2    C7 2394   2.008   2.093  11.732 -0.5599  0.4746  0.1351
  157TCq2    C8 2395   2.099   2.137  11.511 -0.2776  0.7257  0.3147
  157TCq2    O4 2396   2.056   2.251  11.519  0.0290  0.4838 -0.4426
  157TCq2    C9 2397   2.321   1.832  11.824 -0.3181 -0.0828  0.0273
  157TCq2    O5 2398   2.420   1.844  11.750  0.7592  0.1348  0.0833
  157TCq2    O6 2399   2.321   1.773  11.935  0.2917  0.6637  0.0593
  157TCq2    H2 2400   2.152   1.935  11.990 -1.0083  2.8714  1.4909
  157TCq2    H3 2401   2.261   1.924  11.583 -0.8475 -1.2862 -0.1860
  157TCq2    H4 2402   1.934   2.162  11.694 -1.2224 -0.0509  0.4870
  158TMC2    C1 2403   2.288   1.572  13.728 -0.4130  0.4076 -0.6107
  158TMC2    C2 2404   2.327   1.698  13.750  0.3294  0.6851 -1.1590
  158TMC2    C3 2405   2.244   1.802  13.720 -0.4672 -0.5204 -0.0500
  158TMC2    C4 2406   2.163   1.538  13.676 -0.0919 -0.1506 -0.1677
  158TMC2    C5 2407   2.088   1.649  13.641  0.0167 -0.5046 -0.3034
  158TMC2    C6 2408   2.121   1.776  13.653  0.0070  0.2844 -0.1523
  158TMC2     C 2409   2.372   1.472  13.778 -0.0627  1.0114 -0.5018
  158TMC2     O 2410   2.494   1.482  13.760 -0.0057  0.2138 -0.2551
  158TMC2     H 2411   2.422   1.725  13.795 -0.0794 -1.1941  0.7835
  158TMC2    H1 2412   2.131   1.435  13.662  0.9913 -0.3298 -1.3266
  158TMC2    H2 2413   2.045   1.852  13.641  0.0418 -0.0035 -2.2075
  158TMC2    C7 2414   1.952   1.636  13.587 -0.5382  0.2840  0.0757
  158TMC2    C8 2415   2.242   1.908  13.810  0.1639  0.5157  0.0110
  158TMC2    O1 2416   1.898   1.734  13.538  0.2441 -0.4975  0.3294
  158TMC2    O2 2417   2.294   2.017  13.784  0.1311 -0.0614  0.4637
  158TMC2    O5 2418   2.225   1.858  13.930 -0.7036  0.4185 -0.1433
  158TMC2    H5 2419   2.160   1.786  13.916 -0.2325  0.2999 -1.7259
  159MPD2     C 2420   2.436   1.040  14.035 -0.2027  0.2181  0.1783
  159MPD2    C1 2421   2.305   1.076  14.045  0.1662  0.3016  0.1067
  159MPD2    C2 2422   2.255   1.185  13.978  0.4524  0.4033 -0.5809
  159MPD2    C3 2423   2.343   1.265  13.907 -0.2369  0.1496 -0.8701
  159MPD2    C4 2424   2.475   1.224  13.901  0.0548 -0.4229 -0.9369
  159MPD2    C5 2425   2.518   1.111  13.963  0.4741 -0.0988  0.8274
  159MPD2     H 2426   2.148   1.203  13.970  0.6059  0.0147 -3.4151
  159MPD2    H1 2427   2.549   1.291  13.859 -1.0025 -0.3189 -2.6509
  159MPD2    H2 2428   2.480   0.954  14.086 -0.5436 -1.0378 -1.6507
  159MPD2    H3 2429   2.624   1.085  13.956  0.4681 -0.2869  1.5150
  159MPD2     N 2430   2.294   1.378  13.843 -0.5626  0.2733 -0.0330
  159MPD2    H5 2431   2.195   1.395  13.861 -0.6782 -0.4026 -0.0043
  159MPD2    N1 2432   2.227   0.999  14.130  0.7467  0.6398 -0.9637
  159MPD2    H7 2433   2.276   0.919  14.169 -0.6155  1.0566  1.5825
  160TMC2    C1 2434   1.042   3.921   1.244 -0.1895  0.3663  0.2640
  160TMC2    C2 2435   0.993   3.816   1.169  0.2694  0.1313  0.0184
  160TMC2    C3 2436   1.010   3.821   1.039 -0.4395 -0.3112 -0.2403
  160TMC2    C4 2437   1.119   4.022   1.194 -0.2663 -0.5428  0.3003
  160TMC2    C5 2438   1.133   4.018   1.053  0.3039  0.1944  0.6555
  160TMC2    C6 2439   1.087   3.916   0.978  0.3738 -0.8189  0.2865
  160TMC2     C 2440   0.979   3.946   1.374  0.1744  0.3402 -0.5038
  160TMC2     O 2441   0.926   3.848   1.430  0.3125  0.3645 -0.2119
  160TMC2     H 2442   0.917   3.754   1.215  1.8566 -1.2330  0.7907
  160TMC2    H1 2443   1.157   4.105   1.252  0.9441 -1.4481  0.7874
  160TMC2    H2 2444   1.079   3.944   0.874 -0.3490 -1.5776  0.1412
  160TMC2    C7 2445   1.226   4.118   0.989 -0.1493  0.0881 -0.1969
  160TMC2    C8 2446   0.926   3.747   0.950 -0.4310  0.4069 -1.0858
  160TMC2    O1 2447   1.313   4.168   1.054  0.2336  0.4276 -0.6720
  160TMC2    O2 2448   0.912   3.765   0.832  0.1550 -0.6030  0.4621
  160TMC2    O5 2449   0.907   3.620   1.003  0.2380  0.0020 -0.3165
  160TMC2    H5 2450   0.970   3.603   1.076 -0.9557  0.5624  0.8403
  161MPD2     C 2451   0.807   4.047   1.588  0.1421 -0.0337  0.0853
  161MPD2    C1 2452   0.850   4.127   1.483  0.0383  0.0288 -0.4880
  161MPD2    C2 2453   0.807   4.259   1.465  0.3690 -0.4434 -0.0032
  161MPD2    C3 2454   0.702   4.300   1.544  0.0669 -0.0661  0.4259
  161MPD2    C4 2455   0.664   4.220   1.645  0.3345 -0.8093 -0.6564
  161MPD2    C5 2456   0.708   4.095   1.664  0.8036 -0.6059  0.0766
  161MPD2     H 2457   0.848   4.311   1.380 -0.4140 -1.2238 -0.8660
  161MPD2    H1 2458   0.589   4.264   1.709 -0.3237  0.4368 -2.2817
  161MPD2    H2 2459   0.832   3.943   1.607 -4.2692 -1.1106 -0.1993
  161MPD2    H3 2460   0.674   4.029   1.743  0.8660  0.5670  1.0774
  161MPD2     N 2461   0.620   4.411   1.523 -0.1090 -0.1465 -0.3452
  161MPD2    H5 2462   0.543   4.429   1.587  0.7675 -3.0234  1.5282
  161MPD2    N1 2463   0.932   4.074   1.378  0.1620  0.2446 -0.4914
  161MPD2    H7 2464   0.950   4.133   1.297  0.4306  0.6642 -0.1257
  162TMC2    C1 2465   4.392   1.240   1.300 -0.1448  0.1195 -0.8420
  162TMC2    C2 2466   4.346   1.335   1.382  0.2478 -1.0341 -0.2176
  162TMC2    C3 2467   4.240   1.293   1.457 -0.3613  0.3664  0.3961
  162TMC2    C4 2468   4.353   1.107   1.306 -0.5961  0.5582  0.0874
  162TMC2    C5 2469   4.255   1.070   1.390  0.3814 -0.2289 -0.6797
  162TMC2    C6 2470   4.191   1.168   1.466 -0.6042 -0.0280  1.0383
  162TMC2     C 2471   4.501   1.265   1.206 -0.1724  0.2689 -0.2384
  162TMC2     O 2472   4.591   1.190   1.188  0.1561 -0.3380  0.0705
  162TMC2     H 2473   4.378   1.438   1.389  1.5183 -1.4128 -0.5308
  162TMC2    H1 2474   4.401   1.033   1.243 -0.3463  1.8640 -1.2672
  162TMC2    H2 2475   4.115   1.148   1.541 -0.4186 -0.2059  1.1803
  162TMC2    C7 2476   4.174   0.953   1.359  0.1130 -0.4360  0.0875
  162TMC2    C8 2477   4.170   1.387   1.541  0.2200  0.6447  0.4397
  162TMC2    O1 2478   4.054   0.978   1.345  0.0060 -0.1494  0.2310
  162TMC2    O2 2479   4.070   1.438   1.497  0.5125 -0.5098  0.2483
  162TMC2    O5 2480   4.273   1.451   1.596  0.5523 -0.1504  0.0250
  162TMC2    H5 2481   4.348   1.389   1.609  0.4277 -0.2386  0.3145
  163MPD2     C 2482   4.712   1.551   0.835  0.0922  0.2081 -0.7920
  163MPD2    C1 2483   4.718   1.415   0.855  0.4537  0.4033 -0.0763
  163MPD2    C2 2484   4.646   1.364   0.961 -0.4906 -0.7238 -0.1114
  163MPD2    C3 2485   4.576   1.442   1.048 -0.0169  0.5400  0.1194
  163MPD2    C4 2486   4.563   1.573   1.017  0.0842  0.2745  0.1513
  163MPD2    C5 2487   4.630   1.628   0.910  1.0040 -0.6531 -0.4892
  163MPD2     H 2488   4.635   1.257   0.976 -1.5495 -0.7612 -1.1592
  163MPD2    H1 2489   4.519   1.644   1.085 -1.3427 -0.2370 -0.2276
  163MPD2    H2 2490   0.027   1.597   0.746  1.4777 -0.6367 -0.6166
  163MPD2    H3 2491   4.619   1.736   0.902  0.0037 -0.6803  0.3787
  163MPD2     N 2492   4.498   1.395   1.156  0.1115 -0.4491  0.5763
  163MPD2    H5 2493   4.432   1.462   1.194 -0.1544 -0.0188 -0.6558
  163MPD2    N1 2494   0.063   1.326   0.762  0.7760 -0.3435  0.6431
  163MPD2    H7 2495   0.107   1.375   0.684  1.1960  0.2629  1.2569
  164TCq2    C1 2496   0.568   0.774  11.295  1.4111  0.4266 -0.2646
  164TCq2    O2 2497   0.574   0.837  11.193  0.0368  0.0186  0.9556
  164TCq2    C2 2498   0.526   0.845  11.421 -0.4125  0.0966  0.2444
  164TCq2    C3 2499   0.518   0.768  11.534 -0.1433  0.0291 -0.0649
  164TCq2    C4 2500   0.448   0.824  11.639 -0.0765 -0.1503 -0.4560
  164TCq2    C5 2501   0.390   0.943  11.630  0.2699  0.4231  0.6112
  164TCq2    C6 2502   0.400   1.024  11.518 -0.0478  0.3530  0.5305
  164TCq2    C7 2503   0.481   0.977  11.416 -0.0078  0.1808  0.0296
  164TCq2    C8 2504   0.301   1.122  11.488 -0.5031 -0.1520 -0.1100
  164TCq2    O4 2505   0.315   1.184  11.383  0.2204 -0.2108 -0.0441
  164TCq2    C9 2506   0.433   0.753  11.766  0.2643  0.4642  0.8637
  164TCq2    O5 2507   0.391   0.821  11.859 -0.2463  0.4254 -0.0249
  164TCq2    O6 2508   0.423   0.628  11.757  0.4899  0.2968  0.3587
  164TCq2    H2 2509   0.575   0.678  11.554 -1.8208 -0.6890  1.5151
  164TCq2    H3 2510   0.332   0.977  11.715  0.7471  2.5044  0.1266
  164TCq2    H4 2511   0.484   1.030  11.321 -3.5474 -1.1319 -0.8072
  165MPD2     C 2512   0.806   2.729   2.894  0.2707  0.1988  0.5146
  165MPD2    C1 2513   0.854   2.693   2.769 -0.1201 -0.3543  0.0900
  165MPD2    C2 2514   0.940   2.784   2.706 -0.7083 -0.2356  0.1402
  165MPD2    C3 2515   0.989   2.899   2.761  0.2443 -0.3361  0.0260
  165MPD2    C4 2516   0.940   2.926   2.886  0.0053 -0.0758  0.4304
  165MPD2    C5 2517   0.856   2.841   2.950  0.1927 -0.1278 -0.0225
  165MPD2     H 2518   0.970   2.771   2.603  0.0445 -0.3663  0.3716
  165MPD2    H1 2519   0.969   3.018   2.936 -0.4540  0.7132 -0.7592
  165MPD2    H2 2520   0.725   2.676   2.943 -0.2000 -2.3296 -2.9815
  165MPD2    H3 2521   0.820   2.856   3.051  2.4655  2.2692  0.4128
  165MPD2     N 2522   1.086   2.981   2.695  0.1529 -0.0095  0.3667
  165MPD2    H5 2523   1.122   3.061   2.746  0.2638  0.5908 -0.6464
  165MPD2    N1 2524   0.799   2.579   2.701  0.4115  0.1804 -0.6053
  165MPD2    H7 2525   0.739   2.521   2.759 -1.4199  0.2957 -2.3784
  166TCq2    C1 2526   1.144   2.962   2.577  0.2767 -0.3760  0.2607
  166TCq2    O2 2527   1.140   2.864   2.505  0.9124  0.0562  0.2396
  166TCq2    C2 2528   1.238   3.073   2.539  0.4389  0.6313 -0.0446
  166TCq2    C3 2529   1.256   3.189   2.610 -0.1575 -0.5233 -0.7369
  166TCq2    C4 2530   1.337   3.293   2.573  0.0358 -0.3933 -0.3402
  166TCq2    C5 2531   1.403   3.281   2.453  0.2486 -0.5500  0.2961
  166TCq2    C6 2532   1.373   3.168   2.372 -0.1707 -0.8058 -0.0361
  166TCq2    C7 2533   1.290   3.064   2.412  0.6263 -0.6338 -0.2327
  166TCq2    C8 2534   1.422   3.168   2.238  0.7263 -0.1522 -0.5581
  166TCq2    O4 2535   1.506   3.261   2.221  0.8064 -0.3208  0.3220
  166TCq2    C9 2536   1.367   3.409   2.662 -0.5121 -0.0461  0.6577
  166TCq2    O5 2537   1.320   3.400   2.776 -0.0797 -0.0896  0.3338
  166TCq2    O6 2538   1.463   3.489   2.629  0.2368 -0.7276  0.2795
  166TCq2    H2 2539   1.212   3.200   2.709 -1.3419  1.0739 -1.4411
  166TCq2    H3 2540   1.471   3.359   2.420 -1.4986  0.2664 -1.3956
  166TCq2    H4 2541   1.265   2.984   2.342  0.4925  0.6456 -1.6604
  167TMC2    C1 2542   4.393   1.348  12.931  0.0174 -0.6312  0.0456
  167TMC2    C2 2543   4.359   1.397  13.057  0.2371 -0.3451  0.0066
  167TMC2    C3 2544   4.345   1.305  13.152  0.7867 -0.4294 -0.1445
  167TMC2    C4 2545   4.405   1.220  12.895 -0.1623 -0.6268 -0.0177
  167TMC2    C5 2546   4.394   1.128  13.000 -0.5334 -0.4359 -0.3677
  167TMC2    C6 2547   4.362   1.171  13.127  0.2052 -0.1198  0.0768
  167TMC2     C 2548   4.409   1.452  12.830  0.0906 -0.2255  0.6382
  167TMC2     O 2549   4.366   1.560  12.843  0.0105  0.4477 -0.3021
  167TMC2     H 2550   4.351   1.503  13.078 -1.1077 -0.4653  0.0912
  167TMC2    H1 2551   4.410   1.184  12.793  0.6173 -0.2539 -0.1132
  167TMC2    H2 2552   4.352   1.093  13.201 -1.5871  2.2872  2.3765
  167TMC2    C7 2553   4.367   0.990  12.973 -0.7391 -0.3637 -0.3838
  167TMC2    C8 2554   4.281   1.325  13.277  0.2189 -0.3706  0.1510
  167TMC2    O1 2555   4.306   0.922  13.054  0.2450  0.0892  0.1245
  167TMC2    O2 2556   4.275   1.233  13.357  0.4185 -0.5484  0.0326
  167TMC2    O5 2557   4.207   1.437  13.279  0.4441 -0.5319  0.1530
  167TMC2    H5 2558   4.221   1.509  13.214  1.5261 -0.5691  0.3495
  168MPD2     C 2559   4.439   1.606  12.556  0.2347 -0.2900  0.3479
  168MPD2    C1 2560   4.495   1.474  12.592 -0.1166  0.2924  0.5580
  168MPD2    C2 2561   4.558   1.407  12.494  0.5130 -1.1375 -0.4330
  168MPD2    C3 2562   4.590   1.460  12.367  0.3754 -0.0454 -0.0572
  168MPD2    C4 2563   4.541   1.583  12.333  0.0062 -0.3620  0.2931
  168MPD2    C5 2564   4.470   1.651  12.427 -0.6552 -0.2104  0.4385
  168MPD2     H 2565   4.602   1.311  12.517  0.9938 -0.7432  0.2799
  168MPD2    H1 2566   4.561   1.629  12.237  0.1591  0.0223  0.5096
  168MPD2    H2 2567   4.388   1.673  12.624  0.3790 -0.0812  0.2497
  168MPD2    H3 2568   4.435   1.750  12.398  0.2378  0.0964  0.4054
  168MPD2     N 2569   4.669   1.381  12.279  0.9065  0.4240  0.1706
  168MPD2    H5 2570   4.693   1.291  12.320 -0.2284  0.7483  1.5319
  168MPD2    N1 2571   4.475   1.401  12.717  0.3611 -0.7001  0.0821
  168MPD2    H7 2572   4.522   1.314  12.735  0.0370 -1.7072 -3.8938
  169MPD1     C 2573   3.208   0.526   8.677 -0.0461  1.2088  0.0249
  169MPD1    C1 2574   3.212   0.491   8.811 -0.2581 -0.5620  0.9674
  169MPD1    C2 2575   3.210   0.361   8.857  0.1783 -0.2298 -0.2638
  169MPD1    C3 2576   3.200   0.254   8.766  0.0408 -0.3470 -0.0807
  169MPD1    C4 2577   3.196   0.291   8.631  0.3908  0.4794 -0.4651
  169MPD1    C5 2578   3.196   0.421   8.586  0.0476 -0.1136  0.0843
  169MPD1     H 2579   3.200   0.344   8.963 -0.5011 -1.3011 -0.5047
  169MPD1    H1 2580   3.200   0.217   8.551  0.0285 -1.2360  1.0875
  169MPD1    H2 2581   3.209   0.629   8.643 -0.8929  1.4445  0.7095
  169MPD1    H3 2582   3.192   0.441   8.480  1.6807  1.3745  0.3005
  169MPD1     N 2583   3.193   0.121   8.823  0.0580 -0.4057 -0.0163
  169MPD1    H5 2584   3.189   0.116   8.924 -1.1287  0.1266 -0.0334
  169MPD1    N1 2585   3.210   0.594   8.902  0.0432  0.3708  0.4118
  169MPD1    H6 2586   3.258   0.677   8.868  1.4205  0.0727  1.6156
  169MPD1    H7 2587   3.262   0.570   8.987 -0.2921 -0.2988  0.4317
  170MPD1     C 2588   4.525   3.193  13.454  0.0275 -0.2862  0.3963
  170MPD1    C1 2589   4.576   3.149  13.576  0.3309 -0.0504  0.1562
  170MPD1    C2 2590   4.711   3.180  13.608  0.0014  0.5626 -0.8152
  170MPD1    C3 2591   0.056   3.275  13.537  0.1967 -0.0041  0.0391
  170MPD1    C4 2592   0.003   3.325  13.420 -0.1190 -0.2956 -0.3419
  170MPD1    C5 2593   4.604   3.286  13.379  0.2531 -0.1741 -0.4235
  170MPD1     H 2594   0.029   3.144  13.701 -0.4936  2.5134  0.1627
  170MPD1    H1 2595   0.051   3.397  13.355  1.1510 -1.4976 -0.7543
  170MPD1    H2 2596   4.424   3.171  13.422  0.6139  0.5186 -2.0011
  170MPD1    H3 2597   4.557   3.326  13.290  0.5953  0.2144 -0.4279
  170MPD1     N 2598   0.181   3.324  13.594 -0.1289  0.0274 -0.3710
  170MPD1    H5 2599   0.220   3.269  13.669 -0.2846 -1.3869 -1.3229
  170MPD1    N1 2600   4.498   3.069  13.659 -0.1927 -0.0489 -0.3831
  170MPD1    H6 2601   4.399   3.089  13.644  0.1114  1.6140 -0.1857
  170MPD1    H7 2602   4.529   3.079  13.756  0.6755 -0.6303 -0.6001
  171MPD1     C 2603   4.500   4.690  15.429  0.4514 -0.5455 -0.2340
  171MPD1    C1 2604   4.495   4.579  15.348  0.3011  0.2401 -1.2135
  171MPD1    C2 2605   4.447   4.470  15.406 -0.1218 -0.1037  0.1245
  171MPD1    C3 2606   4.399   4.457  15.532 -0.0274  0.2906 -0.4400
  171MPD1    C4 2607   4.409   4.568  15.613 -0.6104 -0.7935 -0.4514
  171MPD1    C5 2608   4.456   4.684  15.554 -0.3917 -0.3122 -0.4392
  171MPD1     H 2609   4.434   4.387  15.338  3.2625  0.5672 -1.3557
  171MPD1    H1 2610   4.374   4.572  15.715 -2.0822 -2.1507 -0.8961
  171MPD1    H2 2611   4.533   0.063  15.396 -2.9167  0.8578  0.5630
  171MPD1    H3 2612   4.465   0.051  15.611  0.9121 -0.8128  0.1751
  171MPD1     N 2613   4.325   4.345  15.570  0.1823  0.0426  0.4185
  171MPD1    H5 2614   4.290   4.347  15.665  1.4795 -0.6462  0.9028
  171MPD1    N1 2615   4.505   4.584  15.209  0.1532 -0.0613 -0.0418
  171MPD1    H6 2616   4.570   4.645  15.161  0.3193  1.4195  2.0395
  171MPD1    H7 2617   4.518   4.492  15.167 -1.7310 -0.7146  0.7944
  172MPD1     C 2618   2.995   3.046   0.139 -0.6011  0.0872  0.1696
  172MPD1    C1 2619   2.973   3.130   0.242 -0.7176 -0.6061 -0.2357
  172MPD1    C2 2620   3.025   3.259   0.237  0.4096  0.4555  0.7197
  172MPD1    C3 2621   3.104   3.294   0.131 -0.1309  0.1189 -0.3376
  172MPD1    C4 2622   3.140   3.201   0.040 -0.8307  0.3612  0.0729
  172MPD1    C5 2623   3.079   3.074   0.039 -0.2172 -0.0380  0.0938
  172MPD1     H 2624   2.999   3.321   0.322 -2.6233 -0.2292  0.2925
  172MPD1    H1 2625   3.205   3.214  17.654 -0.2399  1.6012  0.7115
  172MPD1    H2 2626   2.949   2.948   0.141  0.9417 -0.7073 -2.7519
  172MPD1    H3 2627   3.105   3.012  17.653 -1.4690  1.2753 -1.2521
  172MPD1     N 2628   3.186   3.413   0.129  0.1600 -0.5717 -0.2168
  172MPD1    H5 2629   3.246   3.420   0.048  1.2944  1.5955  0.8201
  172MPD1    N1 2630   2.874   3.088   0.331 -0.1820  0.0541  0.2998
  172MPD1    H6 2631   2.880   3.130   0.424  1.7620 -0.8792  0.5864
  172MPD1    H7 2632   2.885   2.987   0.337  1.1300  0.2248  0.6021
  173MPD1     C 2633   0.109   3.969  14.001 -0.6143 -0.6463 -0.7064
  173MPD1    C1 2634   0.027   3.907  13.908 -0.1344  0.2894 -0.1035
  173MPD1    C2 2635   4.636   3.848  13.953 -0.1795  0.1909  0.3269
  173MPD1    C3 2636   4.612   3.827  14.087  0.0512 -0.2309 -0.1546
  173MPD1    C4 2637   4.688   3.902  14.176 -0.5002  0.6798 -0.3837
  173MPD1    C5 2638   0.070   3.970  14.134  0.5192  0.3772 -0.8263
  173MPD1     H 2639   4.564   3.807  13.882 -0.7402 -2.8357  2.6109
  173MPD1    H1 2640   4.672   3.901  14.283  3.3944 -0.6401  0.1662
  173MPD1    H2 2641   0.202   4.012  13.967 -1.5785  1.5277 -0.6003
  173MPD1    H3 2642   0.123   4.015  14.217 -0.0568 -0.7591  0.1637
  173MPD1     N 2643   4.505   3.738  14.117 -0.6510 -0.1418  0.2096
  173MPD1    H5 2644   4.477   3.672  14.045 -2.2566  0.8251 -0.0570
  173MPD1    N1 2645   0.052   3.912  13.772  0.4145  0.6896  0.0863
  173MPD1    H6 2646   0.152   3.917  13.755  0.2368 -0.2085 -1.2718
  173MPD1    H7 2647   0.017   3.830  13.722 -1.4866  0.9260  1.0233
  174MPD1     C 2648   4.148   3.137  13.608  0.1469  0.4625 -0.0016
  174MPD1    C1 2649   4.148   3.070  13.732 -0.1121 -0.8208  0.2333
  174MPD1    C2 2650   4.181   3.141  13.848 -0.9018 -0.5777 -0.3531
  174MPD1    C3 2651   4.222   3.274  13.845  0.9793  0.5789 -0.2086
  174MPD1    C4 2652   4.213   3.340  13.726 -0.9770 -0.3290  0.1832
  174MPD1    C5 2653   4.181   3.270  13.614  0.8311  0.2308 -0.4842
  174MPD1     H 2654   4.171   3.083  13.940  0.7291 -0.2742  0.0081
  174MPD1    H1 2655   4.238   3.444  13.712 -0.2999 -0.4355  0.6126
  174MPD1    H2 2656   4.132   3.087  13.514 -0.7450  0.4285  0.1678
  174MPD1    H3 2657   4.182   3.321  13.519 -1.1168  1.0351 -0.0806
  174MPD1     N 2658   4.237   3.345  13.962  0.3993 -0.7880  0.5696
  174MPD1    H5 2659   4.251   3.446  13.954  0.4759 -0.7825  0.7627
  174MPD1    N1 2660   4.145   2.932  13.737 -0.6476  0.0913 -0.6422
  174MPD1    H6 2661   4.116   2.896  13.828 -0.8488 -0.7174 -1.0217
  174MPD1    H7 2662   4.083   2.888  13.669  1.5543 -0.6847 -2.1534
  175MPD1     C 2663   3.083   4.554  15.739  0.3388 -0.3658 -0.1209
  175MPD1    C1 2664   3.032   4.669  15.793  0.0951  0.2842 -0.4763
  175MPD1    C2 2665   3.000   4.665  15.927 -0.0034  0.2591  0.5666
  175MPD1    C3 2666   3.006   4.547  16.006 -0.6926  0.7303 -0.1706
  175MPD1    C4 2667   3.057   4.439  15.944  0.2034  0.1632 -0.8962
  175MPD1    C5 2668   3.095   4.440  15.814 -0.2292  0.3263 -0.4866
  175MPD1     H 2669   2.967   0.030  15.977 -0.0670 -0.1901  1.3273
  175MPD1    H1 2670   3.088   4.351  15.998 -0.9204  0.8462  0.8677
  175MPD1    H2 2671   3.135   4.549  15.643 -1.3730  2.5084 -1.1933
  175MPD1    H3 2672   3.142   4.354  15.768 -1.6250  0.5409 -2.3411
  175MPD1     N 2673   2.974   4.548  16.143  0.0701  0.4813 -0.0412
  175MPD1    H5 2674   3.010   4.470  16.197  1.7266 -0.4478 -2.5147
  175MPD1    N1 2675   3.048   0.062  15.718  0.3235  0.3533 -0.7083
  175MPD1    H6 2676   3.040   0.045  15.618 -0.4441  0.9329 -0.7423
  175MPD1    H7 2677   2.978   0.131  15.745  0.6963  0.5063 -0.1115
  176MPD1     C 2678   4.519   0.981   0.612 -0.3802 -0.0434  0.2142
  176MPD1    C1 2679   4.524   0.931   0.484 -0.0888  0.4697 -1.1354
  176MPD1    C2 2680   4.534   1.014   0.379 -0.8760  0.1133 -0.6126
  176MPD1    C3 2681   4.536   1.152   0.397 -0.2818  0.4982 -0.7382
  176MPD1    C4 2682   4.522   1.204   0.523 -0.0713  0.0298  0.6244
  176MPD1    C5 2683   4.508   1.114   0.624 -0.4871  0.1347 -0.3822
  176MPD1     H 2684   4.553   0.967   0.283 -1.2169  2.4055 -1.7919
  176MPD1    H1 2685   4.518   1.310   0.547 -2.8464 -0.2668  1.5173
  176MPD1    H2 2686   4.534   0.920   0.700 -1.1100  1.6921  1.5514
  176MPD1    H3 2687   4.500   1.151   0.726  1.7118 -1.4400  0.3648
  176MPD1     N 2688   4.540   1.232   0.288 -0.6166  0.3156 -0.6309
  176MPD1    H5 2689   4.531   1.185   0.198 -0.6605 -1.8563  0.5239
  176MPD1    N1 2690   4.535   0.794   0.453  0.0130  0.0448 -0.5374
  176MPD1    H6 2691   4.475   0.748   0.522  0.9613  0.7497  0.7548
  176MPD1    H7 2692   4.508   0.772   0.357 -1.8646  0.7258 -0.1534
  177MPD1     C 2693   3.527   0.467  10.631 -0.7324  0.0654 -0.2298
  177MPD1    C1 2694   3.616   0.512  10.544 -0.1134 -0.1152  0.9623
  177MPD1    C2 2695   3.565   0.576  10.434 -0.8117  0.3081 -0.1501
  177MPD1    C3 2696   3.428   0.564  10.405  0.6340 -0.5709  0.4265
  177MPD1    C4 2697   3.342   0.508  10.494  0.2428 -0.0622 -0.0283
  177MPD1    C5 2698   3.395   0.475  10.612 -0.5579 -0.3814  0.3248
  177MPD1     H 2699   3.632   0.611  10.357  2.8629  0.9049  3.2926
  177MPD1    H1 2700   3.234   0.507  10.481  0.3073 -0.4940 -0.5523
  177MPD1    H2 2701   3.558   0.436  10.730 -0.9915 -0.7071 -0.3943
  177MPD1    H3 2702   3.329   0.446  10.693  0.1124 -0.3518  0.8936
  177MPD1     N 2703   3.388   0.620  10.279 -0.3467 -0.1355  0.1174
  177MPD1    H5 2704   3.458   0.655  10.216  0.9062 -2.7196  0.0509
  177MPD1    N1 2705   3.743   0.539  10.593  0.1166  0.1322  0.2287
  177MPD1    H6 2706   3.772   0.465  10.657 -0.2817  0.5303  0.8759
  177MPD1    H7 2707   3.813   0.559  10.522  0.9623  2.2629  1.6418
  178MPD1     C 2708   0.599   1.733   0.606  0.0452  0.0983 -0.5043
  178MPD1    C1 2709   0.507   1.784   0.517  0.0234  0.2343  0.6839
  178MPD1    C2 2710   0.555   1.852   0.404 -0.2823  0.0217  0.5305
  178MPD1    C3 2711   0.686   1.864   0.375 -0.6288  0.1283 -0.1575
  178MPD1    C4 2712   0.777   1.813   0.473  0.3052  0.3131 -0.8771
  178MPD1    C5 2713   0.734   1.745   0.583  0.3470 -0.0088 -0.6340
  178MPD1     H 2714   0.485   1.902   0.339 -0.7653 -3.8182 -1.8769
  178MPD1    H1 2715   0.885   1.817   0.466  0.2631 -0.8797 -2.3910
  178MPD1    H2 2716   0.568   1.702   0.705  2.6234 -1.4283 -0.1668
  178MPD1    H3 2717   0.805   1.709   0.656 -0.0367  1.6708  0.5632
  178MPD1     N 2718   0.731   1.934   0.256  0.4005 -0.3358 -0.1247
  178MPD1    H5 2719   0.824   1.974   0.258 -0.7200  2.2402  0.0368
  178MPD1    N1 2720   0.374   1.790   0.547 -0.1486  0.5392 -0.0169
  178MPD1    H6 2721   0.353   1.706   0.602  0.1807  0.5468  0.1196
  178MPD1    H7 2722   0.319   1.784   0.461 -0.7774  3.0773  0.2200
  179MPD1     C 2723   0.544   4.477  14.905  0.2740 -0.7369 -0.1036
  179MPD1    C1 2724   0.580   4.406  15.014  0.1174 -0.2812 -0.6227
  179MPD1    C2 2725   0.538   4.445  15.142  0.4307 -0.8609 -0.3974
  179MPD1    C3 2726   0.484   4.572  15.158  0.2138  0.0005 -0.2247
  179MPD1    C4 2727   0.454   4.647  15.048 -0.5235  0.1301  0.0660
  179MPD1    C5 2728   0.487   4.600  14.925 -0.2259  0.3521 -0.4076
  179MPD1     H 2729   0.549   4.379  15.227 -0.6405  1.7385  1.7366
  179MPD1    H1 2730   0.421   0.026  15.057 -0.1877  0.2588 -0.1607
  179MPD1    H2 2731   0.563   4.451  14.802  2.4321  0.1238  0.0730
  179MPD1    H3 2732   0.468   4.667  14.841 -0.3128 -1.0606 -1.5168
  179MPD1     N 2733   0.454   4.630  15.283  0.5795  0.4223 -1.0437
  179MPD1    H5 2734   0.404   4.718  15.284  0.5708  0.4351 -2.2838
  179MPD1    N1 2735   0.661   4.289  15.008 -0.1000 -0.8069 -0.0328
  179MPD1    H6 2736   0.663   4.232  15.092  0.9573 -0.9353 -0.1453
  179MPD1    H7 2737   0.649   4.241  14.919 -4.2278  2.0078 -0.9920
  180MPD1     C 2738   0.189   2.249  15.448 -0.3258 -0.1034  0.2507
  180MPD1    C1 2739   0.317   2.223  15.405  0.3370  0.8810 -0.2292
  180MPD1    C2 2740   0.338   2.204  15.270  1.0807  0.4874 -0.0719
  180MPD1    C3 2741   0.236   2.220  15.179  0.0004 -0.6824  0.3446
  180MPD1    C4 2742   0.116   2.259  15.224  0.9001 -0.5799 -0.7288
  180MPD1    C5 2743   0.087   2.267  15.357 -0.3088  0.2108 -0.6239
  180MPD1     H 2744   0.432   2.170  15.227  0.1222  0.1216 -1.8818
  180MPD1    H1 2745   0.035   2.280  15.155 -1.4654 -1.9912  1.6263
  180MPD1    H2 2746   0.166   2.246  15.554  0.2493 -1.2500  0.3443
  180MPD1    H3 2747   4.712   2.296  15.391  0.2283  2.0492 -0.6266
  180MPD1     N 2748   0.267   2.195  15.046  0.1545  0.7449  0.2356
  180MPD1    H5 2749   0.364   2.187  15.017  0.4417  2.1445  0.7736
  180MPD1    N1 2750   0.419   2.189  15.499 -0.4597 -0.0408 -0.3630
  180MPD1    H6 2751   0.513   2.209  15.467 -0.1096 -1.0285  0.0600
  180MPD1    H7 2752   0.407   2.243  15.585 -0.9564 -0.3650 -0.2305
  181MPD1     C 2753   2.168   2.622   9.550 -0.0314  0.3246 -0.0240
  181MPD1    C1 2754   2.225   2.608   9.425 -0.1016  0.5721  0.3085
  181MPD1    C2 2755   2.353   2.662   9.407 -0.0590  0.2702 -1.1948
  181MPD1    C3 2756   2.417   2.736   9.506 -0.0709 -0.2709  0.4178
  181MPD1    C4 2757   2.356   2.764   9.628  0.8257 -0.7239  0.0334
  181MPD1    C5 2758   2.240   2.697   9.646 -0.5613  0.6872 -0.0702
  181MPD1     H 2759   2.401   2.634   9.314 -1.4681 -0.8167 -1.5975
  181MPD1    H1 2760   2.401   2.808   9.717 -0.5290 -2.7991  1.7559
  181MPD1    H2 2761   2.073   2.577   9.579  0.0373 -0.2245 -0.6478
  181MPD1    H3 2762   2.204   2.705   9.748  2.5958 -0.8232  1.1495
  181MPD1     N 2763   2.543   2.802   9.495  0.1406  0.3225 -0.4012
  181MPD1    H5 2764   2.576   2.855   9.575 -0.6855  0.1110  0.0813
  181MPD1    N1 2765   2.150   2.573   9.314  0.0819 -0.5442 -0.2157
  181MPD1    H6 2766   2.213   2.529   9.247  0.7696  1.5691 -0.9741
  181MPD1    H7 2767   2.087   2.499   9.343 -1.6759  0.3582 -1.6898
  182MPD1     C 2768   3.174   2.896   1.685 -0.6703  0.5842 -0.9508
  182MPD1    C1 2769   3.224   2.854   1.565  0.9426 -0.6378  0.1292
  182MPD1    C2 2770   3.132   2.815   1.471  0.2301 -0.0303 -0.7179
  182MPD1    C3 2771   3.002   2.784   1.504 -0.4218 -0.2522 -0.0094
  182MPD1    C4 2772   2.955   2.819   1.630 -0.1397 -0.1514 -0.0508
  182MPD1    C5 2773   3.042   2.884   1.713  0.2992 -0.2292 -0.0327
  182MPD1     H 2774   3.167   2.788   1.371  2.2432 -0.4536  0.0908
  182MPD1    H1 2775   2.852   2.799   1.656  0.2460  0.3899  1.8958
  182MPD1    H2 2776   3.236   2.950   1.757 -0.2077  0.9825 -1.6408
  182MPD1    H3 2777   3.001   2.932   1.801 -2.1105 -2.3471 -0.0212
  182MPD1     N 2778   2.912   2.737   1.405 -0.2005 -0.0573 -0.4039
  182MPD1    H5 2779   2.822   2.701   1.436 -0.4852  0.1384 -0.9914
  182MPD1    N1 2780   3.355   2.873   1.521 -0.0566 -0.5985  0.1156
  182MPD1    H6 2781   3.419   2.889   1.598  2.0955  0.3348 -1.8428
  182MPD1    H7 2782   3.390   2.807   1.452 -1.5868 -0.8811 -0.3994
  183MPD1     C 2783   3.204   3.256   8.817  0.3945  0.0327  0.3296
  183MPD1    C1 2784   3.249   3.385   8.804 -0.7613  0.3715 -0.7033
  183MPD1    C2 2785   3.350   3.435   8.883  0.3370 -0.3893  0.7196
  183MPD1    C3 2786   3.414   3.356   8.972 -0.3937 -0.3018  0.5366
  183MPD1    C4 2787   3.378   3.223   8.978  0.2940 -0.5839 -0.8295
  183MPD1    C5 2788   3.282   3.174   8.900  0.2530 -0.4308  0.3946
  183MPD1     H 2789   3.387   3.536   8.867 -0.1713 -0.3439 -0.1752
  183MPD1    H1 2790   3.423   3.156   9.051  2.1638  0.1248 -1.3401
  183MPD1    H2 2791   3.129   3.216   8.750  0.1791  0.5679  0.2518
  183MPD1    H3 2792   3.234   3.080   8.926 -0.2876 -0.1168  0.5298
  183MPD1     N 2793   3.510   3.418   9.063 -0.8528  0.0943  0.1684
  183MPD1    H5 2794   3.535   3.516   9.056 -3.1081  0.6613 -0.1557
  183MPD1    N1 2795   3.213   3.467   8.694  0.5190  0.4558 -0.3386
  183MPD1    H6 2796   3.120   3.449   8.657 -0.1836 -0.1857  1.7410
  183MPD1    H7 2797   3.214   3.568   8.707 -0.2486  0.4666 -0.3387
  184MPD1     C 2798   3.055   0.416  10.894 -0.1867  0.2198  0.0114
  184MPD1    C1 2799   2.972   0.312  10.847  0.9338  0.3733  0.1008
  184MPD1    C2 2800   2.906   0.324  10.722 -0.1900 -0.7733  0.7274
  184MPD1    C3 2801   2.913   0.441  10.645  0.5149  0.3285  0.2616
  184MPD1    C4 2802   2.991   0.544  10.701 -0.1683 -0.0178 -0.4253
  184MPD1    C5 2803   3.065   0.527  10.815 -0.4053  0.6137  1.0314
  184MPD1     H 2804   2.847   0.243  10.682  2.6679 -0.8773 -3.2997
  184MPD1    H1 2805   2.991   0.640  10.650  0.8637 -0.6673 -1.6469
  184MPD1    H2 2806   3.116   0.409  10.983  1.2933 -3.2524 -1.2476
  184MPD1    H3 2807   3.113   0.610  10.867 -2.0330  2.6699 -0.7350
  184MPD1     N 2808   2.844   0.472  10.525  0.0217 -0.3344  1.2399
  184MPD1    H5 2809   2.864   0.558  10.474 -0.8719 -1.1791 -0.5135
  184MPD1    N1 2810   2.954   0.199  10.932  0.2869 -0.2271  0.2526
  184MPD1    H6 2811   3.024   0.195  11.005  1.2635 -0.5688 -0.7053
  184MPD1    H7 2812   2.940   0.107  10.889  0.6666 -0.1138 -0.1104
  185MPD1     C 2813   2.456   0.155   9.557 -0.1916  0.7979  0.1905
  185MPD1    C1 2814   2.485   0.075   9.666  0.1241 -0.2748 -0.1587
  185MPD1    C2 2815   2.538   0.143   9.773 -0.3314  0.4309 -0.5525
  185MPD1    C3 2816   2.536   0.282   9.780 -0.0720 -0.6564 -0.0160
  185MPD1    C4 2817   2.498   0.350   9.675 -0.5662 -0.1543 -0.8279
  185MPD1    C5 2818   2.466   0.292   9.564 -0.3705  0.1622  0.8651
  185MPD1     H 2819   2.580   0.078   9.849 -1.5376 -0.5142 -0.7025
  185MPD1    H1 2820   2.495   0.459   9.676 -1.8279 -0.1982 -0.0876
  185MPD1    H2 2821   2.427   0.114   9.461 -0.8954 -1.1739  1.2426
  185MPD1    H3 2822   2.453   0.357   9.479 -4.1575 -0.7700  0.6933
  185MPD1     N 2823   2.591   0.341   9.897  0.1018  0.2328 -0.2240
  185MPD1    H5 2824   2.596   0.443   9.896 -1.4682  0.3201  1.5223
  185MPD1    N1 2825   2.501   4.660   9.646 -0.3160 -0.0155 -0.9923
  185MPD1    H6 2826   2.423   4.617   9.598 -0.5377  0.4690 -1.0693
  185MPD1    H7 2827   2.502   4.608   9.733  0.7767  2.0893  0.2555
  186MPD1     C 2828   0.817   0.723  15.583  0.4606 -0.0673 -0.3440
  186MPD1    C1 2829   0.920   0.786  15.646  0.0583 -0.1919  0.2600
  186MPD1    C2 2830   0.890   0.868  15.747  0.7853 -0.2067 -0.1735
  186MPD1    C3 2831   0.764   0.898  15.781 -0.4374 -0.5478  0.1630
  186MPD1    C4 2832   0.655   0.851  15.710  0.3398  0.3854  0.0399
  186MPD1    C5 2833   0.685   0.767  15.608  0.4783  0.5436  0.5448
  186MPD1     H 2834   0.967   0.918  15.804  0.8165 -0.5484  0.0831
  186MPD1    H1 2835   0.552   0.870  15.735 -0.4086  0.9425 -3.4259
  186MPD1    H2 2836   0.821   0.645  15.507 -1.6574 -0.2924 -0.2333
  186MPD1    H3 2837   0.594   0.732  15.560  0.9038  0.0948  0.0652
  186MPD1     N 2838   0.745   0.981  15.895 -0.1139 -0.2975 -0.1146
  186MPD1    H5 2839   0.830   0.998  15.947  0.6468 -0.5473 -1.2739
  186MPD1    N1 2840   1.051   0.731  15.632  0.2804  0.4064  0.7040
  186MPD1    H6 2841   1.061   0.694  15.538  1.4056  1.3011  0.4739
  186MPD1    H7 2842   1.121   0.803  15.650 -0.2536  0.5954  2.0418
  187MPD1     C 2843   4.237   1.422   0.598 -0.1338  0.2038 -0.4446
  187MPD1    C1 2844   4.218   1.423   0.461 -0.6767 -0.1814  0.7133
  187MPD1    C2 2845   4.289   1.524   0.389  0.4339 -0.4048  0.3983
  187MPD1    C3 2846   4.369   1.615   0.452 -0.5598  0.0494  0.0327
  187MPD1    C4 2847   4.385   1.604   0.592 -0.2475 -0.5457 -0.0632
  187MPD1    C5 2848   4.323   1.507   0.661 -0.1705 -0.4233 -0.4999
  187MPD1     H 2849   4.288   1.532   0.281 -3.0745 -0.9095  0.3744
  187MPD1    H1 2850   4.452   1.672   0.644  0.4852 -0.2086 -1.4583
  187MPD1    H2 2851   4.193   1.349   0.665  1.9651 -1.3966 -0.8203
  187MPD1    H3 2852   4.345   1.493   0.766  0.4484  1.6387 -0.3654
  187MPD1     N 2853   4.433   1.727   0.388  0.0156 -0.2435 -0.2909
  187MPD1    H5 2854   4.496   1.782   0.446  0.4632  0.1678 -1.1673
  187MPD1    N1 2855   4.164   1.311   0.392 -0.1699 -0.4276 -0.0228
  187MPD1    H6 2856   4.130   1.338   0.300 -2.4565  1.4957  1.3881
  187MPD1    H7 2857   4.086   1.282   0.451  2.4130 -0.8995  3.1150
  188MPD1     C 2858   0.554   2.845   9.743  0.3592 -0.3021  0.1539
  188MPD1    C1 2859   0.458   2.753   9.707  0.3935  0.2585 -0.6984
  188MPD1    C2 2860   0.426   2.645   9.790 -0.4891 -0.0646  0.5070
  188MPD1    C3 2861   0.517   2.625   9.906 -0.6201 -1.5595  0.2559
  188MPD1    C4 2862   0.607   2.715   9.934 -0.1205  0.2756  0.2800
  188MPD1    C5 2863   0.630   2.821   9.848 -0.1047  0.6568  0.2114
  188MPD1     H 2864   0.336   2.591   9.764  0.5514 -1.5720  0.0478
  188MPD1    H1 2865   0.677   2.713  10.017 -1.2554 -0.4867  1.2249
  188MPD1    H2 2866   0.583   2.935   9.691 -1.3745 -0.0185 -0.3456
  188MPD1    H3 2867   0.712   2.889   9.869  0.4822  0.2979 -0.9398
  188MPD1     N 2868   0.500   2.517   9.999  0.3360 -0.6169 -0.1649
  188MPD1    H5 2869   0.578   2.507  10.063 -1.5858 -1.9779  1.9714
  188MPD1    N1 2870   0.390   2.764   9.586 -0.2198  0.2234 -0.4793
  188MPD1    H6 2871   0.290   2.758   9.601 -0.3275  1.0995 -0.8869
  188MPD1    H7 2872   0.415   2.853   9.543 -1.0636 -0.3549 -2.1678
  189MPD1     C 2873   1.469   3.137   0.209 -0.1161 -0.1577  0.1962
  189MPD1    C1 2874   1.417   3.245   0.278 -0.2856  0.4861  0.7876
  189MPD1    C2 2875   1.298   3.223   0.342 -0.6091  0.2096 -0.3653
  189MPD1    C3 2876   1.236   3.105   0.355 -0.3112 -0.4329 -0.0483
  189MPD1    C4 2877   1.297   2.999   0.291 -0.7987  0.5032 -0.3140
  189MPD1    C5 2878   1.412   3.019   0.217  0.1856 -0.4755  0.1001
  189MPD1     H 2879   1.262   3.313   0.390 -1.4769 -1.4510  2.0870
  189MPD1    H1 2880   1.263   2.897   0.294 -0.2839  0.3749  1.5188
  189MPD1    H2 2881   1.565   3.144   0.159 -0.6501 -2.7630 -1.1848
  189MPD1    H3 2882   1.475   2.937   0.182 -0.5974 -0.7038 -0.7752
  189MPD1     N 2883   1.110   3.094   0.424 -0.0680  0.0742  0.5924
  189MPD1    H5 2884   1.072   3.171   0.478  0.3377 -1.3104  2.8494
  189MPD1    N1 2885   1.457   3.379   0.251  0.2102  0.2879  0.4008
  189MPD1    H6 2886   1.552   3.402   0.225 -0.1457  0.9232 -0.3621
  189MPD1    H7 2887   1.414   3.442   0.320  2.5683  0.2600  1.9001
  190MPD1     C 2888   0.238   1.706  15.026  0.2061  0.4131  0.0786
  190MPD1    C1 2889   0.206   1.838  15.061  0.4745 -0.3525  0.5690
  190MPD1    C2 2890   0.277   1.898  15.165 -0.0133 -0.2878 -0.6369
  190MPD1    C3 2891   0.388   1.840  15.221 -0.1414  0.0275 -0.4502
  190MPD1    C4 2892   0.419   1.713  15.181 -0.1907 -0.9613  0.3878
  190MPD1    C5 2893   0.345   1.643  15.088  0.1258 -0.2921 -0.3135
  190MPD1     H 2894   0.229   1.981  15.216 -1.2848 -1.4488  0.0858
  190MPD1    H1 2895   0.502   1.661  15.227  0.0942 -1.9872 -1.2784
  190MPD1    H2 2896   0.190   1.651  14.946  0.9500  0.6114 -0.5134
  190MPD1    H3 2897   0.352   1.536  15.071 -0.6605 -0.1641 -1.5270
  190MPD1     N 2898   0.451   1.895  15.334 -0.1077 -0.5352  0.1676
  190MPD1    H5 2899   0.406   1.982  15.361 -0.9165 -0.3011 -1.9190
  190MPD1    N1 2900   0.073   1.892  15.034  0.0571  0.1328 -0.4879
  190MPD1    H6 2901   0.043   1.853  14.945 -2.2112  1.5797 -0.3425
  190MPD1    H7 2902   0.070   1.991  15.012 -0.0135  0.0684 -0.7618
  191MPD1     C 2903   4.474   3.413  12.978  0.0713 -0.6514 -0.4234
  191MPD1    C1 2904   4.564   3.467  12.883 -0.0559 -0.3299 -0.4709
  191MPD1    C2 2905   4.521   3.571  12.812  0.5734 -0.4241  0.3679
  191MPD1    C3 2906   4.393   3.618  12.809 -0.5925  0.2095 -0.9219
  191MPD1    C4 2907   4.304   3.561  12.898  0.3100  0.0719  0.0126
  191MPD1    C5 2908   4.348   3.467  12.985  0.1990 -0.9993  0.3688
  191MPD1     H 2909   4.599   3.607  12.746 -1.3421  0.5690 -1.3586
  191MPD1    H1 2910   4.201   3.584  12.921  0.1129 -0.5326 -0.2654
  191MPD1    H2 2911   4.501   3.330  13.043  1.0450  1.2708  1.6293
  191MPD1    H3 2912   4.273   3.431  13.054 -1.2935 -0.6336 -1.0546
  191MPD1     N 2913   4.369   3.730  12.722  0.3602 -0.1867  0.5191
  191MPD1    H5 2914   4.447   3.784  12.687 -0.0428 -0.4810 -0.8008
  191MPD1    N1 2915   4.700   3.418  12.881 -0.6756  0.1714 -0.7971
  191MPD1    H6 2916   0.025   3.438  12.794  0.1872 -0.3001 -0.4187
  191MPD1    H7 2917   4.702   3.320  12.906  0.1564 -0.5084 -3.4547
  192MPD1     C 2918   3.828   4.652  12.676 -0.0084  0.2598 -0.1167
  192MPD1    C1 2919   3.751   4.536  12.652 -0.7161 -0.3995 -0.4850
  192MPD1    C2 2920   3.827   4.420  12.644  0.0571 -0.3781 -0.1889
  192MPD1    C3 2921   3.971   4.413  12.655 -0.3442  0.5725 -0.2738
  192MPD1    C4 2922   4.033   4.537  12.664  0.3815  0.4366  0.5830
  192MPD1    C5 2923   3.966   4.649  12.672  0.6420  0.0219 -0.3664
  192MPD1     H 2924   3.776   4.325  12.631  0.5139 -0.7957  1.0476
  192MPD1    H1 2925   4.140   4.553  12.656  0.5490 -0.3837  1.1635
  192MPD1    H2 2926   3.783   0.025  12.692  0.2632  0.3029  0.3913
  192MPD1    H3 2927   4.018   0.018  12.692 -0.7364  0.6492  0.3503
  192MPD1     N 2928   4.050   4.293  12.633 -0.1237  0.6143 -0.7130
  192MPD1    H5 2929   4.150   4.309  12.630  0.1757 -0.8527  1.1487
  192MPD1    N1 2930   3.612   4.532  12.660  0.8519  0.8190  0.0379
  192MPD1    H6 2931   3.579   4.439  12.634 -0.1768  0.3522  3.0898
  192MPD1    H7 2932   3.578   4.594  12.586 -1.6990  0.9274  1.3016
  193MPD1     C 2933   4.026   3.957  17.407 -1.0934  0.3927  0.2335
  193MPD1    C1 2934   3.994   3.884  17.291 -1.1061  0.9453  0.9137
  193MPD1    C2 2935   4.029   3.948  17.171  0.2953  0.4604  0.2284
  193MPD1    C3 2936   4.109   4.061  17.172  0.2053 -0.0112 -0.7470
  193MPD1    C4 2937   4.145   4.119  17.287 -0.4320 -0.3134  0.0812
  193MPD1    C5 2938   4.101   4.068  17.405  0.3827  0.1253 -0.0281
  193MPD1     H 2939   3.988   3.918  17.076 -1.7046 -0.5416  1.4141
  193MPD1    H1 2940   4.206   4.208  17.294  0.4618 -0.9996  1.1270
  193MPD1    H2 2941   4.010   3.925  17.510 -1.6328  0.7656  0.2653
  193MPD1    H3 2942   4.125   4.111  17.501  1.3907 -0.5222  0.0059
  193MPD1     N 2943   4.152   4.122  17.056  0.4053  0.0659  0.2381
  193MPD1    H5 2944   4.191   4.214  17.073  1.5899  0.0229 -2.2193
  193MPD1    N1 2945   3.910   3.771  17.294  0.3204 -0.6917 -0.5710
  193MPD1    H6 2946   3.932   3.713  17.375 -0.1029  2.1233  1.5995
  193MPD1    H7 2947   3.918   3.714  17.210  1.5482 -0.2901 -0.7279
  194MPD1     C 2948   1.435   1.837  17.142 -0.1378 -0.5672 -0.0850
  194MPD1    C1 2949   1.439   1.787  17.275  0.1004 -0.0081  0.0389
  194MPD1    C2 2950   1.553   1.712  17.307  0.4461 -0.7013 -0.1286
  194MPD1    C3 2951   1.654   1.678  17.219  0.2169 -0.5076 -0.0843
  194MPD1    C4 2952   1.650   1.733  17.087 -0.0294 -0.4023  0.2139
  194MPD1    C5 2953   1.536   1.802  17.053 -0.0335  0.3185  0.3803
  194MPD1     H 2954   1.569   1.689  17.412 -0.6339 -0.5195  0.0801
  194MPD1    H1 2955   1.730   1.716  17.016  0.0098 -1.6005  0.5427
  194MPD1    H2 2956   1.358   1.898  17.096  0.9346  0.1257 -0.9673
  194MPD1    H3 2957   1.529   1.848  16.956  1.1142 -0.5742 -0.1274
  194MPD1     N 2958   1.762   1.593  17.247  0.2411 -0.0885  0.1307
  194MPD1    H5 2959   1.828   1.568  17.174  0.8100  0.2791  0.5206
  194MPD1    N1 2960   1.354   1.839  17.378  0.5779  0.7978  0.5968
  194MPD1    H6 2961   1.332   1.771  17.451  1.0558 -0.2830 -0.2629
  194MPD1    H7 2962   1.267   1.880  17.345  0.0598 -1.0377 -0.2859
  195MPD1     C 2963   3.799   2.992   0.284  0.2505 -0.1813 -0.4150
  195MPD1    C1 2964   3.725   2.899   0.218 -1.0265  0.3646  0.5556
  195MPD1    C2 2965   3.792   2.791   0.177  0.4959 -0.0109 -0.6151
  195MPD1    C3 2966   3.928   2.781   0.185 -0.1575  0.2152  0.2460
  195MPD1    C4 2967   4.006   2.878   0.242 -0.3059  0.1077  0.6167
  195MPD1    C5 2968   3.936   2.972   0.315 -0.4020  0.1560  0.1670
  195MPD1     H 2969   3.735   2.719   0.120 -0.2658 -0.5008  0.7706
  195MPD1    H1 2970   4.112   2.862   0.259 -0.0367  0.8374 -0.3930
  195MPD1    H2 2971   3.746   3.078   0.323  0.4099  0.1434 -0.9152
  195MPD1    H3 2972   3.984   3.045   0.379  0.2792  2.5873 -3.0775
  195MPD1     N 2973   3.993   2.662   0.136 -0.6127 -0.0123  0.8688
  195MPD1    H5 2974   4.092   2.666   0.156 -0.4153  0.0531 -0.1161
  195MPD1    N1 2975   3.584   2.903   0.224 -0.3359  0.4727  0.1303
  195MPD1    H6 2976   3.542   2.862   0.141 -0.5973  1.1691 -0.0790
  195MPD1    H7 2977   3.537   2.986   0.258 -0.2751  0.5328  0.0662
  196MPD1     C 2978   3.798   2.099   0.184  0.0875 -0.4262  0.2195
  196MPD1    C1 2979   3.760   2.227   0.144 -0.5257 -0.4054  0.0835
  196MPD1    C2 2980   3.782   2.330   0.229 -0.8489  0.0744  0.0699
  196MPD1    C3 2981   3.857   2.308   0.345 -0.0854  0.2276 -0.7278
  196MPD1    C4 2982   3.907   2.190   0.382  0.0251  0.4913  0.1267
  196MPD1    C5 2983   3.880   2.089   0.293  0.1505  0.1254  0.3705
  196MPD1     H 2984   3.752   2.432   0.207 -3.4373 -0.4067  1.4648
  196MPD1    H1 2985   3.971   2.175   0.468  1.4511  1.3951 -0.7817
  196MPD1    H2 2986   3.795   2.012   0.119 -2.4443 -0.5035  0.4588
  196MPD1    H3 2987   3.931   1.997   0.322  0.5463 -0.3270 -1.7784
  196MPD1     N 2988   3.890   2.418   0.433  0.0403  0.0894  0.5704
  196MPD1    H5 2989   3.962   2.412   0.504 -1.4864 -1.2909  2.0115
  196MPD1    N1 2990   3.683   2.248   0.031 -0.5215  0.1112  0.5189
  196MPD1    H6 2991   3.685   2.342  17.690 -0.8295 -0.2077 -0.2598
  196MPD1    H7 2992   3.707   2.182  17.655 -1.2528  0.5615 -0.1099
  197MPD1     C 2993   2.233   0.557  16.743 -0.4987  0.2630  0.4289
  197MPD1    C1 2994   2.326   0.620  16.816  0.3581  0.4765  0.3102
  197MPD1    C2 2995   2.449   0.560  16.823  1.4883  0.3270 -0.2486
  197MPD1    C3 2996   2.487   0.440  16.762  0.4734  0.4533 -0.1191
  197MPD1    C4 2997   2.380   0.377  16.701 -0.1949  0.3705 -0.6082
  197MPD1    C5 2998   2.256   0.435  16.692 -0.2008 -0.0954  0.4949
  197MPD1     H 2999   2.523   0.615  16.882  0.9991 -0.4332  1.0698
  197MPD1    H1 3000   2.398   0.278  16.660 -3.1838  0.1708 -1.4696
  197MPD1    H2 3001   2.137   0.609  16.736  0.1333  1.6786  2.2610
  197MPD1    H3 3002   2.170   0.382  16.653 -0.5887 -0.3364  1.6652
  197MPD1     N 3003   2.619   0.389  16.763 -0.5636  0.0625 -0.2414
  197MPD1    H5 3004   2.628   0.307  16.703 -0.5508 -0.9843  1.2061
  197MPD1    N1 3005   2.308   0.750  16.860 -0.2990 -0.3560 -0.0642
  197MPD1    H6 3006   2.360   0.745  16.947 -0.2244  1.3531 -0.0223
  197MPD1    H7 3007   2.215   0.776  16.893 -0.6280 -1.3724 -0.1953
  198MPD1     C 3008   4.190   3.262  15.916  0.0430  1.0109 -0.5732
  198MPD1    C1 3009   4.286   3.248  16.020  0.7405  0.2145 -0.5093
  198MPD1    C2 3010   4.399   3.172  15.998 -0.1132  0.3037 -1.0868
  198MPD1    C3 3011   4.437   3.141  15.868  0.4847  0.7809 -0.6549
  198MPD1    C4 3012   4.358   3.183  15.764 -1.1398  0.0563  0.3776
  198MPD1    C5 3013   4.231   3.235  15.789 -0.8469  0.4242 -0.0289
  198MPD1     H 3014   4.466   3.171  16.083 -1.0329  1.7884 -0.3413
  198MPD1    H1 3015   4.384   3.181  15.658 -1.3500  0.2477  0.3213
  198MPD1    H2 3016   4.097   3.317  15.926  0.4418  1.9137 -1.8033
  198MPD1    H3 3017   4.170   3.256  15.703 -0.2291 -0.2807 -0.6397
  198MPD1     N 3018   4.563   3.081  15.855 -0.3727  0.1871 -0.1019
  198MPD1    H5 3019   4.600   3.048  15.944  1.3630 -2.9489 -1.9824
  198MPD1    N1 3020   4.244   3.268  16.151 -0.1545  0.4413  0.2288
  198MPD1    H6 3021   4.315   3.298  16.217  0.9236 -0.8042 -0.3653
  198MPD1    H7 3022   4.167   3.335  16.154  0.1159  0.6846  1.8538
  199MPD1     C 3023   3.550   3.354   9.687  0.3008  0.3214 -0.0045
  199MPD1    C1 3024   3.532   3.252   9.595 -0.1151  0.3374 -0.8682
  199MPD1    C2 3025   3.445   3.272   9.488  0.8588  0.1573 -0.4492
  199MPD1    C3 3026   3.377   3.397   9.466  1.2689 -0.1604 -0.2817
  199MPD1    C4 3027   3.413   3.501   9.555  0.3287 -0.2396  0.4377
  199MPD1    C5 3028   3.492   3.474   9.666  0.0699  0.3124 -0.1965
  199MPD1     H 3029   3.435   3.190   9.418  1.1711  0.4981 -0.8933
  199MPD1    H1 3030   3.372   3.598   9.530  0.5063 -0.5740 -1.1535
  199MPD1    H2 3031   3.609   3.350   9.778  1.2938  0.9511 -0.6264
  199MPD1    H3 3032   3.500   3.548   9.745  0.4919  0.5419 -0.4522
  199MPD1     N 3033   3.284   3.419   9.365 -0.1981  0.0434 -0.8015
  199MPD1    H5 3034   3.253   3.513   9.346  0.8026  0.2580 -1.3340
  199MPD1    N1 3035   3.597   3.127   9.614 -0.0423  0.0432  0.1054
  199MPD1    H6 3036   3.602   3.073   9.528  2.1518  0.4864 -0.0334
  199MPD1    H7 3037   3.692   3.128   9.651 -0.3321  0.1308  0.8598
  200MPD1     C 3038   0.650   3.473  14.865  0.2778  0.7791  0.3887
  200MPD1    C1 3039   0.785   3.471  14.904  0.8380 -0.4527  0.3418
  200MPD1    C2 3040   0.863   3.572  14.848  0.4335 -0.7002 -0.8245
  200MPD1    C3 3041   0.820   3.648  14.741 -0.1221 -0.1367  0.0829
  200MPD1    C4 3042   0.691   3.630  14.691 -0.5333 -1.1162  0.0897
  200MPD1    C5 3043   0.605   3.542  14.755 -0.3092  0.2511  0.0924
  200MPD1     H 3044   0.962   3.583  14.890  0.2042 -1.4909 -0.0712
  200MPD1    H1 3045   0.651   3.691  14.611  0.0446 -0.7443  0.0888
  200MPD1    H2 3046   0.579   3.411  14.919  1.2079 -1.5933 -1.1010
  200MPD1    H3 3047   0.501   3.549  14.725 -1.0346 -0.4010  2.4513
  200MPD1     N 3048   0.910   3.749  14.706 -0.1199  0.8373  0.6770
  200MPD1    H5 3049   0.992   3.750  14.766  0.1144  0.5030  0.3629
  200MPD1    N1 3050   0.832   3.387  15.007 -0.3255 -0.0975  0.3124
  200MPD1    H6 3051   0.931   3.363  15.002 -0.3622 -0.6663  1.9773
  200MPD1    H7 3052   0.785   3.297  15.008 -1.4254  0.4918  1.4690
  201MPD1     C 3053   3.613   3.728  13.296 -0.1925 -0.2352  0.4425
  201MPD1    C1 3054   3.673   3.628  13.225 -0.0603  0.2235 -0.1001
  201MPD1    C2 3055   3.650   3.494  13.245  0.2535  0.2683  0.1430
  201MPD1    C3 3056   3.564   3.454  13.342 -0.7654 -0.2664  0.4232
  201MPD1    C4 3057   3.516   3.548  13.429 -0.2017 -0.0174  0.2194
  201MPD1    C5 3058   3.543   3.681  13.404  0.3114  0.3665  0.5585
  201MPD1     H 3059   3.701   3.425  13.179  1.8312  2.8514 -1.3107
  201MPD1    H1 3060   3.456   3.534  13.519 -0.9894  1.9857  0.0157
  201MPD1    H2 3061   3.623   3.833  13.271 -0.2443 -0.6809 -1.4420
  201MPD1    H3 3062   3.486   3.759  13.453 -1.4473 -0.6857  0.2160
  201MPD1     N 3063   3.534   3.317  13.350  0.1445 -0.0417 -0.4779
  201MPD1    H5 3064   3.550   3.256  13.271 -0.7066 -2.3903  1.1598
  201MPD1    N1 3065   3.787   3.669  13.152 -0.5504  0.1191  0.2127
  201MPD1    H6 3066   3.798   3.609  13.070  0.2132 -0.9815  1.1221
  201MPD1    H7 3067   3.782   3.765  13.118  1.0745 -0.0238 -0.4378
  202MPD1     C 3068   3.787   2.131   8.861 -0.4045  0.0748 -0.0250
  202MPD1    C1 3069   3.730   2.237   8.929  0.0832  0.4203 -0.4798
  202MPD1    C2 3070   3.790   2.253   9.057 -0.3052 -1.9459 -0.6496
  202MPD1    C3 3071   3.921   2.207   9.095 -0.2747 -0.6695  0.4538
  202MPD1    C4 3072   3.975   2.114   9.009 -0.0265  0.0861  0.3138
  202MPD1    C5 3073   3.906   2.072   8.899  0.1965  0.3411  0.0638
  202MPD1     H 3074   3.736   2.314   9.127  0.2329 -2.1280 -0.0719
  202MPD1    H1 3075   4.075   2.072   9.019  0.7641  1.6736 -0.9752
  202MPD1    H2 3076   3.748   2.090   8.768 -0.4570  0.7679 -0.3095
  202MPD1    H3 3077   3.945   1.989   8.841  1.2624  0.1594  1.0265
  202MPD1     N 3078   3.985   2.248   9.215  0.2662  0.4845 -0.2318
  202MPD1    H5 3079   4.085   2.228   9.222  0.2805  0.9615  1.0246
  202MPD1    N1 3080   3.596   2.274   8.915 -0.2364 -0.6620  0.3798
  202MPD1    H6 3081   3.565   2.357   8.964 -1.6150 -1.0971  0.2710
  202MPD1    H7 3082   3.581   2.290   8.816  1.9140  1.3223  0.4088
  203MPD1     C 3083   2.153   4.234  12.110  0.2677 -0.1411  0.4755
  203MPD1    C1 3084   2.173   4.196  12.243  0.2159  0.2200  0.3372
  203MPD1    C2 3085   2.180   4.063  12.277 -0.2233 -0.2570  0.2445
  203MPD1    C3 3086   2.162   3.967  12.179 -0.1649  0.4156 -0.0245
  203MPD1    C4 3087   2.148   4.003  12.047  0.7745 -0.1059  0.2792
  203MPD1    C5 3088   2.148   4.136  12.013 -0.2558  0.1271 -0.1087
  203MPD1     H 3089   2.180   4.026  12.378 -1.8306  0.0772  0.3792
  203MPD1    H1 3090   2.124   3.941  11.961  3.1124  1.4514 -1.4958
  203MPD1    H2 3091   2.144   4.334  12.069 -1.9230 -0.4834  0.1354
  203MPD1    H3 3092   2.112   4.163  11.914 -1.3189 -0.5574  0.0934
  203MPD1     N 3093   2.160   3.830  12.226  0.3775 -0.1136 -0.0581
  203MPD1    H5 3094   2.174   3.816  12.325 -1.9584  3.5277  0.7936
  203MPD1    N1 3095   2.162   4.301  12.337 -0.0019 -0.1951 -0.3579
  203MPD1    H6 3096   2.232   4.286  12.410 -0.2787  0.1847 -0.0118
  203MPD1    H7 3097   2.185   4.391  12.295 -1.3672 -1.2125 -3.2205
  204MPD1     C 3098   0.925   4.177   0.036  0.5919 -0.0784  0.4228
  204MPD1    C1 3099   0.926   4.034   0.021 -0.2678 -0.0138 -0.2076
  204MPD1    C2 3100   1.001   3.971  17.626 -0.9344 -1.1366 -0.4470
  204MPD1    C3 3101   1.091   4.048  17.545  0.1348 -0.0531  0.2307
  204MPD1    C4 3102   1.089   4.183  17.562  0.0350 -0.5481  0.0378
  204MPD1    C5 3103   1.009   4.244  17.657  0.2037  0.1296 -0.0823
  204MPD1     H 3104   1.008   3.864  17.614 -2.4172 -1.3835  0.8946
  204MPD1    H1 3105   1.167   4.239  17.511 -2.1702  1.6938 -0.8765
  204MPD1    H2 3106   0.864   4.223   0.113 -1.0267 -0.5749 -0.5545
  204MPD1    H3 3107   1.015   4.352  17.669  0.9940  0.1437 -0.6382
  204MPD1     N 3108   1.163   3.977  17.446  0.0253  0.4379  0.6402
  204MPD1    H5 3109   1.150   3.876  17.440  3.3451 -0.0023  0.6391
  204MPD1    N1 3110   0.847   3.955   0.101 -0.1895 -0.2404  0.4554
  204MPD1    H6 3111   0.878   3.858   0.097  1.0113  0.2030 -1.0184
  204MPD1    H7 3112   0.831   3.985   0.197  0.1603  0.0693  0.4145
  205MPD1     C 3113   2.277   2.972  16.650  0.3623  0.1444 -0.6631
  205MPD1    C1 3114   2.315   2.866  16.734  0.2543 -0.5044  0.0338
  205MPD1    C2 3115   2.250   2.854  16.855 -0.7590  0.0297 -0.0445
  205MPD1    C3 3116   2.152   2.943  16.894 -0.4716  0.5626 -0.1381
  205MPD1    C4 3117   2.112   3.037  16.809  0.3140 -0.1861 -0.4669
  205MPD1    C5 3118   2.176   3.055  16.692  0.1713  0.4106 -0.2583
  205MPD1     H 3119   2.261   2.760  16.909 -1.9373 -0.3728 -0.5046
  205MPD1    H1 3120   2.029   3.102  16.836  0.7978  0.1841  0.1232
  205MPD1    H2 3121   2.314   2.983  16.549 -2.1239  0.4836 -1.5335
  205MPD1    H3 3122   2.141   3.134  16.626  3.1767  2.8751  1.0709
  205MPD1     N 3123   2.074   2.926  17.010 -0.2093 -0.1834 -0.3780
  205MPD1    H5 3124   1.983   2.968  17.024  0.7637  1.6395  0.4940
  205MPD1    N1 3125   2.392   2.763  16.683  0.1759 -0.4118 -0.1434
  205MPD1    H6 3126   2.445   2.720  16.758 -0.0113 -1.4710 -0.6283
  205MPD1    H7 3127   2.457   2.792  16.611  1.2050 -0.3201  0.8238
  206MPD1     C 3128   2.272   1.269  16.912 -0.0587  0.1256  0.2285
  206MPD1    C1 3129   2.208   1.394  16.889  0.6002 -0.0352  0.5398
  206MPD1    C2 3130   2.171   1.433  16.762 -0.1047  0.1521  0.0678
  206MPD1    C3 3131   2.205   1.358  16.654  0.3921  0.1234  0.4164
  206MPD1    C4 3132   2.270   1.244  16.670 -0.6503  0.8200  0.1864
  206MPD1    C5 3133   2.303   1.198  16.797 -0.4537  0.4716  0.0636
  206MPD1     H 3134   2.120   1.528  16.756 -1.6203 -0.6986 -0.4644
  206MPD1    H1 3135   2.296   1.183  16.585  0.5992  0.3911  0.8739
  206MPD1    H2 3136   2.277   1.219  17.008  0.1520 -1.5176 -0.6491
  206MPD1    H3 3137   2.346   1.099  16.804  0.9251  1.0851  0.2304
  206MPD1     N 3138   2.179   1.417  16.526  0.4061 -0.2542  0.0139
  206MPD1    H5 3139   2.215   1.364  16.447 -1.1882 -0.9927 -0.2130
  206MPD1    N1 3140   2.165   1.466  17.000 -0.4331  0.2371 -0.3721
  206MPD1    H6 3141   2.232   1.456  17.076 -0.2070 -1.7311 -0.8236
  206MPD1    H7 3142   2.146   1.561  16.968  0.3249  0.1883 -0.9592
  207MPD1     C 3143   0.498   3.956   9.353  0.0445 -0.7109  0.1885
  207MPD1    C1 3144   0.616   3.986   9.410 -0.5432 -0.8364  0.5173
  207MPD1    C2 3145   0.667   3.920   9.523 -1.1472 -0.1318 -0.1749
  207MPD1    C3 3146   0.588   3.820   9.579 -0.2081  0.1343 -0.1385
  207MPD1    C4 3147   0.466   3.792   9.523  0.2968  0.4526  0.3190
  207MPD1    C5 3148   0.417   3.865   9.416 -0.5635 -0.2164 -0.5197
  207MPD1     H 3149   0.762   3.955   9.562  1.2337 -3.1775 -3.1712
  207MPD1    H1 3150   0.400   3.715   9.562 -0.9917  1.7620  0.7144
  207MPD1    H2 3151   0.454   4.013   9.272  0.4723 -1.7978 -0.8088
  207MPD1    H3 3152   0.316   3.845   9.380 -1.0581  0.9622  0.2280
  207MPD1     N 3153   0.617   3.765   9.706 -0.5053 -0.6665 -0.3737
  207MPD1    H5 3154   0.561   3.689   9.743  0.0179 -0.9358 -0.1352
  207MPD1    N1 3155   0.698   4.079   9.348  0.2728  0.5476  0.1621
  207MPD1    H6 3156   0.764   4.125   9.410  1.3200 -0.7268 -0.0118
  207MPD1    H7 3157   0.658   4.158   9.297 -1.7628  0.6240  1.8742
  208MPD1     C 3158   2.892   2.516  17.153  0.3445 -0.3997  0.4079
  208MPD1    C1 3159   2.900   2.376  17.163  0.5927  0.3345  0.4130
  208MPD1    C2 3160   2.844   2.320  17.281  0.5318  0.0554  0.0569
  208MPD1    C3 3161   2.815   2.402  17.392  0.0234  0.2802 -0.0935
  208MPD1    C4 3162   2.818   2.535  17.378  0.3260  0.4625 -0.8963
  208MPD1    C5 3163   2.859   2.591  17.263 -0.3711  0.7221  0.4024
  208MPD1     H 3164   2.845   2.212  17.292  2.1428  0.0495 -0.1165
  208MPD1    H1 3165   2.801   2.603  17.461 -0.3882 -0.1060 -0.5677
  208MPD1    H2 3166   2.926   2.572  17.067  0.5314  1.3423  1.6179
  208MPD1    H3 3167   2.863   2.699  17.261  0.9758  0.6690  0.2671
  208MPD1     N 3168   2.776   2.337  17.512 -0.2867  0.3091 -0.1801
  208MPD1    H5 3169   2.764   2.236  17.510  1.1753  0.1184  0.6201
  208MPD1    N1 3170   2.929   2.295  17.053 -0.0693  0.2420  0.1180
  208MPD1    H6 3171   2.973   2.204  17.068  1.0196  0.8877  0.8730
  208MPD1    H7 3172   2.976   2.338  16.974  0.3092  0.6890  0.5842
  209MPD1     C 3173   4.176   2.660  10.126 -0.3599  0.1599 -0.1825
  209MPD1    C1 3174   4.262   2.740  10.061  0.3758 -0.0065 -1.1698
  209MPD1    C2 3175   4.368   2.800  10.128  0.0286  0.1775 -0.0017
  209MPD1    C3 3176   4.402   2.763  10.256 -0.2986  0.2268 -0.4086
  209MPD1    C4 3177   4.314   2.698  10.332  0.0442 -0.1645 -0.6498
  209MPD1    C5 3178   4.207   2.639  10.266 -0.1578 -0.1393 -0.8455
  209MPD1     H 3179   4.436   2.862  10.072  0.7384  0.8116  1.5705
  209MPD1    H1 3180   4.321   2.675  10.438 -1.1936  3.3631  0.1974
  209MPD1    H2 3181   4.089   2.621  10.076  0.4774  1.3174 -2.5256
  209MPD1    H3 3182   4.145   2.576  10.328  1.6823  0.1650  1.3196
  209MPD1     N 3183   4.521   2.816  10.311 -0.9075  0.4055  0.3404
  209MPD1    H5 3184   4.579   2.868  10.246  0.0861  1.5826  2.1488
  209MPD1    N1 3185   4.225   2.779   9.931  0.2169 -0.1083  0.0111
  209MPD1    H6 3186   4.302   2.804   9.869  0.7492  1.5173  1.2985
  209MPD1    H7 3187   4.161   2.717   9.881  1.3433 -0.3131 -1.1829
  210MPD1     C 3188   0.416   2.378  10.945  0.7590 -0.3611 -0.2153
  210MPD1    C1 3189   0.480   2.432  10.832  0.0688  0.5398  0.0030
  210MPD1    C2 3190   0.406   2.523  10.756  0.0219  0.6294  0.1368
  210MPD1    C3 3191   0.288   2.565  10.799 -0.3919  0.0288 -0.0317
  210MPD1    C4 3192   0.220   2.505  10.903 -0.3713 -0.0027  0.6432
  210MPD1    C5 3193   0.291   2.409  10.977 -0.2245 -0.1872 -0.4203
  210MPD1     H 3194   0.454   2.574  10.673 -0.1484 -2.9585 -2.1527
  210MPD1    H1 3195   0.117   2.534  10.915 -0.3339 -0.3370  1.7820
  210MPD1    H2 3196   0.447   2.303  11.016  0.5873 -1.0546 -0.8733
  210MPD1    H3 3197   0.245   2.351  11.056 -2.6610  1.6732 -0.4656
  210MPD1     N 3198   0.218   2.668  10.730 -0.0263 -0.0526 -0.1681
  210MPD1    H5 3199   0.126   2.695  10.764 -0.3636 -0.8897 -0.4159
  210MPD1    N1 3200   0.594   2.373  10.781 -0.2008 -0.1548 -0.1749
  210MPD1    H6 3201   0.662   2.434  10.736 -0.0247 -0.5129 -0.3985
  210MPD1    H7 3202   0.635   2.319  10.857  1.2702  1.4194  0.1573
  211MPD1     C 3203   2.170   2.365  17.173 -0.6810 -0.3512  0.1985
  211MPD1    C1 3204   2.153   2.436  17.053  0.1129  0.3350 -0.5608
  211MPD1    C2 3205   2.045   2.520  17.042  0.0925 -0.4770 -0.0156
  211MPD1    C3 3206   1.953   2.542  17.142  0.5039 -0.3866 -0.0644
  211MPD1    C4 3207   1.967   2.466  17.253  0.3135  0.5469  0.2972
  211MPD1    C5 3208   2.074   2.384  17.268 -0.1433 -0.4223 -0.2432
  211MPD1     H 3209   2.025   2.567  16.946 -1.1709  0.7145  0.8314
  211MPD1    H1 3210   1.907   2.481  17.342 -0.5101 -1.7319  0.1270
  211MPD1    H2 3211   2.250   2.295  17.196  0.1753  0.4405 -0.3682
  211MPD1    H3 3212   2.088   2.339  17.365  0.1100  2.4111  1.0109
  211MPD1     N 3213   1.848   2.636  17.111 -0.0800 -0.4314 -0.3333
  211MPD1    H5 3214   1.860   2.681  17.021 -2.0840  0.4807 -0.1366
  211MPD1    N1 3215   2.237   2.398  16.948  0.2426 -0.5017 -0.3114
  211MPD1    H6 3216   2.231   2.466  16.873  2.3169 -0.2351 -0.2601
  211MPD1    H7 3217   2.333   2.390  16.981  0.2068 -1.8107 -0.5117
  212MPD1     C 3218   1.452   1.811  16.634  0.3934 -0.6114  0.0331
  212MPD1    C1 3219   1.504   1.686  16.599  0.0771 -0.5273  0.7141
  212MPD1    C2 3220   1.450   1.575  16.671  0.7676  0.0857  0.3243
  212MPD1    C3 3221   1.347   1.601  16.767  0.5531  0.2161  0.6040
  212MPD1    C4 3222   1.306   1.723  16.792  0.3034 -0.4280 -0.4244
  212MPD1    C5 3223   1.355   1.827  16.724  0.2158  0.2467 -0.1450
  212MPD1     H 3224   1.478   1.474  16.646  0.5753  0.4912 -1.5387
  212MPD1    H1 3225   1.222   1.742  16.859 -0.3557  0.1156 -1.4107
  212MPD1    H2 3226   1.486   1.901  16.583 -1.8382 -0.1570 -0.6405
  212MPD1    H3 3227   1.318   1.924  16.755 -1.7110 -0.7383  0.6636
  212MPD1     N 3228   1.269   1.492  16.817  0.0870  0.0416  0.8803
  212MPD1    H5 3229   1.198   1.520  16.884 -2.6951  0.1387 -2.1700
  212MPD1    N1 3230   1.590   1.664  16.489 -0.1176 -0.1657 -0.3676
  212MPD1    H6 3231   1.650   1.583  16.502  0.6955  0.3083 -1.1640
  212MPD1    H7 3232   1.646   1.743  16.457  0.3387 -0.1081  0.5472
  213MPD1     C 3233   3.917   3.145  15.649  0.0833 -0.4917 -0.5971
  213MPD1    C1 3234   3.934   3.190  15.522 -0.5777 -0.1202 -0.4533
  213MPD1    C2 3235   3.994   3.105  15.427 -0.3485  0.1189  0.1627
  213MPD1    C3 3236   4.072   3.000  15.461  0.9563 -0.2627  0.1397
  213MPD1    C4 3237   4.075   2.965  15.597  0.1655  0.6527 -0.8125
  213MPD1    C5 3238   3.999   3.040  15.686  0.0036  0.0507 -0.3147
  213MPD1     H 3239   3.984   3.118  15.320  2.8721 -0.5610 -0.2204
  213MPD1    H1 3240   4.137   2.883  15.631 -2.0488 -0.5813  0.2663
  213MPD1    H2 3241   3.843   3.189  15.715  1.3083 -0.4297  0.7347
  213MPD1    H3 3242   3.997   3.013  15.791  0.1522  0.3438 -0.2384
  213MPD1     N 3243   4.145   2.924  15.362 -0.0864 -0.3641  0.6268
  213MPD1    H5 3244   4.126   2.941  15.263  1.1690  1.9933  0.7921
  213MPD1    N1 3245   3.841   3.279  15.472 -0.2492  0.2300  1.0246
  213MPD1    H6 3246   3.862   3.322  15.382 -1.7386 -2.7729 -0.7457
  213MPD1    H7 3247   3.790   3.337  15.538  0.8748  1.8446  0.4667
  214MPD1     C 3248   3.754   2.092  15.174 -0.1262 -0.9322 -0.1374
  214MPD1    C1 3249   3.756   2.170  15.063  0.1652  0.1533  0.2139
  214MPD1    C2 3250   3.857   2.260  15.043 -0.2240 -0.1648 -0.0590
  214MPD1    C3 3251   3.961   2.279  15.142  0.2910 -0.2137 -0.3065
  214MPD1    C4 3252   3.950   2.194  15.252 -0.0917 -0.0436  0.1333
  214MPD1    C5 3253   3.848   2.107  15.269  0.5191 -0.0464  0.2198
  214MPD1     H 3254   3.850   2.327  14.958  1.6668  0.8552  0.5888
  214MPD1    H1 3255   4.026   2.191  15.330  0.4980 -1.1446 -0.4725
  214MPD1    H2 3256   3.676   2.019  15.194  0.0511 -1.5250 -1.5931
  214MPD1    H3 3257   3.839   2.037  15.351  2.7728 -1.4480 -0.7311
  214MPD1     N 3258   4.055   2.379  15.127 -0.2426  0.1044 -0.0824
  214MPD1    H5 3259   4.044   2.437  15.044 -0.6398 -2.9385 -2.1643
  214MPD1    N1 3260   3.640   2.183  14.985 -0.3467 -0.0221 -0.9627
  214MPD1    H6 3261   3.669   2.217  14.894  2.9452 -0.2255  0.0066
  214MPD1    H7 3262   3.593   2.093  14.977 -0.5213  0.1342 -1.6704
  215MPD1     C 3263   4.105   3.686  10.894  0.8575 -0.0925  0.7411
  215MPD1    C1 3264   4.134   3.743  11.013  0.2407  0.8354 -0.1792
  215MPD1    C2 3265   4.266   3.741  11.050  0.1924 -0.4237  0.3071
  215MPD1    C3 3266   4.358   3.648  11.008  0.1438  0.1993  0.1755
  215MPD1    C4 3267   4.312   3.568  10.902 -0.7170 -0.2746  0.0673
  215MPD1    C5 3268   4.193   3.601  10.842  0.0852  0.3704 -0.0557
  215MPD1     H 3269   4.294   3.800  11.137  1.3003  1.6470 -1.4545
  215MPD1    H1 3270   4.360   3.481  10.859  0.8049  0.9461 -0.6969
  215MPD1    H2 3271   4.004   3.694  10.854  1.5577 -2.1846 -1.4911
  215MPD1    H3 3272   4.154   3.537  10.764 -0.6848  0.0593  0.5840
  215MPD1     N 3273   4.477   3.641  11.081 -0.6749  0.2563 -0.1306
  215MPD1    H5 3274   4.488   3.703  11.160  3.1332  0.2212 -0.6306
  215MPD1    N1 3275   4.038   3.830  11.066 -0.2148 -0.3684  0.2581
  215MPD1    H6 3276   4.042   3.828  11.168  1.8500 -0.4323  0.1806
  215MPD1    H7 3277   3.941   3.817  11.036 -0.4123  0.7682  0.4078
  216MPD1     C 3278   1.550   1.321  17.058 -0.5166  0.4297  0.0558
  216MPD1    C1 3279   1.540   1.234  17.160 -0.2140  0.3411 -0.1408
  216MPD1    C2 3280   1.555   1.094  17.138  0.4522  0.2855 -0.3255
  216MPD1    C3 3281   1.548   1.055  17.008 -0.3039 -0.2817 -0.0422
  216MPD1    C4 3282   1.550   1.146  16.906 -0.4110  0.5149 -0.1492
  216MPD1    C5 3283   1.558   1.279  16.933  0.0317  0.0009 -0.0843
  216MPD1     H 3284   1.560   1.029  17.224 -1.9326 -2.0622 -1.9822
  216MPD1    H1 3285   1.539   1.118  16.802  1.1158  0.0912 -0.1843
  216MPD1    H2 3286   1.532   1.427  17.071 -1.1365  0.1106  1.8172
  216MPD1    H3 3287   1.568   1.355  16.857 -2.8986  1.4033  0.9619
  216MPD1     N 3288   1.564   0.916  16.990 -0.3049 -0.0260  0.0799
  216MPD1    H5 3289   1.569   0.855  17.071 -1.9169 -0.8313 -0.4301
  216MPD1    N1 3290   1.522   1.282  17.293 -0.4243  0.8675  0.0114
  216MPD1    H6 3291   1.574   1.227  17.361 -3.2095 -1.1510  0.5293
  216MPD1    H7 3292   1.550   1.380  17.292 -0.0852  0.7713  0.0521
  217MPD1     C 3293   2.446   1.589   9.331  0.1172  0.3753 -0.1520
  217MPD1    C1 3294   2.506   1.471   9.375  0.0017 -0.0813 -0.4919
  217MPD1    C2 3295   2.637   1.457   9.340 -0.3660 -0.4540 -0.2361
  217MPD1    C3 3296   2.714   1.560   9.293 -0.6427  0.0051  1.1128
  217MPD1    C4 3297   2.654   1.680   9.267 -0.1074  0.1609  0.1718
  217MPD1    C5 3298   2.520   1.687   9.284  0.0491 -0.0364 -0.3157
  217MPD1     H 3299   2.687   1.364   9.365 -0.4359 -0.5633 -0.5052
  217MPD1    H1 3300   2.707   1.762   9.219  1.2036  1.0785  3.2020
  217MPD1    H2 3301   2.339   1.603   9.343 -0.2270 -2.1033 -0.4428
  217MPD1    H3 3302   2.477   1.782   9.254  1.0999 -0.2143 -2.4208
  217MPD1     N 3303   2.846   1.556   9.266  0.8105  0.1489 -0.4808
  217MPD1    H5 3304   2.884   1.630   9.209  1.6876 -0.1909 -0.3375
  217MPD1    N1 3305   2.427   1.361   9.426  0.5652 -0.1866 -0.7777
  217MPD1    H6 3306   2.347   1.394   9.479 -0.9613 -0.1972 -3.0504
  217MPD1    H7 3307   2.483   1.299   9.483 -0.7303  0.9154  1.7168
  218MPD1     C 3308   3.584   3.727  12.540 -0.0314 -0.0023 -0.5208
  218MPD1    C1 3309   3.703   3.787  12.527 -0.9095  0.6165 -0.0251
  218MPD1    C2 3310   3.815   3.708  12.525 -0.9145  0.8101 -0.4077
  218MPD1    C3 3311   3.808   3.573  12.560  0.6042  0.1027  0.2485
  218MPD1    C4 3312   3.686   3.513  12.583  0.9932 -0.6188 -0.9681
  218MPD1    C5 3313   3.579   3.593  12.554  0.4819 -0.0309 -0.1515
  218MPD1     H 3314   3.914   3.748  12.508 -0.1898  0.3413  2.6936
  218MPD1    H1 3315   3.675   3.408  12.607 -1.4257 -0.5043 -1.5499
  218MPD1    H2 3316   3.489   3.778  12.530 -0.4994 -1.0712 -1.4354
  218MPD1    H3 3317   3.483   3.547  12.572  0.8945 -0.9162 -0.2131
  218MPD1     N 3318   3.929   3.501  12.575 -0.4644 -0.2865  0.2497
  218MPD1    H5 3319   4.015   3.547  12.547 -0.5499 -1.1390 -1.4242
  218MPD1    N1 3320   3.705   3.917  12.478 -0.2084  0.3572  0.0787
  218MPD1    H6 3321   3.618   3.965  12.500 -1.0961 -1.7616  1.1462
  218MPD1    H7 3322   3.779   3.972  12.523  0.3207  0.5219 -0.9882
  219MPD1     C 3323   4.714   3.723  12.204  0.4268 -0.1745 -1.4519
  219MPD1    C1 3324   4.643   3.619  12.155 -0.0248 -0.1640 -0.3904
  219MPD1    C2 3325   4.562   3.543  12.239  0.4472  0.9034  0.9754
  219MPD1    C3 3326   4.545   3.576  12.374  0.0672  0.1707  0.0904
  219MPD1    C4 3327   4.630   3.669  12.422 -0.1321  0.1642 -0.0630
  219MPD1    C5 3328   4.708   3.742  12.338 -0.3616  0.3557  0.0603
  219MPD1     H 3329   4.524   3.449  12.200  0.7842  1.2827 -0.2676
  219MPD1    H1 3330   4.619   3.697  12.526  0.6351  1.3321 -0.3046
  219MPD1    H2 3331   0.053   3.785  12.143 -0.7489  2.3123 -0.1339
  219MPD1    H3 3332   0.045   3.824  12.375 -0.5354  0.9390 -0.9434
  219MPD1     N 3333   4.455   3.502  12.458  1.0697  0.3587 -0.5402
  219MPD1    H5 3334   4.456   3.535  12.554  0.1392 -0.7404 -0.1495
  219MPD1    N1 3335   4.634   3.595  12.018  0.8761  0.5291 -0.1510
  219MPD1    H6 3336   4.619   3.498  11.992 -3.0580  0.3861  2.6451
  219MPD1    H7 3337   4.721   3.622  11.973  0.2244  3.3358  0.2440
  220MPD1     C 3338   0.513   4.347   9.751  0.2215  0.2939  0.2032
  220MPD1    C1 3339   0.470   4.364   9.878 -0.2669 -0.9620 -0.3883
  220MPD1    C2 3340   0.412   4.263   9.940 -0.1565 -0.2389 -0.1035
  220MPD1    C3 3341   0.392   4.142   9.881 -0.7387 -0.2464 -0.2899
  220MPD1    C4 3342   0.436   4.121   9.749 -0.5728 -0.5068  0.1386
  220MPD1    C5 3343   0.500   4.224   9.684 -0.0072  0.1807 -0.4404
  220MPD1     H 3344   0.367   4.275  10.038 -0.4218  1.9061 -0.4725
  220MPD1    H1 3345   0.428   4.026   9.697 -2.2318 -1.2880  1.7794
  220MPD1    H2 3346   0.562   4.429   9.699  1.9458 -0.0110  1.3674
  220MPD1    H3 3347   0.537   4.208   9.583  3.9857  0.8781  0.9393
  220MPD1     N 3348   0.318   4.050   9.952  0.4653  0.5145  0.4107
  220MPD1    H5 3349   0.285   4.082  10.043  2.3244  2.2092  0.4983
  220MPD1    N1 3350   0.474   4.494   9.938 -0.7147  0.0214  0.1264
  220MPD1    H6 3351   0.542   4.553   9.890 -0.7087 -1.0893 -1.2219
  220MPD1    H7 3352   0.480   4.505  10.039  3.0490 -1.6678  0.0597
  221MPD1     C 3353   1.655   2.990  16.638  0.4297 -0.8475  1.3603
  221MPD1    C1 3354   1.749   3.076  16.586 -0.0998  0.9499 -0.8325
  221MPD1    C2 3355   1.850   3.021  16.510  0.0953  0.1371  0.0407
  221MPD1    C3 3356   1.850   2.885  16.479  0.1322 -0.0908 -0.6188
  221MPD1    C4 3357   1.753   2.807  16.526  0.6067 -0.3025  0.7672
  221MPD1    C5 3358   1.661   2.859  16.607 -0.7419  0.1736 -0.6425
  221MPD1     H 3359   1.923   3.094  16.476 -0.4729  1.2014  1.0663
  221MPD1    H1 3360   1.750   2.701  16.503  0.7090  0.2818 -1.9460
  221MPD1    H2 3361   1.569   3.031  16.689 -1.9653 -3.5081 -0.5037
  221MPD1    H3 3362   1.579   2.802  16.648 -0.7490 -0.9361 -2.2052
  221MPD1     N 3363   1.955   2.829  16.407 -0.5514 -0.3891 -0.4677
  221MPD1    H5 3364   1.963   2.728  16.400 -0.6837 -0.5094  1.0997
  221MPD1    N1 3365   1.732   3.215  16.592 -0.6206  0.6483 -0.3085
  221MPD1    H6 3366   1.821   3.264  16.591  0.8954 -2.1731 -1.1295
  221MPD1    H7 3367   1.690   3.248  16.679 -1.0645 -1.7371  0.3710
  222MPD1     C 3368   1.826   0.423   0.285  0.1150 -0.0468  0.5844
  222MPD1    C1 3369   1.846   0.554   0.314  0.5172 -0.5267 -1.0277
  222MPD1    C2 3370   1.787   0.639   0.223  0.6685 -0.0421 -0.1326
  222MPD1    C3 3371   1.692   0.585   0.130  0.4677  0.2293 -0.4777
  222MPD1    C4 3372   1.682   0.452   0.110  0.0507  0.8089 -0.7885
  222MPD1    C5 3373   1.746   0.365   0.192 -0.9245  0.3026  0.0509
  222MPD1     H 3374   1.809   0.745   0.234  1.4745 -0.1771 -0.4502
  222MPD1    H1 3375   1.628   0.417   0.023  0.1577 -3.4374  0.9032
  222MPD1    H2 3376   1.885   0.353   0.343  0.1290 -0.6065 -0.1153
  222MPD1    H3 3377   1.746   0.258   0.176  1.5006  0.5198 -1.4050
  222MPD1     N 3378   1.611   0.671   0.047  0.1210 -0.9014  0.3688
  222MPD1    H5 3379   1.576   0.630  17.660  0.8833 -1.4712  0.3299
  222MPD1    N1 3380   1.960   0.596   0.389 -0.3946  0.3495  0.2012
  222MPD1    H6 3381   1.986   0.530   0.463 -0.7623  0.0606  0.0745
  222MPD1    H7 3382   1.962   0.692   0.422 -3.5138  0.1452  1.0049
  223MPD1     C 3383   1.219   0.467  17.022  0.2315  0.2804  0.6006
  223MPD1    C1 3384   1.229   0.411  17.143 -0.2486  0.3457 -0.1770
  223MPD1    C2 3385   1.279   0.494  17.242 -0.5158  0.3527 -0.0137
  223MPD1    C3 3386   1.288   0.634  17.229 -0.6422 -0.0499 -0.2588
  223MPD1    C4 3387   1.264   0.683  17.107  0.2099  0.1877 -0.3144
  223MPD1    C5 3388   1.241   0.601  17.002  0.3072 -0.3207  0.3354
  223MPD1     H 3389   1.289   0.448  17.340  2.8922  1.2057  0.0241
  223MPD1    H1 3390   1.276   0.788  17.082 -0.6678  0.8313  1.9684
  223MPD1    H2 3391   1.197   0.405  16.936  0.1688  0.7820  0.2571
  223MPD1    H3 3392   1.228   0.651  16.906  0.9829  0.8977  0.8824
  223MPD1     N 3393   1.331   0.706  17.341  0.7528  0.4771 -0.2588
  223MPD1    H5 3394   1.338   0.655  17.429  1.1123 -0.6711 -0.9618
  223MPD1    N1 3395   1.235   0.271  17.156  0.2049  0.4689 -0.1339
  223MPD1    H6 3396   1.174   0.217  17.094 -1.2653 -0.0720  1.7748
  223MPD1    H7 3397   1.221   0.243  17.253 -1.4115 -0.2691 -0.5650
  224MPD1     C 3398   3.281   1.835   8.665 -1.1418 -1.0369 -0.2032
  224MPD1    C1 3399   3.264   1.777   8.789 -0.1197 -0.0919  0.4044
  224MPD1    C2 3400   3.340   1.839   8.893 -0.0339 -0.4869  0.1252
  224MPD1    C3 3401   3.423   1.945   8.875  0.2344 -0.2238  0.5139
  224MPD1    C4 3402   3.432   1.998   8.746  0.4573 -0.3683 -0.3254
  224MPD1    C5 3403   3.360   1.942   8.649 -0.3570  0.2248  0.1210
  224MPD1     H 3404   3.321   1.796   8.991  1.2428  1.6012  1.2915
  224MPD1    H1 3405   3.488   2.089   8.729 -0.1593  0.2901  1.1671
  224MPD1    H2 3406   3.213   1.808   8.586 -3.0800 -0.0045  1.1025
  224MPD1    H3 3407   3.353   1.980   8.548  0.4664 -0.1035 -0.0611
  224MPD1     N 3408   3.483   2.010   8.979 -0.1717 -0.2139  0.0463
  224MPD1    H5 3409   3.526   2.101   8.962 -0.5077 -0.0004  0.3344
  224MPD1    N1 3410   3.191   1.661   8.810 -0.3155 -0.3739 -0.4267
  224MPD1    H6 3411   3.152   1.618   8.727  0.0588 -0.0646 -0.7607
  224MPD1    H7 3412   3.126   1.666   8.888  1.2017  2.2394  0.6652
  225MPD1     C 3413   4.601   4.405  11.959  0.7870  0.2209 -0.1970
  225MPD1    C1 3414   4.488   4.358  11.891  0.2445  0.5315  0.1675
  225MPD1    C2 3415   4.359   4.374  11.940  0.1677  0.2898  0.4524
  225MPD1    C3 3416   4.335   4.421  12.067  0.1520 -0.0859  0.4650
  225MPD1    C4 3417   4.447   4.441  12.149  0.2206 -0.4975 -0.1901
  225MPD1    C5 3418   4.572   4.454  12.087  0.2418  0.1200  0.3640
  225MPD1     H 3419   4.279   4.341  11.876 -0.3684  1.5194  0.4899
  225MPD1    H1 3420   4.443   4.462  12.255 -0.0179 -1.9108  0.0787
  225MPD1    H2 3421   4.703   4.402  11.923 -0.0108 -2.3242 -2.2061
  225MPD1    H3 3422   4.650   4.474  12.160 -1.3725  1.0764  1.8253
  225MPD1     N 3423   4.206   4.451  12.120  0.0075  0.1701 -0.3570
  225MPD1    H5 3424   4.216   4.494  12.211 -0.4914  1.3522 -0.8729
  225MPD1    N1 3425   4.499   4.296  11.762  0.6177  0.0895  0.1274
  225MPD1    H6 3426   4.423   4.229  11.768 -0.8036  1.7222  0.4375
  225MPD1    H7 3427   4.585   4.242  11.758  0.4819 -0.1507  0.4387
  226MPD1     C 3428   3.354   4.062   8.593  0.0039 -0.0880  0.5749
  226MPD1    C1 3429   3.380   4.028   8.720  0.2456 -0.2074 -0.0545
  226MPD1    C2 3430   3.442   4.124   8.802 -0.6124 -0.7915  0.4031
  226MPD1    C3 3431   3.472   4.248   8.765 -0.6573 -0.6172 -0.7801
  226MPD1    C4 3432   3.412   4.286   8.643 -0.0888  0.4281 -0.9247
  226MPD1    C5 3433   3.371   4.194   8.557  0.1568 -0.1806  0.2194
  226MPD1     H 3434   3.476   4.084   8.897 -0.1158 -2.5002 -0.5049
  226MPD1    H1 3435   3.416   4.389   8.608  3.9151  0.6744  0.2397
  226MPD1    H2 3436   3.316   3.996   8.515  2.2379  0.4524 -0.9776
  226MPD1    H3 3437   3.359   4.219   8.453  1.3528  0.2468  0.1910
  226MPD1     N 3438   3.531   4.332   8.857  1.0155 -0.0225  0.0383
  226MPD1    H5 3439   3.561   4.298   8.948  0.6289 -1.1801 -0.2613
  226MPD1    N1 3440   3.371   3.892   8.759  0.0200 -0.1184 -0.3859
  226MPD1    H6 3441   3.358   3.895   8.860 -0.5689  1.1588 -0.5074
  226MPD1    H7 3442   3.290   3.849   8.715 -0.5108 -1.0250  1.4262
  227MPD1     C 3443   3.527   0.595   9.143  0.6132 -0.2117  0.1971
  227MPD1    C1 3444   3.548   0.558   9.011 -0.1794 -0.3857  0.0068
  227MPD1    C2 3445   3.576   0.422   8.986 -0.3624  0.5058  0.2184
  227MPD1    C3 3446   3.589   0.321   9.086 -0.6261  0.1564 -0.1747
  227MPD1    C4 3447   3.562   0.366   9.211 -0.1911  0.1968  0.3707
  227MPD1    C5 3448   3.534   0.498   9.241  1.0465  0.3085  0.7042
  227MPD1     H 3449   3.601   0.394   8.884 -1.9824 -0.2965  0.0362
  227MPD1    H1 3450   3.586   0.293   9.287  1.5109  1.8457  1.4071
  227MPD1    H2 3451   3.490   0.687   9.186  0.0346  0.8676 -2.6340
  227MPD1    H3 3452   3.509   0.523   9.343 -0.4276  0.8531  0.2161
  227MPD1     N 3453   3.625   0.186   9.054 -0.0259  0.2735 -0.2582
  227MPD1    H5 3454   3.627   0.163   8.955  1.3550 -2.7258  0.4552
  227MPD1    N1 3455   3.579   0.658   8.921 -0.0736  0.3527  0.2817
  227MPD1    H6 3456   3.528   0.746   8.929 -1.1682 -0.4616  2.1481
  227MPD1    H7 3457   3.570   0.621   8.827  3.4169  1.4943 -0.4833
  228MPD1     C 3458   1.246   2.265  12.363  0.7603 -0.2334  0.9890
  228MPD1    C1 3459   1.122   2.276  12.296 -0.1962 -0.1263  0.1296
  228MPD1    C2 3460   1.013   2.206  12.342 -0.1030 -0.4864  0.1713
  228MPD1    C3 3461   1.023   2.120  12.446 -0.2439  0.3396  0.1043
  228MPD1    C4 3462   1.147   2.112  12.513  0.2505 -0.4858 -0.0384
  228MPD1    C5 3463   1.250   2.191  12.477 -0.4340 -0.1589  0.3014
  228MPD1     H 3464   0.920   2.215  12.286 -1.8719  0.2500  3.2670
  228MPD1    H1 3465   1.164   2.050  12.600 -0.0696 -0.3073  0.1556
  228MPD1    H2 3466   1.339   2.307  12.326  0.0439  0.5933  0.1120
  228MPD1    H3 3467   1.342   2.186  12.532  0.6407 -1.6557 -1.6377
  228MPD1     N 3468   0.905   2.053  12.480  0.1462 -0.1333 -0.0661
  228MPD1    H5 3469   0.825   2.075  12.422  0.7531 -0.0482 -0.8725
  228MPD1    N1 3470   1.115   2.355  12.179 -0.5942  0.2840 -0.7004
  228MPD1    H6 3471   1.048   2.325  12.108  0.9309 -3.8934 -0.3870
  228MPD1    H7 3472   1.203   2.367  12.129  0.0690 -1.1357  0.1351
  229MPD1     C 3473   0.661   4.536  13.413  0.4295  0.6000 -0.2529
  229MPD1    C1 3474   0.560   4.624  13.456  0.0710  0.3096 -0.3709
  229MPD1    C2 3475   0.556   4.652  13.593 -0.3018  0.1023  0.0194
  229MPD1    C3 3476   0.659   4.612  13.670 -0.4643 -0.2946 -0.0787
  229MPD1    C4 3477   0.775   4.552  13.619 -0.3240 -0.5683  0.4462
  229MPD1    C5 3478   0.768   4.517  13.491 -0.1174 -0.2526  0.2234
  229MPD1     H 3479   0.480   4.714  13.640 -1.1936 -0.7555 -0.2902
  229MPD1    H1 3480   0.863   4.536  13.680 -0.0401  1.1760  0.4987
  229MPD1    H2 3481   0.673   4.512  13.307 -1.7081 -0.1477 -0.3153
  229MPD1    H3 3482   0.861   4.477  13.452 -1.0324 -1.8763 -0.2591
  229MPD1     N 3483   0.665   4.637  13.809 -0.3623  0.3318 -0.1785
  229MPD1    H5 3484   0.756   4.640  13.854 -0.5478  3.3418 -0.0084
  229MPD1    N1 3485   0.450   4.647  13.373  0.0919  0.2402  0.0446
  229MPD1    H6 3486   0.460   4.660  13.273  1.3999  0.3928  0.1964
  229MPD1    H7 3487   0.389   4.724  13.399 -1.6744 -1.3508  0.6254
  230MPD1     C 3488   4.677   0.336  14.330 -0.9147 -0.0925 -0.2750
  230MPD1    C1 3489   4.714   0.312  14.200 -0.8418  0.0827 -0.0916
  230MPD1    C2 3490   0.124   0.272  14.170 -0.1101  0.2134  0.1108
  230MPD1    C3 3491   0.216   0.268  14.273  0.3277 -0.3700  0.2619
  230MPD1    C4 3492   0.177   0.280  14.401 -0.7129 -0.9741  0.7622
  230MPD1    C5 3493   0.047   0.314  14.430  0.8140  0.8241 -0.3240
  230MPD1     H 3494   0.148   0.237  14.071 -0.7741  1.1583 -0.3887
  230MPD1    H1 3495   0.238   0.253  14.487 -0.7641  0.8812  1.3775
  230MPD1    H2 3496   4.574   0.362  14.349 -0.9662 -1.8106  1.7967
  230MPD1    H3 3497   0.020   0.330  14.533  0.2192  1.4430 -0.5775
  230MPD1     N 3498   0.337   0.214  14.242 -0.0192 -0.1530 -0.3866
  230MPD1    H5 3499   0.356   0.188  14.146  0.9300  0.8296 -0.4681
  230MPD1    N1 3500   4.608   0.295  14.104  0.0188  0.0391  0.1728
  230MPD1    H6 3501   4.539   0.368  14.122  0.0885 -0.6775  3.4015
  230MPD1    H7 3502   4.650   0.319  14.014  0.0633 -2.0136 -0.3537
  231MPD1     C 3503   3.603   2.337  15.613  0.5036 -0.3982 -0.3905
  231MPD1    C1 3504   3.514   2.345  15.512  0.2837  0.0191  0.0274
  231MPD1    C2 3505   3.555   2.423  15.404  0.4427 -0.3346  0.1118
  231MPD1    C3 3506   3.691   2.462  15.390 -0.2733 -0.1792 -0.1553
  231MPD1    C4 3507   3.786   2.430  15.486  0.7564  0.1600 -0.0230
  231MPD1    C5 3508   3.734   2.361  15.591  0.8141 -0.2983 -0.7282
  231MPD1     H 3509   3.477   2.441  15.330  0.8284 -1.1603 -0.4884
  231MPD1    H1 3510   3.888   2.463  15.503  0.3068  2.3410 -1.6630
  231MPD1    H2 3511   3.572   2.291  15.706 -0.3296  2.0148  0.5372
  231MPD1    H3 3512   3.805   2.340  15.671  0.9205  1.9949 -0.2186
  231MPD1     N 3513   3.726   2.530  15.271 -0.2850 -0.2126  0.2918
  231MPD1    H5 3514   3.655   2.538  15.199 -2.2801 -3.1200  1.8914
  231MPD1    N1 3515   3.384   2.302  15.527  0.3450 -0.1666 -0.0618
  231MPD1    H6 3516   3.330   2.279  15.444 -0.6089 -0.9017  0.7580
  231MPD1    H7 3517   3.379   2.243  15.610 -1.1039  0.3577  0.2199
  232MPD1     C 3518   0.801   1.388   0.522 -0.1138  0.5976  0.1433
  232MPD1    C1 3519   0.734   1.348   0.410  0.3965  0.1870 -0.0421
  232MPD1    C2 3520   0.750   1.219   0.362 -1.2140 -0.1722 -0.1238
  232MPD1    C3 3521   0.838   1.133   0.427  0.5691  0.1333  0.0028
  232MPD1    C4 3522   0.913   1.177   0.534  0.5928  0.0468  0.2494
  232MPD1    C5 3523   0.894   1.303   0.580 -0.0664 -0.1469  0.3480
  232MPD1     H 3524   0.691   1.183   0.279 -3.2132  0.5283  0.9931
  232MPD1    H1 3525   0.965   1.107   0.599  1.3075 -0.1762 -0.5571
  232MPD1    H2 3526   0.783   1.483   0.570  1.6773  0.3927  1.2068
  232MPD1    H3 3527   0.937   1.327   0.676 -0.4001  1.3295  0.1238
  232MPD1     N 3528   0.835   0.995   0.385  0.4483 -0.6699  0.0243
  232MPD1    H5 3529   0.761   0.967   0.320 -1.5325  0.0602  1.9697
  232MPD1    N1 3530   0.641   1.441   0.354  0.4540  0.3592 -0.7075
  232MPD1    H6 3531   0.662   1.540   0.356 -0.5353  0.6010 -1.9788
  232MPD1    H7 3532   0.626   1.413   0.257 -0.4599 -1.8170  0.0446
  233MPD1     C 3533   1.512   2.796   2.398  0.2028 -0.3600  0.3901
  233MPD1    C1 3534   1.490   2.786   2.260  0.1474 -0.3654  1.1317
  233MPD1    C2 3535   1.585   2.834   2.178  0.0118 -0.2074  1.2596
  233MPD1    C3 3536   1.705   2.891   2.222 -0.1449  0.1979  0.6021
  233MPD1    C4 3537   1.716   2.919   2.355 -0.2602 -0.4128 -0.5462
  233MPD1    C5 3538   1.623   2.864   2.443 -0.3739 -0.1492  0.2668
  233MPD1     H 3539   1.572   2.814   2.072 -0.5658  2.0217  0.9135
  233MPD1    H1 3540   1.811   2.950   2.398  0.0099  1.2240 -2.3634
  233MPD1    H2 3541   1.442   2.765   2.475  1.6189  0.6550  2.0851
  233MPD1    H3 3542   1.646   2.879   2.548  1.2627  0.7984 -0.2276
  233MPD1     N 3543   1.820   2.912   2.143  0.1553 -0.3124 -0.2004
  233MPD1    H5 3544   1.902   2.941   2.195  0.4087 -1.8060  0.2554
  233MPD1    N1 3545   1.386   2.708   2.209 -0.0507 -0.5029  0.4877
  233MPD1    H6 3546   1.300   2.700   2.264 -0.4835  1.5652  0.1085
  233MPD1    H7 3547   1.368   2.729   2.112  0.2904 -0.1192  0.5072
  234MPD1     C 3548   3.611   1.279  10.728  0.3788  0.4421  0.4093
  234MPD1    C1 3549   3.703   1.379  10.720  0.2156 -0.6622 -0.1730
  234MPD1    C2 3550   3.746   1.408  10.588  0.9791 -0.3046  0.1449
  234MPD1    C3 3551   3.716   1.332  10.476 -0.4878 -0.1302  0.8547
  234MPD1    C4 3552   3.621   1.237  10.484 -0.1089 -0.0767  0.0275
  234MPD1    C5 3553   3.574   1.198  10.616 -0.2066 -0.3514  0.4385
  234MPD1     H 3554   3.803   1.499  10.573 -0.5457  0.7397  0.6533
  234MPD1    H1 3555   3.591   1.172  10.403  2.0293  0.3088 -1.0658
  234MPD1    H2 3556   3.556   1.266  10.820 -0.5224  0.6402 -0.0944
  234MPD1    H3 3557   3.498   1.121  10.626 -0.7181 -0.1190 -1.6541
  234MPD1     N 3558   3.776   1.377  10.354 -0.0051 -0.3112 -0.0373
  234MPD1    H5 3559   3.846   1.450  10.362  0.0327 -0.2364 -1.1651
  234MPD1    N1 3560   3.721   1.454  10.835  0.5135  0.5239 -0.0540
  234MPD1    H6 3561   3.739   1.401  10.920  0.7146  0.6910  0.0092
  234MPD1    H7 3562   3.806   1.509  10.825  0.9545  0.3004  2.3508
  235MPD1     C 3563   1.274   4.616  10.762 -0.6074 -0.2917 -0.2932
  235MPD1    C1 3564   1.321   0.000  10.692 -0.0920  0.3806  0.0489
  235MPD1    C2 3565   1.345   4.702  10.559 -0.2979  0.3246  0.0699
  235MPD1    C3 3566   1.323   4.583  10.501 -0.9607 -0.4659 -0.7877
  235MPD1    C4 3567   1.269   4.476  10.568  0.2519  0.3190  0.6279
  235MPD1    C5 3568   1.246   4.496  10.702  0.3606 -0.0647 -0.6500
  235MPD1     H 3569   1.383   0.051  10.489  0.4941  2.0305  2.3355
  235MPD1    H1 3570   1.236   4.386  10.519  0.4443 -1.2134  3.2969
  235MPD1    H2 3571   1.247   4.626  10.867 -1.3505 -2.1234 -0.3188
  235MPD1    H3 3572   1.210   4.411  10.758 -0.6587  0.7511 -0.0663
  235MPD1     N 3573   1.328   4.574  10.356  0.6387  0.3362  0.1558
  235MPD1    H5 3574   1.347   4.650  10.291  1.4297 -0.3316 -0.3930
  235MPD1    N1 3575   1.352   0.123  10.757  0.1241  0.2590  0.3049
  235MPD1    H6 3576   1.307   0.143  10.846  1.4022  0.3689  0.9266
  235MPD1    H7 3577   1.327   0.192  10.687 -2.8137  1.3256  2.3868
  236MPD1     C 3578   4.677   1.004   9.977 -0.5954  0.5925 -0.4485
  236MPD1    C1 3579   0.043   0.914   9.920  0.5663 -1.0001 -0.0651
  236MPD1    C2 3580   0.137   0.857  10.006  0.0317  0.5368 -0.2358
  236MPD1    C3 3581   0.146   0.890  10.143 -0.7190 -0.4544 -0.0447
  236MPD1    C4 3582   0.070   1.002  10.180  1.0907 -0.6201  0.0943
  236MPD1    C5 3583   4.697   1.057  10.094  0.1141  0.4406 -0.7767
  236MPD1     H 3584   0.194   0.774   9.966  2.1635  2.1299 -0.4506
  236MPD1    H1 3585   0.071   1.040  10.281 -1.2545 -0.7191  0.1670
  236MPD1    H2 3586   4.587   1.042   9.931  0.5799 -0.1031 -3.3055
  236MPD1    H3 3587   4.627   1.122  10.146 -0.5914  1.3020 -2.8353
  236MPD1     N 3588   0.230   0.830  10.237  0.1591 -0.4452 -0.0003
  236MPD1    H5 3589   0.234   0.871  10.330 -3.9638  0.6225 -0.2945
  236MPD1    N1 3590   0.010   0.857   9.794  0.5457 -0.2631 -0.4623
  236MPD1    H6 3591   0.083   0.810   9.742 -0.1250 -1.3683 -0.3865
  236MPD1    H7 3592   4.695   0.930   9.735 -1.1821 -1.0420 -0.2639
  237MPD1     C 3593   3.857   3.952  15.952  0.1002  0.5526 -0.3335
  237MPD1    C1 3594   3.786   4.064  15.911 -0.4461 -0.4107 -0.8084
  237MPD1    C2 3595   3.674   4.042  15.840  0.0845  0.1428  0.4842
  237MPD1    C3 3596   3.604   3.919  15.844 -0.0252  0.3163 -0.0997
  237MPD1    C4 3597   3.660   3.814  15.914 -0.1432 -1.0796  0.1330
  237MPD1    C5 3598   3.787   3.832  15.966  0.0051 -0.2770 -0.0943
  237MPD1     H 3599   3.634   4.121  15.777 -1.9976 -0.8042  0.6093
  237MPD1    H1 3600   3.613   3.716  15.922  0.4736 -1.5023 -1.3888
  237MPD1    H2 3601   3.957   3.962  15.993 -0.9745  0.2833  2.3639
  237MPD1    H3 3602   3.834   3.757  16.028 -1.4371 -1.7010 -0.7451
  237MPD1     N 3603   3.480   3.895  15.787  0.6606 -0.6248 -0.3200
  237MPD1    H5 3604   3.436   3.810  15.820 -0.8499 -0.2587 -1.3898
  237MPD1    N1 3605   3.852   4.191  15.909 -0.7600  0.1156  0.4488
  237MPD1    H6 3606   3.919   4.212  15.984 -0.3406 -1.5925  0.5442
  237MPD1    H7 3607   3.788   4.270  15.903 -1.4609 -0.6313 -1.7841
  238MPD1     C 3608   0.651   2.879  15.998 -0.0034  0.1042 -0.3115
  238MPD1    C1 3609   0.697   2.967  15.906  0.3460  0.2184  0.5510
  238MPD1    C2 3610   0.664   2.938  15.773 -0.5686 -0.4840 -0.5561
  238MPD1    C3 3611   0.592   2.830  15.737 -0.1014  0.2008  0.3631
  238MPD1    C4 3612   0.533   2.743  15.832 -0.8773  0.1225 -0.5572
  238MPD1    C5 3613   0.564   2.778  15.960  0.2452 -0.6442  0.5900
  238MPD1     H 3614   0.699   3.006  15.696  1.9965  0.0610  1.0829
  238MPD1    H1 3615   0.462   2.665  15.809 -1.4773  0.8656 -1.2329
  238MPD1    H2 3616   0.654   2.894  16.105 -0.5447  1.8487 -0.5286
  238MPD1    H3 3617   0.523   2.709  16.033  0.2926  0.3870  1.5929
  238MPD1     N 3618   0.568   2.797  15.604 -0.5744  0.3287  0.9083
  238MPD1    H5 3619   0.502   2.722  15.587 -0.9947  1.1644 -1.1748
  238MPD1    N1 3620   0.767   3.090  15.942  0.2203  0.2808  0.1171
  238MPD1    H6 3621   0.819   3.143  15.873 -2.6943 -0.5518 -2.7665
  238MPD1    H7 3622   0.797   3.094  16.039 -2.5318 -0.8823  1.0347
  239MPD1     C 3623   0.662   2.941  14.807  0.8192  0.0453 -0.0446
  239MPD1    C1 3624   0.778   3.010  14.825 -0.2431 -0.6626 -0.1346
  239MPD1    C2 3625   0.799   3.125  14.755  0.2668 -0.2113  0.4622
  239MPD1    C3 3626   0.717   3.153  14.647  0.0428 -0.1811 -0.0606
  239MPD1    C4 3627   0.601   3.081  14.625 -0.2264  0.1332  0.1670
  239MPD1    C5 3628   0.574   2.987  14.718  0.3491 -0.1332  1.1702
  239MPD1     H 3629   0.877   3.194  14.786  0.9249 -2.2573  3.3860
  239MPD1    H1 3630   0.526   3.112  14.553 -1.7625 -0.5227  1.4724
  239MPD1    H2 3631   0.632   2.860  14.872  2.8628 -0.5391  0.1503
  239MPD1    H3 3632   0.485   2.925  14.717 -0.0086  0.3949  0.2732
  239MPD1     N 3633   0.743   3.257  14.557 -0.2244  0.8312  0.5616
  239MPD1    H5 3634   0.668   3.289  14.496 -0.2179  0.3508  0.2993
  239MPD1    N1 3635   0.857   2.980  14.942 -0.1987  0.3856 -0.6952
  239MPD1    H6 3636   0.855   2.881  14.965 -0.5158  0.2768 -1.1738
  239MPD1    H7 3637   0.956   3.001  14.946 -0.4096  0.6823  2.9117
  240MPD1     C 3638   0.000   3.503  13.857  0.2004 -0.9255 -0.2119
  240MPD1    C1 3639   0.086   3.460  13.954  0.6234 -0.3767 -0.7593
  240MPD1    C2 3640   0.051   3.344  14.026 -0.3072  0.2043 -0.2527
  240MPD1    C3 3641   4.658   3.276  13.996  0.1863 -0.0448 -0.0533
  240MPD1    C4 3642   4.576   3.308  13.886 -0.2457  0.4940 -0.8580
  240MPD1    C5 3643   4.610   3.429  13.826  0.3976  0.1914  0.1024
  240MPD1     H 3644   0.103   3.302  14.112 -1.8678 -2.8573 -0.8142
  240MPD1    H1 3645   4.483   3.256  13.865 -0.4678  0.6081 -0.1644
  240MPD1    H2 3646   0.022   3.593  13.802  1.0998 -1.8294 -1.3306
  240MPD1    H3 3647   4.560   3.458  13.734  0.5869  0.2220  0.0086
  240MPD1     N 3648   4.632   3.164  14.074  0.6366 -0.3174  0.4101
  240MPD1    H5 3649   4.671   3.167  14.167 -0.1474  1.2571  0.6977
  240MPD1    N1 3650   0.189   3.542  14.009  0.4956  0.0192  0.4486
  240MPD1    H6 3651   0.274   3.491  14.028  0.2935 -0.7196 -0.6470
  240MPD1    H7 3652   0.216   3.616  13.945  1.7143 -1.8061 -1.1254
  241MPD1     C 3653   0.078   2.929  14.984  0.1283 -1.1551  0.3199
  241MPD1    C1 3654   0.142   2.994  14.880 -0.4648  0.1903  0.1887
  241MPD1    C2 3655   0.074   2.984  14.759 -0.1227 -0.5835 -0.0580
  241MPD1    C3 3656   4.691   2.901  14.737  0.6132  0.3477 -0.0314
  241MPD1    C4 3657   4.641   2.829  14.841 -0.2624 -1.1239 -0.4326
  241MPD1    C5 3658   4.685   2.858  14.966  0.2556  0.2308  0.8045
  241MPD1     H 3659   0.103   3.051  14.679  0.0417 -1.0760 -0.4085
  241MPD1    H1 3660   4.552   2.767  14.831 -1.2027  0.6218 -2.7174
  241MPD1    H2 3661   0.115   2.935  15.086 -0.6633  0.5624  0.4984
  241MPD1    H3 3662   4.637   2.808  15.049 -0.3400 -0.7531 -0.1223
  241MPD1     N 3663   4.635   2.875  14.608  0.1322 -0.2757 -0.3677
  241MPD1    H5 3664   4.552   2.818  14.601 -2.3166  3.2014  0.5148
  241MPD1    N1 3665   0.225   3.104  14.903 -0.0110  0.5652 -0.1248
  241MPD1    H6 3666   0.286   3.095  14.984  0.1074  0.3086 -0.2430
  241MPD1    H7 3667   0.277   3.142  14.825  0.1063  2.2824  0.7840
  242MPD1     C 3668   4.637   2.249  15.797 -1.0554 -0.2707  0.5196
  242MPD1    C1 3669   4.714   2.157  15.859  1.0709  0.2349 -0.5067
  242MPD1    C2 3670   0.034   2.047  15.786  0.8257 -0.0863  0.9082
  242MPD1    C3 3671   4.721   2.025  15.652  0.0299 -0.0402 -0.3852
  242MPD1    C4 3672   4.645   2.120  15.587  0.2295  0.4665  0.5384
  242MPD1    C5 3673   4.603   2.232  15.662  0.4822 -0.1314 -0.1097
  242MPD1     H 3674   0.104   1.982  15.837  0.1934 -0.9090  0.7343
  242MPD1    H1 3675   4.608   2.105  15.486  2.2892 -2.7023  0.2500
  242MPD1    H2 3676   4.618   2.345  15.843 -0.0792 -0.7125  1.8591
  242MPD1    H3 3677   4.537   2.307  15.619  0.4408  0.7459  1.4470
  242MPD1     N 3678   0.038   1.922  15.570 -0.0842 -0.4337 -0.1397
  242MPD1    H5 3679   4.716   1.912  15.481  0.7847  1.3368 -0.8149
  242MPD1    N1 3680   0.053   2.181  15.985  0.4831 -0.3061 -0.1377
  242MPD1    H6 3681   4.715   2.231  16.048  1.0829 -0.1889  0.3579
  242MPD1    H7 3682   0.081   2.093  16.028  2.0631 -1.1925 -2.9865
  243MPD1     C 3683   1.401   4.657  17.557 -0.0980  0.6231 -0.2612
  243MPD1    C1 3684   1.486   4.689  17.454 -0.2759 -0.2693 -0.4491
  243MPD1    C2 3685   1.439   4.657  17.331  0.2111 -0.8543 -0.5407
  243MPD1    C3 3686   1.317   4.582  17.313 -0.3192  0.1288 -0.0849
  243MPD1    C4 3687   1.257   4.524  17.425  0.1425  0.1458 -0.5131
  243MPD1    C5 3688   1.304   4.564  17.549  0.5764  0.4951  0.1639
  243MPD1     H 3689   1.501   4.695  17.251  0.7268 -1.2427 -0.3213
  243MPD1    H1 3690   1.172   4.457  17.418  2.9129 -3.7018  2.7838
  243MPD1    H2 3691   1.436   4.693  17.653  0.3215  1.8240 -0.8576
  243MPD1    H3 3692   1.260   4.529  17.642 -0.0906  1.3096  0.1572
  243MPD1     N 3693   1.261   4.560  17.183 -0.5852  0.2876 -0.3718
  243MPD1    H5 3694   1.324   4.578  17.106 -0.7320  0.3336 -0.4792
  243MPD1    N1 3695   1.587   0.056  17.478  0.3213 -0.5733  0.2712
  243MPD1    H6 3696   1.651   0.075  17.402 -0.8270  2.1577 -0.0230
  243MPD1    H7 3697   1.641   0.021  17.557  0.3422  2.4315  1.5793
  244MPD1     C 3698   0.479   3.991  16.810 -0.9128 -0.0276 -0.1726
  244MPD1    C1 3699   0.494   4.044  16.942  0.7064  0.3355 -0.4625
  244MPD1    C2 3700   0.610   4.123  16.970 -0.0009  0.4331  0.1909
  244MPD1    C3 3701   0.698   4.145  16.868  0.0740 -0.1467 -0.6221
  244MPD1    C4 3702   0.680   4.101  16.743 -0.4095  0.1813 -0.2490
  244MPD1    C5 3703   0.570   4.022  16.718 -0.8370  0.2982 -0.5497
  244MPD1     H 3704   0.633   4.167  17.066  2.8844  1.6855 -1.0468
  244MPD1    H1 3705   0.740   4.136  16.660  1.3561 -0.3143  0.8195
  244MPD1    H2 3706   0.391   3.938  16.775 -1.2479 -0.4055  1.2283
  244MPD1    H3 3707   0.559   3.978  16.620  1.5451 -2.1901  0.3004
  244MPD1     N 3708   0.814   4.223  16.901 -0.0123 -0.8569 -0.5595
  244MPD1    H5 3709   0.810   4.270  16.991  1.3959  1.0272 -1.4963
  244MPD1    N1 3710   0.388   4.017  17.032  0.0154 -0.1723  0.0559
  244MPD1    H6 3711   0.329   3.939  17.002  1.5334 -0.9173 -0.9923
  244MPD1    H7 3712   0.420   3.991  17.125  2.2608  1.9839 -0.1248
  245MPD1     C 3713   2.967   0.321  13.281 -0.1533  0.2564  0.1484
  245MPD1    C1 3714   2.915   0.378  13.398  0.1411 -0.3567  0.4018
  245MPD1    C2 3715   2.959   0.502  13.441 -0.5166  0.6737 -0.2357
  245MPD1    C3 3716   3.058   0.561  13.372  0.0810 -0.0906  0.6687
  245MPD1    C4 3717   3.096   0.521  13.245 -0.3476  0.6504 -0.8155
  245MPD1    C5 3718   3.049   0.397  13.203 -0.0132  0.2778 -0.4469
  245MPD1     H 3719   2.914   0.549  13.529 -1.3555 -0.1520 -0.2298
  245MPD1    H1 3720   3.170   0.569  13.182  1.1736 -0.1027  0.4070
  245MPD1    H2 3721   2.942   0.222  13.246 -0.4300  0.5956 -0.6331
  245MPD1    H3 3722   3.089   0.361  13.109 -0.2318 -0.2499 -0.3369
  245MPD1     N 3723   3.112   0.686  13.423  0.1486  0.2502  0.1451
  245MPD1    H5 3724   3.065   0.723  13.505 -1.9684  1.2712 -1.5222
  245MPD1    N1 3725   2.818   0.302  13.462  0.0644  0.3738  0.0041
  245MPD1    H6 3726   2.737   0.356  13.490  0.1223  0.5434 -0.1557
  245MPD1    H7 3727   2.795   0.211  13.421  2.2612 -0.3707  0.3876
  246MPD1     C 3728   0.877   2.594  10.258  0.6229 -0.1791 -0.3743
  246MPD1    C1 3729   0.864   2.459  10.271  0.0820  0.2173 -0.0744
  246MPD1    C2 3730   0.881   2.371  10.163  0.0759  0.6953 -0.1411
  246MPD1    C3 3731   0.905   2.426  10.039 -0.5255  0.2135 -0.3526
  246MPD1    C4 3732   0.901   2.564  10.029 -0.0234 -0.0497  0.9318
  246MPD1    C5 3733   0.903   2.647  10.137  0.7584 -0.2303  0.3166
  246MPD1     H 3734   0.869   2.263  10.169 -1.1506  0.8717  0.6933
  246MPD1    H1 3735   0.914   2.622   9.938 -0.1856  0.4067  1.1971
  246MPD1    H2 3736   0.873   2.657  10.346 -1.7617 -0.9357  0.0446
  246MPD1    H3 3737   0.908   2.754  10.126  0.6381 -0.0618  1.8353
  246MPD1     N 3738   0.904   2.347   9.921  0.4492 -0.2820  0.9929
  246MPD1    H5 3739   0.874   2.250   9.926 -1.4797  0.2331 -0.7697
  246MPD1    N1 3740   0.863   2.412  10.401 -0.3118  0.1841  0.5133
  246MPD1    H6 3741   0.831   2.475  10.474 -0.8727 -2.0224  2.1985
  246MPD1    H7 3742   0.956   2.385  10.434  0.0923 -0.3197 -1.0431
  247MPD1     C 3743   2.103   0.311  16.351 -0.5454 -0.4380  0.1493
  247MPD1    C1 3744   2.032   0.309  16.233 -0.1926 -0.0435  0.6737
  247MPD1    C2 3745   2.096   0.259  16.121  0.5592  0.7521 -0.3906
  247MPD1    C3 3746   2.235   0.233  16.123 -0.1471  0.0781  1.3658
  247MPD1    C4 3747   2.302   0.235  16.246 -0.1210 -0.0479  0.2521
  247MPD1    C5 3748   2.232   0.276  16.354  0.1408 -0.0133 -0.0938
  247MPD1     H 3749   2.040   0.247  16.029  0.9744  1.4728 -0.7355
  247MPD1    H1 3750   2.407   0.212  16.256  0.1112  1.1440  0.6338
  247MPD1    H2 3751   2.049   0.344  16.439  0.1899 -0.7217  0.7036
  247MPD1    H3 3752   2.283   0.273  16.450 -0.6050 -0.2965  0.2959
  247MPD1     N 3753   2.308   0.196  16.009  0.1575  0.0611  0.5787
  247MPD1    H5 3754   2.403   0.181  16.041  0.1552  2.2272  1.6053
  247MPD1    N1 3755   1.892   0.315  16.235 -0.2514 -0.1263 -0.7127
  247MPD1    H6 3756   1.873   0.351  16.328  0.1214 -0.8477 -0.3545
  247MPD1    H7 3757   1.858   0.385  16.170 -0.1665 -0.3387 -0.9861
  248MPD1     C 3758   2.948   4.007  17.642  1.0701  0.1982  0.7135
  248MPD1    C1 3759   2.874   4.120  17.625 -0.7209  0.1521 -0.2930
  248MPD1    C2 3760   2.927   4.232  17.583  0.2768 -0.7175 -0.0049
  248MPD1    C3 3761   3.061   4.237  17.550 -0.4220 -0.0497 -0.2958
  248MPD1    C4 3762   3.135   4.113  17.543  0.4702 -0.0551 -0.0989
  248MPD1    C5 3763   3.075   4.007  17.597  0.4251 -0.4366  0.2659
  248MPD1     H 3764   2.876   4.327  17.595 -0.1691 -1.2147  1.9915
  248MPD1    H1 3765   3.231   4.097  17.495  0.4369  1.4142 -0.6714
  248MPD1    H2 3766   2.906   3.911  17.669  1.3670  0.2172  1.2335
  248MPD1    H3 3767   3.121   3.910  17.578  0.0841 -0.2132 -1.7680
  248MPD1     N 3768   3.124   4.360  17.514 -0.3346  0.8395 -0.3414
  248MPD1    H5 3769   3.068   4.442  17.533 -1.1149  0.4241 -0.8558
  248MPD1    N1 3770   2.743   4.120  17.677 -0.2602  0.0425  0.0918
  248MPD1    H6 3771   2.746   4.134   0.078  1.4909  3.3570 -0.4261
  248MPD1    H7 3772   2.694   4.031  17.663  2.1337 -1.3559  0.6078
  249MPD1     C 3773   0.236   2.446  10.331  0.2628 -0.0935  0.4333
  249MPD1    C1 3774   0.359   2.498  10.361  0.5591 -0.2643  0.3470
  249MPD1    C2 3775   0.398   2.619  10.292  1.0091 -0.2821  0.0503
  249MPD1    C3 3776   0.310   2.693  10.218 -0.0501 -0.0854 -0.1394
  249MPD1    C4 3777   0.188   2.634  10.188  0.1175  0.0687  0.8235
  249MPD1    C5 3778   0.152   2.510  10.241  0.7279  0.1139  0.4004
  249MPD1     H 3779   0.492   2.663  10.322 -0.0157  3.2390 -1.9585
  249MPD1    H1 3780   0.108   2.687  10.138 -1.6845 -2.0393  1.4568
  249MPD1    H2 3781   0.184   2.362  10.376 -0.0475 -0.3513 -0.4176
  249MPD1    H3 3782   0.052   2.472  10.220  2.1713 -2.4387 -1.8152
  249MPD1     N 3783   0.349   2.809  10.156  0.0030  0.0291 -0.8185
  249MPD1    H5 3784   0.446   2.827  10.177 -0.3756  1.9043 -0.6274
  249MPD1    N1 3785   0.447   2.423  10.446 -0.3537 -0.1486 -0.2728
  249MPD1    H6 3786   0.385   2.374  10.510 -0.3377 -1.8473 -1.5489
  249MPD1    H7 3787   0.511   2.481  10.500 -0.2505 -1.0014  0.5336
  250MPD2     C 3788   1.462   3.863  13.432  0.3687 -0.1894 -0.1247
  250MPD2    C1 3789   1.438   3.932  13.322 -0.2499 -0.0476 -0.0943
  250MPD2    C2 3790   1.421   3.861  13.196  0.2218  0.2968 -0.6829
  250MPD2    C3 3791   1.422   3.721  13.188 -0.5335 -0.0395  0.9147
  250MPD2    C4 3792   1.454   3.655  13.307 -0.1949 -0.4434 -0.3251
  250MPD2    C5 3793   1.476   3.728  13.418 -0.4609  0.3435  0.3586
  250MPD2     H 3794   1.415   3.926  13.109  2.7969 -0.2726 -1.2890
  250MPD2    H1 3795   1.486   3.551  13.310  3.0950  0.6154  1.6336
  250MPD2    H2 3796   1.493   3.912  13.523  0.2054 -0.6173  0.1613
  250MPD2    H3 3797   1.504   3.667  13.503  2.4190  1.7751  0.4183
  250MPD2     N 3798   1.407   3.655  13.066  0.1186  0.3989  0.6328
  250MPD2    H5 3799   1.421   3.555  13.066  0.3253  0.4294 -0.2869
  250MPD2    N1 3800   1.447   4.073  13.332  0.0142  1.0855  0.0552
  250MPD2    H7 3801   1.479   4.110  13.420 -3.3621  2.3494  0.7592
  251TMC3    C1 3802   1.424   4.301  13.248 -0.2300 -0.8524  0.0723
  251TMC3    C2 3803   1.468   4.356  13.370  0.4240 -0.2818 -0.3278
  251TMC3    C3 3804   1.551   4.464  13.373 -0.5336  0.1405  0.0212
  251TMC3    C4 3805   1.462   4.354  13.131  0.6470  0.0366  0.0395
  251TMC3    C5 3806   1.568   4.440  13.134 -0.2107 -1.2576  0.0327
  251TMC3    C6 3807   1.607   4.500  13.252  0.1052  0.4378  0.2936
  251TMC3     C 3808   1.389   4.160  13.240 -0.1151 -0.5470  0.7654
  251TMC3     O 3809   1.317   4.128  13.150  0.7753  0.5198  0.5007
  251TMC3     H 3810   1.430   4.313  13.462 -1.8734 -0.7332 -1.4797
  251TMC3    H1 3811   1.438   4.300  13.040 -1.0753 -1.4408  1.3733
  251TMC3    H2 3812   1.694   4.564  13.263  0.4531 -0.1522  0.9538
  251TMC3    C7 3813   1.668   4.397  13.045 -0.0203 -0.5758  0.0875
  251TMC3    C8 3814   1.528   4.574  13.472 -0.6010  0.7678  0.3487
  251TMC3    O1 3815   1.674   4.278  13.019 -0.1153  0.2232 -0.0768
  251TMC3    O2 3816   1.511   4.551  13.590 -0.2229  0.1515  0.2996
  252TMC3    C1 3817   3.158   4.609   8.832  0.2230 -0.0510  0.2292
  252TMC3    C2 3818   3.231   4.593   8.949  0.3363  0.5857  0.0001
  252TMC3    C3 3819   3.238   4.467   9.005 -0.7307  0.2748  0.1721
  252TMC3    C4 3820   3.110   4.503   8.761  0.2420  0.2910  0.0890
  252TMC3    C5 3821   3.128   4.381   8.820  0.2299  0.4707 -0.1896
  252TMC3    C6 3822   3.189   4.358   8.940  0.3033  0.1527 -0.5712
  252TMC3     C 3823   3.168   0.008   8.750 -0.3262 -0.1911  0.4990
  252TMC3     O 3824   3.154   4.720   8.631 -0.1649 -0.2287 -0.1275
  252TMC3     H 3825   3.277   4.681   8.993 -1.7982  2.0137 -0.5974
  252TMC3    H1 3826   3.073   4.513   8.660  0.5782 -2.5727 -0.3223
  252TMC3    H2 3827   3.191   4.262   8.991  2.8182  1.3578  1.5880
  252TMC3    C7 3828   3.071   4.274   8.745  0.6635  0.2517 -0.4942
  252TMC3    C8 3829   3.319   4.456   9.127 -0.3686 -0.0637 -0.2715
  252TMC3    O1 3830   3.030   4.295   8.631 -0.4234  0.4892 -0.1549
  252TMC3    O2 3831   3.333   4.338   9.162 -0.2645 -0.5116  0.0471
  253MPD2     C 3832   2.779   3.412  15.191 -0.4174  0.5664 -0.4666
  253MPD2    C1 3833   2.653   3.437  15.223 -0.1954  0.4553  0.3149
  253MPD2    C2 3834   2.622   3.460  15.350  0.3048  0.7610 -0.0934
  253MPD2    C3 3835   2.719   3.456  15.453 -1.1825  0.2142  0.6432
  253MPD2    C4 3836   2.841   3.406  15.416  0.2702  0.6420 -1.4367
  253MPD2    C5 3837   2.866   3.383  15.287  0.3958 -0.4375  0.2318
  253MPD2     H 3838   2.518   3.490  15.360 -0.2672 -1.0523 -0.6151
  253MPD2    H1 3839   2.927   3.392  15.480 -0.0561  0.9810 -0.9226
  253MPD2    H2 3840   2.802   3.391  15.088 -2.5872  0.3276 -0.8905
  253MPD2    H3 3841   2.963   3.339  15.265 -0.2305 -2.1711  0.8585
  253MPD2     N 3842   2.690   3.498  15.591  0.3767 -0.5122  0.5941
  253MPD2    H5 3843   2.769   3.506  15.654  1.1950 -1.2410 -0.3268
  253MPD2    N1 3844   2.557   3.472  15.124  0.7168  1.0310 -0.0585
  253MPD2    H7 3845   2.467   3.487  15.168  0.5950  0.9675 -0.2902
  254TMC3    C1 3846   2.594   3.599  15.781 -0.4054  0.0875  0.0566
  254TMC3    C2 3847   2.522   3.712  15.817  0.3866  0.4106 -0.8639
  254TMC3    C3 3848   2.556   3.772  15.935  0.1447  0.5739  0.0602
  254TMC3    C4 3849   2.674   3.529  15.865 -0.0371 -0.2131  0.5694
  254TMC3    C5 3850   2.694   3.590  15.987 -0.8750  0.0807 -1.0913
  254TMC3    C6 3851   2.634   3.702  16.027  0.6362 -0.4509 -0.1094
  254TMC3     C 3852   2.575   3.564  15.639  0.4734 -0.2977 -0.2359
  254TMC3     O 3853   2.485   3.614  15.576 -0.1763 -0.0841 -0.2922
  254TMC3     H 3854   2.448   3.752  15.748 -1.8295  2.4532  2.7189
  254TMC3    H1 3855   2.740   3.455  15.821  0.3431  1.2775 -1.4014
  254TMC3    H2 3856   2.655   3.745  16.124  2.4916  0.8650 -1.0803
  254TMC3    C7 3857   2.803   3.531  16.064 -0.6929  0.7296  0.3953
  254TMC3    C8 3858   2.459   3.875  15.981  0.6733 -0.7102  0.3469
  254TMC3    O1 3859   2.864   3.612  16.131 -0.9053 -0.1970  0.0285
  254TMC3    O2 3860   2.442   3.898  16.102  0.3829  0.5287 -0.8315
  255MPD2     C 3861   1.712   1.975  10.393  0.5239  1.1123 -1.0059
  255MPD2    C1 3862   1.829   2.006  10.338  0.4524  0.6567 -0.8253
  255MPD2    C2 3863   1.945   1.949  10.382 -0.2987  0.1100 -0.1912
  255MPD2    C3 3864   1.944   1.840  10.476  0.1142 -0.5889 -0.1869
  255MPD2    C4 3865   1.820   1.803  10.524 -0.1969  0.1242  0.6060
  255MPD2    C5 3866   1.705   1.877  10.491 -0.5716 -0.3520 -0.8771
  255MPD2     H 3867   2.040   1.976  10.337 -0.3330 -1.2784 -1.0834
  255MPD2    H1 3868   1.815   1.728  10.602 -2.0883 -3.0090 -2.5421
  255MPD2    H2 3869   1.629   2.031  10.353 -0.3514  0.3168 -0.3131
  255MPD2    H3 3870   1.615   1.852  10.545  1.0840  0.3201  2.2315
  255MPD2     N 3871   2.070   1.787  10.519  0.2342 -0.1622  0.5062
  255MPD2    H5 3872   2.155   1.811  10.471 -0.7879  0.7656 -0.8391
  255MPD2    N1 3873   1.813   2.109  10.244  0.5138  0.2973  0.0435
  255MPD2    H7 3874   1.720   2.143  10.221 -0.0591  0.7354  3.0161
  256TMC3    C1 3875   1.874   2.294  10.110  0.8414  0.4117  0.1223
  256TMC3    C2 3876   1.950   2.307   9.997 -0.0764 -0.0560  0.1601
  256TMC3    C3 3877   1.892   2.347   9.876 -0.8963 -0.3456 -0.0131
  256TMC3    C4 3878   1.738   2.309  10.103 -0.2816  1.3015  0.1241
  256TMC3    C5 3879   1.688   2.318   9.977  0.3530  0.0525  0.0661
  256TMC3    C6 3880   1.756   2.350   9.865  0.1090  0.3406  0.2890
  256TMC3     C 3881   1.914   2.185  10.199  0.1851 -0.6099  0.1698
  256TMC3     O 3882   2.038   2.172  10.220  0.0766  0.0057  0.3023
  256TMC3     H 3883   2.053   2.273  10.001 -0.1984 -0.2013  1.8658
  256TMC3    H1 3884   1.665   2.300  10.183  0.7708 -0.4528  0.9152
  256TMC3    H2 3885   1.708   2.398   9.780  2.0983  0.6852 -0.6470
  256TMC3    C7 3886   1.615   2.190   9.947 -0.3116 -0.4070 -0.0205
  256TMC3    C8 3887   1.969   2.315   9.756  0.2334 -0.2857 -0.1405
  256TMC3    O1 3888   1.582   2.124  10.042 -0.0672 -0.1457  0.7365
  256TMC3    O2 3889   1.907   2.281   9.662 -0.2515 -0.1255  0.5228
  257MPD2     C 3890   0.729   4.039  13.310 -0.5475  0.2561  0.3057
  257MPD2    C1 3891   0.688   3.935  13.232 -0.2230  0.0487 -0.0136
  257MPD2    C2 3892   0.666   3.814  13.282 -0.1273 -0.3488  0.5912
  257MPD2    C3 3893   0.699   3.791  13.412  0.1577 -0.0020 -0.2695
  257MPD2    C4 3894   0.749   3.892  13.495 -0.5258 -0.3875 -0.1590
  257MPD2    C5 3895   0.755   4.017  13.444 -0.5136  0.6738 -0.0090
  257MPD2     H 3896   0.627   3.733  13.221 -1.6694 -1.1802  2.6842
  257MPD2    H1 3897   0.772   3.877  13.600 -0.2552 -0.1013 -0.1787
  257MPD2    H2 3898   0.748   4.141  13.278  0.9564  0.6946  2.5887
  257MPD2    H3 3899   0.780   4.097  13.512 -2.0541  0.9577  0.2256
  257MPD2     N 3900   0.674   3.669  13.472  0.8445  0.3387 -0.5087
  257MPD2    H5 3901   0.622   3.598  13.423 -0.6506  1.4576 -0.5418
  257MPD2    N1 3902   0.684   3.971  13.094 -0.8492  0.3385 -0.1072
  257MPD2    H7 3903   0.709   4.068  13.077 -0.9450  0.3343 -0.2648
  258TMC3    C1 3904   0.601   3.534  13.647 -0.7596  0.7214  0.0275
  258TMC3    C2 3905   0.480   3.528  13.583  0.3660 -0.1959  0.0852
  258TMC3    C3 3906   0.377   3.457  13.640  0.9111 -0.0463 -0.3048
  258TMC3    C4 3907   0.620   3.465  13.765  0.2953  0.4125  0.1803
  258TMC3    C5 3908   0.509   3.393  13.821 -0.2415  0.7359  0.2231
  258TMC3    C6 3909   0.387   3.394  13.762 -0.2683  0.3013  0.1489
  258TMC3     C 3910   0.703   3.624  13.600  0.7545  0.2798  0.3003
  258TMC3     O 3911   0.779   3.673  13.680 -0.1749 -0.1429 -0.2669
  258TMC3     H 3912   0.455   3.577  13.490 -0.8891 -1.1600 -0.0855
  258TMC3    H1 3913   0.716   3.470  13.817  0.0340  2.3466  0.4677
  258TMC3    H2 3914   0.303   3.340  13.805 -0.4375  0.4764  0.0365
  258TMC3    C7 3915   0.516   3.331  13.954  0.2821 -1.1237  0.6309
  258TMC3    C8 3916   0.252   3.439  13.560  0.3832  0.0383  0.7638
  258TMC3    O1 3917   0.415   3.327  14.025  0.0278 -0.5434  0.1304
  258TMC3    O2 3918   0.227   3.531  13.480  0.2306 -0.2734  0.2240
  259MPD2     C 3919   3.769   0.147   0.559  0.1132 -0.2580 -0.5677
  259MPD2    C1 3920   3.855   0.044   0.578  0.1741 -0.5605  0.0884
  259MPD2    C2 3921   3.985   0.048   0.538 -0.5963  0.3461 -0.3106
  259MPD2    C3 3922   4.034   0.167   0.475  0.0413  0.1852 -0.0799
  259MPD2    C4 3923   3.955   0.280   0.467 -0.1449  0.0432  0.4505
  259MPD2    C5 3924   3.824   0.269   0.509 -0.3335 -0.5158 -0.7546
  259MPD2     H 3925   4.047   4.684   0.552 -0.3590  0.5638  0.0220
  259MPD2    H1 3926   3.989   0.377   0.429 -0.1768 -0.9561 -2.1464
  259MPD2    H2 3927   3.665   0.141   0.587  0.5772 -2.1823  0.7149
  259MPD2    H3 3928   3.766   0.360   0.496  1.1837  0.7620  1.3534
  259MPD2     N 3929   4.174   0.162   0.432  0.4396 -0.0064 -0.2535
  259MPD2    H5 3930   4.228   0.077   0.444 -0.8199 -0.7719  0.0271
  259MPD2    N1 3931   3.799   4.653   0.643 -0.7172  0.0072  0.0605
  259MPD2    H7 3932   3.699   4.656   0.663 -0.7601 -0.2240 -0.1144
  260TMC3    C1 3933   4.379   0.213   0.334  0.1473  0.3278  0.2129
  260TMC3    C2 3934   4.456   0.310   0.272  0.0799  0.4284 -0.2115
  260TMC3    C3 3935   4.596   0.308   0.285  0.0697 -0.6502 -0.4716
  260TMC3    C4 3936   4.444   0.117   0.406 -0.5658  0.1118 -0.5519
  260TMC3    C5 3937   4.583   0.120   0.416 -0.3756 -0.4261 -0.5681
  260TMC3    C6 3938   4.662   0.213   0.355  0.0202  0.4518  0.8375
  260TMC3     C 3939   4.243   0.269   0.386  0.2308  0.7644  0.3766
  260TMC3     O 3940   4.214   0.384   0.363  0.5621 -0.0657 -0.1592
  260TMC3     H 3941   4.412   0.388   0.210 -1.5431  0.0428  0.4447
  260TMC3    H1 3942   4.392   0.039   0.460 -0.7837  0.1229 -0.7460
  260TMC3    H2 3943   0.045   0.202   0.354 -0.0761 -0.3118 -1.3446
  260TMC3    C7 3944   4.643   4.712   0.449  0.5893  0.3962  0.0142
  260TMC3    C8 3945   4.662   0.437   0.256  0.8405 -0.4005 -0.2077
  260TMC3    O1 3946   4.569   4.612   0.452  0.0191  0.0776  0.2728
  260TMC3    O2 3947   4.592   0.515   0.195  0.2805  0.8941  0.4821
  261MPD2     C 3948   1.438   3.570  12.281  0.6246  1.2773  0.3333
  261MPD2    C1 3949   1.358   3.678  12.321 -0.3672  0.4322  0.0408
  261MPD2    C2 3950   1.349   3.791  12.246  0.0736 -0.1268 -0.2376
  261MPD2    C3 3951   1.409   3.796  12.118 -0.5296 -0.3746 -0.6304
  261MPD2    C4 3952   1.486   3.690  12.083 -0.2651  0.7113  0.0462
  261MPD2    C5 3953   1.496   3.581  12.156  0.3179  0.0958 -0.1225
  261MPD2     H 3954   1.290   3.873  12.284  1.5099  0.0643  1.5263
  261MPD2    H1 3955   1.548   3.697  11.994  1.3109  0.6191  1.1287
  261MPD2    H2 3956   1.458   3.485  12.345  0.6253  0.8696 -0.2032
  261MPD2    H3 3957   1.559   3.498  12.128  0.6522 -0.0044  0.8976
  261MPD2     N 3958   1.394   3.893  12.020 -0.3294 -0.0571 -0.3172
  261MPD2    H5 3959   1.453   3.883  11.938  1.5126 -1.1707  1.1573
  261MPD2    N1 3960   1.315   3.679  12.456  0.7021  0.4307 -0.2792
  261MPD2    H7 3961   1.285   3.768  12.493 -1.3472 -0.8842  1.2618
  262TMC3    C1 3962   1.371   4.112  11.939  0.2410 -0.5895  0.6278
  262TMC3    C2 3963   1.329   4.239  11.958 -0.5860 -0.1053  0.3108
  262TMC3    C3 3964   1.383   4.332  11.877  0.0570 -0.2801 -0.2739
  262TMC3    C4 3965   1.427   4.068  11.819 -0.3915 -0.3399 -0.0630
  262TMC3    C5 3966   1.469   4.166  11.732  0.2010  0.5375 -0.1386
  262TMC3    C6 3967   1.467   4.300  11.777 -0.0262  0.0708 -0.4578
  262TMC3     C 3968   1.334   4.013  12.037  0.7877  0.0381 -0.5536
  262TMC3     O 3969   1.267   4.050  12.131  0.0428  0.3231 -0.7313
  262TMC3     H 3970   1.275   4.259  12.050  2.6424  0.9457  1.9844
  262TMC3    H1 3971   1.453   3.966  11.793  0.1777 -0.3546  0.5790
  262TMC3    H2 3972   1.513   4.377  11.716 -2.4268  1.5622 -0.4046
  262TMC3    C7 3973   1.581   4.132  11.648  0.6341 -0.1895  0.2928
  262TMC3    C8 3974   1.371   4.474  11.919 -0.6815  0.2683 -0.3590
  262TMC3    O1 3975   1.592   4.020  11.603  0.0435  0.5681 -0.0026
  262TMC3    O2 3976   1.429   4.554  11.850  0.0244  0.4658 -0.4221
  263MPD2     C 3977   2.646   2.857  10.966  0.0712 -0.7143 -0.0820
  263MPD2    C1 3978   2.663   2.968  11.041 -0.4792  0.1103 -0.6494
  263MPD2    C2 3979   2.729   3.080  10.988  0.3268 -0.2774 -0.1115
  263MPD2    C3 3980   2.783   3.085  10.859  0.8510 -0.2981 -0.1982
  263MPD2    C4 3981   2.772   2.961  10.792  0.7077  0.3057  0.4494
  263MPD2    C5 3982   2.697   2.855  10.838  1.1506 -0.0763 -0.7595
  263MPD2     H 3983   2.739   3.169  11.050  3.5649 -0.8573  0.1583
  263MPD2    H1 3984   2.809   2.942  10.692  0.8024  2.4175  0.0838
  263MPD2    H2 3985   2.606   2.766  11.008 -1.4981 -0.7685 -1.6991
  263MPD2    H3 3986   2.682   2.769  10.774  3.0745 -1.0254  0.0541
  263MPD2     N 3987   2.847   3.198  10.808 -0.0190 -0.0444  0.2138
  263MPD2    H5 3988   2.833   3.288  10.851 -2.4753  0.1118 -0.9152
  263MPD2    N1 3989   2.635   2.955  11.182 -0.6063 -0.1143  0.3183
  263MPD2    H7 3990   2.611   2.860  11.210  1.5409 -0.4256  1.1027
  264TMC3    C1 3991   2.968   3.319  10.630  0.6541  0.2062  0.0985
  264TMC3    C2 3992   2.907   3.433  10.669  0.2073  0.3499 -0.3592
  264TMC3    C3 3993   2.930   3.548  10.595 -0.6865 -0.0125 -0.2196
  264TMC3    C4 3994   3.040   3.311  10.517  0.4602 -0.0967  0.0524
  264TMC3    C5 3995   3.061   3.428  10.451 -0.1464  0.1566 -0.2013
  264TMC3    C6 3996   3.004   3.544  10.479  0.1724  0.1639 -0.1858
  264TMC3     C 3997   2.923   3.190  10.686 -0.2268 -0.7981  0.0875
  264TMC3     O 3998   2.970   3.096  10.628 -0.2801  0.6707  0.0258
  264TMC3     H 3999   2.839   3.424  10.753 -2.4302  0.4601 -2.4854
  264TMC3    H1 4000   3.085   3.219  10.482  1.6037 -0.1102  1.5243
  264TMC3    H2 4001   3.007   3.631  10.415  2.8135 -0.3184 -0.7356
  264TMC3    C7 4002   3.201   3.433  10.403  0.4099  0.0849  0.0305
  264TMC3    C8 4003   2.944   3.668  10.672  0.0835  0.4861 -0.2747
  264TMC3    O1 4004   3.263   3.334  10.370  0.6197  0.0892  0.0588
  264TMC3    O2 4005   3.039   3.735  10.634  0.4457 -0.1761  0.4654
  265MPD2     C 4006   4.188   3.527  15.380 -0.1924  0.0442 -0.2730
  265MPD2    C1 4007   4.202   3.656  15.323 -0.5659  0.7841 -0.3546
  265MPD2    C2 4008   4.286   3.673  15.214 -1.1390 -0.0775 -0.1985
  265MPD2    C3 4009   4.330   3.561  15.141 -0.0343  0.5511 -0.3626
  265MPD2    C4 4010   4.298   3.440  15.201 -0.1289  0.2085  0.3887
  265MPD2    C5 4011   4.243   3.424  15.319  0.2779  0.1703 -0.8110
  265MPD2     H 4012   4.306   3.774  15.178  0.0724  0.1194  1.0503
  265MPD2    H1 4013   4.335   3.345  15.164 -1.8080 -0.6090  0.8169
  265MPD2    H2 4014   4.140   3.514  15.477  0.0865 -2.3142 -0.4489
  265MPD2    H3 4015   4.234   3.323  15.358  1.1344  1.1210  1.8440
  265MPD2     N 4016   4.407   3.569  15.018 -0.1246 -0.4838  0.3324
  265MPD2    H5 4017   4.426   3.487  14.961 -1.1794  1.0596 -2.2604
  265MPD2    N1 4018   4.160   3.777  15.392  0.1817  0.2704 -0.1184
  265MPD2    H7 4019   4.190   3.862  15.345  0.0773 -0.2587 -1.1434
  266TMC3    C1 4020   4.100   3.926  15.577  0.9511  0.2477 -0.0615
  266TMC3    C2 4021   4.126   3.919  15.708 -0.2502 -0.0733 -0.9605
  266TMC3    C3 4022   4.188   4.024  15.771 -0.4628 -0.7243 -0.4112
  266TMC3    C4 4023   4.150   4.031  15.505  0.5634 -1.2520  0.3129
  266TMC3    C5 4024   4.218   4.136  15.564  0.5555 -0.0719  0.5661
  266TMC3    C6 4025   4.236   4.137  15.700 -0.0212 -0.1522 -0.5999
  266TMC3     C 4026   4.097   3.784  15.515  0.3747  0.8005 -0.0667
  266TMC3     O 4027   4.067   3.691  15.588  0.0676 -0.1594 -0.1882
  266TMC3     H 4028   4.094   3.837  15.771  1.3240  0.4674  0.5584
  266TMC3    H1 4029   4.123   4.038  15.401  0.2727 -0.5233  0.4397
  266TMC3    H2 4030   4.305   4.199  15.756 -0.3471  0.0614 -0.4346
  266TMC3    C7 4031   4.279   4.241  15.488  0.8924 -0.2071  0.0775
  266TMC3    C8 4032   4.241   3.997  15.906 -0.4534  0.3155  0.2425
  266TMC3    O1 4033   4.290   4.225  15.370  0.7964 -0.5744 -0.2043
  266TMC3    O2 4034   4.220   3.888  15.958  0.5853  0.1757  0.1193
  267MPD2     C 4035   1.883   0.057  17.368 -0.1603  0.9034  0.2187
  267MPD2    C1 4036   1.886   0.187  17.403  0.2663 -0.2775 -0.0360
  267MPD2    C2 4037   1.815   0.278  17.322 -0.7286 -0.4114 -0.0925
  267MPD2    C3 4038   1.747   0.238  17.205  0.5012  0.7356  0.3614
  267MPD2    C4 4039   1.752   0.105  17.169  0.4041  0.2433 -0.1716
  267MPD2    C5 4040   1.815   0.014  17.250 -1.1840 -0.1771  0.3184
  267MPD2     H 4041   1.818   0.382  17.350 -0.6872 -1.0155  2.1519
  267MPD2    H1 4042   1.708   0.063  17.080  1.8874  1.1841 -1.3480
  267MPD2    H2 4043   1.939   4.711  17.427 -1.9411 -1.3527 -0.7654
  267MPD2    H3 4044   1.811   4.633  17.221 -0.8081 -0.3375  0.8604
  267MPD2     N 4045   1.662   0.324  17.124  0.0639  0.3227 -0.5272
  267MPD2    H5 4046   1.620   0.282  17.042 -2.5303  1.3923  0.2731
  267MPD2    N1 4047   1.954   0.229  17.516  0.5277 -0.3621 -0.3295
  267MPD2    H7 4048   2.006   0.151  17.556  1.0529  0.2283  0.1357
  268TMC3    C1 4049   2.038   0.377  17.688 -0.1633  0.5354  0.0083
  268TMC3    C2 4050   2.093   0.500   0.011  0.0328 -0.7123  0.1233
  268TMC3    C3 4051   2.163   0.516   0.128  0.1544  0.2091  0.3146
  268TMC3    C4 4052   2.056   0.270   0.075 -0.3857  0.0079 -0.4164
  268TMC3    C5 4053   2.136   0.287   0.181 -0.4275  0.2543  1.5224
  268TMC3    C6 4054   2.188   0.408   0.204 -0.4846  0.3469  0.4815
  268TMC3     C 4055   1.967   0.356  17.560 -1.0164  0.4038  0.5877
  268TMC3     O 4056   1.936   0.459  17.504  0.0970  0.0249 -0.2702
  268TMC3     H 4057   2.074   0.578  17.638  0.3186  0.6276  1.4898
  268TMC3    H1 4058   1.998   0.178   0.071 -2.0983  1.0671  0.3720
  268TMC3    H2 4059   2.230   0.421   0.303 -0.3701 -1.1534  0.6240
  268TMC3    C7 4060   2.142   0.185   0.283 -0.1016 -0.2200  0.3358
  268TMC3    C8 4061   2.212   0.646   0.176  0.0773 -0.0735  0.2649
  268TMC3    O1 4062   2.043   0.130   0.324  0.3351  0.2635  0.0244
  268TMC3    O2 4063   2.269   0.646   0.282 -0.7013  0.2818  0.0010
  269MPD2     C 4064   2.070   4.027  15.472 -0.4201 -0.3580  0.1474
  269MPD2    C1 4065   2.012   4.086  15.581 -0.1997  0.6556 -0.1222
  269MPD2    C2 4066   1.974   4.221  15.579  0.1194  0.0074  0.4497
  269MPD2    C3 4067   1.992   4.306  15.471 -1.0086 -0.4054  0.2262
  269MPD2    C4 4068   2.053   4.245  15.354  0.4091 -0.3341 -0.5598
  269MPD2    C5 4069   2.087   4.108  15.359 -1.0804 -0.2780  0.3088
  269MPD2     H 4070   1.928   4.260  15.668 -0.9898 -1.2867  0.4419
  269MPD2    H1 4071   2.091   4.306  15.273  0.0450  0.6607  0.0152
  269MPD2    H2 4072   2.092   3.921  15.465  1.6149  0.0327  0.5230
  269MPD2    H3 4073   2.142   4.074  15.271 -2.1427  0.7217 -0.7393
  269MPD2     N 4074   1.959   4.442  15.478 -0.3146  0.3412 -0.0732
  269MPD2    H5 4075   1.927   4.463  15.572  0.2145  2.7833 -0.4390
  269MPD2    N1 4076   1.986   3.996  15.687  0.5945  0.4212 -0.6170
  269MPD2    H7 4077   2.042   3.912  15.676  0.8510  0.6980 -1.4533
  270TMC3    C1 4078   1.911   3.911  15.891  0.1950  0.7695 -0.5104
  270TMC3    C2 4079   1.785   3.866  15.909 -1.0313 -0.0419  0.5594
  270TMC3    C3 4080   1.772   3.742  15.967 -0.3234  0.6114  0.3905
  270TMC3    C4 4081   2.025   3.835  15.907 -0.4654 -0.1705  0.3816
  270TMC3    C5 4082   2.012   3.708  15.958  0.2643 -0.5629  0.3844
  270TMC3    C6 4083   1.884   3.659  15.974  0.0254  0.3292  0.1106
  270TMC3     C 4084   1.918   4.027  15.805 -0.1612  0.5265 -0.0545
  270TMC3     O 4085   1.851   4.128  15.833  0.0347  0.2762 -0.1327
  270TMC3     H 4086   1.697   3.927  15.891 -0.5995  0.7858  1.2529
  270TMC3    H1 4087   2.125   3.869  15.885 -0.0433 -0.9977  1.0382
  270TMC3    H2 4088   1.851   3.558  15.994 -2.0963  0.7155 -1.4500
  270TMC3    C7 4089   2.120   3.600  15.939  0.1285 -0.0367 -0.1657
  270TMC3    C8 4090   1.646   3.675  15.953  0.2157 -0.1768 -0.1043
  270TMC3    O1 4091   2.211   3.620  15.859 -0.1954  0.3079  0.1513
  270TMC3    O2 4092   1.617   3.589  16.036  0.2813  0.1872 -0.5502
  271MPD2     C 4093   1.215   3.717  14.082  0.5827 -0.1094 -0.3113
  271MPD2    C1 4094   1.133   3.733  14.196 -0.7220 -0.1446  0.3385
  271MPD2    C2 4095   1.026   3.809  14.188  0.1118  0.5989 -0.7285
  271MPD2    C3 4096   0.988   3.863  14.065 -0.0890 -0.1655 -0.0733
  271MPD2    C4 4097   1.070   3.843  13.958  1.0534 -0.1508  0.5462
  271MPD2    C5 4098   1.187   3.780  13.965 -0.1977  0.3231  0.3438
  271MPD2     H 4099   0.966   3.840  14.273  1.9136 -2.5368  1.6388
  271MPD2    H1 4100   1.059   3.890  13.861  0.1019  0.4971  0.9746
  271MPD2    H2 4101   1.301   3.652  14.093  0.1294 -0.2864  2.1813
  271MPD2    H3 4102   1.252   3.764  13.880  1.0416  1.2900  1.1033
  271MPD2     N 4103   0.869   3.938  14.043  0.6978 -0.0076 -0.1809
  271MPD2    H5 4104   0.856   3.979  13.951 -0.2481 -1.0906 -0.5306
  271MPD2    N1 4105   1.158   3.667  14.320  0.0571 -0.0145 -0.2771
  271MPD2    H7 4106   1.095   3.686  14.398 -0.7008 -2.4458 -0.2881
  272TMC3    C1 4107   1.256   3.497  14.472 -0.4130  0.8344 -0.6832
  272TMC3    C2 4108   1.332   3.387  14.475 -0.0627 -0.1810 -0.5162
  272TMC3    C3 4109   1.380   3.346  14.595 -0.2707  0.1164 -0.0458
  272TMC3    C4 4110   1.221   3.571  14.582  0.2036 -0.0341 -0.3449
  272TMC3    C5 4111   1.263   3.520  14.702  0.9893  0.5998 -0.3613
  272TMC3    C6 4112   1.337   3.404  14.712  0.4572  0.1993  0.6260
  272TMC3     C 4113   1.246   3.557  14.335 -0.0733  0.0591  0.3024
  272TMC3     O 4114   1.327   3.504  14.257  0.2447  0.3702 -0.1228
  272TMC3     H 4115   1.346   3.322  14.389 -1.2675 -0.7174 -0.3089
  272TMC3    H1 4116   1.149   3.653  14.577 -0.3338 -0.5872 -1.7428
  272TMC3    H2 4117   1.386   3.386  14.808  1.5721 -1.3010 -0.2165
  272TMC3    C7 4118   1.235   3.591  14.821  0.3733 -0.6698 -0.7459
  272TMC3    C8 4119   1.503   3.276  14.598 -0.8571 -0.6092 -0.2548
  272TMC3    O1 4120   1.223   3.714  14.817  0.1093  0.0913  0.1286
  272TMC3    O2 4121   1.550   3.272  14.486  0.3804 -0.7377 -0.1362
  273MPD2     C 4122   3.075   2.082  11.799 -0.0451  0.3812  0.2176
  273MPD2    C1 4123   3.206   2.131  11.791 -0.4774  0.3602  0.5845
  273MPD2    C2 4124   3.256   2.138  11.665 -0.5133  0.8888  0.5488
  273MPD2    C3 4125   3.178   2.147  11.554  0.4284  0.9247 -0.1349
  273MPD2    C4 4126   3.049   2.109  11.568 -0.0400 -0.1038  0.0879
  273MPD2    C5 4127   2.997   2.065  11.684 -0.1321  0.1396 -0.8864
  273MPD2     H 4128   3.363   2.160  11.660 -0.1100 -1.3196 -0.2636
  273MPD2    H1 4129   2.982   2.100  11.482  0.8958 -2.4537 -0.3906
  273MPD2    H2 4130   3.039   2.033  11.889 -0.2882  1.1382  0.5353
  273MPD2    H3 4131   2.896   2.026  11.696  0.7239 -1.4138  1.2632
  273MPD2     N 4132   3.221   2.184  11.426 -0.0327 -0.1342 -0.4368
  273MPD2    H5 4133   3.148   2.200  11.357 -0.3611  1.1245  0.1975
  273MPD2    N1 4134   3.280   2.159  11.907 -0.3484 -0.2538 -0.4353
  273MPD2    H7 4135   3.230   2.175  11.993 -0.2666  1.7429 -0.7534
  274TMC3    C1 4136   3.359   2.263  11.266 -0.6275  0.2950 -0.6584
  274TMC3    C2 4137   3.280   2.224  11.162  0.4860  0.3383 -0.1516
  274TMC3    C3 4138   3.278   2.304  11.050 -0.4392 -0.1341  0.2491
  274TMC3    C4 4139   3.432   2.378  11.268 -0.5154  0.4027  0.5635
  274TMC3    C5 4140   3.410   2.464  11.166  0.2084 -0.5155 -0.0800
  274TMC3    C6 4141   3.336   2.429  11.052  0.9481 -0.1641  0.9069
  274TMC3     C 4142   3.352   2.200  11.390  0.3948  0.5332  0.2888
  274TMC3     O 4143   3.447   2.214  11.466 -0.0285 -0.1006  0.3147
  274TMC3     H 4144   3.236   2.125  11.161 -1.0795  1.0291  0.9682
  274TMC3    H1 4145   3.504   2.407  11.344 -0.3242  1.4182 -0.0105
  274TMC3    H2 4146   3.306   2.492  10.969 -0.9032 -2.2881 -0.0571
  274TMC3    C7 4147   3.378   2.605  11.196 -0.7196 -0.3233  0.5576
  274TMC3    C8 4148   3.206   2.263  10.937 -0.5262 -0.2030 -0.3846
  274TMC3    O1 4149   3.273   2.637  11.152 -0.1590  0.3072 -0.4096
  274TMC3    O2 4150   3.105   2.188  10.945 -0.8790 -0.4075  0.3090
  275MPD2     C 4151   2.398   4.502  14.323 -0.1143 -0.0369  0.7317
  275MPD2    C1 4152   2.358   4.530  14.451  0.6656 -0.1623 -0.3186
  275MPD2    C2 4153   2.232   4.501  14.486 -0.2575  0.2806  0.4965
  275MPD2    C3 4154   2.141   4.466  14.395 -0.8448 -0.4099  0.2163
  275MPD2    C4 4155   2.174   4.450  14.261  0.1602 -0.4350  0.4178
  275MPD2    C5 4156   2.308   4.461  14.230 -0.0845  0.4231 -0.7126
  275MPD2     H 4157   2.207   4.506  14.591 -0.1526 -0.5747  0.5605
  275MPD2    H1 4158   2.097   4.425  14.188 -0.0134 -0.3219  0.5611
  275MPD2    H2 4159   2.503   4.493  14.298  0.2587 -0.6723  2.5708
  275MPD2    H3 4160   2.342   4.422  14.135  1.9081  1.1063 -0.2797
  275MPD2     N 4161   2.004   4.449  14.432  0.3220  0.6273 -0.4661
  275MPD2    H5 4162   1.942   4.414  14.359  0.0150  0.4072 -0.1027
  275MPD2    N1 4163   2.439   4.569  14.562 -0.4165 -0.1307 -0.0905
  275MPD2    H7 4164   2.394   4.577  14.653  1.3913 -2.6148  1.0481
  276TMC3    C1 4165   2.633   4.629  14.678 -0.7083  0.1322 -0.5443
  276TMC3    C2 4166   2.596   4.570  14.798 -0.1695  0.0110 -0.1775
  276TMC3    C3 4167   2.648   4.622  14.914 -0.6762 -0.7321 -0.0786
  276TMC3    C4 4168   2.718   0.017  14.682  0.2705 -0.2880  0.1003
  276TMC3    C5 4169   2.752   0.076  14.800 -0.2450  0.4452  0.3225
  276TMC3    C6 4170   2.709   0.021  14.918 -0.2571  0.1603  0.7271
  276TMC3     C 4171   2.571   4.602  14.554  0.3668 -0.3587 -0.6695
  276TMC3     O 4172   2.641   4.623  14.458 -0.2165  0.4332  0.2239
  276TMC3     H 4173   2.530   4.484  14.792  1.9859 -1.6533  0.0550
  276TMC3    H1 4174   2.753   0.063  14.591  1.2309 -1.0317  0.0968
  276TMC3    H2 4175   2.729   0.066  15.014 -1.0983 -2.6145  2.1973
  276TMC3    C7 4176   2.824   0.205  14.812  0.1035  0.0043  0.4774
  276TMC3    C8 4177   2.614   4.566  15.042 -0.2620  0.1588  0.3405
  276TMC3    O1 4178   2.809   0.254  14.923  0.2006 -0.7172  0.2056
  276TMC3    O2 4179   2.598   4.646  15.133  0.0664 -0.3895  0.2661
  277MPD2     C 4180   4.532   3.739  13.428 -0.7859  0.7606  0.1522
  277MPD2    C1 4181   4.406   3.773  13.391  0.1481  0.1462  0.1986
  277MPD2    C2 4182   4.307   3.786  13.490  0.2850 -0.7386 -0.1952
  277MPD2    C3 4183   4.331   3.759  13.620 -0.2552 -0.2415 -0.2509
  277MPD2    C4 4184   4.458   3.710  13.657  0.5475 -0.0391  0.2935
  277MPD2    C5 4185   4.556   3.704  13.557 -0.4472  0.7910 -0.4351
  277MPD2     H 4186   4.211   3.824  13.457  0.6153  0.6001  0.3960
  277MPD2    H1 4187   4.475   3.683  13.761 -0.5142 -0.1756  0.4329
  277MPD2    H2 4188   4.613   3.720  13.358  0.0689  3.5431  0.4032
  277MPD2    H3 4189   4.648   3.661  13.594 -0.0119 -0.6031 -3.1888
  277MPD2     N 4190   4.216   3.763  13.710  0.3956  0.5337  0.0154
  277MPD2    H5 4191   4.128   3.796  13.673 -0.3186 -0.2296  1.0189
  277MPD2    N1 4192   4.377   3.779  13.254 -0.0455  0.1174 -0.5096
  277MPD2    H7 4193   4.456   3.770  13.191  0.8985 -0.2192  0.7087
  278TMC3    C1 4194   4.080   3.739  13.901  0.2222 -0.1792  0.3910
  278TMC3    C2 4195   4.044   3.648  13.995  0.0131  0.0456 -0.5784
  278TMC3    C3 4196   3.910   3.625  14.023 -0.1145  0.3424 -0.0854
  278TMC3    C4 4197   3.991   3.820  13.837 -0.1580 -0.0389  0.8054
  278TMC3    C5 4198   3.860   3.801  13.867  0.2258 -0.4126  0.6406
  278TMC3    C6 4199   3.816   3.694  13.946  0.3899 -0.1112  0.6572
  278TMC3     C 4200   4.209   3.704  13.836 -0.0040  0.6721  0.1810
  278TMC3     O 4201   4.292   3.629  13.897  0.0913  0.2245  0.2326
  278TMC3     H 4202   4.123   3.592  14.044 -0.8917  0.4553  1.3337
  278TMC3    H1 4203   4.024   3.893  13.765  0.5615 -0.2300  0.9470
  278TMC3    H2 4204   3.711   3.682  13.969  0.2775  0.7341  0.6106
  278TMC3    C7 4205   3.769   3.884  13.799 -0.1113  0.1333  0.7724
  278TMC3    C8 4206   3.881   3.488  14.055  0.1759  0.1676  0.1224
  278TMC3    O1 4207   3.811   3.988  13.747 -0.1441  0.2584 -1.1124
  278TMC3    O2 4208   3.930   3.447  14.161  0.3532 -0.6965  0.9525
  279MPD2     C 4209   3.748   3.264   0.067  0.0134  0.4259 -0.5867
  279MPD2    C1 4210   3.744   3.393   0.026  1.2641  0.2272 -0.4197
  279MPD2    C2 4211   3.833   3.439  17.629  0.7196 -0.6601 -0.4040
  279MPD2    C3 4212   3.921   3.348  17.573 -0.5894  0.2598  0.0755
  279MPD2    C4 4213   3.928   3.222  17.614 -0.0359  0.4978  0.8632
  279MPD2    C5 4214   3.847   3.179   0.010 -0.2067  0.6800 -0.1934
  279MPD2     H 4215   3.838   3.545  17.610 -1.9489 -0.7389 -1.5394
  279MPD2    H1 4216   3.993   3.147  17.571 -1.9044  0.4949 -1.9758
  279MPD2    H2 4217   3.687   3.227   0.148 -2.2918  3.9557 -0.7138
  279MPD2    H3 4218   3.853   3.077   0.047  0.0967  0.9168  0.4045
  279MPD2     N 4219   4.023   3.380  17.482  0.0407 -0.4954 -0.4217
  279MPD2    H5 4220   4.073   3.307  17.433  1.1369 -0.4207  0.5936
  279MPD2    N1 4221   3.648   3.472   0.091 -0.3313 -0.1941  0.1016
  279MPD2    H7 4222   3.605   3.426   0.171  0.5099 -0.2094  0.5445
  280TMC3    C1 4223   3.487   3.655   0.125  0.4020 -0.1671  0.1824
  280TMC3    C2 4224   3.393   3.568   0.162 -0.2296 -0.2676 -0.5576
  280TMC3    C3 4225   3.272   3.618   0.199  0.1746 -0.2105  0.9483
  280TMC3    C4 4226   3.467   3.791   0.119  0.0209 -0.6603  0.2241
  280TMC3    C5 4227   3.343   3.837   0.161 -0.4885  0.7428 -0.7402
  280TMC3    C6 4228   3.245   3.751   0.203 -0.1316 -0.0697  0.0572
  280TMC3     C 4229   3.612   3.606   0.056  0.3090 -0.0584 -0.2824
  280TMC3     O 4230   3.662   3.687  17.675 -0.1390 -0.6870  0.1550
  280TMC3     H 4231   3.412   3.462   0.173  2.3369  0.2291 -0.1576
  280TMC3    H1 4232   3.545   3.863   0.096  0.4282 -1.0473  0.4090
  280TMC3    H2 4233   3.142   3.779   0.223 -1.0430 -2.9285 -0.6158
  280TMC3    C7 4234   3.343   3.985   0.181 -0.6961  0.5691 -0.1307
  280TMC3    C8 4235   3.166   3.515   0.213  0.9977  0.4546 -0.1505
  280TMC3    O1 4236   3.437   4.048   0.139  0.2092  0.6416  0.1844
  280TMC3    O2 4237   3.063   3.544   0.279  0.4588  0.2063  0.8025
  281TMC3    C1 4238   1.872   4.011  13.138  0.7784  0.0897  0.5486
  281TMC3    C2 4239   1.965   4.070  13.054  0.0478 -0.2838 -0.5243
  281TMC3    C3 4240   1.950   4.038  12.925  0.0200  0.0498  0.0739
  281TMC3    C4 4241   1.787   3.921  13.090 -0.3788 -0.6929 -0.2251
  281TMC3    C5 4242   1.779   3.892  12.958  0.1929 -0.0721  0.0968
  281TMC3    C6 4243   1.862   3.950  12.869 -0.0669  0.1523  0.2806
  281TMC3     C 4244   1.865   4.059  13.280  0.4223  0.1077  0.2554
  281TMC3     O 4245   1.803   3.986  13.355 -0.3615 -0.0644 -0.2027
  281TMC3     H 4246   2.034   4.144  13.091  0.7381 -0.4410 -1.4945
  281TMC3    H1 4247   1.725   3.863  13.157 -0.4963 -0.6138 -0.2646
  281TMC3    H2 4248   1.862   3.934  12.762  0.0405  0.3983  0.2451
  281TMC3    C7 4249   1.727   3.764  12.924  0.4929 -0.2059  0.7538
  281TMC3    C8 4250   2.063   4.074  12.839 -0.1099  0.1252  0.0899
  281TMC3    O1 4251   1.687   3.752  12.809  0.5426  0.2639  0.2565
  281TMC3    O2 4252   2.095   3.967  12.788  0.1113 -0.6150  0.0343
  282MPD2     C 4253   4.472   1.037  14.898 -0.6395 -0.0523  0.1802
  282MPD2    C1 4254   4.348   1.049  14.957 -0.0076 -0.3543  0.2283
  282MPD2    C2 4255   4.229   1.037  14.889 -0.6450 -0.4879 -0.0770
  282MPD2    C3 4256   4.242   1.017  14.752  0.8870  0.0977  0.7760
  282MPD2    C4 4257   4.365   0.994  14.694  0.1037 -0.9216 -0.1030
  282MPD2    C5 4258   4.481   1.016  14.761 -0.3068 -0.4766 -0.4510
  282MPD2     H 4259   4.136   1.067  14.935 -0.5270 -1.2764  0.6812
  282MPD2    H1 4260   4.369   0.985  14.586 -0.5181 -3.2181  0.0806
  282MPD2    H2 4261   4.565   1.036  14.955  0.5153  0.6457 -1.6681
  282MPD2    H3 4262   4.573   1.011  14.704 -1.0511 -0.3829 -1.6760
  282MPD2     N 4263   4.117   1.020  14.681  0.2424  0.0249 -0.4475
  282MPD2    H5 4264   4.035   1.042  14.736  1.3795  0.2991  1.1537
  282MPD2    N1 4265   4.337   1.084  15.094 -0.4748 -0.4941  0.5407
  282MPD2    H7 4266   4.250   1.075  15.145 -1.0640  1.7647 -0.0353
  283TMC3    C1 4267   4.408   1.158  15.311 -0.1082 -0.0734 -0.4221
  283TMC3    C2 4268   4.420   1.284  15.361  0.0140  0.4805  0.2396
  283TMC3    C3 4269   4.381   1.304  15.490  0.0591 -0.1605 -0.1324
  283TMC3    C4 4270   4.349   1.058  15.382 -0.2216  0.4156 -0.0612
  283TMC3    C5 4271   4.323   1.083  15.512 -0.4023  0.4359 -0.4278
  283TMC3    C6 4272   4.327   1.202  15.565 -0.4640  0.6700 -0.0176
  283TMC3     C 4273   4.434   1.144  15.166 -0.1051  0.3180  0.2647
  283TMC3     O 4274   4.538   1.197  15.127 -0.3388  0.3941  0.1907
  283TMC3     H 4275   4.468   1.358  15.298  1.5696 -0.6957  0.0512
  283TMC3    H1 4276   4.365   0.960  15.338  0.8788  0.0766  1.0727
  283TMC3    H2 4277   4.298   1.223  15.668  1.6488 -1.0838  0.9392
  283TMC3    C7 4278   4.253   0.980  15.584 -0.5651 -0.1726  0.1527
  283TMC3    C8 4279   4.375   1.442  15.542  0.2614  0.0309 -0.3984
  283TMC3    O1 4280   4.273   0.991  15.701  0.6698  0.1707  0.0812
  283TMC3    O2 4281   4.383   1.448  15.665 -0.4883  0.6492 -0.1791
  284MPD2     C 4282   2.516   0.270  11.591 -0.4721 -0.0013 -0.6786
  284MPD2    C1 4283   2.637   0.318  11.619  0.0074  0.0667  0.4825
  284MPD2    C2 4284   2.679   0.308  11.747  0.5741 -0.2158  0.1912
  284MPD2    C3 4285   2.588   0.272  11.849 -0.1800  0.4295  0.5574
  284MPD2    C4 4286   2.465   0.220  11.811 -1.0047 -0.2039 -0.6681
  284MPD2    C5 4287   2.431   0.224  11.682 -0.0134  0.1117 -0.6771
  284MPD2     H 4288   2.777   0.349  11.772 -0.1989  1.4611  0.4290
  284MPD2    H1 4289   2.393   0.184  11.883  0.4092  0.9319  1.3357
  284MPD2    H2 4290   2.481   0.283  11.489  2.0988  0.5232 -1.5045
  284MPD2    H3 4291   2.333   0.201  11.641  0.2226 -0.3809 -0.9653
  284MPD2     N 4292   2.637   0.253  11.977  0.4115 -0.3562  0.1914
  284MPD2    H5 4293   2.736   0.274  11.987 -0.0418  1.0440  1.8507
  284MPD2    N1 4294   2.727   0.368  11.524  0.1245 -0.1368 -0.5734
  284MPD2    H7 4295   2.816   0.405  11.558 -0.0316 -1.9108  1.7112
  285TMC3    C1 4296   2.837   0.403  11.318 -0.5523  0.0703 -0.2846
  285TMC3    C2 4297   2.923   0.313  11.260  0.8531  0.2487  0.5584
  285TMC3    C3 4298   3.060   0.338  11.262 -0.2521 -0.1118  0.2334
  285TMC3    C4 4299   2.878   0.525  11.360 -0.5971 -0.5849 -0.9163
  285TMC3    C5 4300   3.011   0.557  11.345 -0.5986 -0.8004  0.1031
  285TMC3    C6 4301   3.104   0.465  11.299 -0.5260 -0.1403 -0.5034
  285TMC3     C 4302   2.713   0.359  11.387 -0.5391 -0.2725 -0.1935
  285TMC3     O 4303   2.660   0.269  11.319 -0.4919 -0.7130 -0.2824
  285TMC3     H 4304   2.887   0.214  11.234  2.3322  0.4448 -2.2375
  285TMC3    H1 4305   2.811   0.590  11.415  0.8558 -0.3187  0.5283
  285TMC3    H2 4306   3.207   0.494  11.279  0.8180 -4.2820  0.3554
  285TMC3    C7 4307   3.048   0.695  11.331  0.3688  1.3996 -0.1009
  285TMC3    C8 4308   3.154   0.230  11.231 -0.0653 -0.1229 -0.2693
  285TMC3    O1 4309   3.169   0.721  11.337 -0.0056  0.3222  0.0179
  285TMC3    O2 4310   3.102   0.144  11.163  0.4729  0.6410 -0.2626
  286MPD2     C 4311   2.409   3.203   1.897 -0.0167 -0.5459 -0.2882
  286MPD2    C1 4312   2.401   3.202   1.754  0.0133  0.7195 -0.4387
  286MPD2    C2 4313   2.523   3.190   1.685 -0.5384  0.4981  0.2861
  286MPD2    C3 4314   2.645   3.184   1.754 -0.7929  0.0332  0.2462
  286MPD2    C4 4315   2.650   3.180   1.890 -0.4802 -0.2134 -0.4190
  286MPD2    C5 4316   2.533   3.184   1.964 -0.2031 -0.0814  0.3481
  286MPD2     H 4317   2.522   3.199   1.577  1.0418 -1.0123  0.1520
  286MPD2    H1 4318   2.748   3.186   1.937  0.3518 -2.5472 -1.8442
  286MPD2    H2 4319   2.317   3.201   1.955  1.4536  2.0464  2.0868
  286MPD2    H3 4320   2.542   3.189   2.071 -0.7796 -1.5029  0.4758
  286MPD2     N 4321   2.767   3.174   1.687 -0.2651  0.2479 -0.3993
  286MPD2    H5 4322   2.851   3.175   1.745 -0.2152 -0.0692 -0.4614
  286MPD2    N1 4323   2.277   3.201   1.686 -0.2982  0.1530  0.0046
  286MPD2    H7 4324   2.279   3.171   1.590 -0.0577 -0.4711  0.2013
  287TMC3    C1 4325   2.912   3.142   1.504  0.2494  0.7161  0.0764
  287TMC3    C2 4326   2.928   3.112   1.374  0.2452  0.5496 -0.3759
  287TMC3    C3 4327   3.044   3.134   1.309 -0.4466  0.0503  0.0285
  287TMC3    C4 4328   3.018   3.189   1.578  0.2725  0.9235  0.1652
  287TMC3    C5 4329   3.138   3.197   1.513  0.6287 -0.4336 -0.0748
  287TMC3    C6 4330   3.156   3.171   1.377  0.1759  0.1009 -0.7089
  287TMC3     C 4331   2.783   3.125   1.558 -0.0929  0.0772 -0.5840
  287TMC3     O 4332   2.698   3.073   1.486  1.3250 -0.4784  0.2671
  287TMC3     H 4333   2.845   3.073   1.317  0.3958 -1.1530  0.5731
  287TMC3    H1 4334   3.008   3.237   1.675 -0.5033  0.5638  0.2638
  287TMC3    H2 4335   3.258   3.168   1.339  0.7440  1.5766  0.7115
  287TMC3    C7 4336   3.255   3.245   1.597  0.7436 -0.6182  1.0171
  287TMC3    C8 4337   3.054   3.071   1.172  0.4986  0.0688 -0.5748
  287TMC3    O1 4338   3.229   3.317   1.691  0.3846  0.1259  0.0961
  287TMC3    O2 4339   3.154   3.018   1.133 -0.2175 -0.0272  0.5121
  288TMC3    C1 4340   4.266   3.403  14.187  0.6522  0.1810 -0.0221
  288TMC3    C2 4341   4.192   3.391  14.303 -0.2339  0.2434  0.2118
  288TMC3    C3 4342   4.202   3.499  14.391  0.2687  0.1596 -0.6833
  288TMC3    C4 4343   4.356   3.505  14.163  0.5974 -0.3757  0.9870
  288TMC3    C5 4344   4.360   3.607  14.256 -0.4968  0.3395  0.1963
  288TMC3    C6 4345   4.275   3.613  14.362  0.4942 -0.0804 -0.1326
  288TMC3     C 4346   4.243   3.302  14.091 -0.3959  0.2865  0.3757
  288TMC3     O 4347   4.240   3.187  14.128 -0.2943 -0.4701 -0.6505
  288TMC3     H 4348   4.133   3.303  14.322  0.3447  0.0592  1.1416
  288TMC3    H1 4349   4.433   3.488  14.090  0.6475 -1.0257  1.1873
  288TMC3    H2 4350   4.278   3.698  14.428  0.2362 -1.1563  1.2622
  288TMC3    C7 4351   4.461   3.709  14.246  0.8296  0.7974 -0.3464
  288TMC3    C8 4352   4.145   3.494  14.533  0.6391  0.7007  1.3450
  288TMC3    O1 4353   4.477   3.781  14.343 -0.2900 -0.2978 -0.1354
  288TMC3    O2 4354   4.157   3.600  14.596  0.4761 -0.0117  0.0163
  289MPD2     C 4355   4.150   2.454  14.477 -0.1710 -0.2117 -0.2669
  289MPD2    C1 4356   4.148   2.573  14.405  0.4032 -0.5159 -0.4433
  289MPD2    C2 4357   4.027   2.627  14.361 -0.0895 -0.0063 -0.3187
  289MPD2    C3 4358   3.911   2.548  14.380 -0.2640  0.6207 -0.4222
  289MPD2    C4 4359   3.920   2.426  14.452  0.1526 -0.5115  1.0315
  289MPD2    C5 4360   4.037   2.384  14.504  1.0156  0.2647  0.6150
  289MPD2     H 4361   4.020   2.728  14.323  3.5800  0.8641  1.3808
  289MPD2    H1 4362   3.829   2.371  14.475  0.5470 -2.1778 -1.3737
  289MPD2    H2 4363   4.245   2.415  14.511 -0.9827 -1.3992  0.6366
  289MPD2    H3 4364   4.046   2.287  14.552  2.9466  0.4423  0.5871
  289MPD2     N 4365   3.786   2.572  14.311 -0.3125 -0.4181 -0.1679
  289MPD2    H5 4366   3.710   2.505  14.322  0.6316 -1.4211  0.2147
  289MPD2    N1 4367   4.271   2.647  14.389 -0.3436  0.1762 -0.2173
  289MPD2    H7 4368   4.347   2.636  14.456 -2.3261  0.7429  2.1374
  290TMC3    C1 4369   3.644   2.686  14.161  0.2654 -0.1385 -0.2969
  290TMC3    C2 4370   3.600   2.810  14.129  0.7617 -0.1050 -0.6560
  290TMC3    C3 4371   3.466   2.825  14.111  0.8309 -1.0624  0.8691
  290TMC3    C4 4372   3.564   2.575  14.157  0.6580  0.3867  0.1242
  290TMC3    C5 4373   3.427   2.594  14.129  0.5234 -0.2089 -0.0841
  290TMC3    C6 4374   3.377   2.721  14.103 -0.4355  0.4876 -0.3413
  290TMC3     C 4375   3.769   2.684  14.240 -0.1143  0.9807 -0.4149
  290TMC3     O 4376   3.849   2.765  14.195 -0.7576 -0.2223  0.3977
  290TMC3     H 4377   3.670   2.891  14.145 -0.7449  0.8264  1.2692
  290TMC3    H1 4378   3.605   2.475  14.166  0.5075  0.4192  1.1069
  290TMC3    H2 4379   3.273   2.744  14.087  0.3030  4.0788 -0.0893
  290TMC3    C7 4380   3.330   2.485  14.170 -0.6952 -0.1874 -0.0300
  290TMC3    C8 4381   3.422   2.951  14.058 -0.3001  0.9496 -0.2556
  290TMC3    O1 4382   3.213   2.520  14.187 -0.3224 -0.0111  0.4160
  290TMC3    O2 4383   3.337   2.946  13.974 -0.0829  0.1617  0.1836
  291MPD2     C 4384   4.220   2.146   0.742 -0.2249  0.3289  0.4842
  291MPD2    C1 4385   4.209   2.057   0.638  0.3145  0.0788  0.3175
  291MPD2    C2 4386   4.214   2.107   0.508  0.3197  1.4637 -0.3290
  291MPD2    C3 4387   4.234   2.236   0.479  0.2128  0.6059  0.1007
  291MPD2    C4 4388   4.256   2.320   0.587 -0.3061  0.3293  0.2968
  291MPD2    C5 4389   4.245   2.273   0.713 -0.4358  0.5108 -0.0303
  291MPD2     H 4390   4.196   2.036   0.428  1.3147 -1.8116  2.3197
  291MPD2    H1 4391   4.277   2.426   0.577  0.1469  0.2314  0.2153
  291MPD2    H2 4392   4.207   2.123   0.847 -3.2044 -2.3692 -0.4934
  291MPD2    H3 4393   4.240   2.338   0.800  0.2043  0.6585 -0.1074
  291MPD2     N 4394   4.223   2.293   0.348  0.0458 -0.4100  0.6403
  291MPD2    H5 4395   4.226   2.394   0.342  0.6541 -0.5346 -1.1652
  291MPD2    N1 4396   4.161   1.926   0.654 -0.4555  0.1666 -0.4386
  291MPD2    H7 4397   4.131   1.883   0.567 -2.8747  2.8968 -0.9568
  292TMC3    C1 4398   4.079   1.730   0.753 -0.7286  0.0641  0.5558
  292TMC3    C2 4399   4.079   1.649   0.863  0.2067 -1.3246 -0.2879
  292TMC3    C3 4400   3.987   1.555   0.870 -1.1594  0.1574  0.3953
  292TMC3    C4 4401   4.005   1.694   0.638 -0.0476  0.8358 -0.8486
  292TMC3    C5 4402   3.920   1.589   0.650  0.1642 -0.1345  0.6656
  292TMC3    C6 4403   3.897   1.525   0.771  0.5614  0.3124  0.1878
  292TMC3     C 4404   4.141   1.860   0.773  0.1789 -0.3752  1.0652
  292TMC3     O 4405   4.167   1.884   0.891  0.0374  0.2270  0.1219
  292TMC3     H 4406   4.154   1.661   0.940 -0.3389  1.0758 -0.1342
  292TMC3    H1 4407   4.013   1.739   0.540 -0.1961  0.8429 -0.8574
  292TMC3    H2 4408   3.819   1.450   0.778  0.9648 -0.3687 -2.3773
  292TMC3    C7 4409   3.857   1.540   0.530  0.1515 -0.5458 -0.5300
  292TMC3    C8 4410   3.970   1.482   0.999 -0.2098 -0.6874 -0.0914
  292TMC3    O1 4411   3.849   1.418   0.518 -0.3252  0.0471  0.2436
  292TMC3    O2 4412   4.052   1.519   1.081 -0.2460  0.3567  0.8779
  293MPD2     C 4413   0.903   3.777  12.534  0.9796 -0.3948 -0.6757
  293MPD2    C1 4414   0.807   3.727  12.624  0.5577  0.4479 -0.2068
  293MPD2    C2 4415   0.836   3.718  12.761 -0.4569 -0.5440 -0.5997
  293MPD2    C3 4416   0.951   3.786  12.811  0.4508 -0.3285 -0.4171
  293MPD2    C4 4417   1.039   3.835  12.720 -0.1126  0.1889  0.1683
  293MPD2    C5 4418   1.016   3.828  12.583  0.6818  0.4821  0.4699
  293MPD2     H 4419   0.755   3.681  12.823 -0.3630  1.3616  0.6508
  293MPD2    H1 4420   1.130   3.887  12.749  0.4145 -0.2174 -0.7426
  293MPD2    H2 4421   0.885   3.759  12.428 -2.4992 -2.9852  0.3247
  293MPD2    H3 4422   1.094   3.869  12.520 -1.0281 -0.1238 -2.0279
  293MPD2     N 4423   0.967   3.792  12.952  0.5611  0.0333  0.0614
  293MPD2    H5 4424   0.922   3.719  13.006 -0.4805 -0.6840 -1.7473
  293MPD2    N1 4425   0.686   3.692  12.566  0.3824  0.1582  0.4518
  293MPD2    H7 4426   0.685   3.706  12.465  1.4375  1.7737  0.6570
  294TMC3    C1 4427   0.461   3.606  12.533  0.2328 -0.1523  0.3816
  294TMC3    C2 4428   0.338   3.579  12.587 -0.0367 -0.5980  0.0200
  294TMC3    C3 4429   0.238   3.554  12.494 -0.1549  0.0122 -1.0455
  294TMC3    C4 4430   0.495   3.599  12.403 -0.0605  0.6770  0.1819
  294TMC3    C5 4431   0.399   3.556  12.314 -0.2307 -0.6261 -0.3132
  294TMC3    C6 4432   0.268   3.537  12.359 -0.4749 -0.0822 -0.5228
  294TMC3     C 4433   0.576   3.642  12.624 -0.7407 -0.3823  0.2685
  294TMC3     O 4434   0.557   3.621  12.743 -0.7811 -0.4597 -0.3924
  294TMC3     H 4435   0.319   3.568  12.693 -0.4976  0.7960  0.0853
  294TMC3    H1 4436   0.599   3.601  12.371  0.1596 -2.6868  0.6654
  294TMC3    H2 4437   0.194   3.494  12.291 -0.5260  1.3493 -1.3690
  294TMC3    C7 4438   0.452   3.446  12.236 -0.3995 -0.5024 -0.2249
  294TMC3    C8 4439   0.151   3.453  12.539 -0.0375 -0.3575  0.1995
  294TMC3    O1 4440   0.418   3.332  12.273  0.2704  0.2923  0.5627
  294TMC3    O2 4441   0.099   3.474  12.649  0.3692 -0.2866  0.4117
  295MPD2     C 4442   1.511   1.792   0.970  0.2712 -0.8313 -0.3168
  295MPD2    C1 4443   1.381   1.820   0.931 -0.1929  0.2660 -0.2693
  295MPD2    C2 4444   1.290   1.829   1.031  0.3249 -0.2351 -0.4995
  295MPD2    C3 4445   1.319   1.783   1.154  0.6813 -0.0918  0.2551
  295MPD2    C4 4446   1.447   1.770   1.197  0.5143  0.2663  0.5880
  295MPD2    C5 4447   1.545   1.779   1.099 -0.3380 -0.0717  0.2931
  295MPD2     H 4448   1.187   1.853   1.007  0.6409  3.4291  1.8373
  295MPD2    H1 4449   1.473   1.756   1.301 -0.1522 -0.1949  0.6973
  295MPD2    H2 4450   1.594   1.787   0.900 -1.2299 -1.9314 -2.0234
  295MPD2    H3 4451   1.651   1.778   1.123 -0.1450  2.1078 -0.5081
  295MPD2     N 4452   1.223   1.773   1.254 -0.3629 -0.0229 -0.2360
  295MPD2    H5 4453   1.254   1.765   1.350 -2.1195  1.0071  0.4116
  295MPD2    N1 4454   1.346   1.842   0.796 -1.0002  0.1466  0.1046
  295MPD2    H7 4455   1.246   1.850   0.781 -0.7358  2.0061 -0.6156
  296TMC3    C1 4456   1.019   1.778   1.355 -0.7578  0.0055 -0.7789
  296TMC3    C2 4457   1.045   1.891   1.429  0.1767 -0.8889 -0.0299
  296TMC3    C3 4458   0.953   1.931   1.522 -0.2909 -0.3999 -0.3151
  296TMC3    C4 4459   0.911   1.697   1.374  1.1158 -0.6250 -0.3254
  296TMC3    C5 4460   0.830   1.731   1.476  0.5979 -1.3716 -0.4165
  296TMC3    C6 4461   0.841   1.853   1.542 -0.0214  0.6248  0.2603
  296TMC3     C 4462   1.095   1.759   1.232 -0.8243 -0.5807 -0.6987
  296TMC3     O 4463   1.036   1.724   1.134  0.3300 -0.2866  0.0210
  296TMC3     H 4464   1.130   1.956   1.414 -0.3913 -0.0115  0.5364
  296TMC3    H1 4465   0.895   1.618   1.301  0.8007 -0.6677 -0.2117
  296TMC3    H2 4466   0.759   1.891   1.602  0.7612 -1.5739  2.7380
  296TMC3    C7 4467   0.731   1.640   1.519 -0.6480  0.4769  0.1235
  296TMC3    C8 4468   0.974   2.052   1.593 -0.0628 -0.0013 -0.1898
  296TMC3    O1 4469   0.629   1.685   1.571  0.5751  0.8149  0.2924
  296TMC3    O2 4470   1.063   2.126   1.548 -0.0544  0.2433 -0.7576
  297MPD2     C 4471   3.390   4.574  16.695 -0.1858 -0.3185  0.3542
  297MPD2    C1 4472   3.350   4.648  16.588  0.1806  0.4717  0.5046
  297MPD2    C2 4473   3.449   4.704  16.508  0.2370  0.5674 -0.4706
  297MPD2    C3 4474   3.584   4.684  16.540 -0.5606 -0.8929  0.8654
  297MPD2    C4 4475   3.624   4.606  16.643  0.4166  0.7353  0.0207
  297MPD2    C5 4476   3.529   4.558  16.727  0.6246 -0.5186 -0.2096
  297MPD2     H 4477   3.410   0.042  16.428 -0.5517  2.0426  1.0776
  297MPD2    H1 4478   3.729   4.591  16.667 -0.0267 -0.8783  0.9560
  297MPD2    H2 4479   3.320   4.528  16.764  0.1159  0.0074  0.8778
  297MPD2    H3 4480   3.558   4.504  16.816  0.8001  2.1567  1.3600
  297MPD2     N 4481   3.676   0.033  16.460  0.1013 -0.1916 -0.2511
  297MPD2    H5 4482   3.645   0.100  16.391 -0.1048 -1.1489 -1.1028
  297MPD2    N1 4483   3.216   4.663  16.550  0.0826  0.5057  0.3116
  297MPD2    H7 4484   3.196   4.694  16.455 -1.2282 -1.2680 -0.0048
  298TMC3    C1 4485   2.988   4.597  16.539 -0.0240  0.3963  0.2698
  298TMC3    C2 4486   2.980   4.585  16.403 -0.2603 -0.0543  0.2310
  298TMC3    C3 4487   2.873   4.625  16.331 -0.2215 -0.0382  0.0072
  298TMC3    C4 4488   2.873   4.624  16.607 -0.3435  0.2440 -0.4406
  298TMC3    C5 4489   2.761   4.651  16.531 -0.4982 -0.1177 -0.0471
  298TMC3    C6 4490   2.763   4.655  16.395  0.3752  0.4742  0.5057
  298TMC3     C 4491   3.109   4.612  16.620 -0.5767  0.2180 -0.4080
  298TMC3     O 4492   3.103   4.588  16.740 -0.3597 -0.1553  0.1162
  298TMC3     H 4493   3.072   4.566  16.349 -1.3679  0.6458 -1.9063
  298TMC3    H1 4494   2.872   4.661  16.709  0.5099 -1.2679  0.1151
  298TMC3    H2 4495   2.675   4.693  16.344 -1.6069 -4.1673  0.4934
  298TMC3    C7 4496   2.643   4.714  16.602  0.2225  0.0735  0.7768
  298TMC3    C8 4497   2.893   4.648  16.193  0.5215 -0.2745 -0.4040
  298TMC3    O1 4498   2.661   0.047  16.708  0.0031 -0.0488 -0.1949
  298TMC3    O2 4499   2.817   0.006  16.139 -0.2881 -0.2571  0.2943
  299MPD2     C 4500   4.648   3.693  10.661 -0.2546  0.1805 -0.5210
  299MPD2    C1 4501   4.670   3.812  10.596 -0.0347 -0.2534 -0.1119
  299MPD2    C2 4502   4.602   3.842  10.484 -0.4483 -0.4698 -0.2908
  299MPD2    C3 4503   4.507   3.747  10.442 -0.0804  0.5342 -0.1857
  299MPD2    C4 4504   4.478   3.635  10.518 -0.0964 -0.4861 -0.0400
  299MPD2    C5 4505   4.545   3.614  10.634 -0.4618  0.0191  0.6987
  299MPD2     H 4506   4.616   3.929  10.420 -1.5129 -0.7296 -0.8843
  299MPD2    H1 4507   4.408   3.557  10.490 -0.1216 -0.1329 -0.9891
  299MPD2    H2 4508   4.705   3.666  10.749  1.1244 -0.6579 -1.6638
  299MPD2    H3 4509   4.529   3.530  10.700 -0.9653 -0.6909 -0.3212
  299MPD2     N 4510   4.418   3.762  10.334 -0.5911  0.0474 -0.9344
  299MPD2    H5 4511   4.350   3.690  10.312 -0.3945 -0.4419  0.0734
  299MPD2    N1 4512   0.035   3.897  10.660  0.2371  0.4451  0.1285
  299MPD2    H7 4513   0.066   3.867  10.751 -1.3989 -1.4299  0.0765
  300TMC3    C1 4514   4.288   3.888  10.180  0.2498  0.2680 -0.5865
  300TMC3    C2 4515   4.276   4.022  10.151 -0.0827  0.2849  0.3332
  300TMC3    C3 4516   4.166   4.090  10.211  0.4516 -0.0346  0.3276
  300TMC3    C4 4517   4.185   3.822  10.236  0.3608 -0.4314  0.6742
  300TMC3    C5 4518   4.069   3.891  10.276  0.2885  0.2741  0.0532
  300TMC3    C6 4519   4.067   4.030  10.276  0.1713 -0.2954 -0.0322
  300TMC3     C 4520   4.415   3.870  10.249  0.3889  0.1330 -0.3223
  300TMC3     O 4521   4.506   3.952  10.222 -0.5842 -0.1982  0.5696
  300TMC3     H 4522   4.347   4.079  10.092 -0.5134  1.6147  1.0944
  300TMC3    H1 4523   4.203   3.717  10.255 -1.5157 -1.9387 -5.6731
  300TMC3    H2 4524   3.982   4.086  10.311  1.2775  0.5245  1.3561
  300TMC3    C7 4525   3.992   3.818  10.377 -0.1629 -0.5860 -0.1715
  300TMC3    C8 4526   4.174   4.234  10.236 -0.2362  0.0835  0.4190
  300TMC3    O1 4527   3.990   3.693  10.369 -1.1584 -0.2483 -0.2279
  300TMC3    O2 4528   4.284   4.286  10.245  0.1783  0.1010  0.2294
  301MPD2     C 4529   0.749   0.564   1.047  0.4112 -1.1680  0.5875
  301MPD2    C1 4530   0.622   0.543   1.088 -0.2626  0.8099 -0.0490
  301MPD2    C2 4531   0.579   0.424   1.128 -0.9104 -0.1829  0.1851
  301MPD2    C3 4532   0.674   0.319   1.143  0.3193  0.5560 -0.9173
  301MPD2    C4 4533   0.805   0.352   1.112 -0.0757 -0.2638  0.3303
  301MPD2    C5 4534   0.846   0.471   1.062 -0.5856  0.9082  0.2493
  301MPD2     H 4535   0.474   0.400   1.141 -1.0353 -0.3767 -1.1087
  301MPD2    H1 4536   0.881   0.276   1.122 -0.1755 -0.2800  0.9822
  301MPD2    H2 4537   0.778   0.657   1.000 -0.9042 -0.5187  1.0932
  301MPD2    H3 4538   0.950   0.479   1.033 -0.7431  0.0188 -0.5349
  301MPD2     N 4539   0.641   0.191   1.202  0.9617 -0.6251  0.3902
  301MPD2    H5 4540   0.720   0.131   1.226  0.0296 -2.0936 -0.2730
  301MPD2    N1 4541   0.526   0.642   1.076 -0.3262 -0.1221  1.3111
  301MPD2    H7 4542   0.430   0.611   1.074 -0.2464 -0.3268  0.7893
  302TMC3    C1 4543   0.500   0.017   1.250 -0.2497  0.3019  0.0927
  302TMC3    C2 4544   0.597   4.704   1.349  0.4608  0.0500 -0.1783
  302TMC3    C3 4545   0.563   4.605   1.432  0.2442 -0.1207  0.9244
  302TMC3    C4 4546   0.379   4.683   1.241  0.2363 -0.3392  1.0906
  302TMC3    C5 4547   0.346   4.588   1.337  0.6701  0.1323 -0.1522
  302TMC3    C6 4548   0.434   4.545   1.436 -0.7464  0.0919 -0.0964
  302TMC3     C 4549   0.515   0.136   1.185  0.5144 -0.1057  0.3783
  302TMC3     O 4550   0.422   0.172   1.117  0.0836 -0.6033  0.7142
  302TMC3     H 4551   0.698   0.021   1.351  0.2926  0.4468  0.1560
  302TMC3    H1 4552   0.315   4.708   1.157  0.2661 -1.1429  0.8226
  302TMC3    H2 4553   0.406   4.490   1.525  3.8547 -0.8154  0.7608
  302TMC3    C7 4554   0.210   4.545   1.340  0.2671 -0.7372 -0.1913
  302TMC3    C8 4555   0.660   4.505   1.437 -0.5382  0.4016  0.0880
  302TMC3    O1 4556   0.195   4.457   1.422  0.3361  0.1039  0.3662
  302TMC3    O2 4557   0.774   4.539   1.395  0.7675  0.4186  0.5250
  303MPD2     C 4558   2.380   3.178  10.175  1.7972 -0.0766 -0.0113
  303MPD2    C1 4559   2.246   3.136  10.170 -0.1169  0.5238 -0.4578
  303MPD2    C2 4560   2.189   3.091  10.054  0.3589 -0.4893 -0.2292
  303MPD2    C3 4561   2.245   3.105   9.934  0.1614 -0.0194 -0.2375
  303MPD2    C4 4562   2.369   3.153   9.934  0.2186 -0.2838  0.9027
  303MPD2    C5 4563   2.434   3.189  10.053 -0.1397  0.0551 -0.1854
  303MPD2     H 4564   2.089   3.051  10.060  0.6671 -1.1621  0.5265
  303MPD2    H1 4565   2.432   3.166   9.847 -0.2611  1.5088  0.8213
  303MPD2    H2 4566   2.433   3.209  10.264  0.9321 -0.2684  0.5774
  303MPD2    H3 4567   2.530   3.240  10.060  0.5398 -1.0072 -1.7644
  303MPD2     N 4568   2.194   3.063   9.811  0.3309 -0.9404  0.5787
  303MPD2    H5 4569   2.252   3.068   9.728 -2.1415 -0.4844 -1.1506
  303MPD2    N1 4570   2.186   3.138  10.297 -0.4784  0.2821  0.0459
  303MPD2    H7 4571   2.244   3.152  10.379  0.4382  1.8213 -0.8829
  304TMC3    C1 4572   2.010   3.129  10.451  0.3508 -0.3963  0.0293
  304TMC3    C2 4573   1.882   3.158  10.464 -0.1992 -0.0669 -0.4287
  304TMC3    C3 4574   1.800   3.084  10.549  0.1132  0.3635 -0.3677
  304TMC3    C4 4575   2.065   3.026  10.528  0.3353 -0.0132  0.4796
  304TMC3    C5 4576   1.982   2.950  10.610 -0.2195  0.0006 -0.2454
  304TMC3    C6 4577   1.856   2.991  10.631  0.4012  0.4682 -0.5437
  304TMC3     C 4578   2.050   3.156  10.317 -0.3228  0.2174  0.2607
  304TMC3     O 4579   1.964   3.170  10.230 -0.9051  0.0351  0.2817
  304TMC3     H 4580   1.844   3.249  10.417  0.3721  0.1538 -0.4594
  304TMC3    H1 4581   2.165   2.990  10.510  0.9052  2.8710 -2.0940
  304TMC3    H2 4582   1.793   2.936  10.700 -0.1406  2.4542  0.5270
  304TMC3    C7 4583   1.979   2.809  10.573  0.1784 -0.1224  0.4413
  304TMC3    C8 4584   1.678   3.039  10.484 -0.0785  0.4123 -0.2218
  304TMC3    O1 4585   2.091   2.758  10.551 -0.0407  0.0175  0.1022
  304TMC3    O2 4586   1.626   2.940  10.537  0.3829  0.6689 -0.5606
  305MPD2     C 4587   3.978   1.289  14.274  0.6218 -0.5437  0.4243
  305MPD2    C1 4588   4.107   1.288  14.229  0.2831  0.3602 -0.4432
  305MPD2    C2 4589   4.136   1.258  14.098  0.2795  0.1620  0.2599
  305MPD2    C3 4590   4.035   1.227  14.008 -0.1999  0.3172  0.1738
  305MPD2    C4 4591   3.906   1.220  14.052  0.2765  0.0846 -0.2686
  305MPD2    C5 4592   3.879   1.253  14.185 -0.3536  0.4759 -0.0086
  305MPD2     H 4593   4.239   1.232  14.076  0.6386  0.8184  1.1845
  305MPD2    H1 4594   3.824   1.189  13.987 -1.4931  1.4115  1.3327
  305MPD2    H2 4595   3.953   1.311  14.378  1.1249  1.9450  0.0191
  305MPD2    H3 4596   3.777   1.230  14.215 -1.1035  1.0865 -2.1441
  305MPD2     N 4597   4.067   1.186  13.880  0.0826  0.0599  0.4120
  305MPD2    H5 4598   3.988   1.154  13.824  0.3365 -1.0987  0.7291
  305MPD2    N1 4599   4.211   1.307  14.323 -0.0818  0.0567  0.0690
  305MPD2    H7 4600   4.175   1.310  14.418  1.2038 -1.0792  0.6052
  306TMC3    C1 4601   4.426   1.240  14.406  0.0753 -0.5333  0.2552
  306TMC3    C2 4602   4.521   1.155  14.368  0.1883 -0.4889  0.2778
  306TMC3    C3 4603   4.624   1.132  14.451 -0.2785  0.2537  0.3667
  306TMC3    C4 4604   4.433   1.322  14.515  0.5037  0.4462 -0.1760
  306TMC3    C5 4605   4.547   1.309  14.591  0.5318  0.5171  0.6813
  306TMC3    C6 4606   4.642   1.210  14.561  0.9813 -0.4034 -0.7825
  306TMC3     C 4607   4.340   1.276  14.292 -0.7560 -0.3951  0.4360
  306TMC3     O 4608   4.404   1.308  14.192 -0.0026 -0.1520  0.3509
  306TMC3     H 4609   4.502   1.110  14.271  0.9045  0.1696 -0.1705
  306TMC3    H1 4610   4.352   1.392  14.530  1.2237  1.2413 -0.0263
  306TMC3    H2 4611   0.007   1.195  14.621  1.5122  1.4321 -1.1295
  306TMC3    C7 4612   4.567   1.371  14.721  0.1749  0.3385  1.1176
  306TMC3    C8 4613   4.713   1.031  14.414 -0.7293  0.1109 -0.8981
  306TMC3    O1 4614   4.654   1.335  14.796  0.3042 -0.1068  0.3614
  306TMC3    O2 4615   0.108   1.052  14.422 -0.3883  0.3326 -0.1496
  307MPD2     C 4616   1.890   3.076   0.117 -0.2878 -0.1380  0.3731
  307MPD2    C1 4617   1.856   3.207   0.151  0.9259 -0.5388  0.1315
  307MPD2    C2 4618   1.795   3.229   0.276 -0.5155  0.2446 -1.0893
  307MPD2    C3 4619   1.770   3.123   0.365  0.4068 -0.2204 -0.6470
  307MPD2    C4 4620   1.792   2.991   0.323  0.3260 -0.3660  0.1805
  307MPD2    C5 4621   1.853   2.977   0.202  0.8358 -0.3296 -0.3571
  307MPD2     H 4622   1.783   3.331   0.309 -1.7812  0.0772 -1.0546
  307MPD2    H1 4623   1.769   2.902   0.381 -0.4752 -0.8575 -0.8992
  307MPD2    H2 4624   1.957   3.053   0.035 -1.0021  0.7109 -0.4397
  307MPD2    H3 4625   1.872   2.874   0.172 -1.6953 -0.9629  0.2576
  307MPD2     N 4626   1.718   3.163   0.491  0.1116  0.0875  0.3255
  307MPD2    H5 4627   1.695   3.261   0.502 -2.2583 -0.4814  0.4663
  307MPD2    N1 4628   1.873   3.326   0.075 -1.0299  0.2982  0.4791
  307MPD2    H7 4629   1.844   3.415   0.114 -0.6133  0.6227  0.0476
  308TMC3    C1 4630   1.362   3.120   0.797  0.1235 -0.5478 -0.0690
  308TMC3    C2 4631   1.380   3.232   0.871  0.1942  0.2053 -0.4818
  308TMC3    C3 4632   1.503   3.287   0.854  0.4376 -0.1525 -0.5895
  308TMC3    C4 4633   1.452   3.066   0.709  0.3954 -0.5102  0.3054
  308TMC3    C5 4634   1.570   3.132   0.688 -0.0038 -0.6299 -0.1038
  308TMC3    C6 4635   1.594   3.244   0.756 -0.4871  0.8299  0.2455
  308TMC3     C 4636   1.241   3.047   0.796 -0.3409  0.3180 -0.6542
  308TMC3     O 4637   1.244   2.931   0.764  0.5916 -0.0431 -0.3794
  308TMC3     H 4638   1.310   3.268   0.945 -0.1231 -0.6248 -0.3838
  308TMC3    H1 4639   1.437   2.974   0.655 -0.5212 -0.3235  0.2404
  308TMC3    H2 4640   1.692   3.285   0.735  0.0555 -0.6403 -0.0771
  308TMC3    C7 4641   1.672   3.078   0.593 -0.7788 -0.1180 -0.3325
  308TMC3    C8 4642   1.498   3.432   0.867  0.4042 -0.0230 -0.5728
  308TMC3    O1 4643   1.686   2.955   0.603 -0.4340  0.2392 -0.2504
  308TMC3    O2 4644   1.386   3.483   0.865  0.1085  0.3210 -0.5574
  309MPD2     C 4645   0.965   4.100  17.185  0.7663 -0.8995  0.7616
  309MPD2    C1 4646   0.883   3.996  17.150  0.5775  0.0084 -0.0903
  309MPD2    C2 4647   0.760   3.971  17.210 -0.0788 -0.0644  0.4538
  309MPD2    C3 4648   0.707   4.062  17.302  0.1463  0.0110 -0.0800
  309MPD2    C4 4649   0.797   4.166  17.343 -0.3139  0.5719  0.8792
  309MPD2    C5 4650   0.918   4.191  17.277  0.2205 -0.4948 -0.3410
  309MPD2     H 4651   0.696   3.885  17.190  0.4131 -0.2753 -0.2367
  309MPD2    H1 4652   0.767   4.236  17.420 -0.0239  0.8002  0.7823
  309MPD2    H2 4653   1.063   4.123  17.146 -0.6040  3.1610 -0.3091
  309MPD2    H3 4654   0.986   4.270  17.307  0.3622 -0.6020 -0.3823
  309MPD2     N 4655   0.585   4.046  17.369  0.3725  1.1814 -0.3294
  309MPD2    H5 4656   0.577   4.114  17.444 -0.0957  0.6076  0.1397
  309MPD2    N1 4657   0.923   3.898  17.047  0.5227 -0.2504 -0.1084
  309MPD2    H7 4658   0.869   3.813  17.053  0.0419  0.1082  0.6917
  310TMC3    C1 4659   1.018   3.809  16.852 -0.1738 -0.1523 -0.2366
  310TMC3    C2 4660   1.008   3.874  16.737 -0.0180 -0.0349  0.6147
  310TMC3    C3 4661   1.095   3.826  16.640  0.7474  0.1631  0.1243
  310TMC3    C4 4662   1.099   3.699  16.873  0.0421 -0.2732  0.4611
  310TMC3    C5 4663   1.190   3.674  16.777 -0.7172 -0.0736 -0.4097
  310TMC3    C6 4664   1.188   3.735  16.654 -0.2535 -0.3291  0.5682
  310TMC3     C 4665   1.028   3.906  16.959 -0.9124 -0.1213  0.4666
  310TMC3     O 4666   1.116   3.995  16.946 -0.1772 -0.0496 -0.4596
  310TMC3     H 4667   0.948   3.964  16.730  1.7864  1.3008  2.1629
  310TMC3    H1 4668   1.131   3.665  16.971  1.0115 -0.5575  0.0474
  310TMC3    H2 4669   1.257   3.713  16.574 -0.5388 -0.5756  0.3925
  310TMC3    C7 4670   1.297   3.574  16.811  0.4599  0.1658 -0.3769
  310TMC3    C8 4671   1.092   3.877  16.504 -0.5432 -0.4384  0.2706
  310TMC3    O1 4672   1.250   3.483  16.873 -0.3038  0.0362  0.4765
  310TMC3    O2 4673   1.131   3.802  16.413 -0.3489  0.0755 -0.4315
  311MPD2     C 4674   3.649   0.659  12.812 -0.4965  0.1477  0.2767
  311MPD2    C1 4675   3.620   0.787  12.839 -0.2390 -0.5931  0.0313
  311MPD2    C2 4676   3.488   0.811  12.873 -0.1259  0.3807 -0.1775
  311MPD2    C3 4677   3.394   0.718  12.876  0.8734  0.2452  0.2316
  311MPD2    C4 4678   3.424   0.589  12.843  0.0407 -0.1185 -0.8337
  311MPD2    C5 4679   3.555   0.560  12.819  0.0643 -0.4500 -0.0195
  311MPD2     H 4680   3.461   0.913  12.899 -2.0246 -0.5158  1.3281
  311MPD2    H1 4681   3.348   0.512  12.835  0.8698 -0.9974 -0.2603
  311MPD2    H2 4682   3.747   0.633  12.776 -0.2560  0.4762  0.6823
  311MPD2    H3 4683   3.582   0.455  12.809  0.8444 -0.4505  1.9740
  311MPD2     N 4684   3.264   0.752  12.914 -0.0398  0.4453  0.1119
  311MPD2    H5 4685   3.248   0.850  12.937  0.1385  0.1126  1.6341
  311MPD2    N1 4686   3.717   0.889  12.836 -0.3660  0.3263  0.2570
  311MPD2    H7 4687   3.683   0.983  12.856 -0.5084  0.5049 -0.8429
  312TMC3    C1 4688   3.036   0.731  12.963 -0.1580  0.1038  0.2712
  312TMC3    C2 4689   2.908   0.688  12.931  0.2164 -0.4762  0.2619
  312TMC3    C3 4690   2.798   0.730  12.999 -0.3749  0.0676 -1.2708
  312TMC3    C4 4691   3.037   0.833  13.065  0.1279  0.3513  0.2950
  312TMC3    C5 4692   2.922   0.881  13.128  0.0677 -0.7723 -0.4127
  312TMC3    C6 4693   2.794   0.825  13.094 -0.0243 -0.7355 -0.9299
  312TMC3     C 4694   3.152   0.675  12.903 -0.0152 -0.2430 -0.1826
  312TMC3     O 4695   3.133   0.570  12.846  0.1697 -0.3437  0.4457
  312TMC3     H 4696   2.895   0.614  12.853 -0.2013 -1.1713  0.9897
  312TMC3    H1 4697   3.125   0.889  13.094  1.1470 -0.3524 -1.4588
  312TMC3    H2 4698   2.705   0.858  13.146  0.2102 -3.2204  1.0743
  312TMC3    C7 4699   2.936   0.967  13.249  0.7055  0.0727  0.3799
  312TMC3    C8 4700   2.683   0.645  12.989  0.1345 -0.2780 -0.2635
  312TMC3    O1 4701   3.040   1.027  13.258  0.4746  0.9611 -0.1780
  312TMC3    O2 4702   2.691   0.542  12.924  0.5607 -0.4140 -0.1029
  313MPD2     C 4703   3.618   4.333  10.486 -0.0893 -0.9307  0.1280
  313MPD2    C1 4704   3.478   4.333  10.500  0.4270  0.3085  0.1308
  313MPD2    C2 4705   3.403   4.249  10.414 -0.1494 -0.7002  0.0958
  313MPD2    C3 4706   3.469   4.161  10.321 -0.2947  0.0724 -0.1291
  313MPD2    C4 4707   3.609   4.168  10.318  0.6312  0.2858 -0.0330
  313MPD2    C5 4708   3.679   4.257  10.394 -0.4268  0.3258  0.1802
  313MPD2     H 4709   3.296   4.258  10.425  0.2001  0.3647  2.4972
  313MPD2    H1 4710   3.656   4.112  10.237  1.4850 -1.0176  1.3574
  313MPD2    H2 4711   3.681   4.394  10.549 -0.7059  1.4808 -1.6117
  313MPD2    H3 4712   3.786   4.260  10.384 -0.4002  2.7514  1.3702
  313MPD2     N 4713   3.380   4.096  10.231 -0.7575 -0.3571  0.4081
  313MPD2    H5 4714   3.282   4.103  10.256 -0.7009 -1.2824  0.8949
  313MPD2    N1 4715   3.410   4.430  10.576  0.0061 -0.0337 -0.0455
  313MPD2    H7 4716   3.308   4.422  10.577 -0.0971  1.5538  2.6442
  314TMC3    C1 4717   3.376   4.611  10.732  0.5044 -0.2010 -0.5224
  314TMC3    C2 4718   3.437   4.693  10.823 -0.1715  0.1001 -0.5302
  314TMC3    C3 4719   3.369   0.089  10.839  0.2706  0.8244  0.2534
  314TMC3    C4 4720   3.253   4.636  10.673  0.4583  0.8943  0.2645
  314TMC3    C5 4721   3.195   0.034  10.694 -1.0017 -0.2547  0.5630
  314TMC3    C6 4722   3.260   0.130  10.763  0.1432 -0.2062 -0.5378
  314TMC3     C 4723   3.468   4.514  10.671 -0.2823  0.5053 -0.6269
  314TMC3     O 4724   3.581   4.515  10.714  0.3601 -0.3153  0.6033
  314TMC3     H 4725   3.532   4.671  10.870 -1.0297  0.3029  1.2873
  314TMC3    H1 4726   3.209   4.574  10.595  1.3306 -0.4215  0.8187
  314TMC3    H2 4727   3.225   0.233  10.765  3.0794  0.7711 -0.1578
  314TMC3    C7 4728   3.121   0.080  10.580  0.0937 -0.1138 -0.0329
  314TMC3    C8 4729   3.439   0.197  10.913  0.5080 -0.2066 -0.1845
  314TMC3    O1 4730   3.014   0.026  10.561  0.3127  0.0451  0.2680
  314TMC3    O2 4731   3.388   0.311  10.906  0.0234  0.5998  0.1821
  315MPD2     C 4732   2.031   3.881   0.126  0.0434 -0.2211  0.0354
  315MPD2    C1 4733   2.143   3.868   0.209  0.5735  0.2083  0.7334
  315MPD2    C2 4734   2.232   3.971   0.234 -0.0548  0.3056 -0.0637
  315MPD2    C3 4735   2.208   4.098   0.179  0.0877  0.4318  0.7069
  315MPD2    C4 4736   2.094   4.113   0.103  0.1231  0.7038  0.0869
  315MPD2    C5 4737   2.004   4.012   0.084 -0.0893  0.1676 -0.5427
  315MPD2     H 4738   2.325   3.942   0.281 -0.5685 -1.4440 -0.0995
  315MPD2    H1 4739   2.075   4.204   0.047  0.8221  1.2170  0.6803
  315MPD2    H2 4740   1.964   3.799   0.100  1.8042 -0.7749 -2.7208
  315MPD2    H3 4741   1.925   4.034   0.013  0.0363  1.6420 -0.2338
  315MPD2     N 4742   2.291   4.203   0.209 -0.5827 -0.6722 -1.0322
  315MPD2    H5 4743   2.367   4.181   0.273 -0.2186 -1.5672 -1.7814
  315MPD2    N1 4744   2.191   3.739   0.248  0.5026 -0.0191 -0.4490
  315MPD2    H7 4745   2.254   3.733   0.328  1.2073  0.7395 -0.9488
  316TMC3    C1 4746   2.411   4.410   0.200  0.3364  0.0163 -0.0194
  316TMC3    C2 4747   2.530   4.343   0.233  0.0655 -1.3008 -0.0806
  316TMC3    C3 4748   2.648   4.392   0.218  0.1993  0.0717  0.3728
  316TMC3    C4 4749   2.420   4.531   0.136  0.1661  0.6328  0.6917
  316TMC3    C5 4750   2.550   4.590   0.134  0.1600  0.0920  0.4073
  316TMC3    C6 4751   2.661   4.520   0.171  0.4095  0.6848 -0.0557
  316TMC3     C 4752   2.288   4.334   0.173  0.0151  0.2434  0.5395
  316TMC3     O 4753   2.198   4.384   0.103  0.3440  0.1009 -0.5934
  316TMC3     H 4754   2.519   4.249   0.285 -2.5387 -1.1445 -0.3061
  316TMC3    H1 4755   2.328   4.580   0.105  0.6300  1.3933  0.5307
  316TMC3    H2 4756   2.756   4.570   0.158 -0.9478  3.1529 -0.3427
  316TMC3    C7 4757   2.562   0.006   0.127 -0.4602  0.0939 -0.6115
  316TMC3    C8 4758   2.759   4.302   0.251 -0.2512  0.5588 -0.0663
  316TMC3    O1 4759   2.655   0.056   0.187 -0.8507  0.0752 -0.1706
  316TMC3    O2 4760   2.743   4.183   0.271 -0.2829 -0.2031 -0.5578
  317MPD2     C 4761   4.659   2.508  12.691 -0.3367  0.1374  0.4104
  317MPD2    C1 4762   0.024   2.443  12.621  0.3398  0.1289 -0.2544
  317MPD2    C2 4763   0.138   2.390  12.691 -0.8512 -0.1559  0.1010
  317MPD2    C3 4764   0.161   2.414  12.824  0.6959 -0.2819 -0.1576
  317MPD2    C4 4765   0.067   2.494  12.888 -0.0962 -0.4156 -0.7878
  317MPD2    C5 4766   4.684   2.544  12.820  0.4704  0.9898  0.5733
  317MPD2     H 4767   0.206   2.323  12.639 -0.2272  0.9021 -0.4400
  317MPD2    H1 4768   0.082   2.543  12.984 -0.4706  1.1941 -1.5520
  317MPD2    H2 4769   4.575   2.559  12.645  0.0937 -0.3043 -0.8812
  317MPD2    H3 4770   4.610   2.611  12.862 -1.6212  0.3723 -2.1159
  317MPD2     N 4771   0.274   2.365  12.883 -0.0176  0.4215 -0.5465
  317MPD2    H5 4772   0.341   2.310  12.830  0.7873 -0.7936  1.6864
  317MPD2    N1 4773   0.024   2.440  12.483 -0.1457 -0.4690 -0.2489
  317MPD2    H7 4774   0.093   2.383  12.437  0.8624 -1.1478  2.1022
  318TMC3    C1 4775   0.412   2.297  13.067  0.1603 -0.0303 -0.0808
  318TMC3    C2 4776   0.403   2.255  13.198 -0.5967 -0.3839 -0.5432
  318TMC3    C3 4777   0.477   2.148  13.235 -0.3548  0.2616 -0.1661
  318TMC3    C4 4778   0.511   2.247  12.983  0.3664  1.3530 -0.1550
  318TMC3    C5 4779   0.597   2.152  13.029 -0.3495  0.5110 -0.7749
  318TMC3    C6 4780   0.570   2.094  13.147 -1.1196 -0.3892  0.2953
  318TMC3     C 4781   0.291   2.361  13.020  0.2715  0.2460  0.1331
  318TMC3     O 4782   0.218   2.400  13.108  0.3742 -0.2867 -0.6632
  318TMC3     H 4783   0.341   2.304  13.272 -1.7999 -0.6420 -1.3865
  318TMC3    H1 4784   0.529   2.289  12.884  0.1383 -0.6533 -1.0528
  318TMC3    H2 4785   0.617   2.006  13.188  3.1372  1.3477 -0.9267
  318TMC3    C7 4786   0.728   2.147  12.977  0.0403 -0.3204  0.5242
  318TMC3    C8 4787   0.404   2.051  13.309  0.0888  0.0324  0.4644
  318TMC3    O1 4788   0.759   2.218  12.883 -0.0656 -0.1059 -0.0569
  318TMC3    O2 4789   0.452   1.937  13.317 -0.7600 -0.2436  0.0732
  319MPD2     C 4790   0.624   3.678  16.923  0.4070  0.1132 -0.5243
  319MPD2    C1 4791   0.534   3.591  16.993 -0.3727  0.0404  0.3913
  319MPD2    C2 4792   0.434   3.529  16.925  0.3968  0.3876  0.5282
  319MPD2    C3 4793   0.417   3.554  16.793  0.2742 -0.3941  0.5958
  319MPD2    C4 4794   0.510   3.633  16.725  0.3298  0.4554  0.2586
  319MPD2    C5 4795   0.609   3.701  16.786 -1.0026 -0.2476  0.1666
  319MPD2     H 4796   0.376   3.456  16.982  1.4270 -1.1411 -0.3769
  319MPD2    H1 4797   0.496   3.639  16.618  1.4031  1.2365  0.1571
  319MPD2    H2 4798   0.701   3.727  16.982  0.5926 -0.6178 -0.1500
  319MPD2    H3 4799   0.663   3.775  16.728 -2.7590 -0.0406 -1.1821
  319MPD2     N 4800   0.319   3.485  16.717 -0.4747 -0.0801 -1.2344
  319MPD2    H5 4801   0.317   3.503  16.617  1.0145 -2.7496 -1.7283
  319MPD2    N1 4802   0.542   3.563  17.130  0.7523 -0.6179 -0.1034
  319MPD2    H7 4803   0.466   3.515  17.177  0.0612 -0.8663 -1.4841
  320TMC3    C1 4804   0.138   3.352  16.651 -0.8642  0.6914  0.7917
  320TMC3    C2 4805   0.105   3.447  16.557  0.1827 -0.3196  0.0487
  320TMC3    C3 4806   0.050   3.402  16.446 -0.8215  0.0686 -0.1267
  320TMC3    C4 4807   0.110   3.217  16.635  0.0885 -0.1559 -0.3518
  320TMC3    C5 4808   0.044   3.183  16.521 -0.2577  0.4481 -0.3823
  320TMC3    C6 4809   0.015   3.273  16.424  0.1849 -0.5004  0.1513
  320TMC3     C 4810   0.227   3.389  16.756 -0.9879  0.6408  0.0325
  320TMC3     O 4811   0.242   3.316  16.857  0.0494  0.0706  0.4796
  320TMC3     H 4812   0.116   3.553  16.574  0.8945  0.0606 -2.6855
  320TMC3    H1 4813   0.135   3.159  16.723 -1.0701 -3.1179 -1.9711
  320TMC3    H2 4814   4.686   3.233  16.338  1.3574 -0.5497 -0.5574
  320TMC3    C7 4815   0.035   3.040  16.482  0.5538  0.7906  0.8539
  320TMC3    C8 4816   0.007   3.499  16.346  0.3647  0.6451  0.4640
  320TMC3    O1 4817   0.024   3.014  16.365 -0.1582  0.0925  0.4205
  320TMC3    O2 4818   4.723   3.616  16.383 -0.8326 -0.1919 -0.2072
  321TMC3    C1 4819   0.636   3.551  17.354  0.3018  0.2628 -0.0203
  321TMC3    C2 4820   0.517   3.515  17.403 -0.3574  0.7134  0.1888
  321TMC3    C3 4821   0.515   3.492  17.536  0.6310 -0.4617 -0.2141
  321TMC3    C4 4822   0.750   3.574  17.427 -0.2236 -0.2409 -0.6031
  321TMC3    C5 4823   0.739   3.552  17.563  0.4536  0.1315 -0.2847
  321TMC3    C6 4824   0.619   3.522  17.617 -1.0860 -0.4015 -0.4491
  321TMC3     C 4825   0.651   3.592  17.208 -0.1252  0.3689  0.1369
  321TMC3     O 4826   0.761   3.630  17.171  0.5469  0.1266 -0.4805
  321TMC3     H 4827   0.433   3.498  17.336  1.3958 -0.7960 -1.6026
  321TMC3    H1 4828   0.844   3.597  17.379 -0.2506  1.0533 -0.0006
  321TMC3    H2 4829   0.603   3.516   0.025  0.8926  1.0703 -0.0712
  321TMC3    C7 4830   0.854   3.481  17.620  0.3368  0.7616 -0.1248
  321TMC3    C8 4831   0.454   3.364  17.582  0.1667 -0.1166 -0.8042
  321TMC3    O1 4832   0.964   3.511  17.574  0.3708 -0.0901 -0.5917
  321TMC3    O2 4833   0.534   3.305  17.654  0.3512  0.4185  0.2065
  322MPD2     C 4834   4.155   0.114  13.281  0.5129  0.0706 -0.2956
  322MPD2    C1 4835   4.137   0.065  13.406  0.2105 -0.3346  0.6354
  322MPD2    C2 4836   4.144   4.651  13.420  0.5722  0.0875 -0.2893
  322MPD2    C3 4837   4.192   4.565  13.321 -0.2917  0.0993  0.2674
  322MPD2    C4 4838   4.220   4.623  13.199 -0.5607  0.3389  0.5933
  322MPD2    C5 4839   4.194   0.033  13.186  0.3745  0.2765  0.4097
  322MPD2     H 4840   4.126   4.608  13.518  0.9282 -0.5035 -0.4772
  322MPD2    H1 4841   4.252   4.559  13.117 -0.9256 -1.1081  1.5775
  322MPD2    H2 4842   4.144   0.214  13.241  1.5118 -0.4855 -1.9577
  322MPD2    H3 4843   4.209   0.080  13.090 -0.3192 -1.1032 -0.3765
  322MPD2     N 4844   4.204   4.433  13.351  0.7151  0.0051 -0.1279
  322MPD2    H5 4845   4.204   4.423  13.452 -0.2835 -1.3403 -0.2586
  322MPD2    N1 4846   4.118   0.154  13.512 -0.0574 -0.2752  0.0481
  322MPD2    H7 4847   4.146   0.249  13.492  2.2391 -1.4090 -2.1831
  323TMC3    C1 4848   4.132   0.202  13.751  0.2308  0.4391 -0.2814
  323TMC3    C2 4849   4.196   0.319  13.717 -0.0421 -0.2160  0.7039
  323TMC3    C3 4850   4.238   0.397  13.823 -0.1892  0.2358 -0.6601
  323TMC3    C4 4851   4.116   0.164  13.884  0.1205  0.1234  0.6263
  323TMC3    C5 4852   4.148   0.245  13.985 -0.2954  0.6252  0.5189
  323TMC3    C6 4853   4.216   0.363  13.956  0.0404 -0.0046  0.1727
  323TMC3     C 4854   4.095   0.111  13.642  0.5211  0.1682 -0.3025
  323TMC3     O 4855   4.047   0.005  13.685  0.7054 -0.0409  0.1654
  323TMC3     H 4856   4.231   0.351  13.619 -0.0610  2.1247  1.4501
  323TMC3    H1 4857   4.084   0.062  13.902 -0.0601  0.2677  1.1367
  323TMC3    H2 4858   4.248   0.430  14.035  2.8673 -1.6613  0.4276
  323TMC3    C7 4859   4.158   0.181  14.118  0.1400 -0.5493 -0.0534
  323TMC3    C8 4860   4.292   0.529  13.788 -0.5414  0.5914 -0.2277
  323TMC3    O1 4861   4.141   0.061  14.119  0.5377  0.2937  0.5201
  323TMC3    O2 4862   4.412   0.523  13.759 -0.4003  0.5196 -0.0362
  324MPD2     C 4863   1.637   1.993  14.442  0.1508 -0.6393 -0.4399
  324MPD2    C1 4864   1.653   1.931  14.319 -0.5104  0.4863 -0.1151
  324MPD2    C2 4865   1.555   1.960  14.229 -0.3611 -1.0392  0.3051
  324MPD2    C3 4866   1.461   2.054  14.254  0.1898 -0.7497 -0.2842
  324MPD2    C4 4867   1.447   2.117  14.377 -0.8164  0.0457 -0.3594
  324MPD2    C5 4868   1.533   2.075  14.473  0.5368 -0.5801 -1.0814
  324MPD2     H 4869   1.551   1.905  14.135 -0.4060  0.9495 -0.8522
  324MPD2    H1 4870   1.367   2.188  14.394 -1.0166  0.1801 -1.8342
  324MPD2    H2 4871   1.700   1.973  14.528  0.6670 -0.2269 -0.7137
  324MPD2    H3 4872   1.531   2.117  14.573 -0.0617 -0.7208 -1.0360
  324MPD2     N 4873   1.358   2.090  14.164 -0.2621 -0.0209  0.1345
  324MPD2    H5 4874   1.293   2.157  14.203  0.4011 -1.0023  2.8894
  324MPD2    N1 4875   1.745   1.828  14.300  0.8247  0.7220  0.0051
  324MPD2    H7 4876   1.730   1.776  14.214 -3.7034  0.2903  1.0951
  325TMC3    C1 4877   1.213   2.097  13.977  0.0105  1.0510 -0.2010
  325TMC3    C2 4878   1.125   2.004  13.936 -0.1082 -0.0410 -0.5823
  325TMC3    C3 4879   0.988   2.013  13.965  0.8951  0.0448  0.0906
  325TMC3    C4 4880   1.170   2.203  14.055 -0.1132  0.1143 -0.5266
  325TMC3    C5 4881   1.038   2.198  14.098  0.2537 -0.4750  0.0051
  325TMC3    C6 4882   0.945   2.106  14.051  0.8596 -0.3271  0.1125
  325TMC3     C 4883   1.339   2.054  14.031  0.1343 -0.5135  0.2061
  325TMC3     O 4884   1.412   1.983  13.960 -0.0208 -0.3121  0.7356
  325TMC3     H 4885   1.165   1.923  13.877  0.0943  0.0345 -0.5516
  325TMC3    H1 4886   1.242   2.275  14.093 -0.4015 -0.9449  2.0772
  325TMC3    H2 4887   0.841   2.107  14.082  0.7598 -0.0771 -0.2386
  325TMC3    C7 4888   1.021   2.229  14.237  0.5354  0.5047  0.3533
  325TMC3    C8 4889   0.900   1.908  13.917 -0.2046  0.5623 -0.1253
  325TMC3    O1 4890   1.129   2.224  14.295  0.9972 -0.2691  0.2391
  325TMC3    O2 4891   0.795   1.894  13.978  0.7784 -0.2214 -0.0027
  326MPD2     C 4892   2.721   2.267  10.934 -0.2366  0.1389 -0.0186
  326MPD2    C1 4893   2.766   2.287  10.803  0.1774  0.4279  0.2436
  326MPD2    C2 4894   2.856   2.394  10.780  0.2057  0.4931  0.2872
  326MPD2    C3 4895   2.889   2.491  10.876 -0.3179  0.0699  0.3486
  326MPD2    C4 4896   2.836   2.463  11.004 -0.4410 -0.5101 -0.0296
  326MPD2    C5 4897   2.753   2.359  11.029  0.6875  0.5657 -0.3084
  326MPD2     H 4898   2.895   2.402  10.679  1.0706 -1.5416  0.4683
  326MPD2    H1 4899   2.851   2.526  11.090  2.0090  2.1030 -2.3920
  326MPD2    H2 4900   2.647   2.189  10.948 -1.2032  0.9630 -0.4795
  326MPD2    H3 4901   2.703   2.358  11.125  0.5963  0.2733 -0.3574
  326MPD2     N 4902   2.966   2.609  10.858 -0.0490 -0.1518 -0.4986
  326MPD2    H5 4903   3.004   2.660  10.937 -0.6677 -0.3219 -0.0902
  326MPD2    N1 4904   2.726   2.213  10.689 -0.5547 -0.8138 -0.3015
  326MPD2    H7 4905   2.754   2.249  10.598  1.0669  1.0769  0.9468
  327TMC3    C1 4906   2.619   2.067  10.553 -0.6028 -1.1540  0.1184
  327TMC3    C2 4907   2.551   2.142  10.454  0.2369 -0.3971  0.5273
  327TMC3    C3 4908   2.585   2.127  10.321  0.0004 -0.5766 -0.5760
  327TMC3    C4 4909   2.734   2.008  10.517 -0.2714 -0.2832 -0.3649
  327TMC3    C5 4910   2.777   2.009  10.385  0.1039  0.0832  0.2557
  327TMC3    C6 4911   2.695   2.058  10.283 -0.2408  0.0500 -0.4484
  327TMC3     C 4912   2.623   2.125  10.689  0.4648 -0.6864 -0.3783
  327TMC3     O 4913   2.560   2.070  10.775  0.2102  0.5547 -0.1607
  327TMC3     H 4914   2.484   2.220  10.489  0.3858  0.2365 -0.5772
  327TMC3    H1 4915   2.788   1.964  10.600 -2.6960 -1.6253  0.4941
  327TMC3    H2 4916   2.723   2.044  10.180  3.4957  0.1607  0.5498
  327TMC3    C7 4917   2.918   2.064  10.373 -0.3317  0.5739  0.5922
  327TMC3    C8 4918   2.553   2.243  10.238  0.3462 -0.5480 -0.2051
  327TMC3    O1 4919   2.938   2.141  10.279  0.5620  0.5553 -0.1354
  327TMC3    O2 4920   2.640   2.277  10.156 -0.5269  0.2663  0.8642
  328MPD2     C 4921   0.214   1.867  17.685  0.7597 -0.2503 -0.1717
  328MPD2    C1 4922   0.111   1.823  17.610 -0.0484 -0.0256  0.3849
  328MPD2    C2 4923   0.086   1.887  17.491 -0.3480  0.7883  0.2269
  328MPD2    C3 4924   0.148   2.009  17.464  0.3733 -0.6047  0.3822
  328MPD2    C4 4925   0.256   2.047  17.538 -0.7579 -0.1576  0.6381
  328MPD2    C5 4926   0.277   1.984  17.656  0.5762 -0.5248 -0.6480
  328MPD2     H 4927   0.010   1.852  17.422  0.0853 -1.0959  0.6973
  328MPD2    H1 4928   0.291   2.149  17.537 -0.0394 -0.4101 -0.0944
  328MPD2    H2 4929   0.242   1.829   0.083 -0.4461  0.1594  0.3279
  328MPD2    H3 4930   0.343   2.026   0.032 -1.4915  1.6336 -0.0676
  328MPD2     N 4931   0.112   2.088  17.363  0.1044 -0.0645 -0.4355
  328MPD2    H5 4932   0.157   2.179  17.353 -1.9223  1.2958  2.8333
  328MPD2    N1 4933   0.031   1.711  17.656 -1.0283 -0.3635 -0.1018
  328MPD2    H7 4934   0.057   1.686   0.052 -1.3647  0.5836  0.2399
  329TMC3    C1 4935   4.602   1.534  17.652  0.1721 -0.2423 -0.4265
  329TMC3    C2 4936   4.486   1.488  17.592 -0.3846 -0.0655 -0.2891
  329TMC3    C3 4937   4.402   1.414  17.674  0.5033  0.0404  0.4801
  329TMC3    C4 4938   4.635   1.503   0.083 -0.5673  0.8519  0.5017
  329TMC3    C5 4939   4.550   1.419   0.150  0.3601  0.2328 -0.2518
  329TMC3    C6 4940   4.429   1.383   0.104  0.3938  0.1552 -0.3934
  329TMC3     C 4941   4.659   1.640  17.582 -0.0601  0.1491  0.1247
  329TMC3     O 4942   4.627   1.664  17.467  0.5183 -0.5263  0.2491
  329TMC3     H 4943   4.467   1.517  17.489  2.2368  1.6576 -0.2988
  329TMC3    H1 4944   0.010   1.527   0.117  0.0272  0.9318 -1.2979
  329TMC3    H2 4945   4.362   1.324   0.166  1.5018 -1.1553 -0.4369
  329TMC3    C7 4946   4.585   1.366   0.276  0.1746 -0.5971  0.5180
  329TMC3    C8 4947   4.269   1.441  17.639  0.1576  0.2675 -0.0048
  329TMC3    O1 4948   4.639   1.441   0.353  0.6956 -0.6057  0.2756
  329TMC3    O2 4949   4.188   1.352  17.639 -0.2190  0.0070  0.7967
  330TMC3    C1 4950   3.292   0.862   9.980  0.9257 -0.1208 -0.5572
  330TMC3    C2 4951   3.240   0.807   9.867  0.2178  0.1854  0.4343
  330TMC3    C3 4952   3.194   0.678   9.868  0.1269 -0.0230  0.5293
  330TMC3    C4 4953   3.311   0.796  10.095 -0.8780 -0.3253  0.5229
  330TMC3    C5 4954   3.251   0.679  10.102 -0.1461 -0.1260 -0.2426
  330TMC3    C6 4955   3.185   0.618   9.994 -0.9975 -0.5083  0.0016
  330TMC3     C 4956   3.357   0.991   9.977 -0.3164 -0.5289  0.2617
  330TMC3     O 4957   3.463   1.010  10.036 -0.0571 -0.1097  0.0417
  330TMC3     H 4958   3.261   0.856   9.774  2.1255 -0.4545  0.5345
  330TMC3    H1 4959   3.357   0.851  10.177  1.6304 -0.8768 -0.4981
  330TMC3    H2 4960   3.137   0.522  10.008 -2.4355  0.2285  0.0494
  330TMC3    C7 4961   3.262   0.607  10.229  0.3583  0.3520  0.0675
  330TMC3    C8 4962   3.093   0.639   9.777  1.0179 -0.3322  0.5371
  330TMC3    O1 4963   3.159   0.567  10.277  0.5137 -0.4407  0.0078
  330TMC3    O2 4964   3.049   0.735   9.716  0.4758 -0.4065 -0.2603
  331MPD2     C 4965   0.840   0.751  13.287  0.3609 -0.3879  0.1203
  331MPD2    C1 4966   0.949   0.785  13.215  0.0008  0.2268  0.1492
  331MPD2    C2 4967   1.013   0.695  13.141  0.0890 -0.2250 -0.2797
  331MPD2    C3 4968   0.968   0.561  13.138  0.2624 -0.4761  0.1085
  331MPD2    C4 4969   0.850   0.519  13.211 -0.2171  0.5123 -0.2537
  331MPD2    C5 4970   0.792   0.623  13.283  0.0699  0.0991 -0.5391
  331MPD2     H 4971   1.099   0.723  13.081  0.6361 -0.4025  0.4353
  331MPD2    H1 4972   0.816   0.417  13.216  1.5164 -0.2702 -4.0754
  331MPD2    H2 4973   0.778   0.820  13.343  2.1450  0.7239  0.7069
  331MPD2    H3 4974   0.709   0.589  13.343 -0.3077  3.9087  1.0915
  331MPD2     N 4975   1.041   0.466  13.053  0.1479  0.1649  0.5693
  331MPD2    H5 4976   1.124   0.499  13.004  0.2595 -0.4243  0.3555
  331MPD2    N1 4977   0.975   0.928  13.204 -0.0139 -0.5992  0.3098
  331MPD2    H7 4978   0.919   0.986  13.265  1.5108  0.0637  1.0871
  332TMC3    C1 4979   1.049   0.298  12.894  0.6025  0.0019  0.5906
  332TMC3    C2 4980   1.057   0.399  12.799  0.5672  0.0546 -0.3996
  332TMC3    C3 4981   1.092   0.365  12.676 -0.2830  0.2172 -0.2035
  332TMC3    C4 4982   1.067   0.165  12.862 -0.9878  0.0363  0.7823
  332TMC3    C5 4983   1.123   0.139  12.742 -0.1093 -1.3356 -0.5726
  332TMC3    C6 4984   1.136   0.233  12.648  0.1007 -0.2968 -0.9881
  332TMC3     C 4985   0.994   0.342  13.021  0.5022  0.0074  0.5983
  332TMC3     O 4986   0.928   0.266  13.085 -0.2410  0.2390  0.0251
  332TMC3     H 4987   1.041   0.505  12.818 -0.1996 -0.5625  2.4192
  332TMC3    H1 4988   1.038   0.088  12.933  0.9687 -0.9406  0.4985
  332TMC3    H2 4989   1.186   0.219  12.553  0.6419 -3.2074 -0.2778
  332TMC3    C7 4990   1.199   0.015  12.744  0.9095  0.2456  0.7914
  332TMC3    C8 4991   1.102   0.468  12.574  0.5604  0.3526  0.6085
  332TMC3    O1 4992   1.165   4.650  12.821  0.3577 -0.1075 -0.1627
  332TMC3    O2 4993   1.102   0.585  12.612 -0.1709  0.2570  0.6931
  333MPD2     C 4994   1.268   0.583  11.525  0.0910  0.3004  0.2904
  333MPD2    C1 4995   1.292   0.470  11.448 -0.4353  0.0594  0.4537
  333MPD2    C2 4996   1.255   0.345  11.498 -0.6232 -0.0051 -0.3893
  333MPD2    C3 4997   1.186   0.338  11.619  0.4301 -0.2453  0.2022
  333MPD2    C4 4998   1.157   0.453  11.686  0.3973  0.5494  0.0380
  333MPD2    C5 4999   1.201   0.569  11.645 -0.2696 -0.3520 -0.1747
  333MPD2     H 5000   1.281   0.253  11.448  2.6199  1.4013 -1.2593
  333MPD2    H1 5001   1.103   0.451  11.780 -0.8868 -0.1363 -0.7065
  333MPD2    H2 5002   1.280   0.686  11.494 -0.5759  0.3801  0.3030
  333MPD2    H3 5003   1.203   0.658  11.708 -0.9817 -1.1702  0.9949
  333MPD2     N 5004   1.154   0.210  11.674  0.3745  0.5052 -0.4287
  333MPD2    H5 5005   1.198   0.126  11.639 -0.5037 -0.3109  0.4622
  333MPD2    N1 5006   1.347   0.489  11.319 -0.2261 -0.7308  0.3177
  333MPD2    H7 5007   1.393   0.579  11.310 -1.2172 -0.1977  0.6206
  334TMC3    C1 5008   1.403   0.457  11.091  0.0314  0.0205 -0.5254
  334TMC3    C2 5009   1.512   0.393  11.033 -0.4128 -0.0739 -0.0622
  334TMC3    C3 5010   1.616   0.466  10.988  0.4236 -0.8402  0.1483
  334TMC3    C4 5011   1.384   0.597  11.066  0.4047 -0.3263 -0.5087
  334TMC3    C5 5012   1.479   0.660  10.993 -0.3310 -0.0621 -0.1554
  334TMC3    C6 5013   1.598   0.600  10.957 -0.3917 -0.2282  0.2116
  334TMC3     C 5014   1.358   0.401  11.215  0.6510 -0.0210 -0.1365
  334TMC3     O 5015   1.325   0.283  11.210  0.0085  0.0257  0.2279
  334TMC3     H 5016   1.521   0.290  11.063  0.7585  0.6717  2.0916
  334TMC3    H1 5017   1.309   0.659  11.112  0.0899 -0.2461 -1.1361
  334TMC3    H2 5018   1.665   0.663  10.899  0.1421  0.1602  1.2485
  334TMC3    C7 5019   1.450   0.789  10.945 -0.3435 -0.2787  0.4168
  334TMC3    C8 5020   1.725   0.399  10.930 -0.8848  0.3791  0.8801
  334TMC3    O1 5021   1.547   0.859  10.920  0.0281  0.1171  0.5265
  334TMC3    O2 5022   1.711   0.279  10.906  0.1087 -0.4732 -0.4143
  335TMC3    C1 5023   0.726   2.037   0.043 -0.3872  0.1340 -0.6893
  335TMC3    C2 5024   0.649   2.079  17.637 -0.4062  0.1052  0.2232
  335TMC3    C3 5025   0.715   2.159  17.543  0.2134 -0.3153  0.5072
  335TMC3    C4 5026   0.858   2.061   0.056 -0.3913 -0.6832 -0.7182
  335TMC3    C5 5027   0.912   2.144  17.658  0.5211 -0.9171  0.3383
  335TMC3    C6 5028   0.839   2.204  17.559  0.3828  0.5466  0.3291
  335TMC3     C 5029   0.658   1.955   0.147  0.9232 -0.3419 -0.1383
  335TMC3     O 5030   0.553   1.901   0.110 -1.0121 -0.1915 -0.1019
  335TMC3     H 5031   0.542   2.065  17.632 -0.1503 -1.7551 -0.1093
  335TMC3    H1 5032   0.924   1.994   0.110 -0.7492 -0.3301  0.1500
  335TMC3    H2 5033   0.886   2.261  17.480 -0.0686  0.1015 -0.2571
  335TMC3    C7 5034   1.058   2.148  17.627  0.1005  0.7800  0.4914
  335TMC3    C8 5035   0.662   2.162  17.411 -0.3973  0.0825 -0.2540
  335TMC3    O1 5036   1.101   2.136  17.508 -0.3420 -0.0684 -0.0390
  335TMC3    O2 5037   0.692   2.252  17.334  0.1924 -0.3503  0.1310
  336MPD2     C 5038   0.509   4.571  16.115 -0.2585 -0.1574  0.1433
  336MPD2    C1 5039   0.466   4.497  16.007  0.6976  0.1837  0.4159
  336MPD2    C2 5040   0.457   4.361  16.011 -0.5069  0.4353 -0.6291
  336MPD2    C3 5041   0.492   4.301  16.135 -1.1581 -0.9681 -0.1238
  336MPD2    C4 5042   0.539   4.376  16.234  0.3565 -0.1962 -0.3130
  336MPD2    C5 5043   0.556   4.516  16.230 -0.0801 -0.8112  0.2810
  336MPD2     H 5044   0.413   4.300  15.932  1.7781 -0.2116 -1.3963
  336MPD2    H1 5045   0.579   4.334  16.326 -2.0946 -1.6421  0.0780
  336MPD2    H2 5046   0.516   4.679  16.111 -0.0650 -0.1756 -0.0142
  336MPD2    H3 5047   0.610   4.577  16.301  1.7312 -1.5733 -0.4482
  336MPD2     N 5048   0.489   4.157  16.147  0.0622 -0.3964 -0.0957
  336MPD2    H5 5049   0.509   4.120  16.239 -1.8303  2.5538  1.5001
  336MPD2    N1 5050   0.410   4.557  15.896  0.8904  0.1110  0.2517
  336MPD2    H7 5051   0.403   4.495  15.816  0.5114 -0.4192  0.6900
  337TMC3    C1 5052   0.361   4.713  15.731 -0.2993  0.3068 -0.5377
  337TMC3    C2 5053   0.290   0.101  15.694 -0.1258 -0.4227 -0.0518
  337TMC3    C3 5054   0.267   0.121  15.560  0.8027  0.6309 -0.1320
  337TMC3    C4 5055   0.430   4.630  15.639  1.0032  0.5544  0.2675
  337TMC3    C5 5056   0.421   4.673  15.512 -0.5445 -0.1869  0.3129
  337TMC3    C6 5057   0.343   0.055  15.470  0.5742  0.2247  0.1842
  337TMC3     C 5058   0.366   4.684  15.875  0.6598 -0.4426  0.6518
  337TMC3     O 5059   0.354   0.054  15.950  0.1124 -0.7154  0.3241
  337TMC3     H 5060   0.242   0.171  15.761  1.3091 -0.1812  0.7229
  337TMC3    H1 5061   0.484   4.538  15.658 -4.3306 -1.8639  3.6347
  337TMC3    H2 5062   0.335   0.091  15.368  4.3979  0.3374 -0.0644
  337TMC3    C7 5063   0.462   4.580  15.411 -0.1565 -0.4639 -0.0605
  337TMC3    C8 5064   0.193   0.232  15.521 -0.0384  0.5696 -0.1061
  337TMC3    O1 5065   0.506   4.473  15.448  0.2052 -0.3249  0.0662
  337TMC3    O2 5066   0.191   0.331  15.595 -0.4418 -0.0170 -0.3573
  338MPD2     C 5067   0.587   3.855   1.186  0.1937  0.6153 -0.0525
  338MPD2    C1 5068   0.530   3.866   1.059  0.5238 -0.0753 -0.0202
  338MPD2    C2 5069   0.526   3.987   0.994 -0.0427  0.9100  0.1870
  338MPD2    C3 5070   0.572   4.101   1.058  0.0467 -0.0814 -0.7750
  338MPD2    C4 5071   0.632   4.089   1.182 -0.2487 -0.2939  0.2323
  338MPD2    C5 5072   0.636   3.966   1.247  0.3676 -0.3106  0.2567
  338MPD2     H 5073   0.479   3.989   0.897 -0.8953 -0.2889  0.5759
  338MPD2    H1 5074   0.668   4.178   1.233 -0.7936 -0.3244  0.6618
  338MPD2    H2 5075   0.602   3.761   1.236 -3.2524  1.4141  2.4420
  338MPD2    H3 5076   0.688   3.951   1.341 -0.2597  2.9414  1.1309
  338MPD2     N 5077   0.539   4.224   0.991  0.2379 -0.0797  0.1138
  338MPD2    H5 5078   0.481   4.222   0.908 -2.1706 -2.5017  1.8702
  338MPD2    N1 5079   0.478   3.758   0.980 -0.7895 -0.7939 -0.2355
  338MPD2    H7 5080   0.449   3.765   0.883 -1.9375 -1.0911  0.0909
  339TMC3    C1 5081   0.511   4.439   0.969  0.2423 -0.9175 -0.0203
  339TMC3    C2 5082   0.377   4.438   0.953  0.4255  0.1255  0.3222
  339TMC3    C3 5083   0.319   4.557   0.912  0.4628 -0.8388  0.2315
  339TMC3    C4 5084   0.592   4.545   0.937 -0.7176  0.6158 -0.2490
  339TMC3    C5 5085   0.534   4.655   0.895  0.1870 -0.3175 -0.2633
  339TMC3    C6 5086   0.400   4.665   0.882 -0.1531 -0.1416 -0.3263
  339TMC3     C 5087   0.576   4.342   1.042  0.2274 -0.0357 -0.2280
  339TMC3     O 5088   0.657   4.377   1.125  0.0072  0.4531 -0.2959
  339TMC3     H 5089   0.315   4.354   0.980  2.0830 -0.5425  2.1154
  339TMC3    H1 5090   0.699   4.547   0.957 -0.5236 -0.9255 -1.1884
  339TMC3    H2 5091   0.364   0.039   0.853 -2.6651 -0.3541  2.0573
  339TMC3    C7 5092   0.610   0.050   0.854 -0.8780 -0.6498  0.1834
  339TMC3    C8 5093   0.182   4.572   0.880 -0.2103 -0.2816  0.2252
  339TMC3    O1 5094   0.559   0.131   0.778 -0.2084  0.0396  0.7430
  339TMC3    O2 5095   0.155   4.678   0.828 -0.1235 -0.3822 -0.0745
  340MPD2     C 5096   1.821   1.771   9.730  0.5141  0.3261 -0.0011
  340MPD2    C1 5097   1.770   1.793   9.853  0.4199 -0.0664  0.5621
  340MPD2    C2 5098   1.696   1.904   9.879 -0.7542  0.7480 -0.3298
  340MPD2    C3 5099   1.697   2.013   9.792 -0.2228 -0.3157 -0.5604
  340MPD2    C4 5100   1.753   1.995   9.664 -0.0515  0.2144  0.0212
  340MPD2    C5 5101   1.821   1.878   9.641 -0.0529 -0.0006 -0.3551
  340MPD2     H 5102   1.640   1.921   9.970 -2.8578  1.9119 -1.8443
  340MPD2    H1 5103   1.747   2.067   9.584  0.5175 -0.6152 -0.7602
  340MPD2    H2 5104   1.879   1.681   9.715 -0.3176 -0.1801 -0.1968
  340MPD2    H3 5105   1.866   1.870   9.543 -0.8547  2.5624 -0.9341
  340MPD2     N 5106   1.653   2.143   9.823 -0.2128 -0.3273 -0.0902
  340MPD2    H5 5107   1.675   2.213   9.753  2.1692 -0.2775  0.7258
  340MPD2    N1 5108   1.787   1.683   9.944 -0.0137 -0.5366  0.0453
  340MPD2    H7 5109   1.840   1.600   9.920  0.4446 -1.1073  2.9598
  341TMC3    C1 5110   1.784   1.557  10.149 -0.2354 -0.0798  0.2978
  341TMC3    C2 5111   1.699   1.522  10.247  0.3568 -0.1638  1.1313
  341TMC3    C3 5112   1.743   1.464  10.363  0.3365 -0.0686  0.0622
  341TMC3    C4 5113   1.917   1.540  10.170  0.2105  0.1782  0.3515
  341TMC3    C5 5114   1.963   1.483  10.283  0.8324  0.3649 -0.0010
  341TMC3    C6 5115   1.877   1.443  10.385 -0.0943  0.3513  0.6414
  341TMC3     C 5116   1.742   1.679  10.076 -0.2098  0.2132 -0.2252
  341TMC3     O 5117   1.673   1.766  10.131  0.4152 -0.2117 -0.0524
  341TMC3     H 5118   1.595   1.550  10.241  0.8827  1.4379 -0.5930
  341TMC3    H1 5119   1.980   1.577  10.090 -0.7830  2.5695  0.6815
  341TMC3    H2 5120   1.915   1.396  10.475  1.0642  0.4872  0.2140
  341TMC3    C7 5121   2.086   1.409  10.283  0.5378  0.3007 -0.5332
  341TMC3    C8 5122   1.652   1.368  10.416 -0.6140  0.2160  0.3499
  341TMC3    O1 5123   2.089   1.306  10.346  0.3816  0.4203 -0.0029
  341TMC3    O2 5124   1.530   1.391  10.414  0.1963 -0.0372  1.0179
  342MPD2     C 5125   3.297   0.603  17.483  0.6074 -0.3070  0.1240
  342MPD2    C1 5126   3.412   0.591  17.408  0.5049  0.0193 -0.2138
  342MPD2    C2 5127   3.514   0.686  17.418  0.1040 -0.6016 -0.9481
  342MPD2    C3 5128   3.501   0.794  17.501 -0.1335  0.2214 -0.4828
  342MPD2    C4 5129   3.396   0.805  17.580  0.2881 -0.0541 -0.2950
  342MPD2    C5 5130   3.293   0.714  17.568 -0.9009  0.2053  0.7758
  342MPD2     H 5131   3.595   0.682  17.346 -0.4731  0.7702 -1.6697
  342MPD2    H1 5132   3.386   0.887  17.650 -0.7814  0.1408 -0.6740
  342MPD2    H2 5133   3.210   0.539  17.478  0.4379 -0.0681 -0.0197
  342MPD2    H3 5134   3.211   0.731  17.636 -0.7662  2.3578  0.3959
  342MPD2     N 5135   3.598   0.899  17.522  0.5537  0.5105 -0.0550
  342MPD2    H5 5136   3.577   0.984  17.575 -3.1103 -0.9795  0.8308
  342MPD2    N1 5137   3.431   0.484  17.314 -0.0141  0.2519 -0.0659
  342MPD2    H7 5138   3.525   0.487  17.276 -0.5500  1.1172 -1.3013
  343TMC3    C1 5139   3.393   0.285  17.188  0.0588  0.2724  0.4434
  343TMC3    C2 5140   3.507   0.300  17.115 -0.9666  0.2938 -0.2514
  343TMC3    C3 5141   3.552   0.192  17.042  0.4743  0.0124  0.1024
  343TMC3    C4 5142   3.319   0.169  17.180  0.4109 -0.8293  0.4879
  343TMC3    C5 5143   3.362   0.064  17.105  0.7129 -0.0474  0.2794
  343TMC3    C6 5144   3.478   0.078  17.030 -0.5562 -0.9643  0.0378
  343TMC3     C 5145   3.341   0.385  17.283 -0.3837  0.1940  0.1222
  343TMC3     O 5146   3.225   0.367  17.321 -0.0597  0.1376 -0.2412
  343TMC3     H 5147   3.587   0.370  17.137  0.5192 -2.0253  1.8420
  343TMC3    H1 5148   3.226   0.157  17.234 -0.9729  1.8421 -1.2678
  343TMC3    H2 5149   3.499   0.015  16.944 -1.0235 -3.4153  1.7231
  343TMC3    C7 5150   3.291   4.663  17.115  0.4096  0.7481  0.0143
  343TMC3    C8 5151   3.667   0.212  16.957 -0.6451  0.0767 -0.2965
  343TMC3    O1 5152   3.178   4.673  17.161  0.7373 -0.5950 -0.0954
  343TMC3    O2 5153   3.693   0.329  16.926 -0.3348 -0.2104  0.5157
  344MPD2     C 5154   0.742   4.287  10.793  0.5226 -0.1159  0.0638
  344MPD2    C1 5155   0.622   4.338  10.742 -0.0939  0.2793  0.1805
  344MPD2    C2 5156   0.623   4.456  10.678  0.1078 -0.3979  0.0920
  344MPD2    C3 5157   0.741   4.529  10.680  0.8718  0.5587  0.3156
  344MPD2    C4 5158   0.862   4.478  10.721  0.1406  0.0145 -0.4025
  344MPD2    C5 5159   0.861   4.354  10.783  0.1212 -0.5573  0.6962
  344MPD2     H 5160   0.536   4.492  10.624  0.4486  1.6355  0.8724
  344MPD2    H1 5161   0.943   4.550  10.727  0.5042 -0.3510 -0.8538
  344MPD2    H2 5162   0.760   4.187  10.831 -1.5406 -1.0255 -1.3448
  344MPD2    H3 5163   0.947   4.308  10.829  1.2130  0.2122 -0.5870
  344MPD2     N 5164   0.736   4.661  10.627 -0.4193  0.1383  0.1676
  344MPD2    H5 5165   0.829   4.702  10.631 -0.0483 -0.7397  0.6209
  344MPD2    N1 5166   0.498   4.264  10.745 -0.6979  0.6028 -0.5949
  344MPD2    H7 5167   0.415   4.296  10.696 -1.9754 -1.2938  0.3505
  345TMC3    C1 5168   0.670   0.147  10.591  0.3035  0.6331 -0.1172
  345TMC3    C2 5169   0.727   0.194  10.710  0.3734  0.3673 -0.5919
  345TMC3    C3 5170   0.802   0.308  10.700  0.2401  0.5756  0.1683
  345TMC3    C4 5171   0.669   0.218  10.470 -0.1118 -0.8010  0.4662
  345TMC3    C5 5172   0.736   0.334  10.472  0.2113 -0.5101 -0.4183
  345TMC3    C6 5173   0.796   0.378  10.588 -0.0787 -0.6090  0.7510
  345TMC3     C 5174   0.635   0.015  10.579  0.4162 -0.4141 -0.2175
  345TMC3     O 5175   0.524   4.709  10.543  0.1721  0.3578 -0.0009
  345TMC3     H 5176   0.727   0.135  10.801  2.2189 -0.0361 -0.8539
  345TMC3    H1 5177   0.654   0.165  10.377 -0.3444 -1.2060  0.7355
  345TMC3    H2 5178   0.862   0.464  10.588 -1.4423  0.4550 -1.8826
  345TMC3    C7 5179   0.708   0.437  10.373  0.0590  0.4637  0.7318
  345TMC3    C8 5180   0.873   0.361  10.816 -0.5008 -0.2897  0.0385
  345TMC3    O1 5181   0.751   0.546  10.406 -0.0873  0.0713 -0.1259
  345TMC3    O2 5182   0.919   0.473  10.808 -0.0974 -0.6562 -0.3764
  346MPD2     C 5183   4.705   1.853  14.046 -0.1204 -0.0858  0.4530
  346MPD2    C1 5184   0.117   1.879  14.054 -0.1895 -0.3067  0.1796
  346MPD2    C2 5185   0.163   1.927  14.177 -0.5805 -0.0421  0.2047
  346MPD2    C3 5186   0.081   1.945  14.286  0.1645  0.6302 -0.7148
  346MPD2    C4 5187   4.671   1.928  14.267 -0.4522 -0.1980 -0.7630
  346MPD2    C5 5188   4.621   1.880  14.148  0.1846  0.7103 -0.2351
  346MPD2     H 5189   0.264   1.960  14.200  0.5158 -3.7150  0.8088
  346MPD2    H1 5190   4.597   1.946  14.343 -1.2699 -3.8358 -0.6690
  346MPD2    H2 5191   4.665   1.810  13.955  0.4452 -1.3297  0.7978
  346MPD2    H3 5192   4.514   1.872  14.139  0.0848  0.7295  0.9281
  346MPD2     N 5193   0.136   1.994  14.409 -0.1827  0.4473 -0.1041
  346MPD2    H5 5194   0.237   1.990  14.424 -0.5189 -0.0633  2.0011
  346MPD2    N1 5195   0.211   1.846  13.952 -0.2195  0.6444  0.1828
  346MPD2    H7 5196   0.307   1.881  13.958 -0.7454  2.1042  0.0120
  347TMC3    C1 5197   0.151   2.118  14.605 -0.5414 -0.6684  0.2757
  347TMC3    C2 5198   0.231   2.216  14.556 -0.2537  0.1741 -0.8348
  347TMC3    C3 5199   0.315   2.280  14.643 -0.2359 -0.5539 -0.4827
  347TMC3    C4 5200   0.138   2.107  14.737  0.1453 -0.9698  0.0942
  347TMC3    C5 5201   0.218   2.169  14.821  0.0538  0.0122 -0.2631
  347TMC3    C6 5202   0.314   2.257  14.776 -1.3751 -0.0090 -0.6849
  347TMC3     C 5203   0.070   2.039  14.519 -1.0834 -0.8319 -0.0312
  347TMC3     O 5204   4.672   2.038  14.540 -0.3451  0.6720  0.5954
  347TMC3     H 5205   0.237   2.227  14.448 -0.9318  2.2911 -0.6523
  347TMC3    H1 5206   0.067   2.034  14.773 -1.1561  0.7056  0.9083
  347TMC3    H2 5207   0.384   2.308  14.842  0.6185 -1.2333 -1.8555
  347TMC3    C7 5208   0.164   2.186  14.954  0.0924 -0.1071 -0.1281
  347TMC3    C8 5209   0.447   2.305  14.569  0.8611  0.3271 -0.3041
  347TMC3    O1 5210   0.045   2.159  14.974 -0.3229 -0.4351  0.3135
  347TMC3    O2 5211   0.433   2.327  14.448 -0.2266  0.4131  0.8427
  348MPD2     C 5212   3.441   1.520  12.289  0.3175  0.0463 -0.2702
  348MPD2    C1 5213   3.551   1.498  12.209  0.4302 -0.2416 -0.1533
  348MPD2    C2 5214   3.554   1.556  12.085 -0.1814 -0.2780 -0.2809
  348MPD2    C3 5215   3.453   1.646  12.034  0.1164 -0.2491  0.1801
  348MPD2    C4 5216   3.347   1.663  12.119  0.2263  0.8965 -0.3094
  348MPD2    C5 5217   3.342   1.598  12.241  0.0287 -0.0304 -0.2830
  348MPD2     H 5218   3.647   1.553  12.028  0.5560 -0.3821  0.9233
  348MPD2    H1 5219   3.264   1.730  12.096  0.1494  1.2504  1.0085
  348MPD2    H2 5220   3.433   1.491  12.393  1.1232 -1.0691 -0.5159
  348MPD2    H3 5221   3.247   1.603  12.294 -0.1162  0.3393 -0.5786
  348MPD2     N 5222   3.461   1.697  11.905  0.4463  0.0912 -0.3129
  348MPD2    H5 5223   3.537   1.671  11.843  0.4631 -0.8562  0.0996
  348MPD2    N1 5224   3.662   1.427  12.259 -0.2574 -0.1795 -0.0528
  348MPD2    H7 5225   3.737   1.423  12.191 -0.5738  0.7644 -0.4513
  349TMC3    C1 5226   3.794   1.289  12.373  0.8226 -0.2810  0.4318
  349TMC3    C2 5227   3.766   1.155  12.395 -0.1218 -0.1985 -0.4055
  349TMC3    C3 5228   3.809   1.053  12.314 -0.0249 -0.8632 -0.3498
  349TMC3    C4 5229   3.865   1.319  12.262 -0.8524 -0.4284  0.1992
  349TMC3    C5 5230   3.907   1.219  12.177 -0.0933 -0.1552 -0.1151
  349TMC3    C6 5231   3.864   1.091  12.193  0.0165  0.2650  0.9788
  349TMC3     C 5232   3.670   1.367  12.382  1.0448  0.0708  0.1388
  349TMC3     O 5233   3.590   1.362  12.475  0.8583 -0.2153  0.0315
  349TMC3     H 5234   3.708   1.134  12.484  1.0400  0.7076  0.5716
  349TMC3    H1 5235   3.902   1.421  12.253  0.0514 -0.8427 -0.8360
  349TMC3    H2 5236   3.893   1.021  12.117 -0.1132  0.7221  0.5054
  349TMC3    C7 5237   3.896   1.254  12.041  0.5978  0.2869 -0.2265
  349TMC3    C8 5238   3.840   0.929  12.379 -0.2920  0.0219 -0.5469
  349TMC3    O1 5239   3.828   1.174  11.972  0.3120  0.2689  0.3565
  349TMC3    O2 5240   3.800   0.926  12.495 -0.2121  0.2654  0.0437
  350MPD2     C 5241   2.945   3.490   9.496  0.1952  0.3285  0.7233
  350MPD2    C1 5242   2.994   3.387   9.580  0.8197  0.7118 -0.6110
  350MPD2    C2 5243   3.085   3.424   9.682  0.0794 -0.1786  0.1740
  350MPD2    C3 5244   3.124   3.560   9.689 -0.6235  0.0359  0.0779
  350MPD2    C4 5245   3.080   3.653   9.599  0.0825  0.3484  0.2977
  350MPD2    C5 5246   2.984   3.619   9.506  0.1147  0.0069  0.0169
  350MPD2     H 5247   3.125   3.354   9.753 -0.1414  0.3549  0.8236
  350MPD2    H1 5248   3.118   3.755   9.595 -2.4363  1.2051 -2.1913
  350MPD2    H2 5249   2.862   3.471   9.428 -0.3964 -2.0572  2.0827
  350MPD2    H3 5250   2.962   3.698   9.435 -3.5284 -0.2586  0.8622
  350MPD2     N 5251   3.212   3.593   9.791  0.1345 -0.2825 -0.5949
  350MPD2    H5 5252   3.224   3.514   9.853 -1.0608 -0.3128 -0.4107
  350MPD2    N1 5253   2.968   3.249   9.570 -0.3279 -0.2171  0.0919
  350MPD2    H7 5254   3.023   3.181   9.623  0.3172 -0.0733 -0.3929
  351TMC3    C1 5255   2.872   3.050   9.493 -0.1514  0.2924  0.5458
  351TMC3    C2 5256   2.994   2.984   9.473  0.9765  0.8742 -0.2193
  351TMC3    C3 5257   2.993   2.853   9.424  0.1947 -0.4006 -0.5975
  351TMC3    C4 5258   2.751   2.986   9.474  0.4104  0.2563 -0.1109
  351TMC3    C5 5259   2.755   2.860   9.422  0.1157  0.8458  0.2432
  351TMC3    C6 5260   2.873   2.797   9.391 -0.7153  0.0421 -0.3771
  351TMC3     C 5261   2.871   3.196   9.496  1.0438 -0.3459  0.0359
  351TMC3     O 5262   2.776   3.246   9.439 -0.0270  0.5909 -0.2409
  351TMC3     H 5263   3.091   3.032   9.471  0.7730  1.2511 -1.9162
  351TMC3    H1 5264   2.661   3.039   9.505  1.1615  0.5725  1.5274
  351TMC3    H2 5265   2.869   2.698   9.345 -1.1394  0.3720 -1.0526
  351TMC3    C7 5266   2.632   2.778   9.393  0.1714  0.1027  1.2397
  351TMC3    C8 5267   3.117   2.773   9.410 -0.1429  0.1626  0.2827
  351TMC3    O1 5268   2.643   2.694   9.305  0.0992 -0.1184  0.3308
  351TMC3    O2 5269   3.102   2.664   9.362 -0.2930  0.0118 -0.8331
  352MPD2     C 5270   0.247   1.674   1.223  0.6315  0.1512  0.2785
  352MPD2    C1 5271   0.351   1.632   1.144  0.0632 -0.3241 -0.2447
  352MPD2    C2 5272   0.338   1.497   1.111  0.1273  0.1017 -0.1239
  352MPD2    C3 5273   0.237   1.409   1.153 -0.6957 -0.5521  0.0516
  352MPD2    C4 5274   0.136   1.462   1.225  0.4429 -0.2137 -0.4926
  352MPD2    C5 5275   0.147   1.592   1.268  0.7084  0.1262 -1.0410
  352MPD2     H 5276   0.427   1.458   1.063  0.3964 -0.5192  0.8754
  352MPD2    H1 5277   0.053   1.407   1.268  1.4407 -1.1631  0.2248
  352MPD2    H2 5278   0.247   1.774   1.265  0.3761  1.5036 -2.8908
  352MPD2    H3 5279   0.067   1.632   1.330  0.2263  0.3108 -1.7842
  352MPD2     N 5280   0.237   1.269   1.122 -0.1431 -0.3469 -0.1029
  352MPD2    H5 5281   0.151   1.223   1.150  0.1985 -1.0591 -0.2301
  352MPD2    N1 5282   0.456   1.724   1.098 -0.0855 -0.3183  0.1459
  352MPD2    H7 5283   0.443   1.820   1.129 -1.1905 -1.2727  2.6521
  353TMC3    C1 5284   0.316   1.061   1.048  0.6303  0.2402  0.7083
  353TMC3    C2 5285   0.431   0.988   1.034  0.2750  0.3365 -0.5269
  353TMC3    C3 5286   0.420   0.850   1.028 -0.6273  0.0846  1.1006
  353TMC3    C4 5287   0.192   1.004   1.050  0.4620 -0.5270  0.1471
  353TMC3    C5 5288   0.194   0.867   1.039  0.1137 -0.6666 -0.4888
  353TMC3    C6 5289   0.303   0.782   1.033 -0.2567 -0.2498 -0.2888
  353TMC3     C 5290   0.345   1.198   1.069  0.1782 -0.6872  0.9106
  353TMC3     O 5291   0.460   1.233   1.043 -0.1816  0.5840  0.3874
  353TMC3     H 5292   0.530   1.033   1.037  1.4755 -2.4740  2.3834
  353TMC3    H1 5293   0.101   1.059   1.067  1.0350  0.0840  1.3006
  353TMC3    H2 5294   0.290   0.681   0.997  0.6694 -0.8404  1.0000
  353TMC3    C7 5295   0.069   0.798   1.049 -0.8782  1.1424  0.2846
  353TMC3    C8 5296   0.542   0.774   1.035  0.0732 -0.1132 -0.1208
  353TMC3    O1 5297   0.065   0.682   1.093 -0.2668  0.1712 -0.7351
  353TMC3    O2 5298   0.649   0.838   1.034 -0.0610  0.7751  0.0691
  354TMC3    C1 5299   2.438   2.764  13.227  0.7810 -0.8557  0.1049
  354TMC3    C2 5300   2.451   2.889  13.168  0.3789 -0.0512 -0.3710
  354TMC3    C3 5301   2.481   2.900  13.034 -0.0987  0.6157 -0.9904
  354TMC3    C4 5302   2.451   2.653  13.158  0.7556  0.1112 -0.5525
  354TMC3    C5 5303   2.516   2.666  13.040  0.8117  0.4623 -0.3629
  354TMC3    C6 5304   2.516   2.788  12.964  0.3127  0.1098 -0.0409
  354TMC3     C 5305   2.400   2.746  13.369 -0.3073  0.2122  0.8912
  354TMC3     O 5306   2.356   2.636  13.406 -0.4343 -0.2722  0.1299
  354TMC3     H 5307   2.430   2.976  13.230 -1.0297 -0.7003  0.0881
  354TMC3    H1 5308   2.463   2.557  13.207  1.1107 -0.4043 -1.6360
  354TMC3    H2 5309   2.541   2.801  12.859  0.5852 -0.3516 -0.0341
  354TMC3    C7 5310   2.626   2.576  13.019 -0.0913 -0.0352 -0.2724
  354TMC3    C8 5311   2.452   3.021  12.953  0.3577 -0.3076 -0.1483
  354TMC3    O1 5312   2.618   2.473  13.087  0.2642  0.0662  0.5446
  354TMC3    O2 5313   2.501   3.030  12.843 -0.5335  0.3214  0.2161
  355MPD2     C 5314   2.710   3.434  11.593 -0.0167  0.0303  0.2568
  355MPD2    C1 5315   2.772   3.499  11.489  0.5481  0.1233  0.9123
  355MPD2    C2 5316   2.910   3.509  11.489  0.3516  0.2684 -0.1166
  355MPD2    C3 5317   2.986   3.470  11.601  0.8344 -0.1300  0.1994
  355MPD2    C4 5318   2.927   3.409  11.706  0.4908 -0.1325  0.2616
  355MPD2    C5 5319   2.786   3.397  11.706  0.4803 -0.1744  0.8360
  355MPD2     H 5320   2.962   3.560  11.409 -1.0587  0.3173 -1.0029
  355MPD2    H1 5321   2.980   3.368  11.792 -0.1225 -3.9853 -1.1680
  355MPD2    H2 5322   2.603   3.419  11.602 -0.4337  2.5823 -0.4930
  355MPD2    H3 5323   2.735   3.346  11.787 -1.6668  0.6948  0.0153
  355MPD2     N 5324   3.122   3.499  11.612  0.2545  0.0636  0.6553
  355MPD2    H5 5325   3.171   3.471  11.696 -1.0138 -0.9994  1.0544
  355MPD2    N1 5326   2.679   3.541  11.386  0.1188  0.1697 -0.0400
  355MPD2    H7 5327   2.588   3.496  11.392  0.1743  0.3709  2.3582
  356TMC3    C1 5328   3.323   3.621  11.569 -0.1592  0.0791 -0.4071
  356TMC3    C2 5329   3.403   3.688  11.477  1.1395 -0.1224 -1.1918
  356TMC3    C3 5330   3.465   3.808  11.510 -0.0902  0.3365  0.3199
  356TMC3    C4 5331   3.310   3.674  11.697 -0.2042  0.5488 -0.0905
  356TMC3    C5 5332   3.391   3.779  11.733 -0.2879  0.3421  0.0991
  356TMC3    C6 5333   3.458   3.856  11.637 -0.6005 -0.6157 -0.7144
  356TMC3     C 5334   3.196   3.565  11.515 -0.7700 -0.3184 -0.4557
  356TMC3     O 5335   3.182   3.596  11.398  0.0924  0.5024 -0.0898
  356TMC3     H 5336   3.413   3.640  11.381 -0.3545  0.0509 -1.4300
  356TMC3    H1 5337   3.254   3.618  11.772 -2.2655  2.5769 -0.1152
  356TMC3    H2 5338   3.501   3.954  11.655  0.6609 -0.7507 -3.0069
  356TMC3    C7 5339   3.385   3.816  11.873  0.3459 -0.1832  0.0614
  356TMC3    C8 5340   3.548   3.873  11.407  0.1112 -0.2440  0.4197
  356TMC3    O1 5341   3.310   3.752  11.948 -0.4387 -0.1057  0.2471
  356TMC3    O2 5342   3.534   3.827  11.296 -0.6671 -0.6637  0.1586
  357MPD2     C 5343   2.139   2.711   1.168  0.4181 -0.4514  0.4343
  357MPD2    C1 5344   2.244   2.761   1.237 -0.8101  0.0438 -0.4704
  357MPD2    C2 5345   2.230   2.799   1.370  0.4953 -0.3665  0.2189
  357MPD2    C3 5346   2.102   2.804   1.430  0.3408  0.5340  0.1723
  357MPD2    C4 5347   1.994   2.759   1.356 -0.1738  0.7940 -0.2118
  357MPD2    C5 5348   2.014   2.709   1.225 -0.6613  0.5775 -0.3173
  357MPD2     H 5349   2.318   2.819   1.431  0.8869 -2.6670  0.4251
  357MPD2    H1 5350   1.892   2.789   1.380 -0.7091 -0.0402 -1.4594
  357MPD2    H2 5351   2.143   2.680   1.064  1.5359 -0.3027  0.4334
  357MPD2    H3 5352   1.930   2.692   1.158 -1.4521  0.3445  0.7367
  357MPD2     N 5353   2.074   2.841   1.559 -0.4735 -0.4464 -0.3927
  357MPD2    H5 5354   1.981   2.809   1.584 -0.1883  0.6822  2.0760
  357MPD2    N1 5355   2.368   2.760   1.167  0.8372  0.1819 -0.0151
  357MPD2    H7 5356   2.377   2.704   1.083  2.6415 -0.6404  0.7297
  358TMC3    C1 5357   2.608   2.773   1.150  0.2093 -0.3319 -0.5182
  358TMC3    C2 5358   2.597   2.673   1.051 -0.0099 -0.2878  0.7605
  358TMC3    C3 5359   2.704   2.595   1.027  0.4754 -0.0017 -0.0792
  358TMC3    C4 5360   2.728   2.792   1.220 -0.5663  0.6024  0.1674
  358TMC3    C5 5361   2.828   2.704   1.194  0.2017  0.4173 -0.5439
  358TMC3    C6 5362   2.821   2.611   1.099 -0.4443 -0.1457  0.1636
  358TMC3     C 5363   2.481   2.813   1.223 -0.7953 -0.8272  0.1268
  358TMC3     O 5364   2.495   2.879   1.324 -0.2761 -0.0499 -0.0505
  358TMC3     H 5365   2.508   2.668   0.988  0.1414 -1.8201  0.6728
  358TMC3    H1 5366   2.725   2.856   1.307 -1.7174 -0.0351  0.6011
  358TMC3    H2 5367   2.912   2.563   1.066  0.5077  0.4689  1.9080
  358TMC3    C7 5368   2.944   2.718   1.270 -0.0890  0.1445 -0.2416
  358TMC3    C8 5369   2.697   2.525   0.897  0.3883  0.2529 -0.3496
  358TMC3    O1 5370   3.049   2.715   1.212  0.4184 -0.1990 -0.4816
  358TMC3    O2 5371   2.639   2.583   0.808 -0.4918  0.2075 -0.4855
  359MPD2     C 5372   3.171   2.517  12.525 -0.5790  0.1675 -0.2716
  359MPD2    C1 5373   3.157   2.425  12.425  0.6644 -0.0159 -0.1740
  359MPD2    C2 5374   3.058   2.329  12.431  0.1596  0.2856 -0.2178
  359MPD2    C3 5375   2.979   2.308  12.545  0.6499  0.0084 -0.0363
  359MPD2    C4 5376   2.997   2.397  12.649 -0.4018 -0.1646  0.6910
  359MPD2    C5 5377   3.090   2.502  12.638  0.9407  0.4054  0.3455
  359MPD2     H 5378   3.039   2.277  12.338 -0.4100  0.9910 -0.4919
  359MPD2    H1 5379   2.940   2.396  12.741 -1.0311  0.7797  0.3111
  359MPD2    H2 5380   3.242   2.598  12.516  0.6885 -1.0292 -1.2279
  359MPD2    H3 5381   3.090   2.583  12.709  2.1303 -1.0733  2.0491
  359MPD2     N 5382   2.881   2.211  12.559  0.8594 -0.3292 -0.5805
  359MPD2    H5 5383   2.855   2.201  12.656 -2.2898 -0.3835 -1.4460
  359MPD2    N1 5384   3.240   2.416  12.307  0.3865 -0.5716 -0.2595
  359MPD2    H7 5385   3.216   2.343  12.239  0.0043 -0.4569 -0.2470
  360TMC3    C1 5386   3.392   2.469  12.139  0.8097  0.1973 -0.3752
  360TMC3    C2 5387   3.473   2.562  12.070 -0.0720 -0.0347 -0.5653
  360TMC3    C3 5388   3.549   2.517  11.971 -0.7186 -0.0622  0.3553
  360TMC3    C4 5389   3.391   2.332  12.106  0.1992 -0.2592 -0.2320
  360TMC3    C5 5390   3.454   2.300  11.986  0.7794 -0.0803 -0.7373
  360TMC3    C6 5391   3.542   2.392  11.924  0.0304  0.7370 -0.1394
  360TMC3     C 5392   3.344   2.500  12.274  0.1536  0.3805 -0.5674
  360TMC3     O 5393   3.389   2.597  12.335  0.3491  0.1603 -0.3393
  360TMC3     H 5394   3.486   2.664  12.105  0.5930  0.1473 -1.3661
  360TMC3    H1 5395   3.347   2.249  12.160 -0.0556  0.0358  0.0127
  360TMC3    H2 5396   3.585   2.364  11.829 -0.7016  1.3777 -0.6597
  360TMC3    C7 5397   3.417   2.189  11.907  0.1389  0.0210  0.1540
  360TMC3    C8 5398   3.630   2.612  11.898  0.1158  0.4855 -0.6483
  360TMC3    O1 5399   3.503   2.137  11.836 -0.0255 -0.2306 -0.3234
  360TMC3    O2 5400   3.581   2.725  11.887  0.1259 -0.6939  0.5806
  361MPD2     C 5401   0.071   0.515  16.782 -0.3462 -0.5500 -0.0560
  361MPD2    C1 5402   0.058   0.611  16.884 -0.2047  0.7961  0.6939
  361MPD2    C2 5403   0.147   0.597  16.989  0.3258  0.7440 -0.5064
  361MPD2    C3 5404   0.239   0.496  16.992  0.7582 -0.0896 -0.6475
  361MPD2    C4 5405   0.250   0.409  16.882  0.0040  0.2028 -0.5654
  361MPD2    C5 5406   0.169   0.417  16.779  0.2481 -0.4430 -0.0614
  361MPD2     H 5407   0.151   0.671  17.069  1.5936 -1.4523  1.4658
  361MPD2    H1 5408   0.318   0.326  16.898  0.0483  0.0100 -1.7358
  361MPD2    H2 5409   0.003   0.526  16.699 -0.2081  0.6254 -0.0251
  361MPD2    H3 5410   0.174   0.350  16.694  0.1769 -0.9027  0.2997
  361MPD2     N 5411   0.326   0.469  17.104 -0.1437 -0.3246  0.4907
  361MPD2    H5 5412   0.379   0.383  17.090  1.0074  0.3391  0.7848
  361MPD2    N1 5413   4.684   0.714  16.872  0.0590 -0.5478 -0.8419
  361MPD2    H7 5414   4.625   0.715  16.789 -1.8025  1.8717  0.5124
  362TMC3    C1 5415   4.564   0.908  16.926 -0.3274  0.8622  0.4391
  362TMC3    C2 5416   4.454   0.903  17.004 -0.1533  0.2448 -0.2510
  362TMC3    C3 5417   4.344   0.974  16.958  0.5661 -0.0035  0.4476
  362TMC3    C4 5418   4.569   0.957  16.802 -0.0362  0.4025 -0.9818
  362TMC3    C5 5419   4.454   1.010  16.750  1.2591  0.3179 -0.6552
  362TMC3    C6 5420   4.344   1.025  16.833  0.0267 -0.2560 -0.0509
  362TMC3     C 5421   4.676   0.824  16.959 -0.0281 -0.3513 -0.3997
  362TMC3     O 5422   0.008   0.841  17.066 -1.2062  0.2659  0.1571
  362TMC3     H 5423   4.458   0.868  17.107 -1.1869  2.2445  0.4846
  362TMC3    H1 5424   4.658   0.939  16.742 -0.6642  2.1653 -2.4600
  362TMC3    H2 5425   4.256   1.061  16.781 -0.2141 -1.8702 -0.7454
  362TMC3    C7 5426   4.476   1.125  16.668  0.5301 -0.3417  0.2308
  362TMC3    C8 5427   4.213   0.949  17.026  0.3023  0.2127 -0.0196
  362TMC3    O1 5428   4.407   1.222  16.686  0.0089  0.3407 -0.5037
  362TMC3    O2 5429   4.209   0.836  17.071  1.0459  0.4343  0.1276
  363TMC3    C1 5430   3.676   3.430   9.244  0.7218  0.0606 -0.2867
  363TMC3    C2 5431   3.763   3.362   9.317  0.3502  0.4429 -0.0320
  363TMC3    C3 5432   3.834   3.426   9.411  0.2565  0.0806 -1.0688
  363TMC3    C4 5433   3.652   3.562   9.250 -0.3529 -0.3802 -0.1320
  363TMC3    C5 5434   3.725   3.622   9.349 -1.1068  0.7144 -0.1503
  363TMC3    C6 5435   3.827   3.559   9.423 -0.1976 -0.2550 -0.8989
  363TMC3     C 5436   3.589   3.347   9.156 -0.1213  0.2833 -0.2614
  363TMC3     O 5437   3.589   3.226   9.181  0.1946  0.6053 -0.6082
  363TMC3     H 5438   3.764   3.253   9.311 -1.4361  0.3937  0.4831
  363TMC3    H1 5439   3.573   3.622   9.205  2.0913  1.9760 -1.2923
  363TMC3    H2 5440   3.876   3.609   9.506 -0.2062  2.2694 -2.4177
  363TMC3    C7 5441   3.736   3.771   9.333 -0.1916  0.1718 -0.4870
  363TMC3    C8 5442   3.885   3.351   9.529 -0.0507  0.0774  0.1048
  363TMC3    O1 5443   3.661   3.834   9.259 -0.4061 -0.0165  0.2505
  363TMC3    O2 5444   3.894   3.410   9.635 -0.1343 -0.1276  0.1494
  364MPD2     C 5445   2.302   2.690  10.249 -0.3229 -0.2275 -0.1702
  364MPD2    C1 5446   2.434   2.660  10.225 -0.3516 -0.3335  0.3555
  364MPD2    C2 5447   2.478   2.530  10.217  0.0651  0.0246  0.2636
  364MPD2    C3 5448   2.387   2.434  10.250 -0.2567  0.8201 -0.8894
  364MPD2    C4 5449   2.251   2.456  10.269 -0.4016 -0.5252  0.0742
  364MPD2    C5 5450   2.211   2.587  10.272 -0.1276 -0.4240  0.1799
  364MPD2     H 5451   2.583   2.503  10.214  0.4793  1.5831  0.7174
  364MPD2    H1 5452   2.186   2.371  10.287 -0.8080  0.0271  1.2268
  364MPD2    H2 5453   2.260   2.788  10.267  0.9379  0.8587 -3.1458
  364MPD2    H3 5454   2.106   2.612  10.283  0.4790  1.1702  2.3190
  364MPD2     N 5455   2.427   2.296  10.264  0.2545 -0.1465  0.0966
  364MPD2    H5 5456   2.366   2.232  10.315 -0.4792  0.1581 -0.4035
  364MPD2    N1 5457   2.518   2.778  10.198  0.2544  0.1573 -0.0929
  364MPD2    H7 5458   2.468   2.861  10.227 -2.2101 -1.4396  0.2589
  365TMC3    C1 5459   2.700   2.896  10.129  0.3156 -0.3090 -0.4038
  365TMC3    C2 5460   2.826   2.883  10.077  0.2613 -0.1873 -0.1561
  365TMC3    C3 5461   2.921   2.977  10.122  0.4237 -0.1063  0.7731
  365TMC3    C4 5462   2.672   3.000  10.212 -0.0012  0.3927 -0.8161
  365TMC3    C5 5463   2.764   3.100  10.233 -0.2723 -0.1018 -0.3986
  365TMC3    C6 5464   2.896   3.092  10.188  0.1327  0.4049  0.3969
  365TMC3     C 5465   2.630   2.771  10.128  0.3554 -0.0852  0.3505
  365TMC3     O 5466   2.681   2.668  10.079  0.1810  0.7090 -0.0787
  365TMC3     H 5467   2.860   2.800  10.017 -1.6450  0.3892 -2.0563
  365TMC3    H1 5468   2.574   2.996  10.257 -0.3907  0.4178 -1.6665
  365TMC3    H2 5469   2.969   3.164  10.223 -1.3991  1.1218  2.1163
  365TMC3    C7 5470   2.734   3.192  10.338  0.3521  0.2292 -1.0241
  365TMC3    C8 5471   3.057   2.931  10.146 -0.2359  0.5893 -0.3065
  365TMC3    O1 5472   2.796   3.298  10.333  0.1424  0.5267  0.3678
  365TMC3    O2 5473   3.123   2.994  10.228 -0.2593  0.2034  0.0074
  366MPD2     C 5474   4.544   3.562  15.403  0.5925 -0.0752  0.1724
  366MPD2    C1 5475   4.605   3.652  15.329 -0.1644  0.1196  0.4297
  366MPD2    C2 5476   4.694   3.609  15.227 -0.4294  0.0799 -0.3962
  366MPD2    C3 5477   0.006   3.474  15.205 -1.0374  0.9186  0.4482
  366MPD2    C4 5478   4.675   3.382  15.287 -0.1450 -0.2285 -0.5297
  366MPD2    C5 5479   4.583   3.430  15.384 -0.5726 -0.2537  0.7366
  366MPD2     H 5480   0.016   3.684  15.164 -1.0241  1.2230  0.5002
  366MPD2    H1 5481   4.689   3.276  15.273 -0.2403 -0.2338 -0.5916
  366MPD2    H2 5482   4.467   3.586  15.475 -2.6686 -2.0450 -2.6756
  366MPD2    H3 5483   4.534   3.354  15.443 -1.9996  1.7779  2.1886
  366MPD2     N 5484   0.105   3.447  15.110 -0.4570 -0.5282  0.5651
  366MPD2    H5 5485   0.134   3.535  15.069 -3.2528  0.0953 -0.0616
  366MPD2    N1 5486   4.586   3.789  15.347 -0.6331 -0.1923  0.2086
  366MPD2    H7 5487   4.639   3.849  15.284 -2.3806  1.6065  0.4126
  367TMC3    C1 5488   4.529   3.994  15.423 -0.3115  0.2022 -0.6954
  367TMC3    C2 5489   4.624   4.038  15.506  0.8250 -0.4879  0.4328
  367TMC3    C3 5490   4.694   4.148  15.469  0.1908 -0.0451  0.8057
  367TMC3    C4 5491   4.508   4.049  15.301 -0.2318 -0.1116 -0.6580
  367TMC3    C5 5492   4.582   4.161  15.261  0.2167  0.3172  0.6125
  367TMC3    C6 5493   4.668   4.212  15.353  0.4082 -0.2915 -0.0511
  367TMC3     C 5494   4.503   3.853  15.436  0.3289 -0.5837 -0.4070
  367TMC3     O 5495   4.419   3.819  15.518 -0.3484  0.0007 -0.3906
  367TMC3     H 5496   4.637   3.982  15.597  1.2275  0.5594  1.0197
  367TMC3    H1 5497   4.418   4.011  15.253  0.1201 -0.4558 -1.0476
  367TMC3    H2 5498   4.719   4.305  15.333 -0.9579  0.2173 -1.1548
  367TMC3    C7 5499   4.558   4.235  15.139 -0.2791 -0.5099 -1.0157
  367TMC3    C8 5500   0.110   4.126  15.491 -0.5833 -0.3096  0.2938
  367TMC3    O1 5501   4.613   4.339  15.110 -0.2200 -0.0077 -0.0534
  367TMC3    O2 5502   0.147   4.133  15.611  0.1035  0.2613 -0.7431
  368MPD2     C 5503   1.961   1.065  13.614 -0.3943 -0.5366  0.2117
  368MPD2    C1 5504   1.963   1.152  13.503 -0.2485  0.1294  0.6668
  368MPD2    C2 5505   2.091   1.195  13.465  0.1144 -0.1199 -0.2624
  368MPD2    C3 5506   2.213   1.168  13.533 -0.2179  0.1929 -0.6590
  368MPD2    C4 5507   2.198   1.089  13.648  0.0785  0.1255  0.3080
  368MPD2    C5 5508   2.080   1.033  13.681 -0.4801  0.3230 -0.5943
  368MPD2     H 5509   2.099   1.273  13.390  1.8423  0.0596  0.0989
  368MPD2    H1 5510   2.289   1.073  13.704 -0.4794  0.7154  1.3715
  368MPD2    H2 5511   1.873   1.015  13.652 -1.7004  0.4540 -1.5097
  368MPD2    H3 5512   2.083   0.976  13.773  0.6191  1.8389  0.3123
  368MPD2     N 5513   2.338   1.230  13.512  0.3352  0.3649 -0.3501
  368MPD2    H5 5514   2.422   1.191  13.553 -0.3892 -0.5223  0.2760
  368MPD2    N1 5515   1.845   1.184  13.431 -0.2312  0.6703  0.0409
  368MPD2    H7 5516   1.763   1.128  13.452  1.7231 -2.0260  0.4613
  369TMC3    C1 5517   1.689   1.278  13.285  0.3684 -0.0182 -0.0011
  369TMC3    C2 5518   1.680   1.358  13.177  0.1295 -0.2133  0.3804
  369TMC3    C3 5519   1.559   1.407  13.142  0.1115  0.0986  0.5700
  369TMC3    C4 5520   1.581   1.223  13.345  0.5625  0.1189  0.2035
  369TMC3    C5 5521   1.461   1.270  13.304  0.2582 -0.7034 -0.0600
  369TMC3    C6 5522   1.448   1.366  13.202 -0.4094 -0.0089  0.1024
  369TMC3     C 5523   1.824   1.267  13.328 -0.2507 -0.2364 -0.0314
  369TMC3     O 5524   1.906   1.345  13.278  0.2121  0.3266  0.2167
  369TMC3     H 5525   1.768   1.381  13.118  0.1947 -1.8235 -0.1471
  369TMC3    H1 5526   1.591   1.180  13.444 -0.2899  3.2756  1.6764
  369TMC3    H2 5527   1.354   1.395  13.156  0.3150 -2.0183 -2.6020
  369TMC3    C7 5528   1.344   1.211  13.360  0.1184  0.1076 -0.1327
  369TMC3    C8 5529   1.544   1.502  13.026 -0.1231 -0.2666 -0.4921
  369TMC3    O1 5530   1.241   1.277  13.372 -0.1701 -0.3072  0.8472
  369TMC3    O2 5531   1.434   1.498  12.970 -0.0670  0.0383 -0.1277
  370TMC3    C1 5532   0.934   1.928  16.330 -0.5114  0.6398 -0.0786
  370TMC3    C2 5533   0.818   1.871  16.379 -0.4728 -0.2469  0.7053
  370TMC3    C3 5534   0.763   1.768  16.309 -0.3113  0.5090 -0.1773
  370TMC3    C4 5535   1.003   1.880  16.227  0.0159 -0.2086  0.7381
  370TMC3    C5 5536   0.950   1.771  16.165  0.0019 -0.5946  0.4983
  370TMC3    C6 5537   0.829   1.711  16.201  0.3672 -0.3136  0.3349
  370TMC3     C 5538   1.013   1.999  16.427 -0.2751  0.1932 -0.1913
  370TMC3     O 5539   0.968   1.994  16.540  0.2197  0.1184  0.8109
  370TMC3     H 5540   0.770   1.915  16.466 -1.8763 -0.2237 -0.0816
  370TMC3    H1 5541   1.099   1.920  16.197 -0.2618  1.4785  2.1533
  370TMC3    H2 5542   0.797   1.618  16.157  0.0239 -0.4956  0.9699
  370TMC3    C7 5543   1.041   1.701  16.074 -0.5885  0.8898 -0.0408
  370TMC3    C8 5544   0.661   1.691  16.377 -0.1167 -0.4704 -0.4442
  370TMC3    O1 5545   1.160   1.734  16.063 -0.4261 -0.3579 -0.4179
  370TMC3    O2 5546   0.657   1.569  16.351  0.7263  0.4246 -0.0234
  371TMC3    C1 5547   1.950   4.659  15.418  0.7391  0.2405 -0.0321
  371TMC3    C2 5548   1.843   4.694  15.493 -0.2433 -0.3148  0.1098
  371TMC3    C3 5549   1.819   0.106  15.510  0.6123  0.1209  0.1754
  371TMC3    C4 5550   2.038   0.029  15.370 -0.1597  0.5277  0.1973
  371TMC3    C5 5551   2.012   0.159  15.399  0.8595  0.5521 -0.4724
  371TMC3    C6 5552   1.900   0.204  15.458 -0.7928  0.6029  0.2510
  371TMC3     C 5553   1.984   4.528  15.382 -0.1197  0.1533  0.1650
  371TMC3     O 5554   2.009   4.510  15.264  0.5090  0.2937 -0.3823
  371TMC3     H 5555   1.765   4.629  15.529 -0.2771 -0.7436 -0.7356
  371TMC3    H1 5556   2.132   4.720  15.327 -1.0603  0.1784 -1.4669
  371TMC3    H2 5557   1.884   0.310  15.469 -0.4623  0.6145  0.6218
  371TMC3    C7 5558   2.121   0.255  15.381 -0.2963 -0.4732  0.1863
  371TMC3    C8 5559   1.687   0.142  15.561 -0.1450 -0.6328  0.3365
  371TMC3    O1 5560   2.095   0.372  15.340  0.4595 -0.0258 -0.3716
  371TMC3    O2 5561   1.598   0.060  15.570 -0.1656 -0.0784  0.5902
  372MPD2     C 5562   1.686   1.559  13.516  0.1912 -0.4359 -0.0887
  372MPD2    C1 5563   1.753   1.499  13.617  0.1106  0.6047  0.3590
  372MPD2    C2 5564   1.702   1.397  13.687 -0.8770  0.4732 -0.5306
  372MPD2    C3 5565   1.565   1.366  13.678 -0.3987  0.1176 -0.2803
  372MPD2    C4 5566   1.491   1.441  13.590 -0.3766  0.1883  0.1424
  372MPD2    C5 5567   1.552   1.526  13.504 -0.1881  0.6182 -0.1549
  372MPD2     H 5568   1.770   1.341  13.749 -0.2237  1.5097 -0.3228
  372MPD2    H1 5569   1.384   1.433  13.574 -0.2392 -1.5090  0.0319
  372MPD2    H2 5570   1.725   1.642  13.459 -0.6200  0.5479  0.7895
  372MPD2    H3 5571   1.497   1.574  13.424 -0.5484  0.4566 -0.0032
  372MPD2     N 5572   1.507   1.264  13.759 -0.2300 -0.2325 -0.6501
  372MPD2    H5 5573   1.568   1.191  13.797 -1.6322 -1.4171 -0.7050
  372MPD2    N1 5574   1.890   1.527  13.633  0.0269  0.5179  0.7358
  372MPD2    H7 5575   1.944   1.479  13.703 -0.7651 -0.3881  0.7327
  373TMC3    C1 5576   1.358   1.092  13.813 -0.2052 -0.2518  0.3769
  373TMC3    C2 5577   1.247   1.067  13.888  0.4989  0.3620 -0.7276
  373TMC3    C3 5578   1.211   0.941  13.913  0.2339 -0.3243  0.2855
  373TMC3    C4 5579   1.429   0.990  13.755 -0.4645  0.2180  0.5766
  373TMC3    C5 5580   1.372   0.868  13.756 -0.9871 -0.7968  0.6528
  373TMC3    C6 5581   1.263   0.836  13.837  0.1918  0.1225  0.0767
  373TMC3     C 5582   1.376   1.227  13.760 -0.1454  0.2825  0.5997
  373TMC3     O 5583   1.282   1.284  13.704 -0.5852  0.3381  0.0943
  373TMC3     H 5584   1.195   1.141  13.948  0.2659 -0.3601 -0.0352
  373TMC3    H1 5585   1.512   1.012  13.689  0.8993  0.0055  2.1985
  373TMC3    H2 5586   1.218   0.738  13.835 -2.1231  1.1920 -0.9454
  373TMC3    C7 5587   1.468   0.762  13.731  0.5180 -0.6185 -0.5596
  373TMC3    C8 5588   1.245   0.903  14.047  0.5226 -0.8134  0.1240
  373TMC3    O1 5589   1.551   0.789  13.644  0.7863  0.4579  0.0041
  373TMC3    O2 5590   1.331   0.809  14.046  0.4845  0.6949  0.4967
  374TMC3    C1 5591   2.759   0.429  10.312  0.3238 -1.2190  0.2180
  374TMC3    C2 5592   2.824   0.536  10.269  0.1107  0.6011 -0.2851
  374TMC3    C3 5593   2.816   0.570  10.134 -0.1494 -0.7821 -0.6319
  374TMC3    C4 5594   2.691   0.347  10.224 -0.9086 -0.0274  0.1604
  374TMC3    C5 5595   2.676   0.386  10.094  0.3628 -0.2251 -0.0421
  374TMC3    C6 5596   2.742   0.494  10.047 -0.3439  0.0181  0.0759
  374TMC3     C 5597   2.775   0.381  10.449 -0.2220  0.3921 -0.1553
  374TMC3     O 5598   2.751   0.266  10.489  0.2043  0.2164  0.1119
  374TMC3     H 5599   2.902   0.588  10.322 -0.4765  2.6745 -1.4754
  374TMC3    H1 5600   2.639   0.261  10.265  0.2313 -0.0652  1.5400
  374TMC3    H2 5601   2.751   0.523   9.943 -0.6810 -2.7211 -0.7292
  374TMC3    C7 5602   2.615   0.287  10.012 -0.1710 -0.7437 -0.2399
  374TMC3    C8 5603   2.866   0.698  10.087 -0.0920  0.2234 -0.1860
  374TMC3    O1 5604   2.587   0.175  10.056 -0.4731  0.6516 -0.0832
  374TMC3    O2 5605   2.863   0.722   9.964 -0.4304  0.8600  0.1323
  375MPD2     C 5606   2.315   1.632  17.298  0.4115 -0.7027 -0.2040
  375MPD2    C1 5607   2.255   1.714  17.203  0.2696 -0.4915 -0.1423
  375MPD2    C2 5608   2.321   1.739  17.085 -0.3047 -0.0401 -0.1800
  375MPD2    C3 5609   2.427   1.668  17.051  0.0234  0.3858  1.2220
  375MPD2    C4 5610   2.486   1.579  17.146  0.3657 -0.0519  0.5869
  375MPD2    C5 5611   2.434   1.567  17.267  0.3537  0.0704  0.0506
  375MPD2     H 5612   2.275   1.817  17.026 -0.8645 -0.7426 -0.6813
  375MPD2    H1 5613   2.571   1.523  17.110  0.9493  1.0547  0.2342
  375MPD2    H2 5614   2.264   1.605  17.390  1.3437 -0.7821  0.2897
  375MPD2    H3 5615   2.482   1.500  17.337 -1.4918 -0.2570  1.0022
  375MPD2     N 5616   2.492   1.663  16.927  0.3186  0.2963  0.1482
  375MPD2    H5 5617   2.569   1.599  16.911  1.0119  0.3577  3.3049
  375MPD2    N1 5618   2.142   1.794  17.228  0.0511  0.5091 -0.2177
  375MPD2    H7 5619   2.105   1.849  17.151 -1.0434  0.6433  0.3991
  376TMC3    C1 5620   2.501   1.670  16.698 -0.0359  0.2704  0.1985
  376TMC3    C2 5621   2.634   1.656  16.690 -0.0301  0.5879  0.5780
  376TMC3    C3 5622   2.691   1.598  16.584 -0.0786 -0.1261 -0.3053
  376TMC3    C4 5623   2.423   1.639  16.590 -0.0514  0.4283 -0.2134
  376TMC3    C5 5624   2.481   1.592  16.471 -0.4780 -0.3255  0.5477
  376TMC3    C6 5625   2.617   1.563  16.470  0.4284 -0.0700  0.1247
  376TMC3     C 5626   2.434   1.713  16.817  0.0098 -0.1794  0.3458
  376TMC3     O 5627   2.325   1.766  16.799  0.4293  0.6579 -0.6231
  376TMC3     H 5628   2.695   1.704  16.766  0.5712  0.0183  0.4588
  376TMC3    H1 5629   2.320   1.672  16.585 -0.3949 -0.6909 -0.3686
  376TMC3    H2 5630   2.662   1.546  16.373  0.5268  0.8606  0.0053
  376TMC3    C7 5631   2.425   1.626  16.340  0.0062 -0.2027 -0.3919
  376TMC3    C8 5632   2.832   1.618  16.564  0.2648 -0.3557 -0.1691
  376TMC3    O1 5633   2.386   1.739  16.317  0.3222  0.1509 -0.2829
  376TMC3    O2 5634   2.872   1.631  16.450 -0.1579  0.2899  0.0707
  377MPD2     C 5635   0.284   1.599  12.326 -0.5475  0.3314  0.0665
  377MPD2    C1 5636   0.328   1.550  12.449 -1.0155 -0.0388 -0.4926
  377MPD2    C2 5637   0.254   1.579  12.566 -0.4790  0.5276  0.1437
  377MPD2    C3 5638   0.145   1.659  12.567  0.4222 -0.4823  0.3110
  377MPD2    C4 5639   0.115   1.708  12.443 -0.3597  0.3427 -0.9137
  377MPD2    C5 5640   0.173   1.676  12.325  0.1471 -0.0987 -0.4793
  377MPD2     H 5641   0.288   1.544  12.663 -1.8384  1.1021  0.8141
  377MPD2    H1 5642   0.027   1.768  12.425  0.4070  1.2015 -1.7598
  377MPD2    H2 5643   0.331   1.595  12.228 -0.0112  1.1001  0.2871
  377MPD2    H3 5644   0.130   1.715  12.234 -2.8240 -0.4679  0.7739
  377MPD2     N 5645   0.076   1.694  12.686 -0.2089  0.1337 -0.3440
  377MPD2    H5 5646   4.724   1.760  12.676 -0.1037  0.1214 -1.2238
  377MPD2    N1 5647   0.460   1.486  12.454  0.1547  0.7717  0.4661
  377MPD2    H7 5648   0.497   1.477  12.360  0.3717  1.4084  0.4906
  378TMC3    C1 5649   0.765   1.338  12.308 -0.3149 -0.3158  0.4705
  378TMC3    C2 5650   0.657   1.342  12.397  0.0246 -0.3960 -0.5482
  378TMC3    C3 5651   0.671   1.400  12.517 -0.0108 -0.5971 -0.4448
  378TMC3    C4 5652   0.889   1.393  12.345 -0.0167 -0.1365  0.5075
  378TMC3    C5 5653   0.898   1.441  12.475 -0.8019  0.4908  1.0596
  378TMC3    C6 5654   0.789   1.451  12.558 -0.5806 -0.1409  0.2189
  378TMC3     C 5655   0.705   1.368  12.178  0.2455 -0.1946  0.2878
  378TMC3     O 5656   0.593   1.326  12.163  0.1872  0.2152 -0.7939
  378TMC3     H 5657   0.570   1.280  12.376 -1.2377  1.5943 -1.1554
  378TMC3    H1 5658   0.973   1.396  12.276  1.8060 -0.7597  2.7140
  378TMC3    H2 5659   0.788   1.516  12.645 -3.5395 -0.6471  0.5802
  378TMC3    C7 5660   1.030   1.481  12.522 -0.0127  0.3818  0.3537
  378TMC3    C8 5661   0.540   1.456  12.565  0.5134 -0.5267  0.0232
  378TMC3    O1 5662   1.032   1.555  12.620 -0.0743  0.0457 -0.8031
  378TMC3    O2 5663   0.525   1.488  12.680 -0.3312  0.1437  0.3999
  379MPD2     C 5664   0.833   4.188  16.176  0.0102 -0.6892  0.1242
  379MPD2    C1 5665   0.871   4.061  16.153  0.1802 -0.2619 -0.7854
  379MPD2    C2 5666   0.949   3.995  16.256 -0.3584 -0.0390 -0.9323
  379MPD2    C3 5667   0.977   4.059  16.377 -0.0373 -0.1953  0.4095
  379MPD2    C4 5668   0.933   4.186  16.394 -0.7979 -0.3702  0.1536
  379MPD2    C5 5669   0.865   4.251  16.293 -0.1332 -0.9016 -0.2218
  379MPD2     H 5670   0.978   3.891  16.247 -1.0960 -0.2844 -0.5316
  379MPD2    H1 5671   0.944   4.246  16.484 -0.5327  1.6351 -1.2087
  379MPD2    H2 5672   0.788   4.236  16.090 -0.0233 -3.7372 -1.5742
  379MPD2    H3 5673   0.835   4.354  16.308  3.0052 -0.2748  1.6646
  379MPD2     N 5674   1.037   4.000  16.497  0.1151 -0.7245 -0.2267
  379MPD2    H5 5675   1.032   4.066  16.574  1.3511  2.1776 -2.6583
  379MPD2    N1 5676   0.841   4.003  16.027  0.4926  0.3211  0.3237
  379MPD2    H7 5677   0.776   4.056  15.968  0.0770  0.3540  0.8094
  380TMC3    C1 5678   0.861   3.849  15.840 -0.4904  0.0888  0.9078
  380TMC3    C2 5679   0.960   3.829  15.758  0.6666 -0.0159 -0.3519
  380TMC3    C3 5680   0.936   3.806  15.622 -0.1016 -0.2601 -0.7032
  380TMC3    C4 5681   0.728   3.855  15.797  0.4519 -0.4086  0.5647
  380TMC3    C5 5682   0.703   3.829  15.666  0.8195  0.1206 -0.2447
  380TMC3    C6 5683   0.802   3.786  15.585  0.4685  0.1548 -0.0866
  380TMC3     C 5684   0.908   3.896  15.974  0.1028  0.4744 -0.7053
  380TMC3     O 5685   1.006   3.844  16.019 -0.4304 -0.5541 -0.1212
  380TMC3     H 5686   1.062   3.824  15.796  0.9201 -0.5738 -1.1076
  380TMC3    H1 5687   0.656   3.857  15.878  0.4404  0.9376  0.5242
  380TMC3    H2 5688   0.791   3.747  15.484 -0.0672  0.3626 -0.1074
  380TMC3    C7 5689   0.579   3.888  15.614  0.5067 -0.6570 -0.4342
  380TMC3    C8 5690   0.968   3.923  15.552  0.2202  0.6390 -0.2616
  380TMC3    O1 5691   0.485   3.900  15.691 -0.3626 -0.4974  0.5104
  380TMC3    O2 5692   0.887   3.954  15.466  0.1193  0.5063  0.0340
  381TMC3    C1 5693   0.635   1.100  16.068 -0.3172 -0.2887  0.8062
  381TMC3    C2 5694   0.756   1.160  16.104  0.2495  0.0908 -0.0779
  381TMC3    C3 5695   0.771   1.217  16.226 -0.0735 -0.4221 -0.1387
  381TMC3    C4 5696   0.531   1.102  16.158  0.5038 -0.2388 -0.0412
  381TMC3    C5 5697   0.542   1.165  16.282  0.1405  0.0704 -0.7819
  381TMC3    C6 5698   0.663   1.231  16.312 -0.0605 -0.2730 -0.6278
  381TMC3     C 5699   0.624   1.020  15.950 -0.4493 -0.5133 -0.0714
  381TMC3     O 5700   0.509   0.996  15.912  0.4918 -0.2376  0.3889
  381TMC3     H 5701   0.834   1.163  16.030  0.1887 -0.4389 -0.1601
  381TMC3    H1 5702   0.457   1.027  16.135  0.0103  0.3705 -0.4458
  381TMC3    H2 5703   0.675   1.267  16.414 -1.2692 -1.3327 -0.1117
  381TMC3    C7 5704   0.481   1.077  16.379  0.5727  0.1521  1.2245
  381TMC3    C8 5705   0.903   1.282  16.248  0.1607 -0.0583  0.1699
  381TMC3    O1 5706   0.473   0.956  16.352  0.4889 -0.0719  0.6145
  381TMC3    O2 5707   0.984   1.257  16.163 -0.1184  0.1376  0.0663
  382MPD2     C 5708   4.569   2.376   0.870  0.3134  0.0206 -0.5879
  382MPD2    C1 5709   4.557   2.445   0.752 -0.6767 -0.1500  0.4075
  382MPD2    C2 5710   4.575   2.376   0.636 -0.3581  0.3601 -0.2763
  382MPD2    C3 5711   4.593   2.240   0.628 -0.0317  0.4269  0.3551
  382MPD2    C4 5712   4.611   2.178   0.753  0.1819  0.8237  0.4660
  382MPD2    C5 5713   4.596   2.240   0.871 -0.4785  0.1384 -0.0317
  382MPD2     H 5714   4.566   2.428   0.541 -0.1038  2.9310  1.0964
  382MPD2    H1 5715   4.628   2.071   0.755 -2.2221  0.4241 -0.1013
  382MPD2    H2 5716   4.551   2.435   0.960 -2.0345 -0.5322 -0.6938
  382MPD2    H3 5717   4.612   2.193   0.968 -1.9189  0.8776  0.5543
  382MPD2     N 5718   4.595   2.165   0.510  0.3590 -0.4583  0.5904
  382MPD2    H5 5719   4.596   2.065   0.526  2.7986 -0.6836 -0.9086
  382MPD2    N1 5720   4.528   2.587   0.745  0.8857  0.1300  0.0311
  382MPD2    H7 5721   4.527   2.624   0.650 -1.3997  1.5842  0.6212
  383TMC3    C1 5722   4.564   2.098   0.281 -0.0855 -0.3797 -0.3591
  383TMC3    C2 5723   4.573   2.136   0.155  0.0416  0.2038 -0.5999
  383TMC3    C3 5724   4.550   2.043   0.054 -0.4641 -0.6923 -0.3170
  383TMC3    C4 5725   4.514   1.978   0.322  0.1004 -0.3681  0.4836
  383TMC3    C5 5726   4.472   1.892   0.224  0.0442  0.4124  0.6236
  383TMC3    C6 5727   4.496   1.922   0.092  0.0241  0.1677 -0.3603
  383TMC3     C 5728   4.583   2.206   0.379 -0.1911 -0.0280  0.4473
  383TMC3     O 5729   4.577   2.317   0.342  0.4933 -0.4169 -0.6523
  383TMC3     H 5730   4.590   2.240   0.130  1.6545 -0.2372 -1.3130
  383TMC3    H1 5731   4.474   1.961   0.421 -0.2171  0.6136  0.5187
  383TMC3    H2 5732   4.480   1.843   0.020 -1.5778 -0.5646  0.7972
  383TMC3    C7 5733   4.416   1.766   0.257 -0.4699  0.0843 -0.5319
  383TMC3    C8 5734   4.517   2.092  17.621  0.1139  0.1685  0.3276
  383TMC3    O1 5735   4.365   1.706   0.165  0.2969  0.6211 -0.3426
  383TMC3    O2 5736   4.512   2.212  17.618  0.2138  0.2997 -0.2365
  384MPD2     C 5737   1.799   3.979  11.883 -0.1827  0.1175  0.1988
  384MPD2    C1 5738   1.787   3.891  11.988 -0.0811 -0.1001  0.1615
  384MPD2    C2 5739   1.812   3.762  11.969 -0.0917  0.3528 -0.1341
  384MPD2    C3 5740   1.841   3.711  11.847  0.4120  0.3329 -0.5964
  384MPD2    C4 5741   1.855   3.798  11.747 -0.4735  0.3389 -0.2227
  384MPD2    C5 5742   1.837   3.929  11.764 -0.2681 -0.2508  0.1112
  384MPD2     H 5743   1.793   3.699  12.056 -2.9028  0.2236 -0.8497
  384MPD2    H1 5744   1.872   3.781  11.641  0.4044 -1.2865  0.1910
  384MPD2    H2 5745   1.796   4.087  11.896 -0.1377 -0.0918  1.9622
  384MPD2    H3 5746   1.857   3.993  11.679 -0.7002  0.7174  0.7497
  384MPD2     N 5747   1.840   3.568  11.820 -0.1415 -0.2367  0.6052
  384MPD2    H5 5748   1.869   3.534  11.729 -0.1054 -0.1126  0.5697
  384MPD2    N1 5749   1.764   3.929  12.123 -0.7378 -0.3088 -0.0592
  384MPD2    H7 5750   1.765   3.858  12.195  0.7136 -1.9363 -1.6921
  385TMC3    C1 5751   1.826   3.336  11.880  0.4396 -0.0833 -0.3961
  385TMC3    C2 5752   1.943   3.313  11.806  0.7248  0.3932  1.1209
  385TMC3    C3 5753   2.032   3.228  11.861 -0.0715 -0.5559 -0.3279
  385TMC3    C4 5754   1.794   3.262  11.992  0.7254 -0.0721  0.5890
  385TMC3    C5 5755   1.896   3.186  12.041  0.2507 -0.1749 -0.3261
  385TMC3    C6 5756   2.021   3.169  11.983 -0.4389  0.6069  0.4135
  385TMC3     C 5757   1.815   3.478  11.918  0.1244 -0.1829  0.0350
  385TMC3     O 5758   1.774   3.490  12.033 -0.0871 -0.2613 -0.1738
  385TMC3     H 5759   1.965   3.360  11.711  1.8496 -0.4761  0.9558
  385TMC3    H1 5760   1.702   3.278  12.046  0.7817  1.6943  0.1893
  385TMC3    H2 5761   2.083   3.093  12.030 -0.0079 -0.0178 -1.1730
  385TMC3    C7 5762   1.903   3.200  12.183 -0.2182 -0.3665  0.1536
  385TMC3    C8 5763   2.099   3.160  11.754  0.1462 -0.9296 -0.0427
  385TMC3    O1 5764   1.966   3.117  12.242  0.3118  0.3038 -0.2842
  385TMC3    O2 5765   2.068   3.189  11.641 -0.0680  0.3512 -0.5454
  386TMC3    C1 5766   2.199   1.456  11.757 -0.3321  0.0725 -0.0676
  386TMC3    C2 5767   2.195   1.439  11.622  0.5388  0.3240  0.2833
  386TMC3    C3 5768   2.087   1.500  11.553 -0.4128  0.1831  0.6960
  386TMC3    C4 5769   2.116   1.546  11.817 -0.8589 -1.4865  0.9628
  386TMC3    C5 5770   2.017   1.610  11.745 -0.4388  0.2721 -0.0223
  386TMC3    C6 5771   1.996   1.588  11.613 -0.0602  0.1588 -0.0457
  386TMC3     C 5772   2.316   1.412  11.832 -0.5705 -0.1056  0.7116
  386TMC3     O 5773   2.410   1.376  11.764  0.3367 -0.1966  0.4475
  386TMC3     H 5774   2.272   1.380  11.574 -1.4506 -0.3434 -2.1049
  386TMC3    H1 5775   2.140   1.582  11.916  1.5212 -2.1744  0.6402
  386TMC3    H2 5776   1.905   1.619  11.562  0.2300 -0.0489 -0.6915
  386TMC3    C7 5777   1.929   1.703  11.819  0.4968  0.0158  0.6247
  386TMC3    C8 5778   2.065   1.491  11.413  0.5194  0.1321  0.7362
  386TMC3    O1 5779   1.930   1.707  11.940  0.2042  0.4699  0.1267
  386TMC3    O2 5780   2.037   1.590  11.350  0.5250 -0.1915 -0.2519
  387MPD2     C 5781   0.060   1.782  10.048  0.1531  0.8478  0.3471
  387MPD2    C1 5782   0.180   1.779  10.119  0.8736  0.2505  0.4180
  387MPD2    C2 5783   0.241   1.656  10.138  0.3782  0.0310 -0.3125
  387MPD2    C3 5784   0.197   1.540  10.079 -0.1133  0.1213  0.0688
  387MPD2    C4 5785   0.082   1.551   9.999  0.1467  0.2393 -0.5372
  387MPD2    C5 5786   0.015   1.669   9.988  0.1268 -0.8616 -0.1849
  387MPD2     H 5787   0.331   1.662  10.197  0.8509  0.4950 -1.0780
  387MPD2    H1 5788   0.051   1.464   9.943  1.7071 -0.4195 -0.4002
  387MPD2    H2 5789   0.001   1.870  10.022 -0.9499 -0.3388 -1.1401
  387MPD2    H3 5790   4.646   1.665   9.934  0.7340  3.1861 -1.5164
  387MPD2     N 5791   0.270   1.423  10.099  0.1290  0.3051  0.3537
  387MPD2    H5 5792   0.346   1.423  10.166  1.2223 -3.5833 -0.8548
  387MPD2    N1 5793   0.250   1.893  10.160  0.5090 -0.2673 -0.2824
  387MPD2    H7 5794   0.333   1.874  10.216  0.8981  1.1323 -0.3816
  388TMC3    C1 5795   0.326   2.113  10.150 -0.1037 -0.4970 -0.9180
  388TMC3    C2 5796   0.301   2.234  10.089  0.0584  0.1591  0.4363
  388TMC3    C3 5797   0.412   2.310  10.066 -0.1454  0.2430  0.2811
  388TMC3    C4 5798   0.445   2.076  10.189 -0.4900 -0.0806  1.0144
  388TMC3    C5 5799   0.555   2.143  10.137 -0.1183 -0.2803 -0.1054
  388TMC3    C6 5800   0.542   2.267  10.078 -0.1061 -0.2706  0.1648
  388TMC3     C 5801   0.219   2.017  10.117  0.1656 -0.3499 -0.3595
  388TMC3     O 5802   0.117   2.057  10.055  0.1886  0.3085 -0.2449
  388TMC3     H 5803   0.201   2.265  10.062  0.1026 -0.2711 -0.2084
  388TMC3    H1 5804   0.450   2.000  10.265 -1.3437 -0.8914  0.2458
  388TMC3    H2 5805   0.624   2.308  10.020  0.6610 -1.2056  0.5928
  388TMC3    C7 5806   0.663   2.060  10.087  0.3036  0.1043 -0.1408
  388TMC3    C8 5807   0.392   2.428   9.996 -0.0482 -0.2517  0.3962
  388TMC3    O1 5808   0.754   2.110  10.025 -0.0799  0.4599 -0.3575
  388TMC3    O2 5809   0.289   2.430   9.930  0.2563  0.4648  0.1764
  389MPD2     C 5810   4.227   0.191  11.406  0.0770 -0.1994  0.0449
  389MPD2    C1 5811   4.177   0.089  11.331  0.5024  0.9943 -0.8056
  389MPD2    C2 5812   4.070   0.012  11.383 -0.3976  0.3511  0.0895
  389MPD2    C3 5813   4.021   0.032  11.513  0.1988  0.3548  0.1967
  389MPD2    C4 5814   4.076   0.137  11.586 -0.0079  0.5618 -0.7305
  389MPD2    C5 5815   4.181   0.210  11.530  0.0800 -0.2336 -0.3453
  389MPD2     H 5816   4.024   4.658  11.324  0.2988 -0.6985  0.9482
  389MPD2    H1 5817   4.041   0.167  11.684  0.9294 -2.6450  0.6181
  389MPD2    H2 5818   4.307   0.254  11.368  1.5624 -0.1154  3.3330
  389MPD2    H3 5819   4.223   0.290  11.590  2.4071 -1.1536 -0.7262
  389MPD2     N 5820   3.915   4.697  11.574 -0.3654  0.0128 -0.6609
  389MPD2    H5 5821   3.895   0.012  11.665 -1.6928 -0.1654 -0.8809
  389MPD2    N1 5822   4.218   0.091  11.189 -0.0233 -0.3951 -0.0093
  389MPD2    H7 5823   4.298   0.151  11.172 -0.0635 -0.5281 -0.6838
  390TMC3    C1 5824   3.756   4.538  11.636  0.0189  0.4621 -0.3703
  390TMC3    C2 5825   3.669   4.442  11.601  0.1024 -0.5313 -0.1379
  390TMC3    C3 5826   3.585   4.402  11.700  0.6807 -0.2192 -0.0852
  390TMC3    C4 5827   3.752   4.598  11.757  0.0726  0.1471 -0.2632
  390TMC3    C5 5828   3.661   4.560  11.846  0.2579 -0.3194  0.0262
  390TMC3    C6 5829   3.585   4.453  11.825  0.5204 -0.5857 -0.2037
  390TMC3     C 5830   3.850   4.585  11.534  0.5387 -0.5873  0.3525
  390TMC3     O 5831   3.855   4.524  11.429  0.5418 -0.4550 -0.2356
  390TMC3     H 5832   3.670   4.395  11.504 -0.3431 -1.3757  0.2669
  390TMC3    H1 5833   3.807   4.688  11.784 -1.2721 -0.4682  4.5732
  390TMC3    H2 5834   3.518   4.420  11.904  0.7531  2.1522  1.1457
  390TMC3    C7 5835   3.636   4.650  11.961  0.2252  0.6651 -0.4154
  390TMC3    C8 5836   3.496   4.292  11.665 -0.9089  0.6310  0.3647
  390TMC3    O1 5837   3.735   4.714  11.998  0.1254 -0.1681 -0.3020
  390TMC3    O2 5838   3.516   4.229  11.561 -0.3461 -0.3452  0.2749
  391MPD2     C 5839   2.901   1.635  11.356 -0.4529 -0.4037 -0.7018
  391MPD2    C1 5840   3.021   1.679  11.313  0.7089  0.1751  0.4919
  391MPD2    C2 5841   3.056   1.656  11.179 -0.2217 -0.1272  0.6825
  391MPD2    C3 5842   2.973   1.592  11.093 -0.3451  0.1856  0.2268
  391MPD2    C4 5843   2.844   1.555  11.136 -0.0643  0.7328 -0.8709
  391MPD2    C5 5844   2.815   1.574  11.267 -0.2868 -0.4366 -0.0567
  391MPD2     H 5845   3.156   1.684  11.147 -0.9781 -1.5633 -2.8862
  391MPD2    H1 5846   2.787   1.483  11.078 -1.4991 -0.9099  2.6113
  391MPD2    H2 5847   2.874   1.634  11.462 -0.6561 -1.6117 -0.7597
  391MPD2    H3 5848   2.726   1.520  11.300 -0.7204  1.0176  1.1262
  391MPD2     N 5849   3.027   1.563  10.963  0.7134 -0.0191  0.0361
  391MPD2    H5 5850   3.129   1.565  10.961  0.7421  0.7208  3.2260
  391MPD2    N1 5851   3.111   1.732  11.408  0.2484 -0.7382  0.3694
  391MPD2    H7 5852   3.077   1.737  11.503  2.0020 -0.8898  0.9985
  392TMC3    C1 5853   3.040   1.450  10.750  0.3510  0.6558 -0.5863
  392TMC3    C2 5854   2.989   1.346  10.675  0.1071  0.4194 -0.2332
  392TMC3    C3 5855   3.062   1.292  10.578 -0.5184  0.5856 -0.0563
  392TMC3    C4 5856   3.166   1.495  10.732 -0.1227  1.1568 -0.3550
  392TMC3    C5 5857   3.241   1.430  10.631  0.1679 -0.2537  0.3096
  392TMC3    C6 5858   3.195   1.322  10.559 -0.4969  0.0219 -0.6684
  392TMC3     C 5859   2.962   1.502  10.857 -0.3002  0.0822 -0.2992
  392TMC3     O 5860   2.840   1.509  10.839  0.1930  0.2565 -1.0294
  392TMC3     H 5861   2.885   1.320  10.690 -0.0945  0.5581 -1.3847
  392TMC3    H1 5862   3.198   1.586  10.781 -1.0217  0.3011  1.8184
  392TMC3    H2 5863   3.259   1.281  10.481 -0.1511  0.3048 -0.5292
  392TMC3    C7 5864   3.358   1.493  10.594  0.1213  0.3130  0.2042
  392TMC3    C8 5865   3.000   1.201  10.492  0.6946  0.6999  0.0085
  392TMC3    O1 5866   3.411   1.553  10.685 -0.2279 -0.6001 -0.2037
  392TMC3    O2 5867   2.897   1.152  10.541  0.2783  0.5689  0.5013
  393TMC3    C1 5868   2.216   3.512  10.073  0.5892 -0.4526 -0.1133
  393TMC3    C2 5869   2.089   3.501  10.124 -0.0139 -0.2772  0.1118
  393TMC3    C3 5870   2.075   3.504  10.259  0.7314 -0.5180  0.0789
  393TMC3    C4 5871   2.327   3.549  10.148  0.0825 -0.3402 -0.3238
  393TMC3    C5 5872   2.306   3.554  10.282  0.9886 -0.6572 -0.3677
  393TMC3    C6 5873   2.182   3.535  10.337  0.1439 -0.1745  0.2235
  393TMC3     C 5874   2.240   3.508   9.930  0.3257 -0.0195 -0.0420
  393TMC3     O 5875   2.336   3.570   9.882  0.0560  0.4776  0.4018
  393TMC3     H 5876   2.001   3.510  10.062 -0.3752  1.5430  0.9134
  393TMC3    H1 5877   2.422   3.580  10.104 -0.8549  0.9089 -1.4827
  393TMC3    H2 5878   2.175   3.539  10.445 -3.7490 -0.4802 -0.0055
  393TMC3    C7 5879   2.397   3.644  10.365 -0.3740 -0.2485  0.1445
  393TMC3    C8 5880   1.936   3.492  10.307  0.7272 -0.7868  0.5844
  393TMC3    O1 5881   2.346   3.684  10.471 -0.1981 -0.4032 -0.0044
  393TMC3    O2 5882   1.840   3.474  10.230 -0.3975 -0.2491 -0.1767
  394TMC3    C1 5883   4.219   0.053  10.964  0.0459 -0.1806  0.5619
  394TMC3    C2 5884   4.131   0.031  10.861  0.0948  0.8555 -0.2394
  394TMC3    C3 5885   4.177   0.058  10.735 -0.2920  0.8296 -0.1314
  394TMC3    C4 5886   4.350   0.100  10.954 -0.1662 -0.7154  0.5475
  394TMC3    C5 5887   4.386   0.124  10.823  0.4842 -0.2873  0.7775
  394TMC3    C6 5888   4.303   0.100  10.712 -0.1667  0.3894  0.7565
  394TMC3     C 5889   4.160   0.013  11.093 -0.0108 -0.0628 -0.4115
  394TMC3     O 5890   4.069   4.655  11.104  0.4420 -0.2355  0.2565
  394TMC3     H 5891   4.028   0.003  10.879  0.8842 -2.6945 -1.3359
  394TMC3    H1 5892   4.415   0.096  11.041  0.6306  1.4676  0.0498
  394TMC3    H2 5893   4.324   0.136  10.612  1.3567  1.2129  1.3735
  394TMC3    C7 5894   4.518   0.144  10.797 -0.1817  0.6359  0.3285
  394TMC3    C8 5895   4.084   0.029  10.624  0.4901 -0.3380 -0.3738
  394TMC3    O1 5896   4.585   0.205  10.882 -0.8782 -0.6998  0.3654
  394TMC3    O2 5897   3.968   0.059  10.638  0.5607 -0.1801 -0.2432
  395TMC3    C1 5898   2.908   1.984  14.743  0.0297  0.1780 -0.0009
  395TMC3    C2 5899   2.841   1.951  14.857 -0.8544 -0.2772 -0.9982
  395TMC3    C3 5900   2.890   1.994  14.973 -1.0928  0.5041  0.1302
  395TMC3    C4 5901   3.019   2.060  14.740  0.1874 -0.0174 -0.3937
  395TMC3    C5 5902   3.082   2.094  14.858 -0.1664 -0.0102  0.0564
  395TMC3    C6 5903   3.010   2.064  14.973 -0.3453  0.3558 -0.5378
  395TMC3     C 5904   2.855   1.942  14.611 -0.4360  0.7598 -0.2932
  395TMC3     O 5905   2.851   2.031  14.529  0.2150  0.4992  0.0481
  395TMC3     H 5906   2.742   1.907  14.850 -0.0627 -1.9384 -1.7556
  395TMC3    H1 5907   3.059   2.065  14.639 -1.9718  0.8993 -1.2010
  395TMC3    H2 5908   3.057   2.072  15.071  2.0654  1.3806 -1.7870
  395TMC3    C7 5909   3.196   2.181  14.867 -0.0317 -0.0116  0.2332
  395TMC3    C8 5910   2.874   1.914  15.099  0.3113  0.0939  0.1392
  395TMC3    O1 5911   3.212   2.245  14.967  0.2817 -0.4932  0.7256
  395TMC3    O2 5912   2.884   1.972  15.206 -0.2903  0.5195 -0.8536
  396MPD2     C 5913   3.245   2.986  17.348 -0.0198 -0.6233  0.2840
  396MPD2    C1 5914   3.218   2.924  17.229  0.2290 -0.7044 -0.2608
  396MPD2    C2 5915   3.207   3.000  17.113  0.3089  0.2744 -0.2360
  396MPD2    C3 5916   3.223   3.139  17.123 -0.4667 -0.6341 -0.0582
  396MPD2    C4 5917   3.251   3.199  17.242  0.4699  1.1454 -0.0094
  396MPD2    C5 5918   3.271   3.122  17.350  0.0473 -0.2943 -0.9323
  396MPD2     H 5919   3.199   2.961  17.013 -2.9874  0.4153 -0.0217
  396MPD2    H1 5920   3.283   3.301  17.257  0.3847  1.3330 -1.1335
  396MPD2    H2 5921   3.276   2.934  17.439 -0.9253 -0.2362  0.8080
  396MPD2    H3 5922   3.300   3.164  17.446 -0.9305 -1.3742 -0.1651
  396MPD2     N 5923   3.244   3.226  17.010 -0.6860 -0.2107 -0.1825
  396MPD2    H5 5924   3.276   3.320  17.028 -1.1595  0.1223 -1.0445
  396MPD2    N1 5925   3.192   2.785  17.212 -0.0342  0.5457 -0.3390
  396MPD2    H7 5926   3.169   2.746  17.122 -0.5124  0.4924 -0.1947
  397TMC3    C1 5927   3.188   2.560  17.284  0.3664  0.0949  0.1023
  397TMC3    C2 5928   3.243   2.521  17.160 -0.1015 -0.2068 -0.1711
  397TMC3    C3 5929   3.305   2.401  17.158 -0.0034 -0.8264  0.4609
  397TMC3    C4 5930   3.194   2.487  17.397 -0.0226 -0.3367 -0.3160
  397TMC3    C5 5931   3.254   2.365  17.385  0.3111  0.7237 -0.5295
  397TMC3    C6 5932   3.310   2.314  17.262  0.2608  0.1133 -0.3402
  397TMC3     C 5933   3.199   2.702  17.316 -0.2710  0.0491 -0.0636
  397TMC3     O 5934   3.204   2.729  17.434  0.1375 -0.0666  0.2078
  397TMC3     H 5935   3.280   2.588  17.083 -1.7523  1.9008  0.8493
  397TMC3    H1 5936   3.165   2.519  17.497  0.9576 -0.4590  0.0077
  397TMC3    H2 5937   3.379   2.230  17.265 -1.7487 -1.5333 -0.0163
  397TMC3    C7 5938   3.215   2.261  17.479 -0.3914 -0.2612 -0.4813
  397TMC3    C8 5939   3.327   2.350  17.022  0.0436  0.5023 -0.7504
  397TMC3    O1 5940   3.220   2.148  17.430 -0.0871  0.0484  0.7124
  397TMC3    O2 5941   3.374   2.433  16.945 -0.1073 -0.4646 -0.0328
  398MPD2     C 5942   0.605   3.538   0.352  0.6061  0.1140  0.2425
  398MPD2    C1 5943   0.715   3.505   0.423 -0.6106 -0.0592  0.0321
  398MPD2    C2 5944   0.813   3.598   0.456  0.1131  0.0848 -0.1520
  398MPD2    C3 5945   0.799   3.731   0.420 -0.4211  0.0245  0.0851
  398MPD2    C4 5946   0.691   3.763   0.345  0.2484  0.5213  0.1619
  398MPD2    C5 5947   0.605   3.666   0.305 -0.0217  0.6375 -0.2131
  398MPD2     H 5948   0.906   3.569   0.504  0.5230 -1.1230 -1.6884
  398MPD2    H1 5949   0.676   3.867   0.321 -1.7491  0.5442  1.4885
  398MPD2    H2 5950   0.523   3.469   0.333  2.4229 -1.4088 -2.0633
  398MPD2    H3 5951   0.520   3.702   0.249 -0.4564  0.2499  0.1877
  398MPD2     N 5952   0.898   3.826   0.460 -0.0907  0.2727 -0.0657
  398MPD2    H5 5953   0.984   3.786   0.497 -0.7425 -1.8030 -0.7602
  398MPD2    N1 5954   0.744   3.371   0.450 -0.5678  0.1666 -0.8618
  398MPD2    H7 5955   0.838   3.344   0.476 -0.8767  0.3499  0.4839
  399TMC3    C1 5956   0.717   3.139   0.475  0.2810 -0.2255  0.4012
  399TMC3    C2 5957   0.849   3.124   0.443 -0.2631 -0.0656  0.8309
  399TMC3    C3 5958   0.902   2.998   0.481  0.1686 -0.4557 -0.0339
  399TMC3    C4 5959   0.637   3.033   0.520 -0.0483 -0.3457 -0.8202
  399TMC3    C5 5960   0.705   2.918   0.550 -0.0176 -0.2719 -0.6252
  399TMC3    C6 5961   0.829   2.891   0.518 -0.2308 -0.2384 -0.3247
  399TMC3     C 5962   0.655   3.270   0.462 -0.4265  0.5295  0.1639
  399TMC3     O 5963   0.535   3.273   0.443  0.1026 -0.0896  0.2777
  399TMC3     H 5964   0.911   3.194   0.388  0.7928 -0.5008  1.4549
  399TMC3    H1 5965   0.539   3.058   0.559  0.5444  0.2386  0.2962
  399TMC3    H2 5966   0.879   2.798   0.546  0.2085 -0.0843 -0.5981
  399TMC3    C7 5967   0.633   2.815   0.617 -0.1314  0.2829  0.0684
  399TMC3    C8 5968   1.037   2.976   0.439  0.0350  0.3859  0.7636
  399TMC3    O1 5969   0.703   2.724   0.665  0.1455  0.2085 -0.7850
  399TMC3    O2 5970   1.075   2.861   0.413 -0.5060  0.4477  0.0191
  400TMC3    C1 5971   4.665   2.199  17.238  0.3669 -0.6189  0.7935
  400TMC3    C2 5972   4.579   2.192  17.137  0.3782 -0.3394  0.2776
  400TMC3    C3 5973   4.502   2.302  17.118  0.1523 -0.0724  0.3155
  400TMC3    C4 5974   4.693   2.314  17.311  0.1454  0.7372 -0.3196
  400TMC3    C5 5975   4.625   2.425  17.278  0.5102 -0.0386 -0.1400
  400TMC3    C6 5976   4.523   2.423  17.186 -0.3968 -0.1604 -0.8445
  400TMC3     C 5977   0.006   2.072  17.281  0.2971  0.5429 -0.2772
  400TMC3     O 5978   4.672   1.966  17.248  0.0404  0.0049 -0.2303
  400TMC3     H 5979   4.559   2.098  17.087 -1.8923  0.5929 -0.5602
  400TMC3    H1 5980   0.028   2.322  17.401 -2.1728 -2.1416  1.4859
  400TMC3    H2 5981   4.459   2.508  17.166  1.3272  1.2139 -0.5413
  400TMC3    C7 5982   4.631   2.530  17.380 -0.5674 -0.3002 -0.2430
  400TMC3    C8 5983   4.383   2.292  17.029  0.1962  0.2510 -0.0148
  400TMC3    O1 5984   0.005   2.555  17.445  0.1938  0.2234 -0.1728
  400TMC3    O2 5985   4.305   2.388  17.020 -0.3301  0.4123  0.3192
  401MPD2     C 5986   2.772   1.209   0.808  0.3444  0.2444  0.2493
  401MPD2    C1 5987   2.848   1.090   0.814 -0.7404 -0.4798  0.1266
  401MPD2    C2 5988   2.833   0.999   0.716 -0.0194  0.6290 -0.9822
  401MPD2    C3 5989   2.751   1.017   0.608  0.4466  0.8674  0.3774
  401MPD2    C4 5990   2.676   1.137   0.601  0.1263  0.4118  0.2689
  401MPD2    C5 5991   2.684   1.230   0.701 -0.7311  0.0027 -0.5158
  401MPD2     H 5992   2.888   0.907   0.708  0.4926  0.7226  1.4516
  401MPD2    H1 5993   2.615   1.151   0.513 -1.5252 -0.0577  1.3476
  401MPD2    H2 5994   2.766   1.280   0.890 -2.5358  0.7411 -0.3913
  401MPD2    H3 5995   2.626   1.322   0.701 -2.0811 -0.8299  2.8834
  401MPD2     N 5996   2.734   0.916   0.510 -0.4319  0.7334  0.1362
  401MPD2    H5 5997   2.809   0.848   0.508 -1.3777 -0.2625 -1.2173
  401MPD2    N1 5998   2.930   1.056   0.926 -0.3620 -0.1442 -0.8797
  401MPD2    H7 5999   2.964   0.960   0.925 -0.7477 -0.2929  1.1770
  402TMC3    C1 6000   2.645   0.795   0.337  0.0585 -0.0485  0.7069
  402TMC3    C2 6001   2.566   0.688   0.364 -0.4278 -0.2511 -0.6070
  402TMC3    C3 6002   2.621   0.566   0.359 -0.0532 -0.7848  0.1552
  402TMC3    C4 6003   2.769   0.783   0.280 -0.5663  0.5459  0.1270
  402TMC3    C5 6004   2.816   0.650   0.263 -0.6282 -0.4244 -0.5776
  402TMC3    C6 6005   2.743   0.539   0.298  0.3324  0.1775  0.8835
  402TMC3     C 6006   2.623   0.897   0.434 -0.0310 -0.0779 -0.0156
  402TMC3     O 6007   2.511   0.950   0.441 -0.0354 -0.1446  0.3595
  402TMC3     H 6008   2.478   0.707   0.425  0.2681  1.2072 -0.0646
  402TMC3    H1 6009   2.836   0.867   0.269 -1.3002  1.1640  0.4138
  402TMC3    H2 6010   2.787   0.440   0.304 -1.2089 -0.5674 -0.2754
  402TMC3    C7 6011   2.950   0.636   0.219  0.3350  0.1369 -0.0297
  402TMC3    C8 6012   2.561   0.446   0.423  0.0954  0.2952  0.4037
  402TMC3    O1 6013   3.018   0.735   0.224  0.0961  0.3849  0.5394
  402TMC3    O2 6014   2.621   0.338   0.406  0.4798  0.2314 -0.0222
  403MPD2     C 6015   1.098   4.446  13.416  0.4254  0.4875  0.0859
  403MPD2    C1 6016   1.107   4.333  13.489  0.2763  0.4398 -0.0707
  403MPD2    C2 6017   1.171   4.344  13.607 -0.1255 -0.1512  0.1804
  403MPD2    C3 6018   1.191   4.464  13.666  0.5604  0.6572  0.3528
  403MPD2    C4 6019   1.169   4.583  13.598 -0.1286 -0.1063 -0.1709
  403MPD2    C5 6020   1.119   4.570  13.472  0.2627 -0.0210 -0.6851
  403MPD2     H 6021   1.189   4.255  13.666  0.4831 -1.7123 -2.3638
  403MPD2    H1 6022   1.190   4.682  13.638  2.2810 -0.3155 -0.9347
  403MPD2    H2 6023   1.044   4.441  13.323 -1.2238  0.6080  1.0369
  403MPD2    H3 6024   1.110   4.660  13.412 -1.9025  0.6331  0.6154
  403MPD2     N 6025   1.233   4.461  13.801 -0.6057 -0.0211  0.8165
  403MPD2    H5 6026   1.240   4.370  13.845 -0.9074 -0.8322 -0.8272
  403MPD2    N1 6027   1.071   4.217  13.417 -0.0057 -0.2344  0.1808
  403MPD2    H7 6028   1.033   4.219  13.323 -1.1782  2.5156  0.6969
  404TMC3    C1 6029   1.064   3.974  13.368  0.9913  0.8242  0.1504
  404TMC3    C2 6030   1.057   3.855  13.434 -0.0551 -0.5200  0.2054
  404TMC3    C3 6031   1.034   3.740  13.361 -0.1729  0.5379 -0.2370
  404TMC3    C4 6032   1.070   3.983  13.233  0.2150  0.0368  1.1113
  404TMC3    C5 6033   1.045   3.865  13.162  0.9993  0.3000  0.2731
  404TMC3    C6 6034   1.009   3.746  13.226 -0.2205 -0.4581 -0.5218
  404TMC3     C 6035   1.084   4.087  13.462  0.9312 -0.0605  0.1119
  404TMC3     O 6036   1.104   4.059  13.579  0.3399 -0.9012 -0.7260
  404TMC3     H 6037   1.061   3.847  13.542  1.9033  0.4036  0.1941
  404TMC3    H1 6038   1.087   4.077  13.182  2.3342 -1.5140 -1.0502
  404TMC3    H2 6039   0.982   3.662  13.164 -0.3090 -1.2947  0.6451
  404TMC3    C7 6040   1.043   3.883  13.017  0.1522  1.0848  0.5392
  404TMC3    C8 6041   1.077   3.615  13.421 -0.6094  0.0952 -0.3911
  404TMC3    O1 6042   1.102   3.983  12.965  0.3375  0.4549  0.6695
  404TMC3    O2 6043   1.130   3.533  13.349 -0.5678  0.4331 -0.2638
  405MPD2     C 6044   1.131   4.182  15.104  0.4761  0.0823 -0.2985
  405MPD2    C1 6045   1.164   4.213  14.979 -0.1305  0.4981  0.0269
  405MPD2    C2 6046   1.187   4.349  14.941 -0.0635  0.4289 -0.6388
  405MPD2    C3 6047   1.182   4.446  15.036  0.2560  0.4767  0.6719
  405MPD2    C4 6048   1.156   4.417  15.169  0.0114  0.3557  0.2400
  405MPD2    C5 6049   1.120   4.287  15.200  0.1737  0.4162 -0.3407
  405MPD2     H 6050   1.192   4.387  14.840 -1.3167 -0.4865 -1.0392
  405MPD2    H1 6051   1.156   4.492  15.247 -0.4148  0.8127 -0.1997
  405MPD2    H2 6052   1.102   4.080  15.124  2.1630 -0.5477 -1.1044
  405MPD2    H3 6053   1.093   4.259  15.301  1.7829 -0.1348 -0.0654
  405MPD2     N 6054   1.200   4.580  14.994  0.0965 -0.0517  0.0163
  405MPD2    H5 6055   1.239   4.593  14.901  0.3663  0.2516  0.1761
  405MPD2    N1 6056   1.170   4.103  14.890 -0.1863 -0.4825 -0.5951
  405MPD2    H7 6057   1.144   4.012  14.926  1.2332 -0.4835  0.4292
  406TMC3    C1 6058   1.097   0.276  14.917  0.4560  0.0330  0.2041
  406TMC3    C2 6059   1.142   0.254  14.794  0.4906  0.3837 -0.3132
  406TMC3    C3 6060   1.224   0.157  14.767 -0.2744  0.1396  0.3798
  406TMC3    C4 6061   1.131   0.198  15.024  0.6151  0.0949  0.7428
  406TMC3    C5 6062   1.218   0.095  14.996 -0.3830 -0.5689  0.2815
  406TMC3    C6 6063   1.275   0.084  14.871 -0.2408 -0.2700  0.2492
  406TMC3     C 6064   0.971   0.337  14.927  0.1471 -0.2058  0.3075
  406TMC3     O 6065   0.921   0.335  15.038  0.0698  0.2779 -0.6325
  406TMC3     H 6066   1.121   0.328  14.717  0.5554  1.1631  0.4183
  406TMC3    H1 6067   1.076   0.195  15.118 -2.0345 -2.3813 -0.8989
  406TMC3    H2 6068   1.335   4.720  14.851 -2.0308 -1.2989 -0.5745
  406TMC3    C7 6069   1.194   4.695  15.074 -0.6835  0.6588  0.3029
  406TMC3    C8 6070   1.192   0.102  14.638  0.6665  0.8512 -0.2074
  406TMC3    O1 6071   1.148   4.703  15.186  0.6749  0.6300  0.0595
  406TMC3    O2 6072   1.112   0.169  14.574  0.1978  0.4298 -0.3056
  407MPD2     C 6073   4.652   1.150   9.538 -0.4051  0.1647 -0.1558
  407MPD2    C1 6074   4.706   1.198   9.655  0.2389  0.2800 -0.2043
  407MPD2    C2 6075   4.625   1.243   9.756 -0.2391 -0.5484 -0.2273
  407MPD2    C3 6076   4.494   1.259   9.748  0.2656  0.2180 -0.2889
  407MPD2    C4 6077   4.436   1.224   9.627 -0.1015 -0.3133 -0.1607
  407MPD2    C5 6078   4.512   1.164   9.529  0.3426  0.0486  0.2623
  407MPD2     H 6079   4.680   1.266   9.846  0.7960 -3.1381 -0.2107
  407MPD2    H1 6080   4.330   1.234   9.609 -0.1735 -0.7329  0.0336
  407MPD2    H2 6081   4.696   1.103   9.450  1.2074  1.5196 -0.0660
  407MPD2    H3 6082   4.455   1.121   9.448 -1.2677  0.5296  1.1400
  407MPD2     N 6083   4.432   1.328   9.852 -0.3130 -0.4736  1.0633
  407MPD2    H5 6084   4.485   1.331   9.938  0.3862  1.7195  0.5560
  407MPD2    N1 6085   0.122   1.192   9.679  0.0436  0.1436  0.3554
  407MPD2    H7 6086   0.141   1.238   9.768  3.0360  1.0082 -0.7257
  408TMC3    C1 6087   0.357   1.163   9.635 -0.6876  0.3088  0.5966
  408TMC3    C2 6088   0.454   1.071   9.622  0.8181 -0.1706  0.0109
  408TMC3    C3 6089   0.585   1.109   9.642  0.0925  0.4211  0.0770
  408TMC3    C4 6090   0.382   1.294   9.653 -0.5230 -0.1378 -0.1037
  408TMC3    C5 6091   0.511   1.323   9.676 -0.3672  0.3012 -0.6368
  408TMC3    C6 6092   0.613   1.235   9.663  0.6289 -0.2932  0.7029
  408TMC3     C 6093   0.224   1.134   9.596 -0.0221  0.1495  0.1284
  408TMC3     O 6094   0.207   1.047   9.514 -0.4508 -0.1917  0.0810
  408TMC3     H 6095   0.424   0.967   9.608 -0.4028  0.2945 -0.8429
  408TMC3    H1 6096   0.296   1.359   9.660 -0.1639  0.4104 -0.7326
  408TMC3    H2 6097   0.718   1.259   9.672  0.6093  0.2500 -0.5348
  408TMC3    C7 6098   0.552   1.459   9.674 -0.0066 -0.3201 -0.3573
  408TMC3    C8 6099   0.678   1.001   9.659  0.0059  0.1553 -0.2939
  408TMC3    O1 6100   0.671   1.480   9.652 -0.4916 -0.1393 -0.6411
  408TMC3    O2 6101   0.645   0.892   9.610  0.0864 -0.0778 -0.1313
  409MPD2     C 6102   3.587   2.058  16.759 -0.0302  0.1874 -0.4041
  409MPD2    C1 6103   3.590   2.050  16.894 -0.1364 -0.7931 -0.7351
  409MPD2    C2 6104   3.626   2.151  16.973 -0.0034 -0.0511  0.2437
  409MPD2    C3 6105   3.664   2.272  16.915  0.6227  0.7839 -0.4396
  409MPD2    C4 6106   3.658   2.284  16.776  0.2993  0.2705  0.9126
  409MPD2    C5 6107   3.616   2.180  16.699 -0.3645  0.3487 -0.1323
  409MPD2     H 6108   3.647   2.138  17.078 -0.1618 -0.4577  0.2279
  409MPD2    H1 6109   3.678   2.373  16.717 -1.4414  0.0281 -0.0576
  409MPD2    H2 6110   3.575   1.975  16.690 -1.6376  0.3899 -0.3514
  409MPD2    H3 6111   3.612   2.184  16.591 -2.1016 -0.2173 -0.0803
  409MPD2     N 6112   3.734   2.371  16.983  0.3696 -0.4415 -0.1044
  409MPD2    H5 6113   3.780   2.446  16.933  0.9741 -0.8153 -0.1155
  409MPD2    N1 6114   3.565   1.930  16.962  0.1208  0.2390  0.3769
  409MPD2    H7 6115   3.550   1.934  17.063  0.7201  4.0824  0.2987
  410TMC3    C1 6116   3.863   2.467  17.153 -0.9969  0.8726 -0.4075
  410TMC3    C2 6117   3.933   2.413  17.253  1.4183 -0.8307 -0.4164
  410TMC3    C3 6118   4.056   2.459  17.282 -0.0896  0.5430 -0.3839
  410TMC3    C4 6119   3.907   2.569  17.075 -0.0538  0.8421 -0.2018
  410TMC3    C5 6120   4.034   2.606  17.106 -0.7024  0.1934  0.0312
  410TMC3    C6 6121   4.112   2.561  17.205 -0.0156 -0.0877  0.6047
  410TMC3     C 6122   3.749   2.387  17.122  0.2462 -0.0968 -0.4479
  410TMC3     O 6123   3.709   2.318  17.212 -0.1634 -0.2114  0.1195
  410TMC3     H 6124   3.899   2.319  17.294 -2.0436 -0.0456 -1.4567
  410TMC3    H1 6125   3.848   2.608  16.993 -1.1633 -1.2522 -0.3906
  410TMC3    H2 6126   4.217   2.587  17.205  0.1910 -0.9481 -1.8045
  410TMC3    C7 6127   4.100   2.707  17.016 -0.2231 -0.3448  0.1498
  410TMC3    C8 6128   4.159   2.370  17.335  0.0336 -0.5928  0.1198
  410TMC3    O1 6129   4.037   2.814  16.998 -0.6165  0.6064 -0.0770
  410TMC3    O2 6130   4.265   2.424  17.365  0.7738 -0.3400 -0.3453
  411MPD2     C 6131   3.190   3.122  14.292  0.2153 -0.4183  0.0806
  411MPD2    C1 6132   3.268   3.079  14.399  0.6708  0.7263 -0.3530
  411MPD2    C2 6133   3.249   2.944  14.447  0.5939  0.3844 -0.4851
  411MPD2    C3 6134   3.156   2.865  14.389 -0.2006  0.2329  0.3308
  411MPD2    C4 6135   3.087   2.903  14.275  0.1249  0.1842  0.3385
  411MPD2    C5 6136   3.110   3.037  14.228 -0.4683  0.0554 -0.3903
  411MPD2     H 6137   3.289   2.922  14.545  1.8211  1.3995 -0.7411
  411MPD2    H1 6138   3.006   2.845  14.231  0.6272 -0.8531  0.7777
  411MPD2    H2 6139   3.199   3.225  14.260  2.0288 -0.8857 -0.8977
  411MPD2    H3 6140   3.065   3.061  14.132  0.9851 -0.9337 -1.3183
  411MPD2     N 6141   3.112   2.741  14.445 -0.4531 -0.3427  0.6255
  411MPD2    H5 6142   3.059   2.678  14.385 -0.2433 -1.7850  1.9594
  411MPD2    N1 6143   3.345   3.177  14.462 -0.0368  0.0358  0.6283
  411MPD2    H7 6144   3.321   3.273  14.439  0.7281  0.4081  1.4050
  412TMC3    C1 6145   3.097   2.554  14.595 -0.3160  0.5039  0.5934
  412TMC3    C2 6146   3.028   2.523  14.716  0.5121  0.5728 -0.2207
  412TMC3    C3 6147   2.942   2.416  14.715 -0.0124 -0.3514  0.2433
  412TMC3    C4 6148   3.072   2.474  14.492 -0.2027  0.5975 -0.4263
  412TMC3    C5 6149   2.975   2.371  14.491  0.4944  0.4324 -0.4267
  412TMC3    C6 6150   2.919   2.338  14.609  0.4657  0.1314  0.7480
  412TMC3     C 6151   3.146   2.693  14.570 -0.1003  0.1160 -0.3708
  412TMC3     O 6152   3.197   2.749  14.665 -0.0184 -0.2467 -0.5359
  412TMC3     H 6153   3.023   2.593  14.799  0.0544 -1.8024  1.7574
  412TMC3    H1 6154   3.094   2.512  14.393 -0.8925 -0.4902 -1.0022
  412TMC3    H2 6155   2.847   2.257  14.616  0.5940  0.1259  1.9025
  412TMC3    C7 6156   2.887   2.372  14.374 -0.0074  0.2948 -0.2221
  412TMC3    C8 6157   2.859   2.404  14.836 -0.1335 -0.6306  0.1122
  412TMC3    O1 6158   2.916   2.443  14.280  0.1462  0.1927 -0.6660
  412TMC3    O2 6159   2.907   2.428  14.947  0.4551 -0.5665 -0.3314
  413MPD2     C 6160   0.616   1.394  15.731  0.4434  0.5737 -0.6716
  413MPD2    C1 6161   0.571   1.393  15.599  0.0320  0.4967  0.3245
  413MPD2    C2 6162   0.639   1.308  15.508 -0.1162  0.4018  0.1388
  413MPD2    C3 6163   0.751   1.230  15.545 -0.2597 -0.5905 -0.0875
  413MPD2    C4 6164   0.792   1.240  15.681 -0.4446 -0.3751  0.0326
  413MPD2    C5 6165   0.731   1.328  15.764 -0.0503 -0.5891 -0.3983
  413MPD2     H 6166   0.612   1.308  15.403 -1.5781  1.2114  0.5151
  413MPD2    H1 6167   0.886   1.191  15.705 -0.3148  0.4422  1.1908
  413MPD2    H2 6168   0.568   1.447  15.813  0.1835  1.2772 -1.2823
  413MPD2    H3 6169   0.776   1.347  15.861  1.5397 -1.5594 -0.9579
  413MPD2     N 6170   0.821   1.149  15.452 -0.7838  0.2775 -0.0315
  413MPD2    H5 6171   0.792   1.151  15.355  0.6533  2.9368 -0.4215
  413MPD2    N1 6172   0.452   1.461  15.569  0.8487  0.3168 -0.1226
  413MPD2    H7 6173   0.401   1.504  15.645 -0.7489  0.4734 -1.2712
  414TMC3    C1 6174   0.979   1.008  15.362  0.2276  0.2854 -0.2549
  414TMC3    C2 6175   0.871   0.956  15.293 -0.6881 -0.1263 -0.7040
  414TMC3    C3 6176   0.901   0.888  15.178  0.1941 -0.1353 -0.5417
  414TMC3    C4 6177   1.109   1.003  15.319 -0.0825 -0.3920 -0.5830
  414TMC3    C5 6178   1.136   0.936  15.203  0.2478 -0.2806 -0.4909
  414TMC3    C6 6179   1.037   0.881  15.135  0.7022  0.4776 -0.7872
  414TMC3     C 6180   0.944   1.087  15.477  0.0868 -0.9531  0.6917
  414TMC3     O 6181   1.024   1.095  15.567 -1.4743  0.2803  0.1546
  414TMC3     H 6182   0.774   0.946  15.340  0.1849 -1.2816  0.8528
  414TMC3    H1 6183   1.186   1.040  15.385  1.9465 -0.3042 -3.0073
  414TMC3    H2 6184   1.057   0.850  15.033 -0.4089 -2.4639 -0.1182
  414TMC3    C7 6185   1.258   0.864  15.208 -0.4979 -0.3020 -0.1378
  414TMC3    C8 6186   0.833   0.761  15.154  0.0027 -0.4560  0.2921
  414TMC3    O1 6187   1.332   0.881  15.303 -0.7847  0.5613  0.0750
  414TMC3    O2 6188   0.902   0.677  15.099 -0.0840  0.0217  0.0253
  415TMC3    C1 6189   2.042   2.985   9.650 -0.1196 -0.2483 -1.1114
  415TMC3    C2 6190   2.120   3.025   9.544 -0.7122  0.5902  0.6293
  415TMC3    C3 6191   2.096   2.963   9.423 -0.3125 -1.1404  0.1649
  415TMC3    C4 6192   1.944   2.896   9.641  0.3525 -0.9252 -0.3536
  415TMC3    C5 6193   1.911   2.850   9.516  0.3480 -0.0839 -0.2078
  415TMC3    C6 6194   1.983   2.880   9.408  0.3692  0.4510  0.3168
  415TMC3     C 6195   2.066   3.029   9.787 -0.4146 -0.6483  0.3361
  415TMC3     O 6196   1.969   3.023   9.858 -0.0488 -0.3433 -0.7989
  415TMC3     H 6197   2.193   3.105   9.543  0.8546 -0.8359 -0.2324
  415TMC3    H1 6198   1.891   2.861   9.729  0.7489  1.1236  0.7068
  415TMC3    H2 6199   1.959   2.845   9.309 -0.7070  1.3351  0.2678
  415TMC3    C7 6200   1.798   2.756   9.496  0.2644  0.7626 -0.1436
  415TMC3    C8 6201   2.169   2.991   9.299  0.0906  0.2350 -0.6380
  415TMC3    O1 6202   1.782   2.707   9.386  0.1699 -0.0477  0.4704
  415TMC3    O2 6203   2.102   2.987   9.197 -0.0785  0.0410  0.3072
  416MPD2     C 6204   3.303   2.914  11.593  0.2385  0.6554  0.8587
  416MPD2    C1 6205   3.212   2.848  11.519 -0.1859  0.0360  0.1060
  416MPD2    C2 6206   3.254   2.763  11.414 -0.8328 -0.2032  0.4422
  416MPD2    C3 6207   3.386   2.756  11.388 -0.3058 -0.0275  0.5802
  416MPD2    C4 6208   3.475   2.834  11.458  1.1046 -0.4194  0.4094
  416MPD2    C5 6209   3.436   2.910  11.565 -0.9239 -0.3832  0.6828
  416MPD2     H 6210   3.180   2.702  11.364 -1.2213  1.2827 -0.7809
  416MPD2    H1 6211   3.580   2.810  11.446  1.3809 -0.4933  2.9337
  416MPD2    H2 6212   3.264   2.967  11.679  0.1620  1.3062  0.4224
  416MPD2    H3 6213   3.508   2.952  11.634 -1.5338  1.6303  0.0825
  416MPD2     N 6214   3.445   2.665  11.296  0.1936  0.1489 -0.2261
  416MPD2    H5 6215   3.544   2.646  11.311  0.2514  0.4373 -0.2256
  416MPD2    N1 6216   3.076   2.868  11.560  0.8161  0.0394 -0.3834
  416MPD2    H7 6217   3.060   2.942  11.626  0.6815 -0.7758  0.4949
  417TMC3    C1 6218   2.843   2.870  11.529  0.2104  0.1529  0.0417
  417TMC3    C2 6219   2.812   2.943  11.644  0.1648 -0.1979 -0.4022
  417TMC3    C3 6220   2.708   3.034  11.637  0.4899  0.6454  0.0340
  417TMC3    C4 6221   2.775   2.891  11.416  0.4764  0.6244 -0.4467
  417TMC3    C5 6222   2.674   2.983  11.410 -0.5610 -0.2854 -0.0976
  417TMC3    C6 6223   2.642   3.059  11.519  0.2271 -0.3990 -0.1502
  417TMC3     C 6224   2.971   2.805  11.500  0.6035 -0.6822  0.3836
  417TMC3     O 6225   2.969   2.724  11.407  0.1279 -0.0728 -0.4221
  417TMC3     H 6226   2.884   2.939  11.725 -1.5589 -0.1732  1.1364
  417TMC3    H1 6227   2.796   2.835  11.325 -0.0179  0.2058 -0.3052
  417TMC3    H2 6228   2.560   3.126  11.500  0.6642  0.5684  1.3788
  417TMC3    C7 6229   2.646   3.044  11.283 -0.1915  1.0921  0.3698
  417TMC3    C8 6230   2.632   3.062  11.757  0.1245  0.4599  0.7320
  417TMC3    O1 6231   2.663   3.166  11.278 -0.5147 -0.1478  0.4802
  417TMC3    O2 6232   2.546   3.150  11.743  0.3753  0.1931  0.1160
  418TMC3    C1 6233   1.222   4.100   0.361  0.1151 -0.0666 -0.1495
  418TMC3    C2 6234   1.092   4.112   0.380 -0.1489  0.5524 -0.0183
  418TMC3    C3 6235   1.026   4.031   0.474  0.5649  0.3136  0.0504
  418TMC3    C4 6236   1.299   4.030   0.445 -0.2804 -0.0086  0.0016
  418TMC3    C5 6237   1.240   3.972   0.554 -0.0441  0.0273  0.1381
  418TMC3    C6 6238   1.099   3.961   0.565  0.1815  0.4727 -0.0596
  418TMC3     C 6239   1.273   4.147   0.236 -0.1820  0.6546  0.1348
  418TMC3     O 6240   1.241   4.259   0.194  0.5812  0.0804 -0.2566
  418TMC3     H 6241   1.044   4.159   0.294 -0.6739 -2.0365 -1.1502
  418TMC3    H1 6242   1.405   4.033   0.425 -0.0244 -2.7178  0.9883
  418TMC3    H2 6243   1.042   3.897   0.631 -0.3153  1.0736  0.1018
  418TMC3    C7 6244   1.310   3.891   0.653  0.5792 -0.0834 -0.2840
  418TMC3    C8 6245   0.905   3.962   0.427  0.0770  0.4909 -0.4142
  418TMC3    O1 6246   1.247   3.822   0.731 -0.6785  0.7002  0.1559
  418TMC3    O2 6247   0.837   4.039   0.356 -0.4562  0.5872 -0.4740
  419MPD2     C 6248   0.574   2.546  12.676 -0.8857 -0.0766 -0.4070
  419MPD2    C1 6249   0.449   2.599  12.644 -0.5155 -0.9394 -0.5416
  419MPD2    C2 6250   0.380   2.644  12.756  0.0785 -0.5579 -0.3015
  419MPD2    C3 6251   0.429   2.642  12.885 -0.7812  0.3519  0.6169
  419MPD2    C4 6252   0.549   2.594  12.915 -0.1725  0.6066  0.4671
  419MPD2    C5 6253   0.623   2.545  12.808  0.5056  0.6973 -0.0286
  419MPD2     H 6254   0.280   2.685  12.748 -0.5123 -1.6634  1.6055
  419MPD2    H1 6255   0.593   2.581  13.013 -1.4260  1.7749  1.1780
  419MPD2    H2 6256   0.638   2.499  12.602  0.5470  0.3054  0.5895
  419MPD2    H3 6257   0.717   2.495  12.831 -0.5927 -0.7901  1.2185
  419MPD2     N 6258   0.351   2.705  12.983 -0.3972 -0.1602  0.1248
  419MPD2    H5 6259   0.267   2.757  12.959 -0.1686 -0.9849 -2.5068
  419MPD2    N1 6260   0.392   2.597  12.516 -0.1940  0.5285 -0.7301
  419MPD2    H7 6261   0.306   2.649  12.500 -1.7440 -1.9201 -0.2087
  420TMC3    C1 6262   0.279   2.775  13.197  0.0810  0.6153  0.2060
  420TMC3    C2 6263   0.182   2.856  13.142 -0.4886  0.4865 -0.0703
  420TMC3    C3 6264   0.083   2.905  13.221 -0.9547  0.1945  0.7861
  420TMC3    C4 6265   0.289   2.763  13.335 -0.4588 -0.9005 -0.4747
  420TMC3    C5 6266   0.199   2.821  13.414 -0.3113 -1.0495 -0.0417
  420TMC3    C6 6267   0.087   2.882  13.354  0.0872 -0.3375 -0.2737
  420TMC3     C 6268   0.378   2.697  13.121  0.2449  0.2105 -0.3899
  420TMC3     O 6269   0.467   2.638  13.180 -0.1394  0.1043  0.1378
  420TMC3     H 6270   0.163   2.861  13.035  2.1763  3.2535 -0.3961
  420TMC3    H1 6271   0.347   2.684  13.381  2.2218  0.4390 -1.5469
  420TMC3    H2 6272   0.018   2.932  13.421  0.1160  1.4556 -1.5842
  420TMC3    C7 6273   0.212   2.814  13.559 -0.5349  0.1486 -0.1425
  420TMC3    C8 6274   4.687   2.964  13.164 -0.4352  0.1416  0.3606
  420TMC3    O1 6275   0.326   2.798  13.597 -0.1913  0.0042 -0.0674
  420TMC3    O2 6276   4.704   3.018  13.055  0.3331 -0.0687 -0.2505
  421TMC3    C1 6277   1.332   4.529  14.007  0.1055  0.1642 -0.7225
  421TMC3    C2 6278   1.359   4.632  14.093 -0.6344 -0.4920 -0.3097
  421TMC3    C3 6279   1.421   4.611  14.211 -0.1174 -0.5822 -0.2975
  421TMC3    C4 6280   1.381   4.401  14.033 -0.0777  0.0651  0.1670
  421TMC3    C5 6281   1.443   4.375  14.157 -0.0172 -0.4972  0.4238
  421TMC3    C6 6282   1.454   4.480  14.248 -0.3418 -0.0354 -0.0308
  421TMC3     C 6283   1.275   4.564  13.878 -0.0146 -0.5688  0.0381
  421TMC3     O 6284   1.248   4.678  13.858 -0.1427 -0.0014 -0.1913
  421TMC3     H 6285   1.326   0.006  14.060 -1.3905 -0.3993  0.6977
  421TMC3    H1 6286   1.388   4.320  13.962  2.6935 -0.7398  1.3686
  421TMC3    H2 6287   1.504   4.470  14.344 -0.6505  1.7153  0.3010
  421TMC3    C7 6288   1.500   4.243  14.193  0.0015  0.7037  0.1747
  421TMC3    C8 6289   1.503   4.709  14.282  0.2356  0.4407 -0.1779
  421TMC3    O1 6290   1.594   4.238  14.270  0.6066 -0.1588 -0.6364
  421TMC3    O2 6291   1.616   4.685  14.315  0.9871 -0.1384  0.1551
  422TMC3    C1 6292   4.092   1.104  12.671 -0.3365 -0.3614 -0.3511
  422TMC3    C2 6293   4.081   1.214  12.755  0.3653 -0.3752  0.1610
  422TMC3    C3 6294   3.987   1.212  12.852  0.2426  0.1011 -0.8590
  422TMC3    C4 6295   4.013   0.994  12.687  0.0486  0.2360  0.4432
  422TMC3    C5 6296   3.923   0.997  12.790  0.4613  0.7316 -0.8795
  422TMC3    C6 6297   3.904   1.105  12.873  0.3764  0.3643 -0.5654
  422TMC3     C 6298   4.211   1.086  12.592  0.0358 -0.2740 -0.5509
  422TMC3     O 6299   4.289   1.181  12.584 -0.2814 -0.5895 -0.0226
  422TMC3     H 6300   4.167   1.280  12.754  0.2116 -0.1718  0.2163
  422TMC3    H1 6301   3.999   0.918  12.611 -1.2171  0.6941  0.2289
  422TMC3    H2 6302   3.844   1.107  12.963  0.0716 -0.7995 -0.7502
  422TMC3    C7 6303   3.853   0.870  12.813 -0.5488 -0.0237  0.0812
  422TMC3    C8 6304   3.973   1.336  12.933  0.2341 -0.4272 -0.3250
  422TMC3    O1 6305   3.921   0.772  12.785  0.3459  0.1170 -1.1120
  422TMC3    O2 6306   4.059   1.425  12.920  0.1296  0.2119 -0.2533
  423MPD2     C 6307   1.190   1.482   0.829  0.2217 -0.1095 -0.4130
  423MPD2    C1 6308   1.110   1.578   0.771 -0.3144  0.1758 -0.1394
  423MPD2    C2 6309   1.105   1.588   0.631 -0.3812 -1.0955 -0.3483
  423MPD2    C3 6310   1.168   1.488   0.550 -0.2498  0.3460 -0.3253
  423MPD2    C4 6311   1.258   1.411   0.612 -0.3397  0.0901  0.3947
  423MPD2    C5 6312   1.270   1.402   0.750 -0.5145 -0.7252  0.1054
  423MPD2     H 6313   1.035   1.652   0.577 -0.5779  0.6050  1.9258
  423MPD2    H1 6314   1.303   1.333   0.552  2.0643  1.7626 -0.0062
  423MPD2    H2 6315   1.205   1.471   0.936 -2.9289 -1.7444 -0.1435
  423MPD2    H3 6316   1.322   1.320   0.797  0.5911 -0.7952 -1.2552
  423MPD2     N 6317   1.148   1.472   0.413  0.4065 -0.1826 -0.3258
  423MPD2    H5 6318   1.186   1.385   0.380 -0.0780 -0.3992 -0.3195
  423MPD2    N1 6319   1.024   1.650   0.854 -0.7027  0.3120  0.7948
  423MPD2    H7 6320   1.022   1.634   0.954  1.1144 -2.4475  0.3893
  424TMC3    C1 6321   0.878   1.822   0.920  0.0144  0.7628 -0.4209
  424TMC3    C2 6322   0.777   1.736   0.934 -0.4305  0.3925  0.2551
  424TMC3    C3 6323   0.674   1.773   1.018  0.1750 -0.1721  0.9481
  424TMC3    C4 6324   0.896   1.938   0.986 -0.1613  0.3633  0.1207
  424TMC3    C5 6325   0.790   1.966   1.070  0.1044 -0.7644  0.5852
  424TMC3    C6 6326   0.680   1.888   1.096 -0.8314 -0.8678 -0.2289
  424TMC3     C 6327   0.980   1.771   0.824 -0.1198  0.3597  0.3200
  424TMC3     O 6328   1.012   1.855   0.740 -0.2437  0.0260  0.3495
  424TMC3     H 6329   0.780   1.639   0.886  0.1242  0.6919 -0.3125
  424TMC3    H1 6330   0.978   2.006   0.963 -0.1092  0.0360 -0.6446
  424TMC3    H2 6331   0.600   1.917   1.163 -1.3551 -0.4887 -1.0290
  424TMC3    C7 6332   0.798   2.095   1.136 -0.4509 -0.2561  0.3494
  424TMC3    C8 6333   0.559   1.689   1.012  0.4769  0.3447  0.4906
  424TMC3    O1 6334   0.855   2.182   1.072  0.1920 -0.5034  0.1319
  424TMC3    O2 6335   0.572   1.590   0.939  0.1174 -0.2908  0.2976
  425MPD2     C 6336   4.582   1.017  17.411  0.1900  0.5524  0.2670
  425MPD2    C1 6337   4.513   0.903  17.377  0.6210  0.0594 -0.1456
  425MPD2    C2 6338   4.375   0.917  17.367 -0.3879 -0.6812 -0.3555
  425MPD2    C3 6339   4.312   1.039  17.365  0.7324 -0.7898 -0.2595
  425MPD2    C4 6340   4.395   1.148  17.383 -0.9589  0.5045 -0.0088
  425MPD2    C5 6341   4.524   1.142  17.408 -0.8352  1.0709  0.2008
  425MPD2     H 6342   4.316   0.827  17.356  0.7481 -1.4157 -0.5462
  425MPD2    H1 6343   4.349   1.246  17.391 -0.6812  0.5043  1.5908
  425MPD2    H2 6344   4.690   1.011  17.412  0.1423 -0.3536 -0.8300
  425MPD2    H3 6345   4.582   1.232  17.425  2.4184 -1.0406  0.2647
  425MPD2     N 6346   4.170   1.046  17.358  0.2549  0.1743 -0.5231
  425MPD2    H5 6347   4.113   0.962  17.370 -0.3738  0.6602 -0.0797
  425MPD2    N1 6348   4.568   0.777  17.359 -0.2107  0.2976 -0.2206
  425MPD2    H7 6349   4.505   0.701  17.337  1.9183 -1.1069 -1.5241
  426TMC3    C1 6350   4.713   0.598  17.355 -0.0967 -0.7347  0.3817
  426TMC3    C2 6351   4.631   0.559  17.252  0.1122 -0.4000 -0.1445
  426TMC3    C3 6352   4.640   0.425  17.224  0.4400 -0.9231 -0.6862
  426TMC3    C4 6353   0.058   0.522  17.441 -0.3183  0.3981  0.1185
  426TMC3    C5 6354   0.055   0.388  17.418 -0.4269 -0.3133 -0.2018
  426TMC3    C6 6355   4.710   0.344  17.309 -0.2505  0.2419 -0.4538
  426TMC3     C 6356   4.693   0.733  17.398  0.3624  0.0994  0.3693
  426TMC3     O 6357   0.055   0.784  17.467 -0.3208 -0.0772 -0.7420
  426TMC3     H 6358   4.610   0.627  17.170  1.3060 -2.8356 -2.4912
  426TMC3    H1 6359   0.114   0.559  17.525 -0.0690  0.1861  0.0463
  426TMC3    H2 6360   4.695   0.238  17.290  0.4726  0.3076 -1.4009
  426TMC3    C7 6361   0.076   0.296  17.528 -0.7530 -0.6036 -0.3242
  426TMC3    C8 6362   4.589   0.374  17.100  0.7332  0.3002 -0.3572
  426TMC3    O1 6363   0.157   0.326  17.616  0.1523 -0.0112 -0.1345
  426TMC3    O2 6364   4.632   0.261  17.063  0.1922  0.3078 -0.1616
  427MPD2     C 6365   2.652   2.789  14.852  0.4579  0.4059 -0.0406
  427MPD2    C1 6366   2.658   2.793  14.995  0.3217 -0.5654  0.2790
  427MPD2    C2 6367   2.548   2.818  15.061 -0.0858 -0.0937  0.4104
  427MPD2    C3 6368   2.424   2.838  14.996 -0.2084  0.2134 -0.4494
  427MPD2    C4 6369   2.416   2.830  14.860  0.3572  0.2796 -0.4201
  427MPD2    C5 6370   2.533   2.802  14.786  0.3842 -0.4694  0.5582
  427MPD2     H 6371   2.541   2.822  15.170 -0.3515  0.7245  0.3610
  427MPD2    H1 6372   2.319   2.843  14.814  0.6668 -0.8025 -1.3678
  427MPD2    H2 6373   2.738   2.764  14.792  0.1472 -1.1146  0.1359
  427MPD2    H3 6374   2.531   2.790  14.679 -0.7847 -4.2813  1.0009
  427MPD2     N 6375   2.301   2.864  15.066  0.4192 -0.7671 -0.1208
  427MPD2    H5 6376   2.227   2.898  15.004  0.3189 -2.4943 -0.9651
  427MPD2    N1 6377   2.783   2.754  15.055  0.2587 -0.1066 -0.0930
  427MPD2    H7 6378   2.781   2.747  15.156  0.5678  0.1009 -0.0729
  428TMC3    C1 6379   3.017   2.701  15.072  0.3543 -0.1393  0.2192
  428TMC3    C2 6380   2.982   2.616  15.173  0.7459  0.0198 -0.4827
  428TMC3    C3 6381   3.087   2.535  15.210 -0.2842  0.2747  0.0701
  428TMC3    C4 6382   3.145   2.715  15.024  0.5126 -0.0249  0.1655
  428TMC3    C5 6383   3.239   2.634  15.069 -0.2319 -0.6929  0.8185
  428TMC3    C6 6384   3.213   2.531  15.157 -0.1479 -0.3635 -0.2851
  428TMC3     C 6385   2.906   2.750  14.987 -0.7160  0.3559 -0.2973
  428TMC3     O 6386   2.943   2.818  14.891  0.8287 -0.7307  0.3439
  428TMC3     H 6387   2.884   2.597  15.215  0.4126  0.3158 -1.1411
  428TMC3    H1 6388   3.172   2.800  14.963  0.6424 -0.5350 -0.4959
  428TMC3    H2 6389   3.292   2.472  15.204 -1.2570 -0.4880  1.3986
  428TMC3    C7 6390   3.379   2.670  15.080 -0.4629  0.1152  0.4775
  428TMC3    C8 6391   3.059   2.445  15.318 -0.0203 -0.3037 -0.4017
  428TMC3    O1 6392   3.462   2.590  15.118  0.3418 -0.0020 -0.3677
  428TMC3    O2 6393   2.970   2.467  15.401 -0.4447  0.3325 -0.0754
  429MPD2     C 6394   3.313   2.585   0.180  0.1561  0.2590  0.4293
  429MPD2    C1 6395   3.412   2.507   0.127 -0.0112 -0.6117  0.0890
  429MPD2    C2 6396   3.492   2.556   0.024  0.1150 -0.5826 -0.9607
  429MPD2    C3 6397   3.472   2.679  17.675 -0.7843  0.6966  0.3265
  429MPD2    C4 6398   3.365   2.751   0.015 -0.5946  0.3399 -0.1469
  429MPD2    C5 6399   3.285   2.706   0.117 -0.1496  0.2321  0.3543
  429MPD2     H 6400   3.575   2.502  17.680 -0.6109 -1.0318 -1.8112
  429MPD2    H1 6401   3.346   2.852  17.680  4.9054  1.7067  0.9399
  429MPD2    H2 6402   3.240   2.548   0.251 -1.1625 -0.6708 -1.4175
  429MPD2    H3 6403   3.194   2.761   0.142  0.5479  0.9728  1.2364
  429MPD2     N 6404   3.568   2.739  17.591 -0.6385 -0.1048  0.4820
  429MPD2    H5 6405   3.641   2.673  17.567 -0.3835 -0.7703  3.1562
  429MPD2    N1 6406   3.448   2.376   0.179 -0.6964  0.0995  0.2185
  429MPD2    H7 6407   3.527   2.331   0.133 -1.2922 -0.0100 -0.6861
  430TMC3    C1 6408   3.702   2.905  17.478 -0.5968 -0.0662  0.0577
  430TMC3    C2 6409   3.688   3.013  17.393  0.5710 -0.3530 -0.1463
  430TMC3    C3 6410   3.806   3.036  17.330 -0.0713  0.0783  1.7786
  430TMC3    C4 6411   3.817   2.841  17.509 -0.2225  0.5836 -0.2455
  430TMC3    C5 6412   3.930   2.879  17.448 -0.3830 -0.4393  0.0848
  430TMC3    C6 6413   3.931   2.986  17.364 -0.6335  0.0921 -0.8278
  430TMC3     C 6414   3.582   2.874  17.559  0.0506  0.5121  0.5208
  430TMC3     O 6415   3.517   2.968  17.602  0.4723 -0.0983 -0.3742
  430TMC3     H 6416   3.591   3.044  17.356 -0.3385 -0.5178  2.1535
  430TMC3    H1 6417   3.809   2.748  17.563 -0.1917  0.2433 -0.8320
  430TMC3    H2 6418   4.011   3.006  17.293  2.0076 -1.3304  1.7491
  430TMC3    C7 6419   4.057   2.807  17.469  0.9979 -0.7606  0.6990
  430TMC3    C8 6420   3.805   3.103  17.205  0.2475  0.5623  0.2398
  430TMC3    O1 6421   4.047   2.685  17.487  0.5400 -0.4039  0.2006
  430TMC3    O2 6422   3.889   3.189  17.174 -0.1132 -0.2018 -0.1040
  431MPD2     C 6423   4.707   3.207  12.568  0.5658 -0.7442  0.0096
  431MPD2    C1 6424   0.089   3.218  12.479  0.0481  0.5065 -0.5055
  431MPD2    C2 6425   0.141   3.112  12.404  0.2808 -0.2608  0.6486
  431MPD2    C3 6426   0.071   2.990  12.409  0.9603 -1.0324 -1.1249
  431MPD2    C4 6427   4.692   2.974  12.500  0.1953 -0.4590  0.2321
  431MPD2    C5 6428   4.642   3.088  12.574  0.1451  0.1159 -0.7135
  431MPD2     H 6429   0.224   3.127  12.336  0.2877  2.5758  1.2548
  431MPD2    H1 6430   4.639   2.880  12.510 -2.2004  0.8432 -0.2814
  431MPD2    H2 6431   4.664   3.289  12.625  1.2854 -0.4159  0.0723
  431MPD2    H3 6432   4.559   3.078  12.643  0.0969 -0.1671 -0.8113
  431MPD2     N 6433   0.098   2.873  12.336 -0.1919 -0.3861  0.1453
  431MPD2    H5 6434   0.038   2.795  12.360 -0.9896  0.1446 -0.1257
  431MPD2    N1 6435   0.165   3.337  12.467 -0.6404 -0.3665  0.0580
  431MPD2    H7 6436   0.240   3.338  12.398  0.8258 -0.8431  1.6559
  432TMC3    C1 6437   0.205   2.722  12.205 -0.5390 -0.4556 -0.3400
  432TMC3    C2 6438   0.255   2.712  12.083  0.0004  0.2469 -0.0007
  432TMC3    C3 6439   0.344   2.608  12.056 -0.6517 -0.9120 -0.1947
  432TMC3    C4 6440   0.242   2.648  12.308  0.5570  0.0305 -0.1382
  432TMC3    C5 6441   0.341   2.556  12.294 -1.1840  0.4163 -0.3990
  432TMC3    C6 6442   0.383   2.529  12.167  0.2307  0.3622  0.3353
  432TMC3     C 6443   0.193   2.861  12.241  0.4188  0.4965 -0.1851
  432TMC3     O 6444   0.272   2.940  12.191  0.5633  0.7569 -0.8691
  432TMC3     H 6445   0.222   2.781  12.006  1.0974 -0.9528 -1.5322
  432TMC3    H1 6446   0.188   2.658  12.402 -1.5435  0.4526 -1.3832
  432TMC3    H2 6447   0.463   2.456  12.162 -0.2364  0.0322 -2.5871
  432TMC3    C7 6448   0.446   2.538  12.401 -0.1985 -0.4025 -0.4408
  432TMC3    C8 6449   0.440   2.646  11.951 -0.7835  0.2636  0.2664
  432TMC3    O1 6450   0.543   2.467  12.388 -0.2557 -0.2135  0.0099
  432TMC3    O2 6451   0.477   2.766  11.948 -0.3519 -0.4064 -1.6289
  433MPD2     C 6452   4.340   1.958  10.726  0.3303 -0.8790  1.1493
  433MPD2    C1 6453   4.256   1.892  10.810  0.7156  0.2039  0.0497
  433MPD2    C2 6454   4.256   1.930  10.944 -0.2806 -0.5794  0.0181
  433MPD2    C3 6455   4.316   2.049  10.988  0.3884 -0.6030  0.1576
  433MPD2    C4 6456   4.386   2.126  10.902 -0.2473 -0.0070  0.2568
  433MPD2    C5 6457   4.409   2.070  10.773 -0.8163 -0.5311 -0.5881
  433MPD2     H 6458   4.192   1.881  11.017 -0.0046  1.5273  1.6701
  433MPD2    H1 6459   4.439   2.217  10.924 -0.8730  0.2416  0.7449
  433MPD2    H2 6460   4.352   1.934  10.621 -0.6218 -0.5599  0.9660
  433MPD2    H3 6461   4.476   2.120  10.703  0.2577  0.7751  1.3644
  433MPD2     N 6462   4.299   2.083  11.124 -0.1626  0.1898  0.5601
  433MPD2    H5 6463   4.252   2.024  11.190  0.3906  1.3265  1.9641
  433MPD2    N1 6464   4.185   1.780  10.750  1.1046 -0.2780  0.1476
  433MPD2    H7 6465   4.228   1.733  10.671  1.7217 -2.3148  1.7161
  434TMC3    C1 6466   4.059   1.588  10.768 -0.5804 -0.0362  0.4050
  434TMC3    C2 6467   4.047   1.487  10.861  0.6679 -0.2296 -0.6354
  434TMC3    C3 6468   4.091   1.365  10.822  0.0889 -0.3623 -0.2708
  434TMC3    C4 6469   4.097   1.566  10.637 -0.1634 -0.2723  0.5152
  434TMC3    C5 6470   4.130   1.439  10.601 -0.0676 -0.6856 -0.6792
  434TMC3    C6 6471   4.143   1.342  10.696  0.4025 -0.3098  0.6776
  434TMC3     C 6472   4.084   1.719  10.817 -0.0005 -0.1628  0.7102
  434TMC3     O 6473   4.023   1.756  10.918  0.0379  0.3664  0.3485
  434TMC3     H 6474   4.043   1.516  10.965 -0.0008  0.1750 -0.7758
  434TMC3    H1 6475   4.104   1.641  10.559  1.5244 -0.8237  0.1465
  434TMC3    H2 6476   4.163   1.239  10.671 -0.2813 -0.4479  0.7122
  434TMC3    C7 6477   4.119   1.398  10.465  0.7050 -0.4014 -0.4219
  434TMC3    C8 6478   4.124   1.273  10.926  0.3781  0.4035 -0.3580
  434TMC3    O1 6479   4.050   1.473  10.398  0.3728  0.0408  0.2262
  434TMC3    O2 6480   4.137   1.328  11.035  0.7134 -0.5094 -0.1831
  435MPD2     C 6481   1.272   1.821  15.478 -0.2021 -0.1397 -0.4667
  435MPD2    C1 6482   1.194   1.798  15.589 -0.1809 -0.6278  0.3576
  435MPD2    C2 6483   1.262   1.742  15.702  0.1362 -0.0314 -0.2754
  435MPD2    C3 6484   1.387   1.701  15.697 -0.2254 -0.7893 -0.3321
  435MPD2    C4 6485   1.461   1.721  15.579  0.4241  0.3327 -0.0166
  435MPD2    C5 6486   1.407   1.789  15.474 -0.2369  0.0272  0.4724
  435MPD2     H 6487   1.202   1.706  15.785  0.7665  0.5689  0.4300
  435MPD2    H1 6488   1.562   1.684  15.567 -0.1912 -1.1554 -0.5526
  435MPD2    H2 6489   1.235   1.880  15.395  1.1885 -1.4006 -2.0109
  435MPD2    H3 6490   1.461   1.817  15.384 -0.9059 -1.1090 -0.2931
  435MPD2     N 6491   1.435   1.632  15.814  0.6136 -0.3285 -0.1935
  435MPD2    H5 6492   1.367   1.631  15.889 -1.8298  1.0915 -2.4069
  435MPD2    N1 6493   1.059   1.827  15.605  0.1262 -0.0230 -0.3079
  435MPD2    H7 6494   1.020   1.790  15.691  2.7263  0.1479  0.9501
  436TMC3    C1 6495   0.674   1.892  15.714  0.5531 -0.5286 -0.1687
  436TMC3    C2 6496   0.807   1.897  15.691  0.2688 -0.7586  0.3489
  436TMC3    C3 6497   0.849   1.938  15.571  0.4036  0.1654  0.3874
  436TMC3    C4 6498   0.580   1.927  15.620  0.3324  0.8038  0.4542
  436TMC3    C5 6499   0.623   1.946  15.488  0.1939  0.4839  0.3810
  436TMC3    C6 6500   0.757   1.966  15.471 -0.5103  0.1851  0.1357
  436TMC3     C 6501   0.634   1.811  15.831  0.3000 -0.3255 -0.0583
  436TMC3     O 6502   0.731   1.744  15.867 -0.1731 -0.6847 -0.4557
  436TMC3     H 6503   0.879   1.881  15.771 -1.0421  2.4638  2.1822
  436TMC3    H1 6504   0.477   1.908  15.647  0.5622  0.7710  1.3136
  436TMC3    H2 6505   0.797   1.987  15.373  1.9261 -0.7123  0.9276
  436TMC3    C7 6506   0.571   1.858  15.392 -0.4288  0.3579  0.2106
  436TMC3    C8 6507   0.988   1.917  15.524  0.1396 -0.5662 -0.5029
  436TMC3    O1 6508   0.639   1.760  15.367  0.4870  0.5656  0.3904
  436TMC3    O2 6509   1.031   1.971  15.423 -0.1974 -0.2467 -0.2696
  437TMC3    C1 6510   4.234   3.890  12.611  0.3116  0.0534 -0.1618
  437TMC3    C2 6511   4.117   3.961  12.624  0.1290  0.2747  0.0564
  437TMC3    C3 6512   4.126   4.084  12.569  0.0706 -0.3309 -0.6089
  437TMC3    C4 6513   4.352   3.949  12.581 -1.2589  0.1792  0.2427
  437TMC3    C5 6514   4.355   4.073  12.534 -0.1583  0.2698  0.4972
  437TMC3    C6 6515   4.238   4.144  12.528 -0.0198  0.2935  0.2677
  437TMC3     C 6516   4.239   3.767  12.694  0.7310 -0.7630 -0.2974
  437TMC3     O 6517   4.134   3.710  12.716 -0.2014  0.2146 -0.5034
  437TMC3     H 6518   4.020   3.918  12.646  0.3527 -0.6694 -0.7817
  437TMC3    H1 6519   4.439   3.888  12.557 -1.5755 -0.3590  0.4757
  437TMC3    H2 6520   4.235   4.238  12.474  1.0169  0.3201  0.2456
  437TMC3    C7 6521   4.465   4.106  12.443 -0.3412  0.5296  0.1961
  437TMC3    C8 6522   4.009   4.167  12.604 -0.3196 -0.0434  0.7805
  437TMC3    O1 6523   4.434   4.171  12.342 -0.4247 -0.6033  0.6310
  437TMC3    O2 6524   3.903   4.109  12.632  0.2017 -0.3963 -0.2418
  438MPD2     C 6525   1.453   4.257  16.523 -0.0157 -0.5927  0.1294
  438MPD2    C1 6526   1.563   4.210  16.593 -0.2914 -0.3410  0.0376
  438MPD2    C2 6527   1.538   4.127  16.699 -0.0250  0.5050 -0.4065
  438MPD2    C3 6528   1.408   4.098  16.746 -0.0755 -0.1311  0.5824
  438MPD2    C4 6529   1.302   4.145  16.671  0.2030  0.7322 -0.2091
  438MPD2    C5 6530   1.322   4.226  16.563  0.3493  0.9212 -0.4119
  438MPD2     H 6531   1.627   4.087  16.746  0.4302  3.0279  0.8876
  438MPD2    H1 6532   1.203   4.127  16.710  0.2977 -1.3484 -0.8791
  438MPD2    H2 6533   1.476   4.306  16.429 -2.2241 -1.9876 -1.1272
  438MPD2    H3 6534   1.242   4.259  16.499  0.2141  0.1146 -0.6617
  438MPD2     N 6535   1.375   4.024  16.862 -0.0212 -0.0748  0.5443
  438MPD2    H5 6536   1.278   4.029  16.891 -0.2052  2.6889 -0.5136
  438MPD2    N1 6537   1.698   4.231  16.567  0.3996 -0.6903 -0.5093
  438MPD2    H7 6538   1.767   4.187  16.627  0.3865 -1.2399 -0.8979
  439TMC3    C1 6539   1.900   4.318  16.472  0.2871  0.2549 -0.0557
  439TMC3    C2 6540   1.967   4.286  16.360  0.3401 -0.9427  0.5124
  439TMC3    C3 6541   2.101   4.279  16.368 -0.0392  0.3974 -0.4268
  439TMC3    C4 6542   1.959   4.331  16.593 -0.1445  0.0763 -0.0615
  439TMC3    C5 6543   2.095   4.331  16.600 -0.8065 -0.2317  0.2020
  439TMC3    C6 6544   2.170   4.302  16.487  0.4530 -0.2727 -0.5319
  439TMC3     C 6545   1.750   4.313  16.464  0.6589  0.2547 -0.4155
  439TMC3     O 6546   1.689   4.356  16.367 -0.1410  0.6146 -0.1598
  439TMC3     H 6547   1.919   4.266  16.264  1.0309  1.2169 -0.2906
  439TMC3    H1 6548   1.900   4.340  16.684  0.1019 -2.2499  0.3243
  439TMC3    H2 6549   2.275   4.276  16.489  0.2039 -1.3232 -1.2407
  439TMC3    C7 6550   2.160   4.314  16.728 -0.1652  1.1090  0.6072
  439TMC3    C8 6551   2.178   4.223  16.260 -0.3149 -0.0341  0.1290
  439TMC3    O1 6552   2.272   4.263  16.727 -0.6663 -0.8495  0.2168
  439TMC3    O2 6553   2.269   4.144  16.286 -0.0788  0.2831 -0.2927
  440MPD2     C 6554   0.815   4.344  14.518 -0.2351 -0.0337  0.6475
  440MPD2    C1 6555   0.809   4.480  14.534  0.1314 -0.1882 -0.2394
  440MPD2    C2 6556   0.827   4.533  14.655 -0.1256 -0.4599 -0.3977
  440MPD2    C3 6557   0.857   4.450  14.765 -0.9134 -0.5378  0.6716
  440MPD2    C4 6558   0.854   4.315  14.747 -0.2098 -0.1825 -0.0982
  440MPD2    C5 6559   0.830   4.260  14.623 -0.0688  0.0431 -0.3547
  440MPD2     H 6560   0.842   4.640  14.663  1.4625 -0.7184  0.1809
  440MPD2    H1 6561   0.861   4.245  14.829 -1.2256 -0.2721 -0.0802
  440MPD2    H2 6562   0.799   4.296  14.422  0.4924  1.5286 -0.2599
  440MPD2    H3 6563   0.829   4.153  14.605  1.0229 -0.1145  0.5456
  440MPD2     N 6564   0.866   4.507  14.892 -0.3021  0.1190  0.5384
  440MPD2    H5 6565   0.884   4.434  14.960  1.2553  0.9340  1.0017
  440MPD2    N1 6566   0.788   4.580  14.438  0.0618 -0.4898  0.0198
  440MPD2    H7 6567   0.770   4.670  14.481 -1.0044 -0.6905 -0.0049
  441TMC3    C1 6568   0.833   4.642  15.075  0.8414  0.5292 -0.2735
  441TMC3    C2 6569   0.807   0.038  15.136  0.6397  0.4558 -0.1056
  441TMC3    C3 6570   0.775   0.040  15.266  0.5406  0.1747  0.7412
  441TMC3    C4 6571   0.840   4.529  15.153  0.5581 -0.2217  1.6989
  441TMC3    C5 6572   0.816   4.542  15.287  0.3510 -0.0191  0.3276
  441TMC3    C6 6573   0.798   4.662  15.352  0.8197 -0.1375 -0.1672
  441TMC3     C 6574   0.838   4.631  14.928  0.0400  0.4923 -0.3671
  441TMC3     O 6575   0.819   0.010  14.861 -0.3222 -0.5592 -0.4797
  441TMC3     H 6576   0.779   0.122  15.074  0.0255 -0.2204 -0.7409
  441TMC3    H1 6577   0.862   4.429  15.120 -0.0666  0.8661 -2.0765
  441TMC3    H2 6578   0.786   4.673  15.459  0.8583  1.7909 -0.3437
  441TMC3    C7 6579   0.847   4.430  15.364  0.5251 -0.5974 -0.4051
  441TMC3    C8 6580   0.707   0.154  15.320 -0.2748 -0.4149 -0.2261
  441TMC3    O1 6581   0.808   4.321  15.321 -0.1282 -0.3123 -0.1364
  441TMC3    O2 6582   0.653   0.137  15.428  0.5025  0.1367  0.0357
  442MPD2     C 6583   4.170   0.885  16.480 -0.2325  0.0293  0.6178
  442MPD2    C1 6584   4.059   0.822  16.529  0.5294 -0.1165 -0.2536
  442MPD2    C2 6585   4.038   0.695  16.494 -0.2222 -0.0801  0.7998
  442MPD2    C3 6586   4.113   0.625  16.394  0.1685 -0.2355 -0.6247
  442MPD2    C4 6587   4.216   0.697  16.339 -0.7380  0.6397  0.2226
  442MPD2    C5 6588   4.247   0.824  16.388 -0.5638 -0.8621  0.3235
  442MPD2     H 6589   3.951   0.648  16.538 -0.5107 -0.9492 -0.6818
  442MPD2    H1 6590   4.261   0.654  16.250  0.6358  1.5666  0.4733
  442MPD2    H2 6591   4.203   0.986  16.506  0.5921  0.4843 -2.1543
  442MPD2    H3 6592   4.330   0.871  16.336  0.4557 -1.2791  1.5762
  442MPD2     N 6593   4.090   0.490  16.350 -0.2572  0.0364  0.6104
  442MPD2    H5 6594   4.156   0.442  16.290 -1.4400 -1.7198  0.7188
  442MPD2    N1 6595   3.968   0.887  16.615  0.8211  0.3580 -1.0191
  442MPD2    H7 6596   3.891   0.830  16.647  1.4585 -1.4413 -2.6993
  443TMC3    C1 6597   3.850   1.051  16.718  0.6417 -0.4335  0.3332
  443TMC3    C2 6598   3.787   1.171  16.694 -0.6321  0.1486 -0.0484
  443TMC3    C3 6599   3.653   1.185  16.715 -0.3407  0.5600 -0.7940
  443TMC3    C4 6600   3.776   0.947  16.768  0.5534  0.0976  0.6590
  443TMC3    C5 6601   3.645   0.972  16.804  0.3882  0.0902 -0.8304
  443TMC3    C6 6602   3.581   1.086  16.769 -0.4691 -0.0579  0.2576
  443TMC3     C 6603   3.972   1.015  16.649 -0.3347 -0.4691 -0.0578
  443TMC3     O 6604   4.039   1.098  16.595 -0.3589  0.1207  0.5067
  443TMC3     H 6605   3.841   1.253  16.648 -0.7644  1.4859  2.2054
  443TMC3    H1 6606   3.816   0.849  16.794  2.3552  0.7355  0.2849
  443TMC3    H2 6607   3.475   1.102  16.777 -0.5477 -0.6488  0.4248
  443TMC3    C7 6608   3.568   0.859  16.846  0.5909  0.5185 -0.9276
  443TMC3    C8 6609   3.577   1.295  16.670 -0.3034  0.0652  0.5935
  443TMC3    O1 6610   3.609   0.744  16.844  0.6790  0.2608  0.2411
  443TMC3    O2 6611   3.476   1.333  16.728 -0.5468  0.0684 -0.5358
  444MPD2     C 6612   3.902   0.202  16.782  1.0701  0.2324  0.4755
  444MPD2    C1 6613   3.853   0.097  16.853  0.8742 -0.2599 -0.0019
  444MPD2    C2 6614   3.913   4.704  16.847 -0.1916 -0.9604  0.2130
  444MPD2    C3 6615   4.040   4.689  16.786  0.4701 -0.1435  0.0933
  444MPD2    C4 6616   4.095   0.074  16.730  0.0975 -0.0104  0.7113
  444MPD2    C5 6617   4.029   0.199  16.733  0.2726 -0.4237 -0.1366
  444MPD2     H 6618   3.877   4.610  16.888  2.1585 -1.9634 -0.0283
  444MPD2    H1 6619   4.194   0.080  16.688  0.3722 -1.2749  1.2114
  444MPD2    H2 6620   3.849   0.296  16.764 -2.1182 -1.6502 -0.0217
  444MPD2    H3 6621   4.065   0.293  16.693  1.5098  0.3234  2.7835
  444MPD2     N 6622   4.097   4.557  16.790  0.2937 -0.1909 -0.1982
  444MPD2    H5 6623   4.031   4.486  16.819  0.6991 -0.4632  0.0583
  444MPD2    N1 6624   3.731   0.094  16.922  0.5407 -0.1240  0.4656
  444MPD2    H7 6625   3.707   0.016  16.982 -1.9428  0.8472  0.7056
  445TMC3    C1 6626   4.258   4.378  16.761  0.2358  0.3489 -1.5376
  445TMC3    C2 6627   4.182   4.290  16.838  0.2892  0.9110 -0.0071
  445TMC3    C3 6628   4.233   4.165  16.844 -1.3525  0.4724 -0.6304
  445TMC3    C4 6629   4.366   4.342  16.691  0.4624 -0.1810 -0.0376
  445TMC3    C5 6630   4.420   4.217  16.714  0.1703  0.1487 -0.0254
  445TMC3    C6 6631   4.350   4.122  16.785 -1.1138 -1.0343 -0.5187
  445TMC3     C 6632   4.225   4.527  16.747  0.2850 -0.3178  0.1368
  445TMC3     O 6633   4.314   4.603  16.710 -0.9512  0.0219  0.3098
  445TMC3     H 6634   4.100   4.330  16.897 -0.4631 -1.8114  0.7876
  445TMC3    H1 6635   4.428   4.410  16.633 -0.9686  1.4762  0.4028
  445TMC3    H2 6636   4.377   4.017  16.787  1.8207 -0.2435  0.7309
  445TMC3    C7 6637   4.557   4.182  16.674  0.0226 -0.1879 -0.0670
  445TMC3    C8 6638   4.165   4.070  16.934  0.2330  0.3035 -0.1474
  445TMC3    O1 6639   4.620   4.256  16.603 -0.2935  0.1628  0.2190
  445TMC3    O2 6640   4.173   3.950  16.917  0.1412 -0.4719  0.2862
  446MPD2     C 6641   3.983   1.163  11.544 -0.2954  0.2079 -0.3514
  446MPD2    C1 6642   3.974   1.140  11.404 -0.2103  0.2453 -0.1706
  446MPD2    C2 6643   4.029   1.228  11.320  0.0900 -0.5869 -0.0553
  446MPD2    C3 6644   4.103   1.339  11.367  0.4218 -0.3853  1.2602
  446MPD2    C4 6645   4.097   1.365  11.502  0.2699 -0.1209  0.4395
  446MPD2    C5 6646   4.039   1.275  11.589  0.0571  1.0164  0.1685
  446MPD2     H 6647   4.014   1.210  11.214 -1.4742  0.4166  0.0021
  446MPD2    H1 6648   4.140   1.453  11.547  0.4777 -0.1497  0.2955
  446MPD2    H2 6649   3.952   1.088  11.616 -1.9729 -0.1383 -1.4453
  446MPD2    H3 6650   4.030   1.302  11.693 -0.3451 -0.7705  0.6011
  446MPD2     N 6651   4.176   1.423  11.285  0.4881 -0.8051  0.5183
  446MPD2    H5 6652   4.162   1.401  11.187  0.9423  0.3866  0.1884
  446MPD2    N1 6653   3.896   1.032  11.349  0.4072  0.2574  1.0379
  446MPD2    H7 6654   3.898   1.032  11.247 -0.0514 -3.4619  1.0230
  447TMC3    C1 6655   4.353   1.563  11.211  0.6747 -0.9666 -0.9072
  447TMC3    C2 6656   4.359   1.515  11.086  0.7467 -0.3897 -0.1196
  447TMC3    C3 6657   4.484   1.513  11.019 -1.1335  0.5027 -0.0244
  447TMC3    C4 6658   4.468   1.613  11.265 -0.0948 -0.5023 -0.1602
  447TMC3    C5 6659   4.592   1.595  11.208 -0.0610  0.0578 -0.0636
  447TMC3    C6 6660   4.601   1.540  11.082 -0.2235  0.0598 -0.1607
  447TMC3     C 6661   4.263   1.523  11.321  0.2699  0.0994  0.2955
  447TMC3     O 6662   4.279   1.568  11.436 -0.0009 -0.5865 -0.2862
  447TMC3     H 6663   4.271   1.512  11.023  0.8913 -0.9476 -0.2860
  447TMC3    H1 6664   4.463   1.691  11.340  1.9364 -1.3997  0.9243
  447TMC3    H2 6665   4.699   1.542  11.036  0.2183 -0.1573  0.7755
  447TMC3    C7 6666   4.691   1.528  11.290  0.3787  0.0904  0.2782
  447TMC3    C8 6667   4.490   1.494  10.876  0.2699 -0.0842  0.5780
  447TMC3    O1 6668   0.062   1.482  11.231  0.4440  0.0977 -0.1106
  447TMC3    O2 6669   4.387   1.516  10.814  0.0338 -0.3576 -0.4409
  448TMC3    C1 6670   1.907   1.457  17.376  1.2409  0.0992  0.4410
  448TMC3    C2 6671   1.901   1.358  17.276 -0.2464 -0.5659  0.3900
  448TMC3    C3 6672   1.994   1.266  17.280 -0.6924  0.9754  0.3223
  448TMC3    C4 6673   1.991   1.462  17.480  0.8824  0.0514 -0.3874
  448TMC3    C5 6674   2.083   1.357  17.482 -0.0320  0.2079  0.4598
  448TMC3    C6 6675   2.083   1.263  17.387 -0.0397 -0.2152  0.1504
  448TMC3     C 6676   1.804   1.556  17.377  0.4354 -0.0383 -0.3227
  448TMC3     O 6677   1.770   1.598  17.484  0.2581 -0.4683  0.3482
  448TMC3     H 6678   1.830   1.348  17.195  0.1934 -0.8014  0.0295
  448TMC3    H1 6679   1.989   1.541  17.554 -1.9157  1.4529 -1.9261
  448TMC3    H2 6680   2.161   1.188  17.381  1.8403  1.7384  0.0643
  448TMC3    C7 6681   2.151   1.321  17.608 -0.0045 -0.0978 -0.6632
  448TMC3    C8 6682   1.985   1.141  17.200 -0.3561 -0.1570  0.2021
  448TMC3    O1 6683   2.157   1.400   0.004  0.1599  0.6180 -0.2422
  448TMC3    O2 6684   2.024   1.042  17.263 -0.0855 -0.2614  0.3078
  449MPD2     C 6685   3.640   4.231  13.964  0.2684 -0.3522  0.3987
  449MPD2    C1 6686   3.518   4.280  13.923  1.1534  0.5251 -0.0193
  449MPD2    C2 6687   3.405   4.255  13.986  0.4539 -1.3351  0.1188
  449MPD2    C3 6688   3.403   4.152  14.078 -0.6292 -0.5294  0.7239
  449MPD2    C4 6689   3.522   4.095  14.122 -0.1122  0.6558 -0.1334
  449MPD2    C5 6690   3.641   4.130  14.061  0.3059  0.0649  0.4734
  449MPD2     H 6691   3.311   4.304  13.964 -0.1589 -3.1762 -1.3835
  449MPD2    H1 6692   3.536   4.024  14.203  0.2632  1.3713  0.4343
  449MPD2    H2 6693   3.737   4.249  13.920 -0.0490  0.1095 -0.1108
  449MPD2    H3 6694   3.731   4.078  14.092  0.1424 -0.6902 -0.2893
  449MPD2     N 6695   3.279   4.118  14.136  0.3186 -0.1156 -0.8051
  449MPD2    H5 6696   3.204   4.176  14.098  0.0640  0.5566  0.7130
  449MPD2    N1 6697   3.512   4.365  13.809  0.1541  0.6228  0.0959
  449MPD2    H7 6698   3.419   4.389  13.776 -0.7512 -1.9858  0.7635
  450TMC3    C1 6699   3.550   4.477  13.604  0.3918  0.4518  0.4370
  450TMC3    C2 6700   3.572   4.401  13.492 -0.0163  0.1939  1.0420
  450TMC3    C3 6701   3.468   4.407  13.404  0.6253  0.0579 -0.7722
  450TMC3    C4 6702   3.431   4.537  13.638  1.0161  0.3582 -0.5484
  450TMC3    C5 6703   3.321   4.520  13.556  0.5947  0.4872 -0.0895
  450TMC3    C6 6704   3.343   4.458  13.436  0.0769 -0.6425 -0.0572
  450TMC3     C 6705   3.610   4.410  13.724 -0.2719 -0.1337  0.2235
  450TMC3     O 6706   3.729   4.382  13.714  0.0157  0.2146  0.0714
  450TMC3     H 6707   3.668   4.354  13.474 -0.4795 -0.3729  0.0116
  450TMC3    H1 6708   3.418   4.583  13.735 -2.6236  0.5273 -1.1274
  450TMC3    H2 6709   3.258   4.439  13.372  0.5288 -0.1209 -0.8044
  450TMC3    C7 6710   3.209   4.465  13.626 -0.3904 -0.3242  0.6316
  450TMC3    C8 6711   3.465   4.305  13.302 -0.4911 -0.0545 -0.1692
  450TMC3    O1 6712   3.240   4.438  13.743 -0.2060  0.2308 -0.8874
  450TMC3    O2 6713   3.361   4.241  13.301 -0.1705  0.6266  0.3182
  451MPD2     C 6714   4.311   3.593   1.965  0.2233 -0.4371  0.4540
  451MPD2    C1 6715   4.362   3.575   1.843 -0.0632 -0.3604  1.0465
  451MPD2    C2 6716   4.482   3.517   1.827  1.0996 -0.2280  0.4647
  451MPD2    C3 6717   4.545   3.462   1.942  0.2723 -0.5810  0.2235
  451MPD2    C4 6718   4.488   3.483   2.066  0.0400 -0.3504  0.4611
  451MPD2    C5 6719   4.376   3.558   2.079  0.2082 -0.3117 -0.0092
  451MPD2     H 6720   4.522   3.504   1.727 -0.8177 -0.9870 -0.1974
  451MPD2    H1 6721   4.544   3.460   2.155  1.8329 -0.1705 -0.6233
  451MPD2    H2 6722   4.211   3.635   1.976  0.2015 -0.4402  0.2734
  451MPD2    H3 6723   4.321   3.574   2.171  0.1157 -3.2185  0.4459
  451MPD2     N 6724   4.660   3.385   1.940  0.3323 -0.1928  0.0293
  451MPD2    H5 6725   4.691   3.351   2.030  0.0713  2.1225  0.9992
  451MPD2    N1 6726   4.275   3.611   1.744 -0.2335 -0.1615  0.0342
  451MPD2    H7 6727   4.179   3.614   1.777 -0.6976 -1.4215 -1.1668
  452TMC3    C1 6728   0.096   3.239   1.849  0.3244  0.1729 -0.6718
  452TMC3    C2 6729   0.181   3.277   1.951 -0.6595 -0.4987  0.0471
  452TMC3    C3 6730   0.267   3.180   1.994 -0.7171  0.1475 -0.6798
  452TMC3    C4 6731   0.110   3.122   1.777 -0.0630 -0.1434 -0.5698
  452TMC3    C5 6732   0.187   3.023   1.836 -0.0334 -0.9034  0.6272
  452TMC3    C6 6733   0.273   3.053   1.940 -0.8332  0.5146 -0.2086
  452TMC3     C 6734   4.708   3.327   1.827 -0.5358  0.2715 -0.0861
  452TMC3     O 6735   4.659   3.333   1.711  0.2044 -0.3624  0.1500
  452TMC3     H 6736   0.178   3.372   2.003  1.1310 -0.4683  0.0994
  452TMC3    H1 6737   0.041   3.100   1.697 -0.1716 -0.4563 -0.3892
  452TMC3    H2 6738   0.350   2.989   1.981 -0.3951  1.7555  0.8779
  452TMC3    C7 6739   0.183   2.892   1.775  0.1837  0.6800  0.0201
  452TMC3    C8 6740   0.352   3.203   2.105 -0.2421  0.1710 -0.4847
  452TMC3    O1 6741   0.158   2.886   1.654 -0.5621  0.2562  0.2152
  452TMC3    O2 6742   0.388   3.103   2.172  0.0445  0.1639  0.1849
  453TMC3    C1 6743   1.670   0.530  11.973 -0.1229  0.2312 -0.3517
  453TMC3    C2 6744   1.574   0.504  12.068  0.1642  0.0190 -0.2338
  453TMC3    C3 6745   1.462   0.437  12.023 -1.1049  0.0954 -0.1127
  453TMC3    C4 6746   1.657   0.498  11.844  0.2891 -0.3082 -0.2008
  453TMC3    C5 6747   1.540   0.438  11.805  0.0878  0.0747  0.5753
  453TMC3    C6 6748   1.435   0.414  11.891  0.6038 -0.4788  0.2743
  453TMC3     C 6749   1.771   0.628  11.999 -0.5014  0.2781 -0.3774
  453TMC3     O 6750   1.833   0.670  11.905  0.2806 -0.3263  0.2309
  453TMC3     H 6751   1.577   0.522  12.175  0.1025  1.6216 -0.5091
  453TMC3    H1 6752   1.745   0.496  11.780  2.0180 -0.6687  2.2005
  453TMC3    H2 6753   1.344   0.368  11.853  0.7182 -0.4702 -0.0052
  453TMC3    C7 6754   1.547   0.348  11.691  0.6697  0.0860  0.0411
  453TMC3    C8 6755   1.396   0.351  12.121 -0.1370  0.3708 -0.5981
  453TMC3    O1 6756   1.463   0.262  11.696 -0.6399  0.5158  0.0237
  453TMC3    O2 6757   1.391   0.388  12.235  0.1412 -0.0119  0.2340
  454MPD2     C 6758   0.260   4.274  16.452 -0.5115  0.4933 -0.4143
  454MPD2    C1 6759   0.203   4.377  16.376 -0.7325 -0.4295  0.4671
  454MPD2    C2 6760   0.179   4.506  16.425  0.1901 -0.3351 -0.6581
  454MPD2    C3 6761   0.183   4.517  16.559  0.9666  0.3701  0.1028
  454MPD2    C4 6762   0.254   4.433  16.629  0.4590  0.6732  0.5040
  454MPD2    C5 6763   0.299   4.313  16.578 -0.0655 -0.2214 -0.0785
  454MPD2     H 6764   0.136   4.587  16.367 -2.0632 -1.1141 -0.0821
  454MPD2    H1 6765   0.271   4.447  16.736  1.9504  1.7116  0.1265
  454MPD2    H2 6766   0.269   4.171  16.422  0.2611  1.2867 -2.9387
  454MPD2    H3 6767   0.347   4.245  16.647  0.3543  0.6671  0.5110
  454MPD2     N 6768   0.139   4.628  16.627 -0.7351 -0.0557 -0.1877
  454MPD2    H5 6769   0.159   4.629  16.727 -0.2825  0.6096 -0.2933
  454MPD2    N1 6770   0.167   4.357  16.242  0.3458 -0.1044  0.1674
  454MPD2    H7 6771   0.155   4.440  16.184 -2.9145 -0.4825  0.3294
  455TMC3    C1 6772   4.670   4.695  16.486 -0.6019  0.0823  0.6692
  455TMC3    C2 6773   4.602   0.084  16.474 -0.2434  0.1645  0.1866
  455TMC3    C3 6774   4.474   0.080  16.429  0.2309  0.2206 -0.4757
  455TMC3    C4 6775   4.605   4.571  16.468 -0.2182 -0.1977 -0.1466
  455TMC3    C5 6776   4.475   4.572  16.420 -0.1289  0.7828  0.6218
  455TMC3    C6 6777   4.410   4.688  16.398 -0.0179 -0.4163 -0.5705
  455TMC3     C 6778   0.040   4.717  16.594 -0.7670  0.3056 -0.1508
  455TMC3     O 6779   0.010   0.096  16.657  0.1751  0.3350 -0.2174
  455TMC3     H 6780   4.655   0.178  16.463 -1.1619  0.5792 -0.6689
  455TMC3    H1 6781   4.655   4.477  16.491 -0.2128 -0.8254 -2.6291
  455TMC3    H2 6782   4.310   4.691  16.357 -0.6583 -0.4778  0.9884
  455TMC3    C7 6783   4.412   4.459  16.344 -0.5648 -0.2511  0.0446
  455TMC3    C8 6784   4.399   0.180  16.495  0.1988 -0.0780 -0.0673
  455TMC3    O1 6785   4.321   4.484  16.266 -0.8810  0.0961 -0.1286
  455TMC3    O2 6786   4.281   0.195  16.459 -0.0535  0.6384 -0.0696
  456MPD2     C 6787   2.285   4.650  16.502  0.5003 -0.1569 -0.2315
  456MPD2    C1 6788   2.390   4.685  16.586 -0.3718 -0.0365  0.0272
  456MPD2    C2 6789   2.354   0.015  16.704 -0.1341  0.0307  0.3176
  456MPD2    C3 6790   2.222   0.057  16.737  0.1959  0.2582 -0.2244
  456MPD2    C4 6791   2.120   0.016  16.652 -0.1235 -0.3349  0.2428
  456MPD2    C5 6792   2.153   4.675  16.538 -0.1879  0.0377 -0.8628
  456MPD2     H 6793   2.431   0.036  16.777  0.1012  0.4421 -0.0459
  456MPD2    H1 6794   2.015   0.037  16.674 -0.0014 -0.1482  0.6578
  456MPD2    H2 6795   2.305   4.598  16.409 -0.6669 -0.6644 -0.2068
  456MPD2    H3 6796   2.079   4.626  16.476 -0.1482 -1.4945  0.3108
  456MPD2     N 6797   2.204   0.122  16.859 -0.1676 -0.4787  0.0032
  456MPD2    H5 6798   2.291   0.139  16.909 -0.1835  0.3376 -0.2520
  456MPD2    N1 6799   2.525   4.659  16.546  0.1286 -0.3360  0.0698
  456MPD2    H7 6800   2.532   4.603  16.461 -1.0324 -2.6336  1.4737
  457TMC3    C1 6801   2.117   0.285  16.997 -0.4014 -0.7771  0.1397
  457TMC3    C2 6802   2.067   0.412  16.989  0.0376 -0.5484 -0.0397
  457TMC3    C3 6803   2.070   0.492  17.098 -0.0937  0.2197  0.4347
  457TMC3    C4 6804   2.182   0.243  17.113 -0.1819 -0.0991 -0.0295
  457TMC3    C5 6805   2.190   0.330  17.214 -0.3262  0.2107 -0.1590
  457TMC3    C6 6806   2.139   0.460  17.215  0.3467  0.3238 -0.3290
  457TMC3     C 6807   2.095   0.195  16.886 -0.1004  0.3482 -0.6063
  457TMC3     O 6808   1.995   0.210  16.817 -0.0596 -0.7253  0.2995
  457TMC3     H 6809   2.035   0.441  16.889  1.5074 -0.4480 -0.4823
  457TMC3    H1 6810   2.216   0.141  17.125  0.7924  0.1944 -0.3688
  457TMC3    H2 6811   2.154   0.529  17.298  1.2255  0.4126 -0.5554
  457TMC3    C7 6812   2.249   0.275  17.337 -0.5143  0.7786  0.7083
  457TMC3    C8 6813   2.026   0.625  17.097  0.2053 -0.6057 -0.7474
  457TMC3    O1 6814   2.229   0.155  17.370  0.3723 -0.3487 -0.2632
  457TMC3    O2 6815   2.041   0.694  17.197 -0.9083  0.4790 -0.0076
  458MPD2     C 6816   0.241   4.131  12.324  0.0446 -0.2225 -0.3428
  458MPD2    C1 6817   0.228   4.069  12.440 -0.1933  0.2862  0.1406
  458MPD2    C2 6818   0.101   4.043  12.492  0.2519 -0.2143  0.0018
  458MPD2    C3 6819   4.714   4.080  12.424 -0.2513 -0.7944 -0.0012
  458MPD2    C4 6820   4.721   4.139  12.297 -0.7129 -0.1740 -0.4482
  458MPD2    C5 6821   0.128   4.169  12.253 -0.5799  0.2048  0.1971
  458MPD2     H 6822   0.090   4.008  12.595  0.8378  1.6762  0.7028
  458MPD2    H1 6823   4.630   4.162  12.243 -0.4720  2.6888  0.3963
  458MPD2    H2 6824   0.337   4.156  12.280 -1.7255  2.8087 -2.5486
  458MPD2    H3 6825   0.142   4.222  12.159 -0.3935  0.2507  0.2511
  458MPD2     N 6826   4.590   4.059  12.487  0.1016 -0.1913  0.0694
  458MPD2    H5 6827   4.591   4.017  12.579 -0.8140 -0.3221  0.0126
  458MPD2    N1 6828   0.345   4.056  12.512 -0.4692 -0.0134  0.5288
  458MPD2    H7 6829   0.425   4.095  12.463  0.2470 -1.8805  0.1933
  459TMC3    C1 6830   0.495   3.983  12.673  0.3541 -0.8003  0.1700
  459TMC3    C2 6831   0.586   4.072  12.627 -0.3369  0.0984 -0.2001
  459TMC3    C3 6832   0.697   4.100  12.702 -0.4889 -0.0605 -0.8500
  459TMC3    C4 6833   0.512   3.923  12.796 -0.0071  0.1893  0.0899
  459TMC3    C5 6834   0.619   3.962  12.870 -0.2460  0.3919  0.5732
  459TMC3    C6 6835   0.717   4.049  12.823  0.0425 -0.2821 -0.6423
  459TMC3     C 6836   0.358   3.984  12.629  0.2171  0.6954  0.1809
  459TMC3     O 6837   0.275   3.924  12.695  0.1082  0.0877 -0.6932
  459TMC3     H 6838   0.555   4.131  12.541 -0.5010 -1.3273 -1.1253
  459TMC3    H1 6839   0.438   3.859  12.842 -1.5159  1.8851  0.0170
  459TMC3    H2 6840   0.806   4.070  12.881 -0.2889 -0.0713 -0.2142
  459TMC3    C7 6841   0.648   3.889  12.989  0.3753  0.6001  0.1764
  459TMC3    C8 6842   0.771   4.214  12.664 -0.4385 -0.0589 -0.0911
  459TMC3    O1 6843   0.622   3.769  12.997  0.0302 -0.3975 -0.3624
  459TMC3    O2 6844   0.720   4.326  12.645 -0.0144  0.1096 -0.0886
  460MPD2     C 6845   0.033   1.354  10.671 -0.0268 -0.1393 -0.0768
  460MPD2    C1 6846   4.646   1.430  10.699 -0.0915 -0.0328  0.0837
  460MPD2    C2 6847   4.570   1.480  10.594  0.2483 -0.0913 -0.6534
  460MPD2    C3 6848   4.606   1.437  10.463 -0.0189 -0.1868 -0.1888
  460MPD2    C4 6849   4.721   1.364  10.437  0.2120  0.4328  0.6829
  460MPD2    C5 6850   0.081   1.334  10.540  0.1427 -0.1067 -0.6520
  460MPD2     H 6851   4.474   1.529  10.609  0.4631 -0.8037  3.1762
  460MPD2    H1 6852   0.028   1.337  10.337  0.3389  1.5060  0.4278
  460MPD2    H2 6853   0.092   1.301  10.745  1.5565  1.9389  0.1697
  460MPD2    H3 6854   0.160   1.267  10.509  1.5605  0.6478  1.3479
  460MPD2     N 6855   4.516   1.476  10.359  0.6215  0.0401 -0.6023
  460MPD2    H5 6856   4.442   1.542  10.378 -0.2163 -0.9047 -0.6019
  460MPD2    N1 6857   4.612   1.448  10.836  0.5888  0.6202  0.0225
  460MPD2    H7 6858   4.685   1.427  10.904  2.2019 -1.0640 -2.1988
  461TMC3    C1 6859   4.405   1.493  10.153  0.4228  0.5484 -0.0364
  461TMC3    C2 6860   4.357   1.401  10.072  0.2290  0.6476  0.6537
  461TMC3    C3 6861   4.276   1.447   9.973  0.7166 -0.4440  0.1453
  461TMC3    C4 6862   4.393   1.630  10.131 -0.1848  0.3161 -0.0960
  461TMC3    C5 6863   4.309   1.673  10.034  0.8636 -0.0982 -0.3377
  461TMC3    C6 6864   4.251   1.583   9.954 -0.0978  0.3001 -0.7619
  461TMC3     C 6865   4.520   1.448  10.227 -0.7292 -0.4967  0.2227
  461TMC3     O 6866   4.596   1.374  10.161 -0.1459  0.7548 -0.2547
  461TMC3     H 6867   4.382   1.295  10.079  0.5955  0.6597 -0.3856
  461TMC3    H1 6868   4.443   1.696  10.201  1.7913 -2.5395  1.1621
  461TMC3    H2 6869   4.200   1.612   9.863 -0.2124 -0.2313 -0.8621
  461TMC3    C7 6870   4.330   1.802   9.971  0.5709 -0.9605 -0.9216
  461TMC3    C8 6871   4.299   1.379   9.846 -0.5297  0.1822 -0.5339
  461TMC3    O1 6872   4.264   1.815   9.870  0.3899  0.6421  0.4426
  461TMC3    O2 6873   4.249   1.429   9.745  0.0652  0.9265 -0.2113
  462TMC3    C1 6874   4.024   2.448   0.050  0.1245 -0.2358  0.4946
  462TMC3    C2 6875   3.991   2.357  17.643  0.6066 -0.8366 -0.0105
  462TMC3    C3 6876   4.072   2.248  17.632  0.3050  0.5240 -0.3419
  462TMC3    C4 6877   4.125   2.423   0.137 -0.1393  0.1694  0.4890
  462TMC3    C5 6878   4.202   2.314   0.117  0.3765  0.1093 -0.8236
  462TMC3    C6 6879   4.184   2.241   0.007 -0.1003  1.0565  0.0463
  462TMC3     C 6880   3.937   2.561   0.055  0.4933  0.0649  0.9361
  462TMC3     O 6881   3.824   2.546   0.009  0.1816 -0.3478 -0.2464
  462TMC3     H 6882   3.903   2.369  17.582  0.1361 -0.9065  0.6621
  462TMC3    H1 6883   4.128   2.489   0.223 -1.1172  0.7770  0.0507
  462TMC3    H2 6884   4.254   2.159  17.696 -1.1991  0.2785 -1.2379
  462TMC3    C7 6885   4.217   2.226   0.228  0.3612  0.1243 -0.4238
  462TMC3    C8 6886   4.010   2.126  17.580  0.2807 -0.4990  0.3005
  462TMC3    O1 6887   4.221   2.104   0.215  0.0217  0.0341  0.0162
  462TMC3    O2 6888   3.906   2.137  17.518  0.1733 -0.1604 -0.2960
  463MPD2     C 6889   0.308   0.068   1.670  0.2318 -0.2733  0.9888
  463MPD2    C1 6890   0.252   0.146   1.571 -0.1072  0.3075 -0.6894
  463MPD2    C2 6891   0.333   0.235   1.502 -0.3265  0.1682  0.3693
  463MPD2    C3 6892   0.465   0.255   1.542 -0.0249  0.2145  0.3741
  463MPD2    C4 6893   0.520   0.183   1.648 -0.7866 -0.3437  0.1824
  463MPD2    C5 6894   0.438   0.088   1.706 -0.2686  0.2652  0.0837
  463MPD2     H 6895   0.273   0.288   1.429  1.2216  1.0197 -0.2647
  463MPD2    H1 6896   0.628   0.188   1.661 -1.1419  0.9452  2.5596
  463MPD2    H2 6897   0.256   4.706   1.710 -0.8278 -0.4840 -0.8346
  463MPD2    H3 6898   0.480   0.028   1.785 -1.0198  0.7639  0.8704
  463MPD2     N 6899   0.535   0.364   1.489 -0.3293 -0.7389 -0.0305
  463MPD2    H5 6900   0.634   0.364   1.508 -0.3950 -1.9771  0.3096
  463MPD2    N1 6901   0.118   0.148   1.537 -0.3391 -0.8353  0.5354
  463MPD2    H7 6902   0.082   0.189   1.452  0.6190 -2.6543 -0.7285
  464TMC3    C1 6903   4.605   0.087   1.567 -0.0936  0.4468 -0.3050
  464TMC3    C2 6904   4.563   0.190   1.488  0.1436 -0.3217  0.1335
  464TMC3    C3 6905   4.432   0.205   1.461  0.5393  0.6557  0.0286
  464TMC3    C4 6906   4.512   4.720   1.613  0.1139 -0.4125  0.7564
  464TMC3    C5 6907   4.382   0.010   1.587  0.0180 -0.2090 -0.5347
  464TMC3    C6 6908   4.340   0.110   1.503  0.4714 -0.0831 -0.4553
  464TMC3     C 6909   0.022   0.073   1.604 -0.7956 -0.2573  0.1453
  464TMC3     O 6910   0.029   0.008   1.707 -0.0850  0.5552  0.0809
  464TMC3     H 6911   4.641   0.255   1.449 -1.7460  2.1013  0.4169
  464TMC3    H1 6912   4.550   4.631   1.662  1.4905  0.6283  1.5921
  464TMC3    H2 6913   4.236   0.134   1.485 -0.2410 -2.6844  0.1336
  464TMC3    C7 6914   4.294   4.624   1.609  0.3300  0.0297  0.5511
  464TMC3    C8 6915   4.397   0.344   1.423 -0.5348 -0.1819  0.3228
  464TMC3    O1 6916   4.325   4.541   1.696 -0.3167 -0.2537  0.1694
  464TMC3    O2 6917   4.479   0.434   1.451 -0.2196  0.1483  0.1993
  465MPD2     C 6918   1.384   4.677  16.448  0.3218 -0.6858  0.2248
  465MPD2    C1 6919   1.257   4.623  16.463  0.7134  0.0632  0.2725
  465MPD2    C2 6920   1.166   4.636  16.362  0.4249  0.3561 -0.4858
  465MPD2    C3 6921   1.202   4.703  16.243  0.2143  0.4120 -0.2410
  465MPD2    C4 6922   1.334   0.030  16.233 -0.5854 -0.4143 -0.0145
  465MPD2    C5 6923   1.417   0.018  16.337  0.7565 -0.9299 -0.3570
  465MPD2     H 6924   1.068   4.591  16.369  1.0912 -0.9968  0.0023
  465MPD2    H1 6925   1.363   0.080  16.142 -0.9321  0.0639  0.1393
  465MPD2    H2 6926   1.454   4.661  16.529  1.4143 -0.7731 -0.7415
  465MPD2    H3 6927   1.518   0.056  16.336  0.4777 -0.1359  0.6083
  465MPD2     N 6928   1.101   4.719  16.144  0.6708  0.3707 -0.4733
  465MPD2    H5 6929   1.010   4.675  16.160  0.2508  1.2502 -0.4641
  465MPD2    N1 6930   1.198   4.561  16.577 -0.5631  0.5017 -0.7739
  465MPD2    H7 6931   1.101   4.533  16.582  0.5852 -3.4777 -1.1678
  466TMC3    C1 6932   0.795   0.159  16.110  0.1914 -0.6880  0.0395
  466TMC3    C2 6933   0.806   0.291  16.087 -0.7568  0.0908  0.2427
  466TMC3    C3 6934   0.912   0.336  16.010 -0.2332 -0.3279 -0.1074
  466TMC3    C4 6935   0.883   0.074  16.055  0.0246 -1.2934  0.2906
  466TMC3    C5 6936   0.997   0.128  15.986  0.2864 -0.3815  0.5581
  466TMC3    C6 6937   0.997   0.258  15.946  0.3379  0.1337 -0.2221
  466TMC3     C 6938   0.726   0.122  16.229 -0.3045 -0.0012  0.2728
  466TMC3     O 6939   0.792   0.046  16.298 -0.1399  0.6227 -0.1310
  466TMC3     H 6940   0.731   0.354  16.135  0.7677  1.9586  0.1442
  466TMC3    H1 6941   0.873   4.691  16.064  2.4610 -1.2613  3.3105
  466TMC3    H2 6942   1.081   0.298  15.890 -1.3774  0.6250 -2.4647
  466TMC3    C7 6943   1.118   0.082  16.036  0.3083  0.4098  0.7394
  466TMC3    C8 6944   0.943   0.480  16.017 -0.2936 -0.9439  0.5882
  466TMC3    O1 6945   1.214   0.141  16.000  0.1292 -0.1094 -0.8251
  466TMC3    O2 6946   1.022   0.523  15.935  0.2127 -0.3707  0.3672
  467TMC3    C1 6947   2.090   3.092  13.457  0.4413  0.2264 -0.3119
  467TMC3    C2 6948   1.981   3.116  13.377  0.3634 -0.0934  0.2956
  467TMC3    C3 6949   1.878   3.186  13.439 -0.2660 -0.3192 -0.1024
  467TMC3    C4 6950   2.098   3.117  13.588  0.0111  0.5726 -0.0677
  467TMC3    C5 6951   1.993   3.182  13.641 -0.3873  0.3495  0.2241
  467TMC3    C6 6952   1.891   3.227  13.567  0.2943  0.1933 -0.5843
  467TMC3     C 6953   2.214   3.101  13.385  0.7148  0.0649 -0.8772
  467TMC3     O 6954   2.220   3.054  13.269 -0.6373 -0.8412 -0.1383
  467TMC3     H 6955   1.995   3.100  13.271  2.2999 -0.1292  0.5532
  467TMC3    H1 6956   2.177   3.082  13.653 -2.1620 -0.2023  2.1591
  467TMC3    H2 6957   1.814   3.294  13.604  0.5831  0.1029  0.1783
  467TMC3    C7 6958   2.004   3.203  13.783  0.1478 -0.0863 -0.1504
  467TMC3    C8 6959   1.824   3.290  13.351  0.0795 -0.2689  0.1533
  467TMC3    O1 6960   2.119   3.213  13.827 -0.2626  0.4479  0.0536
  467TMC3    O2 6961   1.776   3.386  13.410  0.4880  0.1934 -0.6382
  468MPD2     C 6962   1.165   1.156  10.744 -0.0243 -0.5030  0.7075
  468MPD2    C1 6963   1.288   1.162  10.804  0.0369 -0.1715 -0.1140
  468MPD2    C2 6964   1.336   1.042  10.857  0.4580  0.4766  0.0952
  468MPD2    C3 6965   1.265   0.924  10.852 -0.4566 -0.1545 -0.0970
  468MPD2    C4 6966   1.138   0.920  10.801 -0.2715  0.5567 -0.5324
  468MPD2    C5 6967   1.096   1.036  10.745  0.5887  0.0763  0.0864
  468MPD2     H 6968   1.432   1.057  10.904  1.1778 -1.5023 -0.7252
  468MPD2    H1 6969   1.098   0.822  10.776  1.1237 -0.2937  0.5713
  468MPD2    H2 6970   1.110   1.233  10.690  2.3735 -0.2925 -1.4192
  468MPD2    H3 6971   1.005   1.032  10.687  1.9583 -1.5369 -1.9737
  468MPD2     N 6972   1.322   0.806  10.911  0.3591  0.3897 -0.1838
  468MPD2    H5 6973   1.254   0.730  10.918 -1.5228  2.3660  2.8299
  468MPD2    N1 6974   1.375   1.277  10.801  0.0427 -0.0770  0.8935
  468MPD2    H7 6975   1.472   1.253  10.816 -1.1317 -5.2318  0.2147
  469TMC3    C1 6976   1.468   1.492  10.746  0.9411  0.3987 -0.4433
  469TMC3    C2 6977   1.595   1.446  10.729 -0.0714 -0.3774 -0.1440
  469TMC3    C3 6978   1.702   1.515  10.776 -0.3931  0.7504 -0.9190
  469TMC3    C4 6979   1.454   1.614  10.799 -0.4006 -0.1416 -0.0852
  469TMC3    C5 6980   1.564   1.690  10.831  0.2822 -0.2334 -0.0243
  469TMC3    C6 6981   1.690   1.639  10.836 -0.9146 -0.5559 -0.5670
  469TMC3     C 6982   1.349   1.405  10.753  0.2126 -0.4950 -0.2156
  469TMC3     O 6983   1.240   1.459  10.733  0.6049 -0.1930  1.0263
  469TMC3     H 6984   1.613   1.343  10.700 -0.9809 -1.6413  3.8570
  469TMC3    H1 6985   1.356   1.660  10.793 -1.1384 -1.9832 -1.9008
  469TMC3    H2 6986   1.776   1.682  10.885 -2.3906  0.0092  1.5212
  469TMC3    C7 6987   1.550   1.823  10.890 -0.6617 -0.1701  0.4347
  469TMC3    C8 6988   1.813   1.433  10.816 -0.3456  0.1272 -0.0694
  469TMC3    O1 6989   1.654   1.876  10.930  0.0906 -0.0973  0.1070
  469TMC3    O2 6990   1.839   1.332  10.749  0.5634  0.4262  0.1166
  470TMC3    C1 6991   3.865   2.627   0.522 -0.7065  0.2461 -0.1027
  470TMC3    C2 6992   3.780   2.734   0.529  0.0477 -0.3914 -0.5003
  470TMC3    C3 6993   3.787   2.818   0.640  0.1067 -0.4722 -0.2317
  470TMC3    C4 6994   3.955   2.600   0.622  0.1694 -0.5066  0.0126
  470TMC3    C5 6995   3.972   2.695   0.716 -0.2316  0.3578  0.3648
  470TMC3    C6 6996   3.880   2.797   0.739 -0.5885 -0.4782  0.3099
  470TMC3     C 6997   3.799   2.518   0.450  0.0694  0.0607 -0.4115
  470TMC3     O 6998   3.686   2.533   0.408 -0.6506 -0.7369  0.3274
  470TMC3     H 6999   3.716   2.751   0.443  2.1376 -0.0519 -1.9980
  470TMC3    H1 7000   4.035   2.529   0.608 -0.3593 -1.3367  1.1595
  470TMC3    H2 7001   3.892   2.865   0.823 -0.4156  0.5947 -0.5776
  470TMC3    C7 7002   4.071   2.657   0.815  0.5685 -0.4148 -0.6517
  470TMC3    C8 7003   3.682   2.920   0.652  0.0802  0.0578  0.7533
  470TMC3    O1 7004   4.156   2.572   0.786  0.4444 -0.1047  0.1922
  470TMC3    O2 7005   3.668   2.974   0.758 -0.0702  0.1247  0.0360
  471MPD2     C 7006   3.594   3.122  16.734  0.5229  0.3332 -0.1079
  471MPD2    C1 7007   3.710   3.177  16.790  0.2558  0.1894  0.1008
  471MPD2    C2 7008   3.746   3.157  16.919 -0.8040 -0.2387 -1.6726
  471MPD2    C3 7009   3.673   3.064  16.994  0.3561  0.1880  0.0173
  471MPD2    C4 7010   3.561   3.003  16.943  0.1910  0.4833 -0.7319
  471MPD2    C5 7011   3.522   3.035  16.813 -0.1022  1.1489 -0.0754
  471MPD2     H 7012   3.843   3.195  16.948 -1.7120  2.1705 -1.7807
  471MPD2    H1 7013   3.495   2.940  17.002  1.5163  1.2562  1.5737
  471MPD2    H2 7014   3.549   3.160  16.643 -1.4701 -0.9198  0.3673
  471MPD2    H3 7015   3.444   2.984  16.759  1.5531  1.4373 -2.7218
  471MPD2     N 7016   3.711   3.039  17.124 -0.2539  0.2239 -0.1186
  471MPD2    H5 7017   3.668   2.960  17.171  3.7269 -1.1778  1.1288
  471MPD2    N1 7018   3.800   3.256  16.711  0.3323 -0.1923 -0.6289
  471MPD2    H7 7019   3.886   3.288  16.755 -1.6165  1.1479  2.2155
  472TMC3    C1 7020   3.919   3.367  16.548 -0.0663 -0.5952  0.3125
  472TMC3    C2 7021   3.912   3.346  16.415 -0.3250 -0.1853  0.4615
  472TMC3    C3 7022   3.979   3.236  16.362  0.2006 -0.1009 -0.1347
  472TMC3    C4 7023   4.015   3.298  16.614  0.2956  0.1469  0.1526
  472TMC3    C5 7024   4.087   3.193  16.561 -0.3992 -0.0665  0.3402
  472TMC3    C6 7025   4.053   3.151  16.438 -0.1541  0.4768 -0.0515
  472TMC3     C 7026   3.786   3.314  16.586  0.8559 -0.5480  0.8331
  472TMC3     O 7027   3.687   3.329  16.512 -0.2856 -0.0204 -0.1010
  472TMC3     H 7028   3.842   3.398  16.350  0.7763 -0.5553 -1.0338
  472TMC3    H1 7029   4.053   3.323  16.712  1.6453  0.5408 -0.4719
  472TMC3    H2 7030   4.091   3.053  16.412  1.7700  0.9638  0.9687
  472TMC3    C7 7031   4.119   3.088  16.657  0.0133  0.0755 -0.2097
  472TMC3    C8 7032   3.932   3.192  16.235 -0.5732  0.5729 -0.3361
  472TMC3    O1 7033   4.061   3.092  16.766 -0.2239  0.0753  0.0442
  472TMC3    O2 7034   3.916   3.277  16.146  0.2454  0.0861 -0.7236
  473MPD2     C 7035   3.252   1.005  14.094 -0.0142 -0.3467  0.5840
  473MPD2    C1 7036   3.307   1.096  14.003  0.8296 -0.5251 -0.3547
  473MPD2    C2 7037   3.388   1.193  14.056  0.5757 -0.5825 -0.2873
  473MPD2    C3 7038   3.407   1.211  14.192  0.8438  0.1415 -0.4772
  473MPD2    C4 7039   3.344   1.130  14.277  0.0033  0.2824  0.2428
  473MPD2    C5 7040   3.260   1.033  14.229  0.1448 -0.2092  0.3770
  473MPD2     H 7041   3.425   1.266  13.985  0.9184 -0.5602 -0.0849
  473MPD2    H1 7042   3.356   1.137  14.384 -0.8655 -2.2297  0.5208
  473MPD2    H2 7043   3.189   0.923  14.062 -0.0357  0.0418 -0.3780
  473MPD2    H3 7044   3.201   0.974  14.298 -0.2991 -1.0640 -0.7288
  473MPD2     N 7045   3.490   1.309  14.253  0.3951  0.3586  0.2543
  473MPD2    H5 7046   3.485   1.311  14.354 -2.6643  0.7312  0.1035
  473MPD2    N1 7047   3.294   1.082  13.858 -0.5328  0.5816  0.0475
  473MPD2    H7 7048   3.336   1.159  13.808  1.9856  0.7394  2.4268
  474TMC3    C1 7049   3.618   1.500  14.287  0.5520  0.2402  0.3607
  474TMC3    C2 7050   3.505   1.568  14.331 -0.0648 -0.0980  0.4904
  474TMC3    C3 7051   3.521   1.695  14.374 -0.2915 -0.0655 -0.1808
  474TMC3    C4 7052   3.743   1.554  14.295 -0.5112  0.0787 -0.1850
  474TMC3    C5 7053   3.752   1.680  14.344  0.0138  0.2841  0.4249
  474TMC3    C6 7054   3.641   1.750  14.392 -0.1506 -0.7777  0.2992
  474TMC3     C 7055   3.584   1.387  14.196 -0.3672  0.2293  0.5539
  474TMC3     O 7056   3.622   1.394  14.078 -0.4400 -0.6772 -0.0144
  474TMC3     H 7057   3.405   1.536  14.303  0.4838 -1.1027 -0.3197
  474TMC3    H1 7058   3.823   1.511  14.236  0.8351 -0.6760  2.2065
  474TMC3    H2 7059   3.652   1.852  14.428  2.1935  0.3174 -3.4709
  474TMC3    C7 7060   3.878   1.735  14.333 -0.2237 -0.7033 -0.2791
  474TMC3    C8 7061   3.407   1.788  14.365 -0.1938  0.4807  0.4591
  474TMC3    O1 7062   3.951   1.694  14.244 -0.2307  0.1856  0.0795
  474TMC3    O2 7063   3.298   1.734  14.373 -0.2568  0.0178  0.2160
  475MPD2     C 7064   2.840   3.903  10.446 -0.3675  0.3689 -0.1111
  475MPD2    C1 7065   2.853   3.818  10.339 -0.0802  0.0841 -0.7551
  475MPD2    C2 7066   2.751   3.736  10.302  0.2286  0.7106  0.3611
  475MPD2    C3 7067   2.627   3.741  10.367 -0.5990  0.2992 -0.1374
  475MPD2    C4 7068   2.613   3.827  10.473  1.0244 -0.7959 -0.6909
  475MPD2    C5 7069   2.722   3.904  10.516  0.2101  0.3723  0.2728
  475MPD2     H 7070   2.761   3.673  10.214  2.2738  0.7836  0.5589
  475MPD2    H1 7071   2.525   3.816  10.536  3.8859 -1.0143  3.2601
  475MPD2    H2 7072   2.919   3.965  10.486 -0.3807  0.2573  0.0884
  475MPD2    H3 7073   2.702   3.960  10.607  1.2114 -0.2195  0.8580
  475MPD2     N 7074   2.525   3.651  10.315  0.0153  0.5122  0.3944
  475MPD2    H5 7075   2.550   3.590  10.238 -0.1427  0.0728  0.6954
  475MPD2    N1 7076   2.977   3.829  10.273 -0.3016  0.2546 -0.2505
  475MPD2    H7 7077   3.044   3.897  10.307 -0.1705  0.2727 -0.5390
  476TMC3    C1 7078   3.161   3.774  10.135 -0.2762  0.1943  0.4987
  476TMC3    C2 7079   3.214   3.701  10.033  0.5365 -0.2349  0.8903
  476TMC3    C3 7080   3.311   3.747   9.946  0.1847 -0.0655 -0.7117
  476TMC3    C4 7081   3.212   3.904  10.146  0.5328 -0.3347  0.4432
  476TMC3    C5 7082   3.317   3.942  10.063  0.4808  0.4507  0.1253
  476TMC3    C6 7083   3.368   3.866   9.959  0.1733 -0.0748 -0.0232
  476TMC3     C 7084   3.031   3.740  10.187 -0.1155 -0.0431  0.3893
  476TMC3     O 7085   2.971   3.644  10.142 -0.0245 -0.9971 -0.0673
  476TMC3     H 7086   3.176   3.600  10.033  0.7774 -0.3236  0.6485
  476TMC3    H1 7087   3.178   3.975  10.220  1.5979  1.3174 -0.6387
  476TMC3    H2 7088   3.461   3.886   9.906 -0.0520  2.2324  0.4362
  476TMC3    C7 7089   3.423   4.021  10.128 -0.6723 -0.1562  0.1797
  476TMC3    C8 7090   3.273   3.715   9.809 -0.5241  0.1589 -0.0194
  476TMC3    O1 7091   3.535   4.017  10.077  0.5432 -0.3630  0.1305
  476TMC3    O2 7092   3.282   3.803   9.726  0.1406  0.3727  0.0018
  477MPD2     C 7093   4.494   0.534  11.736  0.2160  0.0901  0.0410
  477MPD2    C1 7094   4.525   0.648  11.794  0.1887 -0.6954 -0.2724
  477MPD2    C2 7095   4.597   0.648  11.909  0.3421 -0.0435  0.0304
  477MPD2    C3 7096   4.654   0.532  11.960 -0.0412 -0.1568 -0.0901
  477MPD2    C4 7097   4.607   0.412  11.905 -0.3046 -0.4335 -0.9715
  477MPD2    C5 7098   4.535   0.417  11.789 -0.1839 -0.0428 -0.0808
  477MPD2     H 7099   4.627   0.746  11.945 -0.4663  0.0429  0.4827
  477MPD2    H1 7100   4.613   0.315  11.954  0.1576 -0.0969 -0.3614
  477MPD2    H2 7101   4.447   0.535  11.638  1.0566 -0.8217 -0.3619
  477MPD2    H3 7102   4.506   0.320  11.750  1.4254  0.0457 -1.5156
  477MPD2     N 7103   0.015   0.529  12.071  0.2126 -0.5119  0.8835
  477MPD2    H5 7104   0.031   0.617  12.119  1.2931  1.1905 -2.6231
  477MPD2    N1 7105   4.470   0.763  11.739 -0.1343 -0.1588 -0.0103
  477MPD2    H7 7106   4.414   0.755  11.655  0.1424 -2.1671  0.0002
  478TMC3    C1 7107   4.399   0.986  11.703  0.5016 -0.0755  0.2006
  478TMC3    C2 7108   4.366   1.100  11.778  0.2617  0.4150  0.1329
  478TMC3    C3 7109   4.369   1.218  11.715 -0.4209 -0.3429  0.3483
  478TMC3    C4 7110   4.437   0.991  11.572 -0.4110 -0.3919  0.7425
  478TMC3    C5 7111   4.444   1.116  11.517 -0.5401  0.2381 -0.4897
  478TMC3    C6 7112   4.410   1.233  11.582 -0.4668 -0.4509 -0.8164
  478TMC3     C 7113   4.466   0.886  11.789 -0.4827  0.4951  0.6222
  478TMC3     O 7114   4.521   0.928  11.887  0.1963 -0.5064  0.2010
  478TMC3     H 7115   4.361   1.096  11.886 -0.9480  2.1964  0.1354
  478TMC3    H1 7116   4.484   0.904  11.527 -0.5872  0.5935 -1.3431
  478TMC3    H2 7117   4.406   1.324  11.522 -1.4622  1.0457  1.5291
  478TMC3    C7 7118   4.415   1.117  11.370  0.2835  0.2953  0.7041
  478TMC3    C8 7119   4.334   1.334  11.799 -1.1057  0.3355 -0.0763
  478TMC3    O1 7120   4.434   1.221  11.304 -0.2221 -0.3492 -0.0976
  478TMC3    O2 7121   4.327   1.315  11.921 -0.1707 -0.1430  0.5920
  479MPD2     C 7122   3.526   3.003  15.058 -0.2214  0.2783  0.0200
  479MPD2    C1 7123   3.504   2.883  15.119 -0.5610 -0.3046 -0.2705
  479MPD2    C2 7124   3.578   2.842  15.231  0.4860  0.5153  0.8475
  479MPD2    C3 7125   3.652   2.934  15.299  0.3000  0.2454 -0.7846
  479MPD2    C4 7126   3.685   3.054  15.236 -0.4689 -1.0347  0.1241
  479MPD2    C5 7127   3.616   3.086  15.121 -0.2321  0.6633 -0.1045
  479MPD2     H 7128   3.541   2.749  15.274 -0.9900  0.1260 -1.2888
  479MPD2    H1 7129   3.752   3.130  15.275 -0.6474 -0.5814 -0.4323
  479MPD2    H2 7130   3.465   3.051  14.981  0.5896 -0.6136 -1.1750
  479MPD2    H3 7131   3.637   3.183  15.076 -1.7812  1.2403  0.4382
  479MPD2     N 7132   3.718   2.917  15.422  0.3118  0.0601 -0.1999
  479MPD2    H5 7133   3.794   2.982  15.438 -0.3850  0.7206  0.4244
  479MPD2    N1 7134   3.399   2.809  15.063  0.0841  0.7776 -0.1771
  479MPD2    H7 7135   3.344   2.861  14.996 -1.3277 -0.4305  0.0412
  480TMC3    C1 7136   3.400   2.675  15.679  0.1567 -0.6682  0.1056
  480TMC3    C2 7137   3.295   2.754  15.639 -0.5453  0.4460 -1.0485
  480TMC3    C3 7138   3.313   2.862  15.556 -0.0257  0.9386  0.1390
  480TMC3    C4 7139   3.525   2.689  15.623  0.4060  0.5458 -0.0245
  480TMC3    C5 7140   3.547   2.801  15.539  0.3832 -1.2429 -0.0131
  480TMC3    C6 7141   3.442   2.884  15.507 -0.1269  0.0944  0.2405
  480TMC3     C 7142   3.395   2.595  15.796 -0.1872 -0.0063 -0.1081
  480TMC3     O 7143   3.498   2.574  15.861 -0.4153  0.0487  0.1666
  480TMC3     H 7144   3.194   2.737  15.673 -0.3203  2.6283  0.6726
  480TMC3    H1 7145   3.609   2.627  15.653  0.1334 -0.2062 -0.8215
  480TMC3    H2 7146   3.465   2.982  15.467  1.2128  0.1311  1.1159
  480TMC3    C7 7147   3.688   2.824  15.520 -0.2268 -0.1088 -0.5932
  480TMC3    C8 7148   3.200   2.912  15.480  0.1447 -0.7903  1.5091
  480TMC3    O1 7149   3.773   2.786  15.601 -0.1409 -0.1161  0.5760
  480TMC3    O2 7150   3.090   2.874  15.511  0.3262 -0.0219  0.0624
  481MPD2     C 7151   0.971   2.685  14.645 -0.5796  0.7662  0.4789
  481MPD2    C1 7152   0.836   2.662  14.663 -0.7982 -0.0957 -0.1222
  481MPD2    C2 7153   0.781   2.642  14.791  0.0086 -0.0109 -0.2942
  481MPD2    C3 7154   0.863   2.652  14.905 -0.1553  0.1344  0.8005
  481MPD2    C4 7155   0.993   2.677  14.889  0.2020  0.5122  0.9238
  481MPD2    C5 7156   1.041   2.691  14.762  0.5910  0.2403  0.0728
  481MPD2     H 7157   0.677   2.611  14.802 -0.8252  2.2512 -1.7691
  481MPD2    H1 7158   1.062   2.693  14.971 -1.2665  1.5907  1.9392
  481MPD2    H2 7159   1.017   2.694  14.547  1.1773  0.5468  1.2836
  481MPD2    H3 7160   1.147   2.713  14.755  0.3099  1.7237  0.3994
  481MPD2     N 7161   0.816   2.641  15.037  0.6937  0.3955 -0.5406
  481MPD2    H5 7162   0.887   2.625  15.109  0.8389  1.3345 -0.4739
  481MPD2    N1 7163   0.757   2.657  14.544  0.4890  0.0098  0.3434
  481MPD2    H7 7164   0.810   2.673  14.459 -1.0301  2.7455 -0.0884
  482TMC3    C1 7165   0.580   2.626  14.400 -0.0967 -0.4622  0.3831
  482TMC3    C2 7166   0.656   2.570  14.311  0.3304  0.0746 -0.6269
  482TMC3    C3 7167   0.621   2.586  14.175  1.0211  0.4040  0.1130
  482TMC3    C4 7168   0.472   2.709  14.372  0.5884 -0.2320  0.6967
  482TMC3    C5 7169   0.441   2.733  14.244  0.8322 -0.1971 -0.9159
  482TMC3    C6 7170   0.520   2.675  14.135 -0.4411 -0.2378  0.5229
  482TMC3     C 7171   0.623   2.623  14.539  0.5875 -0.1666  0.4123
  482TMC3     O 7172   0.531   2.625  14.621  0.1829  0.4536 -0.1044
  482TMC3     H 7173   0.741   2.506  14.331  0.7485  0.1355 -2.2437
  482TMC3    H1 7174   0.411   2.754  14.450  0.0277  2.1138 -1.1168
  482TMC3    H2 7175   0.483   2.670  14.034  1.8199  0.4223 -0.3279
  482TMC3    C7 7176   0.302   2.768  14.209  0.0001  0.2683  0.4865
  482TMC3    C8 7177   0.674   2.490  14.080  0.2657 -0.2743 -0.0316
  482TMC3    O1 7178   0.218   2.720  14.280 -0.3202 -0.1165 -0.2894
  482TMC3    O2 7179   0.705   2.379  14.124  0.0438 -0.4379 -0.2857
  483TMC3    C1 7180   3.066   1.083   1.112  0.5626 -0.4127 -0.4632
  483TMC3    C2 7181   3.152   1.171   1.168 -0.5668 -0.3667 -0.3918
  483TMC3    C3 7182   3.269   1.128   1.228  0.1595  0.5809 -0.1995
  483TMC3    C4 7183   3.075   0.950   1.121  0.1117 -0.1687  0.3031
  483TMC3    C5 7184   3.189   0.911   1.175  0.0565 -0.8055  0.2349
  483TMC3    C6 7185   3.283   0.993   1.233  0.0717 -0.7439 -0.1093
  483TMC3     C 7186   2.970   1.145   1.027 -0.4339  0.0064 -0.3825
  483TMC3     O 7187   2.964   1.268   1.034  0.1190 -0.0600  0.2311
  483TMC3     H 7188   3.160   1.276   1.140  1.4987  0.1293  2.0231
  483TMC3    H1 7189   3.009   0.872   1.084  0.3683 -0.3349  0.1931
  483TMC3    H2 7190   3.375   0.962   1.282 -1.2460 -1.9146  1.5925
  483TMC3    C7 7191   3.214   0.769   1.166 -0.4105  0.0843 -0.2570
  483TMC3    C8 7192   3.387   1.199   1.193 -0.1559 -0.5790 -0.1518
  483TMC3    O1 7193   3.117   0.689   1.145  0.4520  0.1329  0.3596
  483TMC3    O2 7194   3.374   1.272   1.097  0.1046 -0.0139 -0.2766
  484MPD2     C 7195   1.002   4.375  12.564 -0.3247 -0.0389  0.4592
  484MPD2    C1 7196   1.007   4.246  12.593  0.8923  0.5301 -0.3999
  484MPD2    C2 7197   1.120   4.181  12.562  0.4865  0.3177  0.6842
  484MPD2    C3 7198   1.235   4.245  12.512 -1.0270 -0.7061 -0.4044
  484MPD2    C4 7199   1.230   4.379  12.497 -0.5595 -0.3235  0.3927
  484MPD2    C5 7200   1.108   4.443  12.513 -0.5958 -0.0312 -0.2442
  484MPD2     H 7201   1.123   4.073  12.573  2.1286  0.1687 -1.0744
  484MPD2    H1 7202   1.318   4.435  12.468 -1.4993  0.6883 -0.5010
  484MPD2    H2 7203   0.910   4.431  12.579  0.9910  2.3346 -0.3272
  484MPD2    H3 7204   1.102   4.545  12.477  0.3706  0.7240  1.7016
  484MPD2     N 7205   1.355   4.175  12.483  0.2074 -0.6712 -0.2011
  484MPD2    H5 7206   1.432   4.229  12.444  0.1145 -1.7500 -1.9068
  484MPD2    N1 7207   0.896   4.168  12.634 -1.0164  0.6095  0.5658
  484MPD2    H7 7208   0.919   4.071  12.650  0.4156  0.4379 -2.4854
  485TMC3    C1 7209   1.504   4.007  12.454 -0.0120  0.4170 -0.3902
  485TMC3    C2 7210   1.578   3.913  12.518  0.0435 -0.2323  0.5439
  485TMC3    C3 7211   1.709   3.898  12.475  0.0308  0.6310  0.0539
  485TMC3    C4 7212   1.544   4.066  12.335  0.4716  0.0263  0.5405
  485TMC3    C5 7213   1.679   4.052  12.301 -0.3514 -0.4816  0.6311
  485TMC3    C6 7214   1.761   3.974  12.382 -0.5314  0.4319 -0.0524
  485TMC3     C 7215   1.377   4.038  12.503 -0.0195  0.2853 -0.6608
  485TMC3     O 7216   1.317   3.962  12.577 -0.0524 -0.3103 -0.1881
  485TMC3     H 7217   1.543   3.854  12.602  0.9676 -1.0094  0.3894
  485TMC3    H1 7218   1.472   4.107  12.265  0.2719 -1.9952 -0.4642
  485TMC3    H2 7219   1.865   3.955  12.355 -0.4874  1.1129 -0.3700
  485TMC3    C7 7220   1.711   4.050  12.165 -0.5923  0.9770 -0.2098
  485TMC3    C8 7221   1.738   3.761  12.436  0.2909  1.0817  0.2419
  485TMC3    O1 7222   1.679   4.145  12.098  0.1465 -0.3694  0.2658
  485TMC3    O2 7223   1.780   3.740  12.326 -0.6708 -0.1257 -0.1745
  486MPD2     C 7224   3.480   3.492  12.926 -0.4662 -0.5189 -0.1841
  486MPD2    C1 7225   3.356   3.470  12.976 -0.4624 -0.6044  0.8521
  486MPD2    C2 7226   3.265   3.574  12.953 -0.1009  0.1369 -0.4661
  486MPD2    C3 7227   3.288   3.693  12.888 -0.6474  0.5548  0.4531
  486MPD2    C4 7228   3.415   3.724  12.855  0.9896  0.3603 -0.1325
  486MPD2    C5 7229   3.506   3.623  12.883 -0.3005  0.2789  0.7643
  486MPD2     H 7230   3.169   3.569  13.004 -0.8074  0.7596 -1.7330
  486MPD2    H1 7231   3.458   3.814  12.811 -1.8622  1.7540 -0.0492
  486MPD2    H2 7232   3.558   3.417  12.935  0.4697  0.7962  2.6308
  486MPD2    H3 7233   3.611   3.633  12.857 -0.6818 -0.8161 -1.2190
  486MPD2     N 7234   3.184   3.790  12.877  0.6543 -0.7291 -0.3588
  486MPD2    H5 7235   3.094   3.757  12.912  0.7245  0.4156  0.8705
  486MPD2    N1 7236   3.330   3.349  13.042 -0.5931  0.3769 -0.3943
  486MPD2    H7 7237   3.408   3.283  13.039  0.3216  1.4023  0.5738
  487TMC3    C1 7238   3.229   3.197  13.193 -0.2278  0.2393  0.3539
  487TMC3    C2 7239   3.269   3.095  13.112 -0.2852  0.3794 -0.1095
  487TMC3    C3 7240   3.241   2.968  13.147 -0.1979  0.3795 -0.1332
  487TMC3    C4 7241   3.165   3.193  13.305 -0.8817 -0.4458 -0.2761
  487TMC3    C5 7242   3.139   3.059  13.340  0.5610  0.9504 -0.7946
  487TMC3    C6 7243   3.187   2.948  13.270 -0.4884  0.8096  0.2270
  487TMC3     C 7244   3.227   3.323  13.126 -0.2704 -0.0748  0.0468
  487TMC3     O 7245   3.142   3.401  13.172  0.3149 -0.1571  0.3193
  487TMC3     H 7246   3.310   3.112  13.013 -2.1025  0.1827 -0.8753
  487TMC3    H1 7247   3.126   3.282  13.353 -0.5213 -1.5393  2.0436
  487TMC3    H2 7248   3.131   2.858  13.294 -1.1191  0.0618 -3.8922
  487TMC3    C7 7249   3.089   3.024  13.475  0.0285 -0.4626  0.3785
  487TMC3    C8 7250   3.192   2.874  13.046  0.6735 -0.1150 -0.2661
  487TMC3    O1 7251   3.038   2.914  13.496 -0.6908  0.1937  0.5757
  487TMC3    O2 7252   3.128   2.928  12.955  0.3253  0.3305 -0.1750
  488MPD2     C 7253   3.337   0.295  16.113 -0.6653  0.0316  0.4538
  488MPD2    C1 7254   3.384   0.375  16.214 -0.4770  0.3614  0.4107
  488MPD2    C2 7255   3.324   0.352  16.341  0.3867  0.0069 -0.5516
  488MPD2    C3 7256   3.207   0.286  16.362 -0.4896 -0.3680 -0.0608
  488MPD2    C4 7257   3.155   0.219  16.254  0.4970  0.2887 -0.4655
  488MPD2    C5 7258   3.230   0.214  16.135 -0.1715  0.3426 -0.9250
  488MPD2     H 7259   3.358   0.412  16.426 -1.1320 -0.7399  0.5830
  488MPD2    H1 7260   3.057   0.173  16.252  0.2336  0.8293 -0.1585
  488MPD2    H2 7261   3.387   0.288  16.017 -0.8414  0.2838  0.3449
  488MPD2    H3 7262   3.191   0.149  16.058  0.4084 -0.3180 -0.6621
  488MPD2     N 7263   3.149   0.300  16.487 -0.0601  0.0938 -0.7815
  488MPD2    H5 7264   3.208   0.341  16.559  0.7214 -2.0280 -0.2097
  488MPD2    N1 7265   3.488   0.465  16.214 -0.6888  0.2109  0.3134
  488MPD2    H7 7266   3.517   0.499  16.304  2.1019  0.7899 -0.7998
  489TMC3    C1 7267   2.996   0.275  16.661 -0.5406  0.2256  0.1343
  489TMC3    C2 7268   3.098   0.301  16.740  0.5895  0.1602  0.0733
  489TMC3    C3 7269   3.069   0.377  16.850  0.5461 -0.2840 -0.2803
  489TMC3    C4 7270   2.871   0.309  16.688 -0.4035 -0.6215 -0.6788
  489TMC3    C5 7271   2.850   0.373  16.809 -0.6250  0.1575  0.4689
  489TMC3    C6 7272   2.949   0.417  16.891 -0.0134 -0.7407  0.1417
  489TMC3     C 7273   3.022   0.248  16.516 -0.0036 -0.0206 -0.5525
  489TMC3     O 7274   2.926   0.237  16.440 -0.3344 -0.1227  0.8334
  489TMC3     H 7275   3.201   0.278  16.714  0.2813  1.2378 -2.0623
  489TMC3    H1 7276   2.790   0.267  16.628 -0.0681 -1.8734 -0.2581
  489TMC3    H2 7277   2.935   0.494  16.966  2.9249  0.5144 -0.6135
  489TMC3    C7 7278   2.720   0.435  16.839  0.1946 -0.0654  0.3394
  489TMC3    C8 7279   3.173   0.471  16.873 -0.4537 -0.1845  0.3778
  489TMC3    O1 7280   2.715   0.527  16.922 -0.3586  0.0926  0.2861
  489TMC3    O2 7281   3.240   0.490  16.773  0.3422 -0.6552  0.1031
  490MPD2     C 7282   4.521   4.024  17.385 -0.0643  0.2157 -0.6800
  490MPD2    C1 7283   4.499   3.909  17.455  0.5158  0.2029  0.0182
  490MPD2    C2 7284   4.550   3.892  17.583  0.1116  0.1939 -1.1965
  490MPD2    C3 7285   4.605   4.005  17.644 -0.1737  0.0329  0.4346
  490MPD2    C4 7286   4.623   4.124  17.578  0.0898 -0.2592  0.3073
  490MPD2    C5 7287   4.589   4.131  17.446  0.0592 -0.4473 -0.0994
  490MPD2     H 7288   4.540   3.797  17.635  0.7000  1.2401  0.8106
  490MPD2    H1 7289   4.672   4.212  17.619 -0.7657 -0.6480  2.1856
  490MPD2    H2 7290   4.491   4.044  17.283  1.1547 -0.7999 -1.2408
  490MPD2    H3 7291   4.605   4.224  17.391  2.2233  0.9786  2.9515
  490MPD2     N 7292   4.661   3.994   0.072  0.1689 -0.1894 -0.5760
  490MPD2    H5 7293   4.723   4.068   0.103 -0.6987 -0.0748  0.9076
  490MPD2    N1 7294   4.418   3.806  17.397  1.1729 -0.2339 -0.6596
  490MPD2    H7 7295   4.410   3.723  17.456  0.5279  1.2570  1.3543
  491TMC3    C1 7296   4.279   3.680  17.244  0.5402 -0.2387  0.3782
  491TMC3    C2 7297   4.244   3.608  17.356  0.7429  0.1272 -0.5188
  491TMC3    C3 7298   4.158   3.506  17.334 -0.1789  0.1642  0.1375
  491TMC3    C4 7299   4.229   3.662  17.116 -0.0843 -0.2190 -0.4807
  491TMC3    C5 7300   4.127   3.571  17.106  0.3381 -0.1878  0.8045
  491TMC3    C6 7301   4.099   3.486  17.213  0.2198  0.0719  0.1547
  491TMC3     C 7302   4.370   3.790  17.263 -0.3798  0.6247 -0.3895
  491TMC3     O 7303   4.385   3.862  17.164  0.1648  0.3109  0.3841
  491TMC3     H 7304   4.278   3.629  17.456 -1.3104 -0.6680  0.3531
  491TMC3    H1 7305   4.241   3.734  17.036 -1.6683  2.0899  1.3320
  491TMC3    H2 7306   4.019   3.414  17.197 -2.7510  3.1105  1.4447
  491TMC3    C7 7307   4.012   3.607  17.019  0.5414 -0.1230  0.1499
  491TMC3    C8 7308   4.060   3.504  17.447 -0.5029 -0.0127 -0.0468
  491TMC3    O1 7309   3.907   3.577  17.076 -0.1986  0.1124  0.0389
  491TMC3    O2 7310   4.027   3.610  17.499 -0.5056  0.6718 -0.0194
  492MPD2     C 7311   0.253   3.958  11.404 -0.7424 -0.2575 -0.0788
  492MPD2    C1 7312   0.152   3.952  11.308 -0.4077 -0.5018 -0.2912
  492MPD2    C2 7313   0.026   3.922  11.341 -0.1900  0.5805  0.0082
  492MPD2    C3 7314   4.718   3.895  11.474  0.2934 -0.1379  0.7840
  492MPD2    C4 7315   0.086   3.915  11.577  0.0228 -0.2496  0.2890
  492MPD2    C5 7316   0.219   3.940  11.537  0.3287 -0.0378  0.8537
  492MPD2     H 7317   4.678   3.902  11.263  0.1718 -1.5093  0.2082
  492MPD2    H1 7318   0.062   3.899  11.682 -1.5605 -1.1508 -0.2018
  492MPD2    H2 7319   0.356   3.984  11.379 -0.1305 -0.2260  2.4078
  492MPD2    H3 7320   0.290   3.959  11.617 -0.1194 -0.2923  1.3122
  492MPD2     N 7321   4.586   3.875  11.510 -0.4705  0.7544  0.1305
  492MPD2    H5 7322   4.569   3.874  11.610  0.1391  2.2212  0.2601
  492MPD2    N1 7323   0.187   3.972  11.170 -0.4026  0.0058 -0.0192
  492MPD2    H7 7324   0.287   3.985  11.158 -0.2906  0.3661  1.2943
  493TMC3    C1 7325   0.176   4.024  10.948  0.4137  0.1913  0.1173
  493TMC3    C2 7326   0.312   4.042  10.943  0.4438  0.8327 -0.2468
  493TMC3    C3 7327   0.367   4.087  10.826 -0.1932  0.0697 -0.3622
  493TMC3    C4 7328   0.100   4.050  10.838 -0.3485  0.0145 -0.2972
  493TMC3    C5 7329   0.156   4.073  10.719  0.3437  0.8099 -0.0958
  493TMC3    C6 7330   0.288   4.097  10.711  0.3166 -0.3544 -0.6199
  493TMC3     C 7331   0.103   3.986  11.067 -0.0863 -0.0571  0.0017
  493TMC3     O 7332   4.709   3.951  11.052  0.3636  0.3793 -0.3909
  493TMC3     H 7333   0.379   4.026  11.027 -1.1284  1.5538  1.1459
  493TMC3    H1 7334   4.717   4.044  10.844 -0.3009 -0.0510  0.4311
  493TMC3    H2 7335   0.340   4.132  10.623  1.1768 -2.0567 -0.7760
  493TMC3    C7 7336   0.089   4.012  10.611 -0.1407  0.4357  0.3766
  493TMC3    C8 7337   0.495   4.151  10.829 -0.1243 -0.9861  0.5176
  493TMC3    O1 7338   0.091   4.059  10.499  0.1945 -0.1209 -0.2204
  493TMC3    O2 7339   0.569   4.119  10.924 -0.0899  0.3965 -0.0836
  494TMC3    C1 7340   0.138   1.127   0.642  0.3497  0.3140  0.0558
  494TMC3    C2 7341   0.142   0.996   0.651 -0.7128 -0.5287 -0.5546
  494TMC3    C3 7342   0.168   0.915   0.544 -0.2530 -0.5348 -0.8195
  494TMC3    C4 7343   0.140   1.188   0.519  0.0517 -0.4603  0.2088
  494TMC3    C5 7344   0.155   1.101   0.404  0.1200  0.3240  0.1905
  494TMC3    C6 7345   0.171   0.966   0.415 -0.4558 -0.4760  0.5427
  494TMC3     C 7346   0.072   1.189   0.758 -0.1371 -0.5710 -0.3525
  494TMC3     O 7347   0.029   1.108   0.842  0.5753 -0.0059 -0.3537
  494TMC3     H 7348   0.166   0.951   0.746  0.4026 -0.3547 -0.7494
  494TMC3    H1 7349   0.110   1.291   0.502 -0.5633 -0.3709  1.9074
  494TMC3    H2 7350   0.189   0.906   0.326 -1.3375 -0.3061  0.2475
  494TMC3    C7 7351   0.197   1.169   0.281  0.1382  0.3234 -0.0842
  494TMC3    C8 7352   0.209   0.775   0.573  0.5416 -0.0158  0.4178
  494TMC3    O1 7353   0.183   1.104   0.176  0.3463  0.2361 -0.1800
  494TMC3    O2 7354   0.309   0.746   0.639  0.1845 -0.0224 -0.4419
  495TMC3    C1 7355   3.425   3.291  14.651 -0.7349 -0.0918 -0.2691
  495TMC3    C2 7356   3.357   3.395  14.595  0.0874 -0.9325  0.2678
  495TMC3    C3 7357   3.305   3.493  14.679 -0.2655  0.1823  0.0872
  495TMC3    C4 7358   3.427   3.278  14.789 -0.2584  0.1290 -0.3954
  495TMC3    C5 7359   3.369   3.369  14.865  0.5238  0.4817 -0.0378
  495TMC3    C6 7360   3.307   3.483  14.816 -0.7142  0.0562 -0.8103
  495TMC3     C 7361   3.422   3.162  14.576  0.3895 -0.0936  0.7014
  495TMC3     O 7362   3.460   3.056  14.629 -0.1264 -0.1465 -0.0977
  495TMC3     H 7363   3.358   3.418  14.489  0.5443 -1.4382  0.1653
  495TMC3    H1 7364   3.477   3.190  14.829  1.1075  1.0386 -0.0853
  495TMC3    H2 7365   3.234   3.531  14.881  0.8068  4.0016 -2.0082
  495TMC3    C7 7366   3.324   3.317  14.991 -0.6786  0.3404 -0.0820
  495TMC3    C8 7367   3.176   3.532  14.629  0.3855 -0.4558  0.5318
  495TMC3    O1 7368   3.408   3.312  15.080 -0.0235 -0.0407 -0.4595
  495TMC3    O2 7369   3.076   3.526  14.701 -0.2950  0.0611  0.4691
  496MPD2     C 7370   0.556   3.023  15.132  0.5830 -0.3878  0.9595
  496MPD2    C1 7371   0.601   3.088  15.249  0.9762  0.2616  0.8064
  496MPD2    C2 7372   0.522   3.104  15.352 -0.1787 -0.3229  0.1180
  496MPD2    C3 7373   0.394   3.054  15.351 -0.4701  0.0564  0.5954
  496MPD2    C4 7374   0.349   2.997  15.239 -0.6124 -0.6042  0.3449
  496MPD2    C5 7375   0.430   2.968  15.131  0.0150 -0.8412  0.1985
  496MPD2     H 7376   0.545   3.154  15.445 -0.8513  0.2027  0.0063
  496MPD2    H1 7377   0.248   2.956  15.236 -1.6003  1.9068 -0.4282
  496MPD2    H2 7378   0.628   2.992  15.057 -1.2036  0.5237 -1.1261
  496MPD2    H3 7379   0.407   2.894  15.055  0.6686 -0.0258 -0.8081
  496MPD2     N 7380   0.315   3.042  15.471 -0.3328 -0.3387  0.8182
  496MPD2    H5 7381   0.223   3.000  15.460 -0.2712 -0.2500 -0.0297
  496MPD2    N1 7382   0.746   3.106  15.247  0.0491 -0.0651  0.0964
  496MPD2    H7 7383   0.793   3.068  15.165  2.3422  0.8727  0.9776
  497TMC3    C1 7384   0.245   3.038  15.687  0.1374 -0.1511 -0.6872
  497TMC3    C2 7385   0.116   3.035  15.640  1.0507  0.3015  0.1256
  497TMC3    C3 7386   0.026   2.995  15.739  0.6904 -0.3639 -0.0384
  497TMC3    C4 7387   0.288   3.005  15.811  0.2223 -0.3266  0.0296
  497TMC3    C5 7388   0.194   2.954  15.891 -0.6283  0.6639 -0.6207
  497TMC3    C6 7389   0.060   2.948  15.866 -0.1451  0.0465 -0.1768
  497TMC3     C 7390   0.342   3.089  15.599  0.0721  0.4186  0.1179
  497TMC3     O 7391   0.437   3.151  15.637 -0.2062  0.0213  0.0781
  497TMC3     H 7392   0.081   3.071  15.544 -1.8482  1.1086  1.4909
  497TMC3    H1 7393   0.395   3.016  15.823  0.2418  1.7362 -1.9987
  497TMC3    H2 7394   4.712   2.919  15.942  0.4456  1.5407  0.9652
  497TMC3    C7 7395   0.233   2.891  16.013 -0.0782  0.2139  0.1317
  497TMC3    C8 7396   4.624   3.065  15.733 -0.1068  0.8669 -0.5967
  497TMC3    O1 7397   0.176   2.786  16.044  0.6749  0.4667  0.1411
  497TMC3    O2 7398   4.592   3.107  15.624  0.2453 -0.0159  0.1323
  498MPD2     C 7399   2.574   3.084   9.004  0.0344  0.4832  0.6267
  498MPD2    C1 7400   2.598   3.136   9.129  0.1013  0.2973  0.0759
  498MPD2    C2 7401   2.507   3.102   9.230 -0.3772 -0.2566 -0.1722
  498MPD2    C3 7402   2.385   3.040   9.199  0.3921 -0.1152  0.0200
  498MPD2    C4 7403   2.364   2.989   9.072 -0.3433 -0.6100  0.5203
  498MPD2    C5 7404   2.464   3.012   8.987  0.1755 -0.0848  0.3555
  498MPD2     H 7405   2.521   3.120   9.336  1.9098 -0.2122 -0.4870
  498MPD2    H1 7406   2.278   2.930   9.042  0.6546 -1.2697 -1.0679
  498MPD2    H2 7407   2.640   3.095   8.918  0.4227 -0.4882  0.7973
  498MPD2    H3 7408   2.446   2.972   8.888  0.3024  0.4283  0.1278
  498MPD2     N 7409   2.299   3.017   9.305  0.0317 -0.1013  1.1278
  498MPD2    H5 7410   2.331   3.023   9.401  1.2162 -0.3378  0.7406
  498MPD2    N1 7411   2.709   3.212   9.167 -0.6601 -0.0072  0.3610
  498MPD2    H7 7412   2.717   3.238   9.265 -0.7762  0.4753  0.2407
  499TMC3    C1 7413   2.890   3.356   9.127  0.4921  0.2213  0.2818
  499TMC3    C2 7414   2.998   3.290   9.183 -0.4578  0.1493  0.2934
  499TMC3    C3 7415   3.114   3.366   9.199 -0.3744 -0.4592  0.0101
  499TMC3    C4 7416   2.900   3.479   9.074 -0.5224  0.2528  0.1242
  499TMC3    C5 7417   3.021   3.539   9.075  0.5322 -0.3224  0.2989
  499TMC3    C6 7418   3.120   3.493   9.148  0.0773 -0.3835 -0.7884
  499TMC3     C 7419   2.801   3.260   9.071  0.3405  0.8958 -0.6468
  499TMC3     O 7420   2.805   3.247   8.948  0.2975  0.1664 -0.1244
  499TMC3     H 7421   2.986   3.184   9.203 -0.1911  0.0644  0.0112
  499TMC3    H1 7422   2.816   3.509   9.012  0.4974  3.1589  0.1341
  499TMC3    H2 7423   3.205   3.559   9.159 -0.5658  0.4385 -0.7754
  499TMC3    C7 7424   3.034   3.670   9.019 -0.4161  0.3961  0.0926
  499TMC3    C8 7425   3.208   3.316   9.299 -0.2536  0.1816  0.1254
  499TMC3    O1 7426   3.108   3.753   9.067 -0.3197  0.0193 -0.0498
  499TMC3    O2 7427   3.206   3.195   9.314 -0.0886 -0.2198 -0.7904
  500MPD2     C 7428   4.081   0.362  10.435 -1.1342 -0.2210 -0.4801
  500MPD2    C1 7429   4.131   0.398  10.313  0.7758  0.0339 -0.4494
  500MPD2    C2 7430   4.038   0.415  10.212  0.1423  0.5100  0.6732
  500MPD2    C3 7431   3.911   0.358  10.228  0.3744  1.1977  0.4911
  500MPD2    C4 7432   3.866   0.325  10.356  0.0765  0.2807 -0.0088
  500MPD2    C5 7433   3.956   0.315  10.457  0.1313  0.5879 -0.3937
  500MPD2     H 7434   4.072   0.456  10.117 -3.1158 -1.0046 -1.1549
  500MPD2    H1 7435   3.764   0.291  10.369  0.2408 -0.0364  0.4386
  500MPD2    H2 7436   4.146   0.353  10.521 -1.2032  0.0101 -0.4059
  500MPD2    H3 7437   3.934   0.284  10.558  0.4006  2.1603  0.1445
  500MPD2     N 7438   3.819   0.336  10.128  0.0519  0.3204  1.0364
  500MPD2    H5 7439   3.733   0.296  10.162  0.5744 -0.8682  0.9411
  500MPD2    N1 7440   4.259   0.452  10.291  0.4941  0.5502  1.5103
  500MPD2    H7 7441   4.282   0.490  10.200 -2.5795  1.0821  0.9380
  501TMC3    C1 7442   4.464   0.536  10.340  0.1624 -0.0232  0.5365
  501TMC3    C2 7443   4.440   0.641  10.262  0.7261  0.1573  0.3077
  501TMC3    C3 7444   4.518   0.751  10.268 -0.5469  0.1690 -0.0693
  501TMC3    C4 7445   4.573   0.529  10.410  0.0213 -0.3229 -0.6185
  501TMC3    C5 7446   4.654   0.638  10.420 -0.6607 -0.1027  0.2978
  501TMC3    C6 7447   4.626   0.752  10.350 -0.5127  0.5446 -0.1466
  501TMC3     C 7448   4.361   0.446  10.375 -0.1690  1.0397 -0.0188
  501TMC3     O 7449   4.368   0.378  10.475 -0.0443  0.0706 -0.4142
  501TMC3     H 7450   4.361   0.644  10.188 -2.8024  1.3418  4.1497
  501TMC3    H1 7451   4.586   0.436  10.465  1.4493  0.4711  0.3917
  501TMC3    H2 7452   4.700   0.832  10.348  0.4169 -0.3160 -0.2385
  501TMC3    C7 7453   0.017   0.637  10.533  0.4160 -0.0018  0.3987
  501TMC3    C8 7454   4.437   0.868  10.289 -0.0426 -0.1000 -0.0580
  501TMC3    O1 7455   0.059   0.524  10.558 -0.1698  0.0754 -0.1189
  501TMC3    O2 7456   4.459   0.924  10.398 -0.1113  0.0883  0.5713
  502TMC3    C1 7457   2.468   3.582  14.946  0.5740  0.0671  0.6067
  502TMC3    C2 7458   2.504   3.716  14.927  0.3036  0.1511  0.2924
  502TMC3    C3 7459   2.416   3.813  14.962  0.0083  0.1046  0.1226
  502TMC3    C4 7460   2.351   3.552  15.015  0.6103  0.2116  0.2773
  502TMC3    C5 7461   2.268   3.657  15.056  0.4525 -0.9478  0.2431
  502TMC3    C6 7462   2.299   3.786  15.026  0.7672  0.0471 -0.0619
  502TMC3     C 7463   2.578   3.503  14.989 -0.5394 -0.0790 -0.2433
  502TMC3     O 7464   2.678   3.504  14.924 -0.6710 -0.2850 -0.1972
  502TMC3     H 7465   2.594   3.743  14.872  0.7135 -1.6449  0.0603
  502TMC3    H1 7466   2.312   3.451  15.018  0.2389  0.2766 -2.2220
  502TMC3    H2 7467   2.239   3.863  15.073  0.1519  0.7164 -1.9400
  502TMC3    C7 7468   2.210   3.616  15.189 -0.0487  0.0317 -0.2231
  502TMC3    C8 7469   2.478   3.942  14.982  0.8341 -0.0327 -0.3290
  502TMC3    O1 7470   2.281   3.550  15.264  0.3245 -0.3700 -0.4447
  502TMC3    O2 7471   2.540   3.991  14.889 -0.8580  0.1525  0.3419
  503MPD2     C 7472   0.378   4.676   0.104 -0.2031 -0.0867  0.9651
  503MPD2    C1 7473   0.370   4.679  17.666 -0.2026  0.5929 -0.2813
  503MPD2    C2 7474   0.323   4.562  17.601  0.2275 -0.1754  1.3251
  503MPD2    C3 7475   0.275   4.450  17.675 -0.1325  0.3568 -0.3627
  503MPD2    C4 7476   0.276   4.459   0.114  0.4056 -0.3442  0.0551
  503MPD2    C5 7477   0.320   4.572   0.175 -0.1422  0.2566 -0.1046
  503MPD2     H 7478   0.315   4.557  17.493 -0.5517 -2.2138  1.4872
  503MPD2    H1 7479   0.258   4.372   0.176  0.8489 -0.0599  0.5895
  503MPD2    H2 7480   0.413   0.027   0.173 -1.7488  0.2102  1.4129
  503MPD2    H3 7481   0.319   4.569   0.283 -0.6248 -0.4765 -0.1335
  503MPD2     N 7482   0.259   4.330  17.613 -0.1123 -0.6356 -0.1198
  503MPD2    H5 7483   0.260   4.326  17.512 -3.0640 -2.5917 -0.0765
  503MPD2    N1 7484   0.411   0.078  17.604 -0.4943  0.2392  0.0654
  503MPD2    H7 7485   0.430   0.149  17.673  0.5481 -0.0547  0.0892
  504TMC3    C1 7486   0.278   4.088  17.608  0.8088  0.6421  0.4695
  504TMC3    C2 7487   0.249   3.969  17.666 -0.4936  0.0648 -0.4696
  504TMC3    C3 7488   0.261   3.853  17.599  1.0830  0.8962  0.0057
  504TMC3    C4 7489   0.332   4.096  17.478  0.1972  0.3052  0.0406
  504TMC3    C5 7490   0.372   3.970  17.424  0.1826 -0.2219  0.1470
  504TMC3    C6 7491   0.322   3.853  17.474  1.4168 -0.5226 -0.1167
  504TMC3     C 7492   0.241   4.208  17.682  0.2870 -0.6654 -0.3271
  504TMC3     O 7493   0.174   4.189   0.082  0.2523  0.0188 -0.6908
  504TMC3     H 7494   0.220   3.975   0.072  2.8920  1.4605  0.3939
  504TMC3    H1 7495   0.363   4.195  17.448  1.8040 -0.4798 -0.8459
  504TMC3    H2 7496   0.354   3.757  17.434  2.0503  0.4499 -1.9673
  504TMC3    C7 7497   0.491   3.954  17.346  0.0336 -0.3526 -0.4486
  504TMC3    C8 7498   0.205   3.732  17.643  0.4963  0.2228 -0.1510
  504TMC3    O1 7499   0.477   3.866  17.263  0.5036 -0.8081  0.3724
  504TMC3    O2 7500   0.171   3.660  17.550 -0.4195 -0.1668  0.4045
  505MPD2     C 7501   1.395   3.037  10.057 -0.4308 -0.4067 -0.1791
  505MPD2    C1 7502   1.384   2.957  10.171 -0.3746  0.1085  0.2688
  505MPD2    C2 7503   1.480   2.984  10.274 -0.3797 -1.3110 -0.1498
  505MPD2    C3 7504   1.569   3.085  10.268  0.6814 -0.2083  0.6269
  505MPD2    C4 7505   1.565   3.173  10.160  0.8336  0.1671 -0.8485
  505MPD2    C5 7506   1.486   3.142  10.062 -0.0175 -0.0124  0.4347
  505MPD2     H 7507   1.493   2.922  10.363  0.6867  0.7329  1.1282
  505MPD2    H1 7508   1.628   3.261  10.151  0.2241  0.3660 -3.1057
  505MPD2    H2 7509   1.328   3.024   9.973  1.9857  0.3178 -2.2396
  505MPD2    H3 7510   1.488   3.198   9.969  1.2830  0.8194  0.9723
  505MPD2     N 7511   1.660   3.104  10.366  0.6551  0.5446 -0.2140
  505MPD2    H5 7512   1.734   3.171  10.348  0.1884  0.9580 -0.5654
  505MPD2    N1 7513   1.293   2.851  10.169  0.3492  0.1172 -0.4267
  505MPD2    H7 7514   1.238   2.844  10.083 -0.7432 -0.5646  0.3288
  506TMC3    C1 7515   1.235   2.624  10.224  0.0639 -0.2287 -0.1087
  506TMC3    C2 7516   1.244   2.587  10.097 -0.5749 -0.4088 -0.7063
  506TMC3    C3 7517   1.284   2.456  10.076 -0.1855  0.3473  0.3889
  506TMC3    C4 7518   1.261   2.530  10.328  0.1238  0.9823  0.9969
  506TMC3    C5 7519   1.302   2.403  10.302  0.6678 -0.1377 -0.2408
  506TMC3    C6 7520   1.311   2.363  10.172  0.6535  0.6992 -0.7540
  506TMC3     C 7521   1.300   2.750  10.260  0.1810 -0.3764 -0.6564
  506TMC3     O 7522   1.374   2.732  10.355  0.3039  0.7872  0.2909
  506TMC3     H 7523   1.223   2.653  10.014 -1.0186  0.8671  0.4251
  506TMC3    H1 7524   1.265   2.563  10.431  0.9173  0.7880  1.0245
  506TMC3    H2 7525   1.353   2.266  10.149  0.7141  0.5160  0.1516
  506TMC3    C7 7526   1.436   2.377  10.356 -0.4517 -0.0305  0.1297
  506TMC3    C8 7527   1.330   2.412   9.947  0.0800 -0.8067  0.8687
  506TMC3    O1 7528   1.475   2.262  10.338 -0.1817  0.0902 -0.0744
  506TMC3    O2 7529   1.309   2.293   9.913 -0.7551 -1.0550 -0.0542
  507TMC3    C1 7530   1.000   3.942  14.605 -0.0842  0.3957  0.0260
  507TMC3    C2 7531   1.041   3.981  14.482 -0.3951  0.4614 -0.6352
  507TMC3    C3 7532   1.168   4.020  14.458  0.3964 -0.9358 -0.8668
  507TMC3    C4 7533   1.087   3.948  14.710 -0.5240 -0.1001 -0.1267
  507TMC3    C5 7534   1.209   3.987  14.688  0.0550  0.5833  0.3692
  507TMC3    C6 7535   1.266   4.013  14.560  0.0002 -0.6605  0.2206
  507TMC3     C 7536   0.892   3.845  14.605 -0.2809  0.2228 -0.3965
  507TMC3     O 7537   0.817   3.844  14.511  0.4121 -0.3208 -0.5491
  507TMC3     H 7538   0.962   3.997  14.409  0.2021 -1.2625 -1.6504
  507TMC3    H1 7539   1.071   3.919  14.813 -0.1290 -2.1960 -0.6724
  507TMC3    H2 7540   1.360   4.065  14.542 -0.8971  0.6753 -0.5979
  507TMC3    C7 7541   1.240   4.100  14.769 -0.1690  0.1316 -1.0254
  507TMC3    C8 7542   1.178   4.143  14.373 -0.9217  0.1798 -0.4569
  507TMC3    O1 7543   1.310   4.190  14.729 -0.3750  0.5515  0.8184
  507TMC3    O2 7544   1.143   4.140  14.254 -0.5658  0.0420  0.4078
  508MPD2     C 7545   2.407   1.416  16.048 -0.3016  0.1177 -0.3762
  508MPD2    C1 7546   2.413   1.535  16.115  0.3302 -1.1391 -0.7019
  508MPD2    C2 7547   2.371   1.650  16.047  0.8578 -0.2265 -0.0147
  508MPD2    C3 7548   2.324   1.638  15.917 -0.0732 -0.6624 -0.6270
  508MPD2    C4 7549   2.320   1.516  15.857 -0.5912  0.6367 -0.8251
  508MPD2    C5 7550   2.357   1.405  15.924  0.3100 -0.0993 -0.0202
  508MPD2     H 7551   2.376   1.749  16.091  1.7221 -0.0034 -0.6349
  508MPD2    H1 7552   2.304   1.497  15.752 -1.3739  0.8132 -0.7368
  508MPD2    H2 7553   2.439   1.325  16.098 -2.2626  1.0533  2.5744
  508MPD2    H3 7554   2.358   1.308  15.874 -0.5655  0.4504 -1.1035
  508MPD2     N 7555   2.284   1.762  15.855 -0.2059 -0.2956  0.1737
  508MPD2    H5 7556   2.310   1.850  15.899  2.9381 -0.7788 -0.7173
  508MPD2    N1 7557   2.451   1.525  16.250  0.0751  0.4579 -0.3489
  508MPD2    H7 7558   2.486   1.438  16.290 -1.4659  0.0182  0.0462
  509TMC3    C1 7559   2.147   2.123  15.715 -0.4413 -0.4716  0.2650
  509TMC3    C2 7560   2.152   2.149  15.580 -0.2003 -0.2807 -0.6366
  509TMC3    C3 7561   2.226   2.057  15.504 -0.1923 -0.5982  0.1511
  509TMC3    C4 7562   2.190   2.006  15.775  0.2422 -0.2993 -0.0081
  509TMC3    C5 7563   2.243   1.914  15.689  0.9370  0.3601  0.7325
  509TMC3    C6 7564   2.270   1.943  15.559 -0.1942  0.0662  0.0329
  509TMC3     C 7565   2.109   2.228  15.814 -0.5888  0.5328 -0.3124
  509TMC3     O 7566   2.186   2.220  15.906 -0.3811 -0.1817 -0.5936
  509TMC3     H 7567   2.116   2.241  15.535  0.8057  0.0118 -0.8464
  509TMC3    H1 7568   2.180   1.981  15.880  1.2973 -1.3058 -0.1385
  509TMC3    H2 7569   2.312   1.868  15.493  0.6187  1.4301 -1.0322
  509TMC3    C7 7570   2.258   1.774  15.723  0.1068  0.4394  0.1121
  509TMC3    C8 7571   2.330   2.109  15.414 -0.1238  0.2838 -0.2866
  509TMC3    O1 7572   2.253   1.686  15.640  0.1467  0.0830  0.7329
  509TMC3    O2 7573   2.346   2.043  15.313 -0.4970 -0.0309  0.0069
  510MPD2     C 7574   0.254   3.925  14.455  0.2099  0.0789  0.0785
  510MPD2    C1 7575   0.253   3.802  14.517 -0.1285  0.2900  0.0084
  510MPD2    C2 7576   0.352   3.714  14.486 -0.0768  0.8093  0.3261
  510MPD2    C3 7577   0.452   3.744  14.388 -0.1226 -0.1715  1.0216
  510MPD2    C4 7578   0.450   3.865  14.322 -0.4760  0.3812 -0.4805
  510MPD2    C5 7579   0.343   3.952  14.356 -0.1291  0.5048 -0.1767
  510MPD2     H 7580   0.350   3.614  14.526 -2.4799  0.7191  0.0011
  510MPD2    H1 7581   0.524   3.890  14.247 -1.0767 -0.2857 -1.2954
  510MPD2    H2 7582   0.176   3.999  14.468  0.7446  0.7732 -0.7121
  510MPD2    H3 7583   0.332   4.043  14.298  1.6317  1.5238  1.0860
  510MPD2     N 7584   0.549   3.643  14.362 -0.0490 -0.3592  0.4296
  510MPD2    H5 7585   0.535   3.558  14.416  0.2400  0.0865  1.2090
  510MPD2    N1 7586   0.140   3.762  14.594  0.4311 -0.5713 -0.1777
  510MPD2    H7 7587   0.052   3.812  14.590  0.6175 -0.0247  2.1702
  511TMC3    C1 7588   4.712   3.625  14.694  0.1618  0.3364 -0.9036
  511TMC3    C2 7589   4.654   3.688  14.805 -0.3944  0.4248 -0.2435
  511TMC3    C3 7590   4.523   3.649  14.833  0.0199 -0.0745  0.4581
  511TMC3    C4 7591   4.654   3.527  14.617  0.6699 -0.5812  0.0480
  511TMC3    C5 7592   4.527   3.492  14.651 -0.6142  0.1130  0.2371
  511TMC3    C6 7593   4.468   3.542  14.760  0.5211 -0.3305  0.1536
  511TMC3     C 7594   0.121   3.644  14.660  0.7830 -0.2925  0.4147
  511TMC3     O 7595   0.183   3.540  14.659 -0.5300 -0.2626  0.5834
  511TMC3     H 7596   4.703   3.763  14.865  0.7899 -0.0444 -0.6124
  511TMC3    H1 7597   4.706   3.481  14.533  2.2191  1.7668 -0.2875
  511TMC3    H2 7598   4.363   3.518  14.771  0.6708 -0.4011  1.3925
  511TMC3    C7 7599   4.479   3.371  14.596 -1.1595  0.5370 -0.2588
  511TMC3    C8 7600   4.463   3.680  14.963 -0.2171  0.4757  0.3548
  511TMC3    O1 7601   4.502   3.355  14.473 -0.0320 -0.5151 -0.1459
  511TMC3    O2 7602   4.472   3.798  14.994 -0.6513 -0.0353 -0.1173
  512TMC3    C1 7603   3.479   3.106  13.446 -0.2372  0.2769 -0.2216
  512TMC3    C2 7604   3.443   3.047  13.570  0.7758  0.0592  0.6482
  512TMC3    C3 7605   3.502   2.931  13.588 -0.9463  0.4298 -0.0489
  512TMC3    C4 7606   3.558   3.044  13.352  0.2717  1.4361  0.3639
  512TMC3    C5 7607   3.602   2.918  13.371 -0.1651 -0.3875  0.6474
  512TMC3    C6 7608   3.568   2.855  13.492  0.3901  0.1333 -0.3671
  512TMC3     C 7609   3.480   3.253  13.461  0.0421  0.4144  0.0846
  512TMC3     O 7610   3.442   3.296  13.571 -0.1583  0.0704 -0.5656
  512TMC3     H 7611   3.383   3.090  13.650 -1.2062 -0.4871 -0.5361
  512TMC3    H1 7612   3.590   3.094  13.261  0.2153 -1.4293 -1.2311
  512TMC3    H2 7613   3.616   2.760  13.513 -2.5632 -1.3541 -0.2811
  512TMC3    C7 7614   3.697   2.867  13.267  0.4104  0.2096  0.3235
  512TMC3    C8 7615   3.581   2.933  13.702  0.3218  0.1157 -0.0300
  512TMC3    O1 7616   3.739   2.958  13.193 -0.1629 -0.1830  0.2804
  512TMC3    O2 7617   3.624   2.824  13.735 -0.2508  0.3882  0.0483
  513MPD2     C 7618   0.298   3.226  13.063  0.0670  0.0053  0.3800
  513MPD2    C1 7619   0.380   3.132  13.008 -0.0300 -0.5589 -0.6114
  513MPD2    C2 7620   0.466   3.073  13.094  0.3052 -0.7293  0.2550
  513MPD2    C3 7621   0.462   3.092  13.233 -0.4231 -0.0095  0.4237
  513MPD2    C4 7622   0.366   3.176  13.283 -0.0405  0.4022 -0.3737
  513MPD2    C5 7623   0.296   3.252  13.196  0.2054 -0.1236 -0.1917
  513MPD2     H 7624   0.530   2.997  13.050  0.3074 -0.4911 -0.1573
  513MPD2    H1 7625   0.343   3.185  13.389  0.8701 -1.7498  0.0048
  513MPD2    H2 7626   0.219   3.267  13.001  0.6098  1.2589  0.5294
  513MPD2    H3 7627   0.232   3.335  13.223 -1.0346 -1.4313  0.8855
  513MPD2     N 7628   0.534   3.000  13.314 -0.2114 -0.3587  0.2801
  513MPD2    H5 7629   0.591   2.944  13.252  0.3509 -1.4679  1.8080
  513MPD2    N1 7630   0.399   3.105  12.873  0.0522 -0.1996  0.2062
  513MPD2    H7 7631   0.470   3.035  12.855 -0.2426  0.3410 -3.0823
  514TMC3    C1 7632   0.457   3.142  12.653 -0.2199 -0.0861  0.2255
  514TMC3    C2 7633   0.539   3.230  12.580 -0.3410  0.0540 -0.3171
  514TMC3    C3 7634   0.660   3.183  12.540 -0.6565  0.4640 -0.0375
  514TMC3    C4 7635   0.483   3.008  12.657 -0.2132  0.8091  0.4516
  514TMC3    C5 7636   0.610   2.968  12.624  0.3576  0.6906 -0.2062
  514TMC3    C6 7637   0.700   3.051  12.564  0.2091  0.0365 -0.0506
  514TMC3     C 7638   0.376   3.189  12.765 -0.5442 -0.5946 -0.4158
  514TMC3     O 7639   0.340   3.307  12.762 -0.8079 -0.3714  0.2799
  514TMC3     H 7640   0.516   3.335  12.569 -0.7189  0.0001 -0.0316
  514TMC3    H1 7641   0.404   2.942  12.692 -0.3210  0.6864 -0.0313
  514TMC3    H2 7642   0.796   3.027  12.521 -0.3635 -1.8342 -0.2617
  514TMC3    C7 7643   0.669   2.900  12.735  0.6684  0.3713  0.3339
  514TMC3    C8 7644   0.749   3.279  12.486  0.1614 -0.6394  0.1018
  514TMC3    O1 7645   0.616   2.929  12.840  0.4125  0.3090 -0.3518
  514TMC3    O2 7646   0.741   3.400  12.511  0.1261  0.3880 -0.3689
  515MPD2     C 7647   3.634   0.287  15.291  0.3038 -0.4919 -0.4164
  515MPD2    C1 7648   3.619   0.224  15.167 -0.6618 -0.3970 -0.1747
  515MPD2    C2 7649   3.731   0.227  15.081  0.3072  0.5138  0.1461
  515MPD2    C3 7650   3.856   0.288  15.119 -0.6676  0.0744 -0.5198
  515MPD2    C4 7651   3.854   0.358  15.236  0.2066  1.2388  0.2486
  515MPD2    C5 7652   3.746   0.353  15.321 -0.0860 -0.1050 -0.1994
  515MPD2     H 7653   3.728   0.198  14.977 -0.9507 -1.9416  0.8605
  515MPD2    H1 7654   3.943   0.405  15.277  1.4441 -2.2758  1.5979
  515MPD2    H2 7655   3.557   0.293  15.367 -0.8141  1.1961 -1.6747
  515MPD2    H3 7656   3.757   0.399  15.418 -2.5922 -2.6131  1.2902
  515MPD2     N 7657   3.977   0.288  15.043  0.1040 -0.4464 -0.2570
  515MPD2    H5 7658   4.055   0.347  15.071  2.3661 -1.9133 -3.3619
  515MPD2    N1 7659   3.498   0.164  15.125  1.0737 -0.5334  0.8714
  515MPD2    H7 7660   3.497   0.136  15.028  0.1898  1.4300  0.3161
  516TMC3    C1 7661   3.274   0.093  15.128 -0.2559  0.4036  0.2634
  516TMC3    C2 7662   3.275   0.091  14.990 -0.0040 -0.1724 -0.3819
  516TMC3    C3 7663   3.189   0.006  14.933 -0.4943  0.7777 -0.9010
  516TMC3    C4 7664   3.193   0.022  15.208 -0.1987 -0.1298  0.4828
  516TMC3    C5 7665   3.110   4.664  15.146 -0.2336 -0.8176  0.6806
  516TMC3    C6 7666   3.105   4.654  15.011  0.5503  0.7121  0.1880
  516TMC3     C 7667   3.387   0.139  15.202 -0.0153  0.3692 -0.0796
  516TMC3     O 7668   3.369   0.145  15.323 -0.4675  0.0292  0.2712
  516TMC3     H 7669   3.348   0.149  14.934  0.9617  2.7337  3.8858
  516TMC3    H1 7670   3.184   0.028  15.316 -0.1990 -1.6100  0.5652
  516TMC3    H2 7671   3.033   4.580  14.979  0.6931  0.3599  0.6831
  516TMC3    C7 7672   3.057   4.544  15.209  0.3280 -0.3470 -0.1415
  516TMC3    C8 7673   3.179   4.717  14.787  0.2129 -0.0469  0.7422
  516TMC3    O1 7674   3.118   4.441  15.184  0.0631 -0.0649  0.2812
  516TMC3    O2 7675   3.085   4.650  14.749  0.1407  0.2172 -0.2377
  517MPD2     C 7676   3.713   1.599   0.047 -1.0446  0.2836 -0.1099
  517MPD2    C1 7677   3.777   1.495   0.113  0.3799  0.0794  0.3353
  517MPD2    C2 7678   3.805   1.506   0.241 -0.4031  0.5589  0.5605
  517MPD2    C3 7679   3.785   1.627   0.308 -0.1140 -0.5174 -0.2174
  517MPD2    C4 7680   3.730   1.736   0.240  0.0360 -0.1316 -0.0235
  517MPD2    C5 7681   3.699   1.714   0.110 -0.0173 -0.9297 -1.2929
  517MPD2     H 7682   3.851   1.419   0.289  2.3323  2.0736  0.6761
  517MPD2    H1 7683   3.702   1.829   0.288 -0.4034 -0.3496  0.1444
  517MPD2    H2 7684   3.688   1.601  17.640 -0.7029 -0.2169 -0.1970
  517MPD2    H3 7685   3.662   1.799   0.053 -1.0112 -0.4781  0.0097
  517MPD2     N 7686   3.818   1.642   0.446  0.0443 -0.3799  0.2025
  517MPD2    H5 7687   3.827   1.736   0.483  1.0021  0.7581 -2.9333
  517MPD2    N1 7688   3.809   1.374   0.040 -0.1040 -1.0946 -0.1803
  517MPD2    H7 7689   3.865   1.309   0.093  1.4857 -1.4804 -2.3240
  518TMC3    C1 7690   3.834   1.229  17.564  0.3534  0.5605  0.1108
  518TMC3    C2 7691   3.774   1.108  17.587 -0.5893 -0.9563  0.2725
  518TMC3    C3 7692   3.810   1.011  17.495 -0.4517 -0.0758  0.7754
  518TMC3    C4 7693   3.925   1.246  17.468 -0.1920  0.7691 -0.5248
  518TMC3    C5 7694   3.968   1.148  17.386  0.2014  0.2533 -0.4483
  518TMC3    C6 7695   3.919   1.020  17.405  0.7961  0.1288 -0.5865
  518TMC3     C 7696   3.780   1.352  17.609 -0.5892 -0.8976 -0.5854
  518TMC3     O 7697   3.725   1.415  17.519 -0.2154  0.9089  0.1841
  518TMC3     H 7698   3.701   1.087  17.664 -0.5563  0.7584  0.7789
  518TMC3    H1 7699   3.953   1.349  17.450 -0.7976  1.3431  1.8899
  518TMC3    H2 7700   3.942   0.940  17.336  0.2532  0.1245 -0.7635
  518TMC3    C7 7701   4.102   1.164  17.325 -0.2025 -0.0391 -0.2992
  518TMC3    C8 7702   3.726   0.898  17.470  0.0114 -0.0791 -0.6922
  518TMC3    O1 7703   4.142   1.279  17.318  0.1156 -0.2095 -0.0213
  518TMC3    O2 7704   3.774   0.811  17.405 -0.1086 -0.3160 -0.2265
  519MPD2     C 7705   0.222   4.618  14.464 -0.1352  0.3045  0.2804
  519MPD2    C1 7706   0.206   4.600  14.329  0.2615 -0.1592 -0.1289
  519MPD2    C2 7707   0.290   4.516  14.254  0.1362 -0.1595  0.9976
  519MPD2    C3 7708   0.391   4.441  14.312  0.6611 -0.6102 -0.2572
  519MPD2    C4 7709   0.407   4.456  14.445 -0.4991  0.0313 -0.2089
  519MPD2    C5 7710   0.321   4.540  14.520 -0.4992 -0.2967  0.0925
  519MPD2     H 7711   0.270   4.487  14.151 -0.2283 -0.4144  1.1419
  519MPD2    H1 7712   0.490   4.408  14.495  0.9426  1.2474 -1.4385
  519MPD2    H2 7713   0.155   4.677  14.526  1.5997  1.8461  0.7229
  519MPD2    H3 7714   0.347   4.555  14.624  0.3121  0.9814 -0.2815
  519MPD2     N 7715   0.458   4.343  14.241 -0.3107  0.2764 -0.1231
  519MPD2    H5 7716   0.506   4.268  14.289 -0.9019  1.4910  2.3451
  519MPD2    N1 7717   0.104   4.674  14.265  0.4806 -0.2155  0.3040
  519MPD2    H7 7718   0.036   4.724  14.322  0.7786  1.5003 -0.8759
  520TMC3    C1 7719   0.530   4.223  14.053  0.1414 -0.7908 -0.6798
  520TMC3    C2 7720   0.494   4.184  13.926  0.3076  0.0281 -0.3054
  520TMC3    C3 7721   0.542   4.062  13.879 -0.0230  0.1888  0.1807
  520TMC3    C4 7722   0.621   4.155  14.134 -0.1929 -0.2108  0.2060
  520TMC3    C5 7723   0.675   4.047  14.077  0.3565 -0.2825 -0.1844
  520TMC3    C6 7724   0.631   3.990  13.958  0.3824  0.0850  0.5996
  520TMC3     C 7725   0.469   4.346  14.104 -0.6164 -0.2188 -0.6816
  520TMC3     O 7726   0.435   4.428  14.021 -0.0004 -0.3577  0.0182
  520TMC3     H 7727   0.429   4.240  13.862  1.3876 -1.1993 -2.4693
  520TMC3    H1 7728   0.673   4.206  14.214 -0.4677  0.8631 -0.3020
  520TMC3    H2 7729   0.681   3.903  13.917  1.2191 -0.0166  1.8493
  520TMC3    C7 7730   0.781   3.985  14.141 -0.1754  0.3610 -0.0269
  520TMC3    C8 7731   0.498   4.006  13.756  0.3207  0.4095  0.1946
  520TMC3    O1 7732   0.785   4.005  14.262  0.5888  0.2158 -0.2251
  520TMC3    O2 7733   0.525   3.888  13.733  0.4473 -0.0298  0.5678
  521MPD2     C 7734   1.318   2.143   0.190  0.1771 -0.3040  0.0410
  521MPD2    C1 7735   1.263   2.126   0.063  0.2084 -0.4381 -0.3158
  521MPD2    C2 7736   1.347   2.078  17.662 -0.4351  0.4777  0.1976
  521MPD2    C3 7737   1.478   2.050  17.690 -0.9271 -0.3085  1.0267
  521MPD2    C4 7738   1.531   2.059   0.117 -0.9945  0.3939  0.2536
  521MPD2    C5 7739   1.450   2.110   0.217  0.5763 -0.1551 -0.3345
  521MPD2     H 7740   1.316   2.064  17.559 -0.8177  2.0586  0.0976
  521MPD2    H1 7741   1.634   2.042   0.149 -1.3185 -0.4553  0.8359
  521MPD2    H2 7742   1.256   2.183   0.270 -0.1552  2.5072 -1.6165
  521MPD2    H3 7743   1.490   2.130   0.316 -0.7844  1.0115 -0.0261
  521MPD2     N 7744   1.565   2.012  17.580 -0.2586 -0.6712 -0.1298
  521MPD2    H5 7745   1.530   2.018  17.485  1.2006 -1.6213 -0.7243
  521MPD2    N1 7746   1.124   2.145   0.049 -0.2612  0.0364 -0.0818
  521MPD2    H7 7747   1.071   2.154   0.135 -1.2718 -0.3801 -0.6616
  522TMC3    C1 7748   1.761   1.960  17.461 -0.0922 -0.2958 -0.2195
  522TMC3    C2 7749   1.872   1.884  17.460 -0.5326  0.0089 -0.1016
  522TMC3    C3 7750   1.954   1.889  17.342 -0.6365 -0.3036 -0.0734
  522TMC3    C4 7751   1.724   2.046  17.361 -0.7643 -0.1950 -0.0194
  522TMC3    C5 7752   1.810   2.048  17.253 -0.2441 -0.4713  0.2478
  522TMC3    C6 7753   1.921   1.972  17.241  0.7197 -0.0759  0.2340
  522TMC3     C 7754   1.691   1.965  17.591  0.0960  0.2087 -0.3444
  522TMC3     O 7755   1.745   1.903  17.679  1.1110 -0.1646 -0.2959
  522TMC3     H 7756   1.895   1.813  17.538 -0.5185  0.8711  0.6726
  522TMC3    H1 7757   1.647   2.122  17.372 -1.2095 -1.0609  2.6963
  522TMC3    H2 7758   1.979   1.959  17.151  0.6763 -1.3214  0.3907
  522TMC3    C7 7759   1.787   2.134  17.137  0.1822 -0.2775  0.1498
  522TMC3    C8 7760   2.069   1.801  17.341  0.1709 -0.1906  0.0391
  522TMC3    O1 7761   1.884   2.157  17.064  0.1387  0.0220 -0.4162
  522TMC3    O2 7762   2.099   1.745  17.446 -0.0282  0.4421 -0.2502
  523MPD2     C 7763   4.552   2.091  10.043  0.4402  0.3527 -0.6059
  523MPD2    C1 7764   4.450   2.019   9.978  0.4701 -0.2044  0.2244
  523MPD2    C2 7765   4.376   2.077   9.880 -0.0741 -0.6968 -0.2304
  523MPD2    C3 7766   4.410   2.202   9.822  0.1784  0.0764 -0.0818
  523MPD2    C4 7767   4.511   2.274   9.889  0.1324  0.7860  0.6864
  523MPD2    C5 7768   4.578   2.220   9.998  0.4044  0.0957  0.4141
  523MPD2     H 7769   4.294   2.022   9.836 -1.0130 -1.2346  2.2052
  523MPD2    H1 7770   4.529   2.375   9.854  1.2529  0.1728 -0.5168
  523MPD2    H2 7771   4.613   2.049  10.122 -0.9082 -1.7338 -0.6523
  523MPD2    H3 7772   4.646   2.285  10.053 -2.6052  2.5398  1.2668
  523MPD2     N 7773   4.350   2.261   9.714  0.1215 -0.4404 -0.4824
  523MPD2    H5 7774   4.387   2.350   9.681 -0.1708  0.4008  1.4534
  523MPD2    N1 7775   4.425   1.884  10.024 -0.7401  0.9266  0.3119
  523MPD2    H7 7776   4.478   1.848  10.103  0.7766 -1.6784 -1.8997
  524TMC3    C1 7777   4.168   2.312   9.574  0.1084 -0.4743  0.4873
  524TMC3    C2 7778   4.105   2.281   9.455 -0.5270 -1.0213 -0.6069
  524TMC3    C3 7779   4.011   2.372   9.421 -0.5083  0.2007 -0.2684
  524TMC3    C4 7780   4.154   2.429   9.639  0.6427 -0.7521 -0.1389
  524TMC3    C5 7781   4.054   2.517   9.592 -0.0823  0.0787  0.0859
  524TMC3    C6 7782   3.983   2.493   9.483 -0.1883 -0.3428  0.5957
  524TMC3     C 7783   4.246   2.213   9.632  0.2817 -0.0249  0.2293
  524TMC3     O 7784   4.184   2.107   9.635  0.1439 -0.9215 -0.4919
  524TMC3     H 7785   4.114   2.179   9.421  3.7338 -1.1141  0.8073
  524TMC3    H1 7786   4.206   2.443   9.733 -0.0825  1.7855 -0.1086
  524TMC3    H2 7787   3.895   2.555   9.473 -1.5709 -2.1779  1.2997
  524TMC3    C7 7788   4.016   2.637   9.667 -0.2214  0.4814 -0.3020
  524TMC3    C8 7789   3.927   2.337   9.308 -0.1265 -0.0405 -0.0860
  524TMC3    O1 7790   4.023   2.623   9.788  0.2057 -0.3537  0.3723
  524TMC3    O2 7791   3.819   2.394   9.308  0.1672  0.0741  0.2911
  525MPD2     C 7792   1.582   3.651  14.598  0.4049  0.4018 -0.3000
  525MPD2    C1 7793   1.600   3.733  14.704 -0.1538  0.5823  0.1089
  525MPD2    C2 7794   1.606   3.872  14.694  0.3618  0.0547 -0.4572
  525MPD2    C3 7795   1.592   3.924  14.565  0.2079  0.6028  0.1359
  525MPD2    C4 7796   1.576   3.840  14.458  0.9100  0.0352  0.7371
  525MPD2    C5 7797   1.568   3.709  14.477 -0.5016  0.0970 -0.5500
  525MPD2     H 7798   1.636   3.937  14.776 -2.2723 -1.8160  2.0131
  525MPD2    H1 7799   1.569   3.872  14.354  0.5344  0.5102  0.9078
  525MPD2    H2 7800   1.597   3.543  14.595  0.9168  0.4958 -0.9492
  525MPD2    H3 7801   1.562   3.648  14.387 -1.1932 -0.0586 -0.4000
  525MPD2     N 7802   1.629   4.057  14.536  0.4348  0.6377 -0.6809
  525MPD2    H5 7803   1.636   4.075  14.436 -0.5046 -0.8018 -1.0125
  525MPD2    N1 7804   1.626   3.687  14.836 -0.2846 -0.0309 -0.3311
  525MPD2    H7 7805   1.618   3.758  14.908  0.4089  0.8256 -1.0971
  526TMC3    C1 7806   1.685   3.514  15.003  0.7409  0.7304  0.1379
  526TMC3    C2 7807   1.596   3.571  15.090 -0.0574 -0.2771  0.4656
  526TMC3    C3 7808   1.597   3.508  15.211 -0.0536  0.5881  0.3663
  526TMC3    C4 7809   1.786   3.420  15.028  0.0316  0.8906 -0.0916
  526TMC3    C5 7810   1.794   3.379  15.159 -0.1694  0.0688 -0.2524
  526TMC3    C6 7811   1.700   3.421  15.246  0.1344 -0.1587  0.7482
  526TMC3     C 7812   1.677   3.564  14.863 -0.0340 -0.5499 -0.2300
  526TMC3     O 7813   1.723   3.487  14.778 -0.0826 -0.0826  0.0434
  526TMC3     H 7814   1.520   3.639  15.053  1.2869  1.5330  1.0375
  526TMC3    H1 7815   1.863   3.404  14.954  1.0797  0.6733  1.0449
  526TMC3    H2 7816   1.700   3.383  15.347  0.5161  0.3138  0.9253
  526TMC3    C7 7817   1.914   3.318  15.216  0.4743 -0.3374  0.3222
  526TMC3    C8 7818   1.528   3.572  15.326  0.1065 -0.1668 -0.6302
  526TMC3    O1 7819   1.928   3.319  15.337 -0.9435  0.1808 -0.1917
  526TMC3    O2 7820   1.534   3.693  15.341  0.4275  0.6591  0.6418
  527MPD2     C 7821   0.712   2.441   1.514  0.4997 -0.5996  0.5936
  527MPD2    C1 7822   0.651   2.324   1.549 -0.5331 -0.4652  0.1379
  527MPD2    C2 7823   0.664   2.217   1.459  0.4331 -0.7045  0.9919
  527MPD2    C3 7824   0.730   2.221   1.339  0.7022 -0.1855 -0.8159
  527MPD2    C4 7825   0.786   2.344   1.302  0.1519 -0.1036 -0.3838
  527MPD2    C5 7826   0.770   2.456   1.389  0.3381  0.2362  0.0169
  527MPD2     H 7827   0.605   2.133   1.494 -2.5062  0.5030 -1.0915
  527MPD2    H1 7828   0.829   2.353   1.203  1.1642  0.6489  0.1266
  527MPD2    H2 7829   0.711   2.533   1.572 -0.3842 -0.1001 -0.2153
  527MPD2    H3 7830   0.806   2.555   1.362 -0.0389  0.6371  1.0027
  527MPD2     N 7831   0.728   2.105   1.261  0.0770  0.2197 -0.4064
  527MPD2    H5 7832   0.686   2.017   1.289  0.3507 -0.2395 -1.4226
  527MPD2    N1 7833   0.575   2.302   1.664  0.4691  0.3821  0.7892
  527MPD2    H7 7834   0.536   2.212   1.690  0.4393  0.5731  1.4112
  528TMC3    C1 7835   0.478   2.335   1.868  0.1433 -0.5820  0.3903
  528TMC3    C2 7836   0.466   2.409   1.980  0.3037  0.5402 -0.0085
  528TMC3    C3 7837   0.438   2.347   2.098 -0.4740  0.5151  0.0400
  528TMC3    C4 7838   0.442   2.196   1.875  0.0439 -0.1148  0.4107
  528TMC3    C5 7839   0.391   2.145   1.994 -0.6936  0.6425 -0.4743
  528TMC3    C6 7840   0.389   2.220   2.111 -0.6536  1.2122  0.0361
  528TMC3     C 7841   0.530   2.402   1.748 -0.0506  0.0596 -0.0544
  528TMC3     O 7842   0.556   2.522   1.755 -0.5503  0.0755 -0.1975
  528TMC3     H 7843   0.491   2.514   1.979 -2.0684  1.1027 -1.0716
  528TMC3    H1 7844   0.420   2.140   1.785  0.3474 -1.3511  1.1020
  528TMC3    H2 7845   0.373   2.172   2.207 -1.1214  1.7690  0.2394
  528TMC3    C7 7846   0.358   2.006   2.002 -0.4546  0.2279 -0.0718
  528TMC3    C8 7847   0.443   2.437   2.212  0.3658  0.8497  0.1206
  528TMC3    O1 7848   0.395   1.936   1.909  0.3586 -0.2112  0.1417
  528TMC3    O2 7849   0.514   2.542   2.203  0.6186  0.1347 -0.4318
  529MPD2     C 7850   2.425   4.584   0.568  0.4179  0.2145  0.0079
  529MPD2    C1 7851   2.288   4.591   0.548  0.5657 -1.2582 -0.0536
  529MPD2    C2 7852   2.232   4.693   0.471  0.4885  0.8473 -0.0486
  529MPD2    C3 7853   2.316   0.059   0.408  0.0779  0.0629 -0.3089
  529MPD2    C4 7854   2.454   0.050   0.425 -0.0579  0.1643  0.2574
  529MPD2    C5 7855   2.507   4.678   0.509  0.7288  0.2527  0.4259
  529MPD2     H 7856   2.124   4.696   0.455  0.5655 -0.5673 -0.8830
  529MPD2    H1 7857   2.530   0.117   0.387 -1.4930  1.2736 -0.6499
  529MPD2    H2 7858   2.474   4.513   0.634 -0.0026 -1.1809 -1.1983
  529MPD2    H3 7859   2.613   4.671   0.529  0.5787 -1.4790  0.6602
  529MPD2     N 7860   2.271   0.158   0.314 -0.3179 -0.4118  0.3756
  529MPD2    H5 7861   2.348   0.211   0.275 -0.0249 -1.4720 -0.4951
  529MPD2    N1 7862   2.197   4.504   0.607  0.3757 -0.0518 -0.9977
  529MPD2    H7 7863   2.103   4.500   0.570 -0.6306 -1.2969  1.7149
  530TMC3    C1 7864   2.099   4.355   0.752 -0.1524  0.4465  0.0650
  530TMC3    C2 7865   2.120   4.267   0.858  0.6344  0.6906 -0.3520
  530TMC3    C3 7866   2.025   4.171   0.882 -0.4566  0.7439 -0.0288
  530TMC3    C4 7867   1.976   4.367   0.695 -0.1578  0.4344 -0.0439
  530TMC3    C5 7868   1.874   4.279   0.732 -0.0552  0.4969 -0.3076
  530TMC3    C6 7869   1.903   4.175   0.822 -0.4462 -0.1526 -0.0902
  530TMC3     C 7870   2.220   4.422   0.710 -0.0325  1.1061  0.4119
  530TMC3     O 7871   2.328   4.386   0.767  0.5081  0.0168 -0.6158
  530TMC3     H 7872   2.214   4.257   0.911 -0.2273 -2.3931  0.6297
  530TMC3    H1 7873   1.953   4.447   0.626 -0.6206  0.1482 -0.2232
  530TMC3    H2 7874   1.832   4.102   0.858  0.0026  1.0314  3.1734
  530TMC3    C7 7875   1.750   4.292   0.667  0.1055 -0.0811 -0.0557
  530TMC3    C8 7876   2.024   4.087   1.000 -0.2431  0.1077  0.9591
  530TMC3    O1 7877   1.749   4.337   0.553  0.0668  0.2625  0.0178
  530TMC3    O2 7878   1.968   3.979   0.999  0.4467  0.4547  0.1120
  531MPD2     C 7879   1.080   2.762  12.976 -0.3428  0.5422 -0.3385
  531MPD2    C1 7880   0.952   2.759  13.030  0.0995 -0.4024  0.2275
  531MPD2    C2 7881   0.853   2.777  12.932 -0.4090  0.0577  0.0179
  531MPD2    C3 7882   0.886   2.792  12.796 -0.1636 -0.9944  0.2039
  531MPD2    C4 7883   1.015   2.774  12.750 -0.3942  0.2843 -0.0669
  531MPD2    C5 7884   1.112   2.758  12.845  0.6014 -0.7147 -0.1227
  531MPD2     H 7885   0.748   2.775  12.961 -0.2181 -0.3617  0.6910
  531MPD2    H1 7886   1.045   2.774  12.646 -0.8653  1.5857 -0.2100
  531MPD2    H2 7887   1.166   2.749  13.041 -1.6661 -0.3793  1.2381
  531MPD2    H3 7888   1.213   2.746  12.809  0.7425 -0.5858  0.2386
  531MPD2     N 7889   0.792   2.845  12.704 -0.1069  0.5262  0.5140
  531MPD2    H5 7890   0.811   2.846  12.604 -1.7859  1.0328  0.2029
  531MPD2    N1 7891   0.924   2.744  13.166 -0.0751  0.4713 -0.0854
  531MPD2    H7 7892   0.996   2.712  13.230 -0.4480 -0.6180 -0.1962
  532TMC3    C1 7893   0.793   2.782  13.372 -0.9960 -0.4694 -0.2109
  532TMC3    C2 7894   0.667   2.812  13.403 -0.2570  0.8595  0.5090
  532TMC3    C3 7895   0.631   2.903  13.502  0.4172 -0.3487  0.9887
  532TMC3    C4 7896   0.894   2.841  13.447  0.7087 -0.5286 -0.0820
  532TMC3    C5 7897   0.856   2.920  13.552  0.0820 -0.3547 -0.1324
  532TMC3    C6 7898   0.723   2.946  13.588  0.2758  0.2266 -0.6377
  532TMC3     C 7899   0.807   2.788  13.226  0.0520  0.2954  0.1666
  532TMC3     O 7900   0.709   2.828  13.165 -0.1005  0.1173 -0.2546
  532TMC3     H 7901   0.586   2.747  13.374  1.3846 -1.7161  1.7490
  532TMC3    H1 7902   0.996   2.813  13.425  1.3911 -0.1113  2.5017
  532TMC3    H2 7903   0.705   3.007  13.675 -1.9912  0.9639 -1.6278
  532TMC3    C7 7904   0.960   2.950  13.653 -0.0565  0.6832  0.1807
  532TMC3    C8 7905   0.541   3.005  13.452  0.7298 -0.2189 -0.0618
  532TMC3    O1 7906   0.926   2.984  13.766  0.1117 -0.2444  0.5572
  532TMC3    O2 7907   0.493   3.087  13.527 -0.4070  0.0922  0.1184
  533TMC3    C1 7908   1.655   4.293  14.558  0.5077 -0.8796 -0.0690
  533TMC3    C2 7909   1.787   4.322  14.544  1.1509  0.3950 -0.4493
  533TMC3    C3 7910   1.813   4.456  14.554 -0.3749  0.2038 -0.5626
  533TMC3    C4 7911   1.567   4.387  14.597 -0.4794  0.1367  0.7941
  533TMC3    C5 7912   1.605   4.517  14.621 -0.3887  0.5555  0.5906
  533TMC3    C6 7913   1.733   4.555  14.607  0.2321 -0.1737 -1.0019
  533TMC3     C 7914   1.633   4.163  14.622  0.0169  0.0705 -0.3032
  533TMC3     O 7915   1.617   4.174  14.744  0.0708 -0.0943 -0.3017
  533TMC3     H 7916   1.850   4.249  14.494 -0.1282 -1.2987  0.3855
  533TMC3    H1 7917   1.479   4.349  14.648  0.8982 -0.7564  2.4946
  533TMC3    H2 7918   1.764   4.658  14.616 -0.1265 -0.4167  3.1223
  533TMC3    C7 7919   1.518   4.574  14.726 -0.2696  0.2997 -0.3144
  533TMC3    C8 7920   1.946   4.491  14.554  0.2613 -0.2393 -0.1509
  533TMC3    O1 7921   1.411   4.523  14.755 -0.3959 -0.6606 -0.0934
  533TMC3    O2 7922   1.991   4.541  14.654 -0.5003  0.0694  0.1960
  534MPD2     C 7923   4.054   4.447   1.601 -0.7606  0.1294 -0.3349
  534MPD2    C1 7924   4.105   4.520   1.495 -0.7761  0.6674 -0.1920
  534MPD2    C2 7925   4.056   4.498   1.368 -0.3301  0.3561 -0.0817
  534MPD2    C3 7926   3.947   4.410   1.352  0.8093  0.0438  0.0818
  534MPD2    C4 7927   3.896   4.337   1.462  0.3678 -0.4008 -0.3741
  534MPD2    C5 7928   3.952   4.358   1.588 -0.1928  0.7845  0.8573
  534MPD2     H 7929   4.094   4.548   1.279  0.7418  1.5612  1.0515
  534MPD2    H1 7930   3.812   4.269   1.453 -0.2424  0.5343 -1.6597
  534MPD2    H2 7931   4.100   4.471   1.697 -0.2459  0.3003 -0.6236
  534MPD2    H3 7932   3.908   4.308   1.674  0.7627 -0.4579  0.6306
  534MPD2     N 7933   3.873   4.398   1.238  0.1368 -0.0609 -0.0376
  534MPD2    H5 7934   3.782   4.353   1.233  0.5365 -1.0523  1.6782
  534MPD2    N1 7935   4.209   4.615   1.508 -0.1899 -0.0328  0.1874
  534MPD2    H7 7936   4.220   4.686   1.437  2.0015  0.1050  0.6496
  535TMC3    C1 7937   3.815   4.417   1.009 -0.0134 -0.5789  0.4400
  535TMC3    C2 7938   3.684   4.455   1.041  0.3384 -0.2583  0.2499
  535TMC3    C3 7939   3.617   4.504   0.931 -0.4240 -0.5535  0.2432
  535TMC3    C4 7940   3.858   4.409   0.875 -0.4048 -0.0756  0.0884
  535TMC3    C5 7941   3.781   4.447   0.770  0.8486  0.2381  0.0433
  535TMC3    C6 7942   3.657   4.500   0.803 -0.0548  0.9355 -0.1064
  535TMC3     C 7943   3.916   4.440   1.113 -0.7612  0.0486  0.7547
  535TMC3     O 7944   4.025   4.473   1.073  0.4355 -0.0016  0.7874
  535TMC3     H 7945   3.643   4.474   1.140 -2.2559 -1.0222 -0.6701
  535TMC3    H1 7946   3.960   4.375   0.859  0.3501  1.7911  0.8782
  535TMC3    H2 7947   3.593   4.542   0.726 -0.4190  1.2481  0.3697
  535TMC3    C7 7948   3.857   4.530   0.672  0.3420  0.0355  0.1082
  535TMC3    C8 7949   3.491   4.560   0.960 -0.2379 -0.1537  0.9384
  535TMC3    O1 7950   3.975   4.498   0.654 -0.2358  0.2867  0.9284
  535TMC3    O2 7951   3.396   4.528   0.893 -0.4905 -0.2828  0.1511
  536MPD2     C 7952   3.097   3.161  16.239 -0.3193 -0.3799 -0.3488
  536MPD2    C1 7953   3.094   3.292  16.279  0.7540  0.1014  0.1647
  536MPD2    C2 7954   3.021   3.388  16.201  0.2956 -0.0889 -0.3959
  536MPD2    C3 7955   2.935   3.334  16.104  0.2467  0.7537  0.4132
  536MPD2    C4 7956   2.933   3.200  16.087 -0.0974 -0.0181  0.1920
  536MPD2    C5 7957   3.019   3.114  16.143  0.2675 -0.7892  0.4145
  536MPD2     H 7958   3.023   3.494  16.225 -0.7595 -0.7317  2.5727
  536MPD2    H1 7959   2.864   3.169  16.009 -1.4955  0.7964  1.0863
  536MPD2    H2 7960   3.159   3.092  16.295  1.5109  0.2401 -1.6038
  536MPD2    H3 7961   3.007   3.009  16.119 -1.3501 -0.8404  1.4982
  536MPD2     N 7962   2.830   3.401  16.038  0.8720  0.2915 -0.3292
  536MPD2    H5 7963   2.766   3.344  15.984  0.4757  0.5005 -0.0863
  536MPD2    N1 7964   3.173   3.322  16.394  0.3100  0.5021  0.1370
  536MPD2    H7 7965   3.215   3.240  16.436  1.2664 -0.2005 -2.1931
  537TMC3    C1 7966   3.262   3.421  16.586  0.2711  1.1463 -0.4264
  537TMC3    C2 7967   3.370   3.497  16.629 -0.2542 -1.0153 -1.4200
  537TMC3    C3 7968   3.422   3.479  16.754 -0.4432 -0.3924  0.1162
  537TMC3    C4 7969   3.223   3.315  16.671  0.3638  0.5580  0.3849
  537TMC3    C5 7970   3.281   3.303  16.798  0.7793  0.0511  0.5760
  537TMC3    C6 7971   3.385   3.378  16.839  0.9765  0.0130 -0.4106
  537TMC3     C 7972   3.197   3.445  16.454 -0.3971 -0.6888  0.0281
  537TMC3     O 7973   3.193   3.555  16.400  0.3670  0.5144  0.3248
  537TMC3     H 7974   3.397   3.582  16.568 -1.4632  1.0665  0.9295
  537TMC3    H1 7975   3.135   3.256  16.648  1.4067 -1.0228  0.4015
  537TMC3    H2 7976   3.445   3.352  16.926 -0.3931  0.2383  0.5936
  537TMC3    C7 7977   3.229   3.193  16.880  0.3613 -0.3042 -0.5281
  537TMC3    C8 7978   3.550   3.539  16.788 -0.0680  0.2627 -0.1315
  537TMC3    O1 7979   3.179   3.093  16.830  0.2000  0.1063  0.4736
  537TMC3    O2 7980   3.586   3.529  16.905  0.2368 -0.2390 -0.3663
  538TMC3    C1 7981   0.051   1.864  10.747  0.6223  0.9230 -0.4773
  538TMC3    C2 7982   0.152   1.772  10.750 -0.2934 -0.4552  0.1854
  538TMC3    C3 7983   0.195   1.731  10.627  0.8979 -0.0538  0.0416
  538TMC3    C4 7984   4.719   1.903  10.630 -0.5469  0.2841 -0.5412
  538TMC3    C5 7985   0.027   1.844  10.516 -0.4368 -0.0664  0.4589
  538TMC3    C6 7986   0.138   1.765  10.503  0.4170  0.0798  0.4344
  538TMC3     C 7987   0.033   1.959  10.854 -0.6483  0.3066 -0.8578
  538TMC3     O 7988   0.003   2.069  10.818  0.4226 -0.1266  0.4783
  538TMC3     H 7989   0.179   1.744  10.851  0.4096  0.9624  0.3887
  538TMC3    H1 7990   4.642   1.979  10.639 -0.4324  0.4288 -0.7861
  538TMC3    H2 7991   0.168   1.715  10.412  1.0780 -0.0670  0.7313
  538TMC3    C7 7992   4.669   1.891  10.405  0.2503 -0.3059 -0.4271
  538TMC3    C8 7993   0.314   1.655  10.625  0.6331  0.3060  0.3549
  538TMC3    O1 7994   4.583   1.819  10.355 -0.1973 -0.3945  0.1006
  538TMC3    O2 7995   0.369   1.635  10.515  0.3477  0.2984 -0.1507
  539MPD2     C 7996   4.302   1.591  11.933 -0.0635  0.3591  0.5610
  539MPD2    C1 7997   4.325   1.577  11.798 -0.5005 -0.0425  0.0034
  539MPD2    C2 7998   4.343   1.695  11.727  0.0449  0.3160 -0.3883
  539MPD2    C3 7999   4.322   1.828  11.786  0.0147  0.3432  0.1313
  539MPD2    C4 8000   4.273   1.828  11.914  0.0136 -0.1177 -0.2241
  539MPD2    C5 8001   4.274   1.713  11.987 -0.6285  0.5181  0.1260
  539MPD2     H 8002   4.380   1.685  11.626 -1.6990  1.2345 -1.1230
  539MPD2    H1 8003   4.249   1.919  11.968 -1.5744 -1.8768  2.0184
  539MPD2    H2 8004   4.285   1.515  12.008 -2.8382  0.8902  0.4993
  539MPD2    H3 8005   4.240   1.727  12.089 -2.6476 -1.5456 -0.2968
  539MPD2     N 8006   4.334   1.947  11.710  0.5656  0.3863  0.1885
  539MPD2    H5 8007   4.280   2.022  11.750 -2.0103 -1.6509  0.5572
  539MPD2    N1 8008   4.337   1.454  11.734  0.8124  0.0056 -0.5629
  539MPD2    H7 8009   4.344   1.456  11.632  3.3728 -1.1399 -0.3966
  540TMC3    C1 8010   4.369   2.090  11.529  0.1857  0.0755  0.3097
  540TMC3    C2 8011   4.391   2.097  11.393 -0.7463 -0.0439 -0.0616
  540TMC3    C3 8012   4.344   2.209  11.327  0.5933 -0.3455  0.1231
  540TMC3    C4 8013   4.294   2.180  11.598 -0.4323 -0.3207  0.5287
  540TMC3    C5 8014   4.255   2.288  11.525  0.3620 -0.0043  0.6773
  540TMC3    C6 8015   4.280   2.303  11.388 -0.3864 -0.0606 -0.5635
  540TMC3     C 8016   4.388   1.960  11.587 -0.3427  0.5484 -0.2388
  540TMC3     O 8017   4.459   1.882  11.526 -0.5091  0.3708 -0.0135
  540TMC3     H 8018   4.426   2.012  11.334  0.4165  0.3136  0.1174
  540TMC3    H1 8019   4.278   2.163  11.704 -2.4042  0.2745  0.3195
  540TMC3    H2 8020   4.237   2.386  11.334  1.7629  0.6640 -1.1612
  540TMC3    C7 8021   4.155   2.374  11.590 -0.1683  0.3929 -0.4957
  540TMC3    C8 8022   4.355   2.200  11.179 -0.4351  1.2555  0.4475
  540TMC3    O1 8023   4.135   2.340  11.706  0.1297  0.0686 -0.0440
  540TMC3    O2 8024   4.377   2.307  11.127 -0.5334 -0.3413  0.1901
  541MPD2     C 8025   2.148   3.230  13.002  0.5148 -0.5223 -0.3562
  541MPD2    C1 8026   2.257   3.181  12.936  0.2576  0.0510 -0.4948
  541MPD2    C2 8027   2.282   3.241  12.811 -0.4122 -0.7720  0.2502
  541MPD2    C3 8028   2.195   3.325  12.749  0.7360 -0.2167 -0.9124
  541MPD2    C4 8029   2.088   3.372  12.823  0.1527 -0.0200  0.1817
  541MPD2    C5 8030   2.066   3.322  12.949 -0.2110 -0.1103  0.4174
  541MPD2     H 8031   2.376   3.224  12.760 -0.4401 -3.3949  1.0502
  541MPD2    H1 8032   2.013   3.437  12.781  0.1305 -0.1438  0.0309
  541MPD2    H2 8033   2.122   3.195  13.101  1.1289  3.4517  1.2233
  541MPD2    H3 8034   1.981   3.357  13.006  0.3000 -1.3822  1.9516
  541MPD2     N 8035   2.223   3.369  12.617  0.7710  0.2333 -0.1074
  541MPD2    H5 8036   2.301   3.326  12.568 -0.5221 -2.2266 -0.0148
  541MPD2    N1 8037   2.340   3.087  13.006  0.7412 -0.4117 -0.1207
  541MPD2    H7 8038   2.294   3.054  13.090  0.4898 -3.8859 -1.5912
  542TMC3    C1 8039   2.173   3.472  12.408  0.6303  0.4623 -0.0209
  542TMC3    C2 8040   2.214   3.366  12.336 -0.2371 -0.3431  0.1915
  542TMC3    C3 8041   2.237   3.385  12.199 -0.0468 -0.0964  0.1706
  542TMC3    C4 8042   2.138   3.595  12.348 -0.1959  0.3479 -0.6225
  542TMC3    C5 8043   2.142   3.599  12.208  0.4142  0.2231 -0.4122
  542TMC3    C6 8044   2.203   3.504  12.138 -0.3589 -0.8058  0.0075
  542TMC3     C 8045   2.162   3.472  12.556 -0.1009  0.9422 -0.3838
  542TMC3     O 8046   2.111   3.568  12.613 -0.0973 -0.2825 -0.5975
  542TMC3     H 8047   2.227   3.269  12.382 -3.8647 -1.0433 -0.2419
  542TMC3    H1 8048   2.091   3.675  12.404 -1.3234  0.3274 -1.5227
  542TMC3    H2 8049   2.229   3.512  12.033  1.2581 -1.8043  0.3322
  542TMC3    C7 8050   2.139   3.726  12.140 -0.1598  0.4900 -0.2703
  542TMC3    C8 8051   2.331   3.300  12.125 -0.5597  0.0541  0.1436
  542TMC3    O1 8052   2.131   3.721  12.014 -0.7905 -0.3381  0.3748
  542TMC3    O2 8053   2.346   3.332  12.009  0.3482 -0.0637  0.2814
  543TMC3    C1 8054   1.405   3.895  17.052 -0.1997 -0.3306  0.7795
  543TMC3    C2 8055   1.457   3.776  17.096  0.9129  0.7246 -0.0412
  543TMC3    C3 8056   1.440   3.741  17.228 -0.3176  0.4395  0.4705
  543TMC3    C4 8057   1.341   3.979  17.136 -0.1894 -0.0139  0.5861
  543TMC3    C5 8058   1.311   3.932  17.261 -0.5554 -0.4070  0.4111
  543TMC3    C6 8059   1.370   3.816  17.309  0.2822 -0.0795 -0.2328
  543TMC3     C 8060   1.462   3.942  16.927 -0.4142 -0.8731 -0.2034
  543TMC3     O 8061   1.569   3.899  16.894 -0.2077  0.1344 -0.3434
  543TMC3     H 8062   1.509   3.712  17.025  1.1261 -0.3267  1.0670
  543TMC3    H1 8063   1.286   4.066  17.101 -2.4155  0.1340  4.3474
  543TMC3    H2 8064   1.366   3.796  17.416  2.7804 -1.8298 -0.4705
  543TMC3    C7 8065   1.247   4.028  17.349  0.3299 -0.3697  0.0651
  543TMC3    C8 8066   1.494   3.612  17.265 -0.5331  0.2823 -0.7323
  543TMC3    O1 8067   1.269   4.146  17.318 -0.4332  0.3388 -0.3698
  543TMC3    O2 8068   1.578   3.561  17.193 -0.2160 -0.2749 -0.1425
  544MPD2     C 8069   1.492   3.196  17.579 -0.2477 -0.1935 -0.2243
  544MPD2    C1 8070   1.581   3.221  17.476 -0.2023  0.6323 -0.2656
  544MPD2    C2 8071   1.570   3.346  17.414  0.0418  0.4148 -0.0758
  544MPD2    C3 8072   1.464   3.433  17.442  0.6430 -0.2046  0.2498
  544MPD2    C4 8073   1.375   3.398  17.539 -0.2845 -0.2436 -0.1703
  544MPD2    C5 8074   1.391   3.283  17.612  0.2549 -0.2379  1.0654
  544MPD2     H 8075   1.627   3.372  17.326 -1.4407  1.1992 -0.8110
  544MPD2    H1 8076   1.287   3.460  17.552  0.7708  1.1690  0.2528
  544MPD2    H2 8077   1.488   3.107  17.641  5.0055  1.2533  2.1959
  544MPD2    H3 8078   1.313   3.250  17.680 -1.2936 -0.6700 -0.9457
  544MPD2     N 8079   1.442   3.557  17.381 -0.0297  0.7945 -0.6412
  544MPD2    H5 8080   1.362   3.606  17.419  1.2894  0.5676  2.4186
  544MPD2    N1 8081   1.687   3.131  17.454  0.2674 -0.4595  0.2188
  544MPD2    H7 8082   1.677   3.045  17.506  0.8914  1.3866  3.3814
  545TMC3    C1 8083   1.879   3.022  17.361 -0.0628 -0.4106 -0.1873
  545TMC3    C2 8084   1.952   2.997  17.251  0.2661  0.1628 -0.4875
  545TMC3    C3 8085   2.036   2.886  17.239  0.4784 -0.0988  0.4994
  545TMC3    C4 8086   1.875   2.928  17.466  0.4507 -0.5564  0.1613
  545TMC3    C5 8087   1.961   2.821  17.446 -0.3574  0.1982 -0.1745
  545TMC3    C6 8088   2.049   2.804  17.344 -0.2514 -0.1440  0.7061
  545TMC3     C 8089   1.783   3.137  17.358  0.1987 -0.3803 -0.9244
  545TMC3     O 8090   1.799   3.229  17.280 -0.1042 -0.6704 -0.3622
  545TMC3     H 8091   1.941   3.065  17.167  0.6335  0.7235 -0.0884
  545TMC3    H1 8092   1.820   2.942  17.558 -0.5269  0.4920 -0.5899
  545TMC3    H2 8093   2.122   2.724  17.348 -2.2287 -1.9543  0.3944
  545TMC3    C7 8094   1.949   2.724  17.552  0.5042 -0.2488  0.4819
  545TMC3    C8 8095   2.118   2.865  17.126 -0.1829  0.0171  0.2369
  545TMC3    O1 8096   1.867   2.738  17.637 -0.3680 -0.1138  0.5097
  545TMC3    O2 8097   2.220   2.795  17.143  0.5765 -0.5147 -0.2429
  546MPD2     C 8098   3.249   4.154  17.087 -0.8143 -0.2316  0.7469
  546MPD2    C1 8099   3.160   4.248  17.118  0.2859 -0.0874 -0.1448
  546MPD2    C2 8100   3.187   4.387  17.101 -0.9468  0.2516  0.3898
  546MPD2    C3 8101   3.313   4.428  17.056 -0.4576  0.1062 -0.1966
  546MPD2    C4 8102   3.395   4.327  17.016  0.0209 -0.6174  0.5276
  546MPD2    C5 8103   3.367   4.189  17.027 -0.6731  1.5337  0.2490
  546MPD2     H 8104   3.114   4.463  17.127  0.6396  0.7235  3.3927
  546MPD2    H1 8105   3.496   4.359  16.995 -0.1562 -0.6329 -0.3693
  546MPD2    H2 8106   3.219   4.053  17.112  2.2787 -1.5595 -1.0231
  546MPD2    H3 8107   3.445   4.117  17.007 -2.0364  0.3566 -0.8146
  546MPD2     N 8108   3.360   4.559  17.065  0.1005 -0.0786  0.2859
  546MPD2    H5 8109   3.454   4.565  17.026  0.8779  1.5042  2.4162
  546MPD2    N1 8110   3.040   4.202  17.176  0.1866  0.4594  0.5243
  546MPD2    H7 8111   3.041   4.104  17.203 -1.2964  0.2116 -0.3179
  547TMC3    C1 8112   2.816   4.191  17.230 -0.7692  0.5694  0.7854
  547TMC3    C2 8113   2.690   4.235  17.200 -0.2326  0.3010  0.3500
  547TMC3    C3 8114   2.583   4.153  17.200 -0.5163 -0.2909  0.3343
  547TMC3    C4 8115   2.830   4.060  17.259 -0.4155  0.9855 -0.8115
  547TMC3    C5 8116   2.718   3.977  17.263 -0.3959  0.0144  0.1387
  547TMC3    C6 8117   2.591   4.026  17.240 -0.8934 -0.1931 -0.0993
  547TMC3     C 8118   2.930   4.279  17.196  0.5095  0.1988 -0.3971
  547TMC3     O 8119   2.902   4.391  17.165 -0.2196 -0.6137 -0.4017
  547TMC3     H 8120   2.670   4.333  17.159  0.1670 -0.5212 -1.7986
  547TMC3    H1 8121   2.922   4.006  17.278 -0.4919  0.6263 -1.4839
  547TMC3    H2 8122   2.502   3.966  17.226 -0.2818 -1.1581  0.1924
  547TMC3    C7 8123   2.719   3.852  17.327 -0.4854  0.4585  0.1691
  547TMC3    C8 8124   2.455   4.195  17.143  1.2036  0.3398 -0.4571
  547TMC3    O1 8125   2.620   3.781  17.322  0.0404 -0.0477  0.2262
  547TMC3    O2 8126   2.401   4.116  17.064 -0.1380  0.2525  0.2893
  548MPD2     C 8127   3.600   0.487  12.432  0.0277  0.1307 -0.9509
  548MPD2    C1 8128   3.562   0.380  12.511 -1.0606 -0.3006  0.1750
  548MPD2    C2 8129   3.634   0.257  12.505  0.2938  0.0572 -0.2998
  548MPD2    C3 8130   3.742   0.236  12.418 -0.2158  0.2045 -0.2429
  548MPD2    C4 8131   3.786   0.353  12.354  0.0689 -0.1474  0.1642
  548MPD2    C5 8132   3.708   0.473  12.350 -0.4828 -0.0074 -0.1678
  548MPD2     H 8133   3.597   0.164  12.546 -0.5154 -0.6762 -2.7143
  548MPD2    H1 8134   3.871   0.348  12.287 -0.9374  2.7732 -1.3546
  548MPD2    H2 8135   3.547   0.582  12.423  2.2283  1.6378  2.0388
  548MPD2    H3 8136   3.735   0.552  12.281  1.8979 -0.5271  0.1658
  548MPD2     N 8137   3.792   0.104  12.390  0.1060 -0.2503 -0.0497
  548MPD2    H5 8138   3.738   0.023  12.420  0.0635 -0.5772 -1.0204
  548MPD2    N1 8139   3.427   0.399  12.559  0.5761 -0.3005  0.0335
  548MPD2    H7 8140   3.394   0.495  12.557  0.2961 -0.3449  2.6910
  549TMC3    C1 8141   3.213   0.338  12.603  0.4305 -0.0434  1.0150
  549TMC3    C2 8142   3.174   0.452  12.538  0.5004  0.4860  0.5499
  549TMC3    C3 8143   3.046   0.496  12.556 -0.4892  0.3178  0.1169
  549TMC3    C4 8144   3.120   0.272  12.685  0.0641 -0.6852  0.2985
  549TMC3    C5 8145   2.992   0.317  12.698  0.0798 -0.3556 -0.2690
  549TMC3    C6 8146   2.956   0.436  12.642  0.1437  0.3291  0.3857
  549TMC3     C 8147   3.352   0.300  12.608 -0.3777 -0.7147 -0.1420
  549TMC3     O 8148   3.377   0.184  12.628 -0.3990  0.0167 -0.0863
  549TMC3     H 8149   3.237   0.493  12.460 -0.0883  0.8133  0.2385
  549TMC3    H1 8150   3.162   0.209  12.762 -0.1645  0.3028  1.2211
  549TMC3    H2 8151   2.855   0.473  12.656 -0.6451 -1.2817 -0.9317
  549TMC3    C7 8152   2.899   0.239  12.777 -0.3313 -0.3665 -0.4469
  549TMC3    C8 8153   2.995   0.602  12.476 -0.4322 -0.1628 -0.4767
  549TMC3    O1 8154   2.784   0.273  12.796 -0.2075  0.0350  0.0297
  549TMC3    O2 8155   2.872   0.623  12.481  0.0358  0.0698 -0.8193
  550TMC3    C1 8156   1.842   2.631  12.464 -0.2553  0.0729 -0.6332
  550TMC3    C2 8157   1.753   2.689  12.546 -0.6983  0.1949  0.0488
  550TMC3    C3 8158   1.704   2.808  12.505  0.4194  0.3698 -0.2706
  550TMC3    C4 8159   1.887   2.676  12.347 -0.5538 -0.5166  0.4179
  550TMC3    C5 8160   1.827   2.786  12.305  0.3794 -0.6670 -0.3759
  550TMC3    C6 8161   1.734   2.856  12.377  0.8651  0.7835  1.0034
  550TMC3     C 8162   1.870   2.487  12.494  0.1886  0.2813 -0.6146
  550TMC3     O 8163   1.871   2.452  12.609  0.8772  0.0300 -0.1671
  550TMC3     H 8164   1.723   2.633  12.634 -0.2099 -3.3873 -2.0723
  550TMC3    H1 8165   1.963   2.628  12.287  0.6814  2.7353 -0.6524
  550TMC3    H2 8166   1.702   2.955  12.346  0.0823 -0.3076 -1.7316
  550TMC3    C7 8167   1.855   2.819  12.163 -0.1847 -0.7198 -0.3765
  550TMC3    C8 8168   1.616   2.887  12.579  0.1931  0.1763 -0.5041
  550TMC3    O1 8169   1.957   2.776  12.105  0.1136 -0.4258  1.0927
  550TMC3    O2 8170   1.565   2.984  12.521  1.4871 -0.1192 -0.1704
  551TMC3    C1 8171   4.171   0.875  13.637 -0.6143  0.7037  0.2855
  551TMC3    C2 8172   4.294   0.866  13.572 -0.4390  0.5517  0.1110
  551TMC3    C3 8173   4.373   0.978  13.590 -0.0731 -0.3295  0.1139
  551TMC3    C4 8174   4.128   0.996  13.683  0.0388 -0.1146  0.0625
  551TMC3    C5 8175   4.211   1.098  13.710  0.1369  0.0650  0.4257
  551TMC3    C6 8176   4.335   1.091  13.659 -0.2011  0.1823  0.6766
  551TMC3     C 8177   4.069   0.792  13.583  0.7987  0.3261  0.3793
  551TMC3     O 8178   4.114   0.696  13.521  0.1547 -0.3341  0.4218
  551TMC3     H 8179   4.329   0.788  13.505 -1.8310  0.4130 -0.4452
  551TMC3    H1 8180   4.037   0.995  13.740  0.4884  0.8094  0.8013
  551TMC3    H2 8181   4.414   1.160  13.689  0.3592 -0.3155  0.3478
  551TMC3    C7 8182   4.198   1.183  13.828 -0.6088 -0.6576  0.0905
  551TMC3    C8 8183   4.499   0.977  13.518  0.6184 -0.9334  0.5769
  551TMC3    O1 8184   4.290   1.255  13.862 -0.3133  0.0522  0.4596
  551TMC3    O2 8185   4.554   0.871  13.501  0.1711 -1.0250  0.0623
  552MPD2     C 8186   1.017   2.619  14.080  0.1397  0.4615  0.4807
  552MPD2    C1 8187   1.125   2.567  14.016 -0.3531 -0.0706 -0.5839
  552MPD2    C2 8188   1.242   2.542  14.092  0.1571 -0.3505 -0.3845
  552MPD2    C3 8189   1.243   2.549  14.230 -0.0923  0.0611 -0.0153
  552MPD2    C4 8190   1.129   2.581  14.297  0.2044 -0.2217 -0.7023
  552MPD2    C5 8191   1.026   2.628  14.220 -0.0702 -0.0983 -0.0334
  552MPD2     H 8192   1.326   2.517  14.028 -1.1143  1.6253 -2.8180
  552MPD2    H1 8193   1.128   2.577  14.405  0.7058  0.2463 -0.6811
  552MPD2    H2 8194   0.926   2.651  14.030  0.3517  0.3023 -0.0117
  552MPD2    H3 8195   0.940   2.669  14.272 -0.6141  0.0468 -1.0443
  552MPD2     N 8196   1.363   2.514  14.304  0.5037 -0.5034  0.0777
  552MPD2    H5 8197   1.351   2.509  14.405  3.4567 -1.2758  0.3967
  552MPD2    N1 8198   1.119   2.533  13.877 -0.4110 -0.0101 -0.3251
  552MPD2    H7 8199   1.197   2.479  13.841  0.1921  1.3312 -1.0678
  553TMC3    C1 8200   1.037   2.454  13.681 -0.0474  0.3536  0.2878
  553TMC3    C2 8201   0.992   2.502  13.560 -0.8655 -0.5848 -0.0364
  553TMC3    C3 8202   1.026   2.415  13.450  0.4185 -0.2504  0.3351
  553TMC3    C4 8203   1.104   2.344  13.706 -0.0358 -0.0678 -0.3418
  553TMC3    C5 8204   1.119   2.261  13.602  0.2136  0.5979  0.2262
  553TMC3    C6 8205   1.090   2.292  13.475  0.0595  0.2359 -0.4314
  553TMC3     C 8206   1.005   2.532  13.803  0.7104 -0.0997 -0.0897
  553TMC3     O 8207   0.898   2.589  13.808 -0.1610  0.3050 -0.4731
  553TMC3     H 8208   0.942   2.599  13.560  0.4750  0.0967 -0.9289
  553TMC3    H1 8209   1.123   2.302  13.804  2.0355  1.4655 -0.0948
  553TMC3    H2 8210   1.112   2.221  13.396  2.2767  0.6505 -0.1917
  553TMC3    C7 8211   1.202   2.137  13.626 -0.1328  0.2013 -0.2188
  553TMC3    C8 8212   1.090   2.492  13.348 -0.8971  1.0794 -0.0625
  553TMC3    O1 8213   1.137   2.031  13.611 -0.3370  0.3499 -0.4875
  553TMC3    O2 8214   1.108   2.602  13.386  0.2304 -0.3209 -0.0500
  554TMC3    C1 8215   3.388   1.786  11.702  0.4827 -0.2856  0.0358
  554TMC3    C2 8216   3.289   1.782  11.613 -0.4044 -0.3638  0.0183
  554TMC3    C3 8217   3.316   1.821  11.486  0.9936 -0.2002 -0.4742
  554TMC3    C4 8218   3.512   1.829  11.673 -0.1191  0.4935  0.2539
  554TMC3    C5 8219   3.536   1.875  11.548 -0.4170 -0.4091  1.2432
  554TMC3    C6 8220   3.437   1.868  11.454 -0.5861  0.2418 -0.1751
  554TMC3     C 8221   3.354   1.753  11.841 -0.8997 -0.4794  0.3704
  554TMC3     O 8222   3.238   1.774  11.876  0.7670 -0.0165 -0.1905
  554TMC3     H 8223   3.192   1.748  11.647 -0.1057 -1.3085 -0.0596
  554TMC3    H1 8224   3.592   1.831  11.747 -0.0355 -0.9594  0.2175
  554TMC3    H2 8225   3.451   1.918  11.359 -3.1723  1.8627  0.2974
  554TMC3    C7 8226   3.660   1.948  11.524 -0.1337  0.1970 -0.1764
  554TMC3    C8 8227   3.230   1.791  11.374  0.9563  0.0628 -0.2108
  554TMC3    O1 8228   3.715   1.988  11.627  0.1571 -0.0138  0.0070
  554TMC3    O2 8229   3.278   1.829  11.263 -0.2660 -0.5794 -0.0632
  555TMC3    C1 8230   2.419   0.911  14.984  0.3832  1.0960  0.0167
  555TMC3    C2 8231   2.422   1.034  15.048  0.0650  0.0508  0.1060
  555TMC3    C3 8232   2.436   1.033  15.183 -0.3183 -0.7976 -0.2896
  555TMC3    C4 8233   2.440   0.794  15.050 -0.2694 -0.3175 -0.3472
  555TMC3    C5 8234   2.450   0.804  15.184  0.4203  0.3487  0.5068
  555TMC3    C6 8235   2.445   0.921  15.252 -0.1548  0.4154  0.4326
  555TMC3     C 8236   2.421   0.899  14.833 -0.0777 -0.1273 -0.3745
  555TMC3     O 8237   2.489   0.813  14.777  0.0691  0.4810 -0.4505
  555TMC3     H 8238   2.431   1.129  14.997 -1.4839  0.1031 -0.0795
  555TMC3    H1 8239   2.445   0.704  14.990 -0.1603 -0.8958  0.5172
  555TMC3    H2 8240   2.461   0.917  15.359  0.0784  1.4367  0.4413
  555TMC3    C7 8241   2.446   0.682  15.269 -0.4351 -0.5968  0.0776
  555TMC3    C8 8242   2.454   1.164  15.249 -0.5765 -0.9000  0.1641
  555TMC3    O1 8243   2.380   0.688  15.372  0.5292 -0.6349 -0.2213
  555TMC3    O2 8244   2.419   1.263  15.179  0.5924  0.3292 -0.1273
  556MPD2     C 8245   1.114   2.558  10.890 -0.4908  0.4402 -0.1472
  556MPD2    C1 8246   0.991   2.499  10.907  0.1468 -0.3697 -0.2484
  556MPD2    C2 8247   0.960   2.386  10.839 -0.1173  0.0564 -0.4201
  556MPD2    C3 8248   1.057   2.334  10.754  0.4260  0.3241  0.0729
  556MPD2    C4 8249   1.176   2.403  10.731 -0.2317  0.3416  0.4844
  556MPD2    C5 8250   1.209   2.510  10.806 -0.8669 -0.7192  0.3245
  556MPD2     H 8251   0.870   2.331  10.865 -0.6996  1.8137  1.2795
  556MPD2    H1 8252   1.255   2.370  10.664 -0.8772 -1.2858  0.5289
  556MPD2    H2 8253   1.145   2.636  10.959 -1.0423  2.1963 -1.8885
  556MPD2    H3 8254   1.310   2.550  10.803 -0.9993 -0.5249 -1.5445
  556MPD2     N 8255   1.022   2.223  10.678 -0.9159  0.3542 -0.1012
  556MPD2    H5 8256   0.934   2.175  10.694 -0.0675 -0.6733  1.4719
  556MPD2    N1 8257   0.901   2.568  10.993  0.4666 -0.8182  0.2019
  556MPD2    H7 8258   0.922   2.666  11.009 -1.4553 -0.6200  1.4333
  557TMC3    C1 8259   1.026   2.070  10.498  0.2683 -0.9083  0.3378
  557TMC3    C2 8260   1.069   2.052  10.372  0.1831 -0.0037 -0.0272
  557TMC3    C3 8261   1.023   1.948  10.293  0.3086 -0.3297  0.5621
  557TMC3    C4 8262   0.968   1.969  10.567  0.0816  0.5426  0.6159
  557TMC3    C5 8263   0.919   1.868  10.486 -0.2620 -0.4623 -0.2358
  557TMC3    C6 8264   0.940   1.856  10.349  0.5701  0.0491  0.3252
  557TMC3     C 8265   1.097   2.171  10.572  0.6057 -0.7126  0.1326
  557TMC3     O 8266   1.199   2.203  10.515 -0.2565 -0.0123 -0.4138
  557TMC3     H 8267   1.103   2.137  10.314 -1.0716  0.8311  0.4591
  557TMC3    H1 8268   0.931   1.977  10.668 -0.3912  2.2751  0.3068
  557TMC3    H2 8269   0.897   1.777  10.288  0.3483  0.4275 -0.0078
  557TMC3    C7 8270   0.806   1.795  10.540  0.4040  0.2736 -0.2346
  557TMC3    C8 8271   1.110   1.906  10.179  0.2131  0.5854  0.1600
  557TMC3    O1 8272   0.718   1.767  10.461  0.2801 -0.5037 -0.3291
  557TMC3    O2 8273   1.176   1.995  10.130  0.4181 -0.0533  0.0366
  558TMC3    C1 8274   3.728   0.337   9.913  0.6797 -0.3102  0.7606
  558TMC3    C2 8275   3.608   0.359   9.973 -1.1646 -0.0638  0.1664
  558TMC3    C3 8276   3.505   0.315   9.891 -0.6428 -0.8390 -0.8098
  558TMC3    C4 8277   3.748   0.283   9.790 -0.7756 -0.0673 -0.3398
  558TMC3    C5 8278   3.641   0.241   9.724 -0.5483  0.1238 -0.1245
  558TMC3    C6 8279   3.515   0.251   9.775 -0.1312 -0.4814 -0.7531
  558TMC3     C 8280   3.844   0.353   9.990  0.9055 -0.1888 -0.1336
  558TMC3     O 8281   3.942   0.387   9.934  0.1838 -0.8043 -0.5700
  558TMC3     H 8282   3.595   0.402  10.072  4.3783  2.1556 -0.0103
  558TMC3    H1 8283   3.849   0.258   9.759 -0.3728 -0.0163  0.9611
  558TMC3    H2 8284   3.431   0.208   9.721 -1.7427 -1.0920  2.2168
  558TMC3    C7 8285   3.667   0.128   9.639 -0.2281  0.1434 -0.1787
  558TMC3    C8 8286   3.377   0.319   9.949  0.2403 -0.4815 -0.0355
  558TMC3    O1 8287   3.775   0.080   9.653 -0.7749 -0.3676 -0.4695
  558TMC3    O2 8288   3.290   0.347   9.865 -0.9822  0.3551  0.1217
  559MPD2     C 8289   3.038   1.112  10.898 -0.9876  0.0308  0.2554
  559MPD2    C1 8290   3.014   0.982  10.941  0.3735 -0.1847 -0.3509
  559MPD2    C2 8291   3.123   0.909  10.989  0.5350  0.4178 -0.4742
  559MPD2    C3 8292   3.243   0.970  11.003 -0.4637 -0.3424  0.4098
  559MPD2    C4 8293   3.265   1.094  10.952  1.4114 -0.5302  0.5079
  559MPD2    C5 8294   3.159   1.165  10.901  0.9422 -0.2114 -0.2192
  559MPD2     H 8295   3.104   0.808  11.026  4.1182  0.6135  1.8880
  559MPD2    H1 8296   3.359   1.149  10.942  1.0671  0.3069  1.8981
  559MPD2    H2 8297   2.968   1.177  10.848 -1.3963 -0.8579 -0.3207
  559MPD2    H3 8298   3.183   1.263  10.863 -0.0368 -0.8155 -2.4090
  559MPD2     N 8299   3.344   0.907  11.084 -0.3829  0.0429  0.8650
  559MPD2    H5 8300   3.316   0.821  11.132 -0.9785 -1.2504 -1.8282
  559MPD2    N1 8301   2.888   0.924  10.914 -0.3744 -0.1904  0.0983
  559MPD2    H7 8302   2.824   0.983  10.862  1.2427  0.5476 -1.0296
  560TMC3    C1 8303   3.550   0.876  11.205 -0.2470 -0.3047  0.5754
  560TMC3    C2 8304   3.493   0.782  11.285  0.1376  0.6037  0.3983
  560TMC3    C3 8305   3.573   0.699  11.360 -0.5253 -0.6424 -0.3927
  560TMC3    C4 8306   3.676   0.922  11.248 -0.0621 -0.6092  0.1064
  560TMC3    C5 8307   3.747   0.850  11.344 -0.5769 -0.1592  0.3662
  560TMC3    C6 8308   3.702   0.727  11.384  0.0248 -0.1102 -0.3221
  560TMC3     C 8309   3.472   0.961  11.120 -0.1547 -0.5527 -0.4801
  560TMC3     O 8310   3.529   1.068  11.088  0.4692 -0.0208  0.4164
  560TMC3     H 8311   3.389   0.756  11.265 -0.9344  3.7548  1.8855
  560TMC3    H1 8312   3.715   1.018  11.215 -1.7807 -0.3546 -1.1437
  560TMC3    H2 8313   3.758   0.668  11.456  0.9553 -0.5152 -1.3697
  560TMC3    C7 8314   3.850   0.924  11.418  0.6078  0.5001 -0.4067
  560TMC3    C8 8315   3.559   0.563  11.306  0.1976  0.0240 -0.8154
  560TMC3    O1 8316   3.849   0.893  11.534  0.1774  0.2790  0.0487
  560TMC3    O2 8317   3.446   0.522  11.268 -0.4104 -0.3252  0.0610
  561TMC3    C1 8318   1.039   4.547  11.739  0.6567  0.2920 -0.1331
  561TMC3    C2 8319   0.990   4.514  11.860 -0.4534 -0.0439  0.5413
  561TMC3    C3 8320   0.970   4.612  11.953  0.7429 -0.6552  0.0216
  561TMC3    C4 8321   1.061   4.679  11.703  0.6821  0.3034 -0.1421
  561TMC3    C5 8322   1.052   0.050  11.800  0.2665  0.9369 -0.6096
  561TMC3    C6 8323   1.003   0.018  11.923  0.2559  0.1931 -0.9376
  561TMC3     C 8324   1.114   4.435  11.667  0.6883  0.1445 -0.3755
  561TMC3     O 8325   1.078   4.322  11.695  0.3793  0.3539 -0.3508
  561TMC3     H 8326   0.990   4.411  11.894  0.7386  1.1560  4.2079
  561TMC3    H1 8327   1.096   4.700  11.603  1.5745  0.5024  0.2074
  561TMC3    H2 8328   1.000   0.100  11.995  1.5070 -0.1658 -0.4769
  561TMC3    C7 8329   1.061   0.189  11.771  0.3040 -0.2952  0.0470
  561TMC3    C8 8330   0.884   4.580  12.069 -0.3043  0.6325 -0.2851
  561TMC3    O1 8331   0.995   0.260  11.842  0.4256  0.1193 -0.0784
  561TMC3    O2 8332   0.884   4.463  12.099 -0.1592  0.0788  0.1535
  562TMC3    C1 8333   2.081   1.558  16.351 -0.4105  0.9237 -0.2029
  562TMC3    C2 8334   2.011   1.670  16.325  0.0964 -0.3923  0.5278
  562TMC3    C3 8335   1.959   1.694  16.199  0.4891  1.0672  0.3047
  562TMC3    C4 8336   2.095   1.469  16.253  0.4395  1.1955 -0.0343
  562TMC3    C5 8337   2.039   1.487  16.135  0.2490 -0.8479  0.5099
  562TMC3    C6 8338   1.969   1.598  16.102  0.8361  0.5435 -0.2537
  562TMC3     C 8339   2.097   1.525  16.494 -0.5137  1.4634 -0.0637
  562TMC3     O 8340   2.047   1.613  16.563 -0.0901  0.0375  0.3351
  562TMC3     H 8341   1.983   1.746  16.396 -2.6924 -1.2875  0.4071
  562TMC3    H1 8342   2.157   1.385  16.286 -0.9846  0.7056  1.3919
  562TMC3    H2 8343   1.944   1.631  16.001 -1.2856  0.1516  0.1540
  562TMC3    C7 8344   2.042   1.388  16.030 -0.4771 -0.3182 -0.4363
  562TMC3    C8 8345   1.846   1.791  16.191 -0.2628  0.2303  0.2786
  562TMC3    O1 8346   1.996   1.422  15.920 -0.1692  0.1888  0.0744
  562TMC3    O2 8347   1.808   1.849  16.294 -0.2496  0.1938  0.2144
  563MPD2     C 8348   4.574   2.645  15.594 -0.6710 -0.8580  1.0861
  563MPD2    C1 8349   4.559   2.677  15.724 -0.4474 -0.6680 -0.8780
  563MPD2    C2 8350   4.672   2.662  15.806  0.1007 -0.7205 -0.0026
  563MPD2    C3 8351   0.053   2.585  15.761  0.1096  0.4479 -0.8950
  563MPD2    C4 8352   0.058   2.527  15.634  1.0370  0.4867  0.1884
  563MPD2    C5 8353   4.686   2.575  15.546  0.2266 -0.0184  0.3310
  563MPD2     H 8354   4.675   2.694  15.909 -3.5319 -4.0671  1.1324
  563MPD2    H1 8355   0.138   2.465  15.597 -0.4656 -1.4491  0.2323
  563MPD2    H2 8356   4.496   2.657  15.519 -0.7455 -0.4398  1.2292
  563MPD2    H3 8357   4.667   2.522  15.453 -2.1700  1.5788 -0.0814
  563MPD2     N 8358   0.137   2.556  15.869  0.3266 -0.0807 -0.0617
  563MPD2    H5 8359   0.125   2.599  15.961  1.9996 -0.3763  0.2985
  563MPD2    N1 8360   4.435   2.720  15.765  0.4249  0.0411  0.0900
  563MPD2    H7 8361   4.364   2.702  15.695 -1.7091 -0.3098  2.3814
  564TMC3    C1 8362   4.276   2.785  15.920 -0.5064 -0.7789 -0.3905
  564TMC3    C2 8363   4.179   2.719  15.848 -0.7567 -0.1970  0.7760
  564TMC3    C3 8364   4.062   2.690  15.918  0.0512  0.7193 -0.8065
  564TMC3    C4 8365   4.260   2.819  16.053 -0.4218  0.3987  0.7572
  564TMC3    C5 8366   4.141   2.793  16.110 -0.5742 -0.2500 -0.1552
  564TMC3    C6 8367   4.032   2.733  16.049  0.2485  0.3583  0.3699
  564TMC3     C 8368   4.411   2.773  15.883 -0.1677 -0.4676  0.2832
  564TMC3     O 8369   4.497   2.812  15.961 -0.4170 -0.2242 -0.1920
  564TMC3     H 8370   4.195   2.686  15.745 -0.5025  3.0872 -0.2330
  564TMC3    H1 8371   4.340   2.862  16.112  0.5574  1.5856 -1.4447
  564TMC3    H2 8372   3.952   2.697  16.112 -0.8729 -2.0953 -2.5179
  564TMC3    C7 8373   4.154   2.747  16.246 -1.3703  0.5858  0.4342
  564TMC3    C8 8374   4.012   2.551  15.902  0.0294 -0.3774  0.1241
  564TMC3    O1 8375   4.054   2.762  16.313  0.1181 -0.3376 -0.2044
  564TMC3    O2 8376   3.943   2.503  15.992 -0.1035 -0.5037  0.0850
  565TMC3    C1 8377   0.814   3.659  10.119  1.0091 -0.3836 -0.0580
  565TMC3    C2 8378   0.697   3.608  10.161  0.2156 -0.1785 -0.4177
  565TMC3    C3 8379   0.591   3.601  10.074  0.2127 -0.8347  0.1031
  565TMC3    C4 8380   0.829   3.714   9.990 -0.5142  0.6291 -0.3717
  565TMC3    C5 8381   0.716   3.727   9.913  0.6440 -1.1086  0.5137
  565TMC3    C6 8382   0.598   3.659   9.947  0.5115 -0.8842  0.4328
  565TMC3     C 8383   0.916   3.697  10.211 -0.2769  0.6235  0.3086
  565TMC3     O 8384   1.007   3.771  10.170  0.1730  0.1544  0.5839
  565TMC3     H 8385   0.685   3.561  10.258  0.0428  0.2311 -0.2424
  565TMC3    H1 8386   0.925   3.752   9.958  0.1654 -3.1675 -2.7759
  565TMC3    H2 8387   0.504   3.687   9.901  0.1348 -0.4964  1.4179
  565TMC3    C7 8388   0.726   3.796   9.789 -0.5568 -0.5937 -1.5461
  565TMC3    C8 8389   0.479   3.516  10.106 -0.5042 -0.6862 -0.0500
  565TMC3    O1 8390   0.814   3.878   9.777 -0.1205  0.3994  0.0963
  565TMC3    O2 8391   0.463   3.500  10.226 -0.3113 -0.4907  0.0281
  566MPD2     C 8392   1.467   1.106  14.458 -0.7750  0.3072  0.6515
  566MPD2    C1 8393   1.521   1.029  14.357  0.3492 -0.6935  0.3493
  566MPD2    C2 8394   1.438   0.985  14.252  0.2404 -0.4573  0.2656
  566MPD2    C3 8395   1.306   1.027  14.250 -0.1721 -0.3363  0.1706
  566MPD2    C4 8396   1.259   1.119  14.347 -0.4537 -0.2223  0.1973
  566MPD2    C5 8397   1.337   1.151  14.455 -0.2579  0.4004 -0.2790
  566MPD2     H 8398   1.482   0.931  14.169  2.3181  0.4743  0.7796
  566MPD2    H1 8399   1.163   1.168  14.336 -0.5366  0.1501  2.5981
  566MPD2    H2 8400   1.532   1.129  14.542 -0.2605  1.5051 -0.0697
  566MPD2    H3 8401   1.305   1.219  14.534 -1.7317  0.7456 -1.1779
  566MPD2     N 8402   1.216   0.992  14.150  0.7514 -0.0592  0.5594
  566MPD2    H5 8403   1.126   1.039  14.151  1.2769  0.9518  0.4588
  566MPD2    N1 8404   1.655   0.987  14.358 -0.5173 -0.0749  0.6385
  566MPD2    H7 8405   1.679   0.928  14.279  1.9669 -0.0311  1.3560
  567TMC3    C1 8406   1.873   0.950  14.430  0.1015 -0.2077 -0.3508
  567TMC3    C2 8407   1.918   0.974  14.306 -0.0257  0.0853 -0.3524
  567TMC3    C3 8408   2.045   0.951  14.279  0.5787  0.5288 -0.5214
  567TMC3    C4 8409   1.948   0.903  14.531  0.6401  0.2357 -0.5290
  567TMC3    C5 8410   2.079   0.879  14.506  0.0987 -0.6475 -0.2062
  567TMC3    C6 8411   2.126   0.902  14.380 -0.7917 -0.7020 -0.9870
  567TMC3     C 8412   1.744   0.998  14.468  0.4775  0.3044  0.2373
  567TMC3     O 8413   1.722   1.015  14.590 -0.4453 -0.3222  0.1635
  567TMC3     H 8414   1.851   1.018  14.233 -0.3498 -0.1905 -0.2189
  567TMC3    H1 8415   1.904   0.902  14.630  1.3839  0.3596 -0.2025
  567TMC3    H2 8416   2.231   0.885  14.359  0.2329  0.6893  2.9885
  567TMC3    C7 8417   2.134   0.763  14.574 -0.4713  0.6198 -0.2969
  567TMC3    C8 8418   2.102   1.034  14.174  0.3104 -0.1102  0.0252
  567TMC3    O1 8419   2.205   0.691  14.508 -0.1286  0.7920 -0.1359
  567TMC3    O2 8420   2.036   1.130  14.145 -0.1002  0.2031 -0.1473
  568MPD2     C 8421   0.015   1.206  16.427  0.0869  0.1928 -0.3116
  568MPD2    C1 8422   4.619   1.208  16.488 -0.1888  0.3831  0.0890
  568MPD2    C2 8423   4.544   1.325  16.465 -0.6270  0.2436  0.4424
  568MPD2    C3 8424   4.576   1.426  16.382  0.0562 -1.0834  0.0657
  568MPD2    C4 8425   4.701   1.422  16.334 -0.1018  0.0347  0.4233
  568MPD2    C5 8426   0.057   1.315  16.357 -0.2202  0.5359  0.2318
  568MPD2     H 8427   4.451   1.343  16.518  0.2380 -0.2709  2.1156
  568MPD2    H1 8428   0.014   1.511  16.284  0.7209 -0.9561 -0.7186
  568MPD2    H2 8429   0.093   1.133  16.442 -0.1394 -0.0208 -0.1824
  568MPD2    H3 8430   0.157   1.307  16.315 -0.5398  2.0472 -0.8234
  568MPD2     N 8431   4.493   1.544  16.369 -0.1984  0.3970  0.7067
  568MPD2    H5 8432   4.421   1.561  16.439 -0.3178  0.8832  0.4675
  568MPD2    N1 8433   4.576   1.104  16.577 -0.8204 -0.4442  0.3295
  568MPD2    H7 8434   4.630   1.018  16.580  1.4455  1.0535  1.9498
  569TMC3    C1 8435   4.423   1.750  16.245  0.1136 -0.0693 -0.1410
  569TMC3    C2 8436   4.355   1.794  16.362 -0.3306  0.3273  0.2419
  569TMC3    C3 8437   4.253   1.879  16.340  0.3290  0.0600 -0.5351
  569TMC3    C4 8438   4.378   1.780  16.118  0.1547 -0.1728  0.3815
  569TMC3    C5 8439   4.280   1.874  16.112 -0.6951 -0.9333  0.1639
  569TMC3    C6 8440   4.204   1.921  16.219 -0.4447  0.0400 -0.1530
  569TMC3     C 8441   4.513   1.631  16.260  0.4511 -0.0410  0.9378
  569TMC3     O 8442   4.572   1.604  16.157 -0.2847  0.1314  0.1171
  569TMC3     H 8443   4.382   1.767  16.463  0.4984 -1.0893 -0.3640
  569TMC3    H1 8444   4.435   1.752  16.031 -0.9082 -2.2623  0.3549
  569TMC3    H2 8445   4.121   1.989  16.204 -0.3901  0.3775  1.1457
  569TMC3    C7 8446   4.244   1.930  15.984 -0.1008  0.0428 -0.2901
  569TMC3    C8 8447   4.171   1.923  16.449 -0.6606 -0.5684 -0.8200
  569TMC3    O1 8448   4.272   1.856  15.893  0.0227  0.8440  0.0729
  569TMC3    O2 8449   4.050   1.937  16.432 -0.5490  0.0543 -0.4183
  570TMC3    C1 8450   3.676   0.597  16.132  0.1762 -0.2309 -0.1660
  570TMC3    C2 8451   3.780   0.601  16.044  0.3871 -0.0615  0.1102
  570TMC3    C3 8452   3.890   0.683  16.074 -0.3114  0.6189 -0.1791
  570TMC3    C4 8453   3.669   0.680  16.239  0.3799 -0.6840 -0.2862
  570TMC3    C5 8454   3.775   0.768  16.256 -0.5124 -0.1277 -0.4906
  570TMC3    C6 8455   3.878   0.776  16.165  0.7813  1.0900  0.3508
  570TMC3     C 8456   3.567   0.499  16.103  0.2562 -0.5139 -0.3913
  570TMC3     O 8457   3.538   0.487  15.985 -0.0128 -0.0662 -0.0414
  570TMC3     H 8458   3.767   0.529  15.964 -1.4702 -1.3044  1.5220
  570TMC3    H1 8459   3.572   0.692  16.287 -0.4119  1.7867 -2.4729
  570TMC3    H2 8460   3.955   0.849  16.187 -0.2558  1.8703  1.3687
  570TMC3    C7 8461   3.727   0.891  16.320 -0.0406  0.0208 -0.0359
  570TMC3    C8 8462   3.967   0.730  15.965  0.3274  0.8334 -0.4511
  570TMC3    O1 8463   3.646   0.890  16.410 -0.3725  0.0026 -0.1521
  570TMC3    O2 8464   4.056   0.817  15.989 -0.2279  0.0800 -0.4315
  571MPD2     C 8465   1.214   1.488  17.484  0.5117 -0.7494  0.0668
  571MPD2    C1 8466   1.290   1.433  17.585  0.9173  0.3671 -0.3592
  571MPD2    C2 8467   1.330   1.514  17.691 -0.3255  0.7773 -0.0336
  571MPD2    C3 8468   1.274   1.642   0.005 -0.7691  0.3486  0.0146
  571MPD2    C4 8469   1.186   1.682  17.606  0.0579  1.0128 -0.6569
  571MPD2    C5 8470   1.157   1.607  17.496  0.7619  0.4698  0.1454
  571MPD2     H 8471   1.404   1.476   0.062  1.2998 -1.3780 -2.9063
  571MPD2    H1 8472   1.125   1.772  17.616 -0.2467  1.0083 -2.4746
  571MPD2    H2 8473   1.192   1.431  17.395 -0.3516 -1.1623  0.5438
  571MPD2    H3 8474   1.106   1.643  17.407 -0.6676 -0.1461  0.7179
  571MPD2     N 8475   1.295   1.730   0.113 -0.5638 -0.1790  0.3292
  571MPD2    H5 8476   1.244   1.818   0.113  1.2071  0.8556 -1.4625
  571MPD2    N1 8477   1.330   1.296  17.568  0.2691  0.1737 -0.4288
  571MPD2    H7 8478   1.303   1.260  17.476 -0.8537 -1.4398  0.5306
  572TMC3    C1 8479   1.330   1.791   0.335  0.7910  0.0194  0.1155
  572TMC3    C2 8480   1.405   1.779   0.453  0.7877  0.0542 -0.3430
  572TMC3    C3 8481   1.352   1.849   0.559 -0.4035  0.2592 -0.4719
  572TMC3    C4 8482   1.209   1.856   0.335 -0.1063 -0.3570  0.3130
  572TMC3    C5 8483   1.172   1.932   0.443 -0.1972 -0.3562 -0.3159
  572TMC3    C6 8484   1.247   1.928   0.557 -0.4589 -0.2502  0.0181
  572TMC3     C 8485   1.375   1.706   0.223 -0.8857 -0.3666  0.1811
  572TMC3     O 8486   1.460   1.623   0.250  0.3136 -0.2930 -0.0625
  572TMC3     H 8487   1.506   1.740   0.455 -0.2521 -2.6076  0.1536
  572TMC3    H1 8488   1.147   1.858   0.246 -1.9635  2.6320  1.6650
  572TMC3    H2 8489   1.222   1.997   0.637 -0.8716  2.1464 -2.1847
  572TMC3    C7 8490   1.053   2.020   0.428  0.1427 -0.2815  0.2020
  572TMC3    C8 8491   1.426   1.831   0.679 -0.5380  0.6382  0.7000
  572TMC3    O1 8492   1.013   2.039   0.312 -0.1615  0.1256  0.3229
  572TMC3    O2 8493   1.545   1.803   0.671 -0.1857  0.2365 -0.8274
  573MPD2     C 8494   2.726   2.165   0.880  0.2118 -0.3256 -0.1158
  573MPD2    C1 8495   2.720   2.288   0.828  0.2575  0.1018  0.3317
  573MPD2    C2 8496   2.709   2.304   0.686 -0.3443  0.3219 -0.1581
  573MPD2    C3 8497   2.701   2.196   0.607 -0.1438 -0.0183  0.1566
  573MPD2    C4 8498   2.703   2.074   0.662 -0.0851  0.1195 -0.4773
  573MPD2    C5 8499   2.731   2.057   0.793  0.0594 -0.2956  0.5415
  573MPD2     H 8500   2.716   2.403   0.643 -0.5066 -0.3519 -1.7535
  573MPD2    H1 8501   2.699   1.986   0.598 -0.9675 -1.6336  1.9785
  573MPD2    H2 8502   2.744   2.150   0.986 -0.2224  1.8298  0.2658
  573MPD2    H3 8503   2.725   1.954   0.828  2.6106 -0.0781  1.5734
  573MPD2     N 8504   2.686   2.197   0.467 -1.0913 -0.0764 -0.1270
  573MPD2    H5 8505   2.675   2.108   0.419 -1.7677 -1.0861  1.9351
  573MPD2    N1 8506   2.730   2.389   0.921 -0.0103 -0.7483 -0.0636
  573MPD2    H7 8507   2.742   2.357   1.017  0.6542 -0.4707 -0.0540
  574TMC3    C1 8508   2.663   2.283   0.261  0.8209 -0.1405 -0.0218
  574TMC3    C2 8509   2.552   2.205   0.237 -0.0855 -0.5259  0.0750
  574TMC3    C3 8510   2.510   2.192   0.109 -0.5749  0.4312  0.0234
  574TMC3    C4 8511   2.735   2.341   0.162 -0.7823  0.3386 -0.3040
  574TMC3    C5 8512   2.695   2.317   0.036  0.9872 -0.1561  0.0676
  574TMC3    C6 8513   2.578   2.254   0.010 -1.5183  0.5904  0.1152
  574TMC3     C 8514   2.696   2.310   0.396 -0.1398 -0.5045  0.0103
  574TMC3     O 8515   2.748   2.420   0.423  0.0454  0.1591  0.6067
  574TMC3     H 8516   2.495   2.157   0.316 -1.0323 -0.9810 -0.8757
  574TMC3    H1 8517   2.834   2.382   0.179 -1.2721  0.8256  1.3052
  574TMC3    H2 8518   2.556   2.240  17.604  0.2146 -0.1072 -0.1514
  574TMC3    C7 8519   2.750   2.404  17.632 -0.1500  0.3786 -0.4122
  574TMC3    C8 8520   2.373   2.179   0.094 -0.2275  0.5491 -0.3556
  574TMC3    O1 8521   2.747   2.521  17.670  0.2043  0.0531 -0.3228
  574TMC3    O2 8522   2.311   2.115   0.177  0.2644  0.4549  0.2275
  575TMC3    C1 8523   0.183   2.856  10.575 -0.1288 -0.5995  1.1436
  575TMC3    C2 8524   0.050   2.809  10.564 -0.3706  0.1277 -0.1017
  575TMC3    C3 8525   4.695   2.861  10.467  0.6477 -0.4366  0.0491
  575TMC3    C4 8526   0.239   2.932  10.475 -0.4387  0.6988 -0.4674
  575TMC3    C5 8527   0.157   2.975  10.374  0.1778 -0.8521 -0.0708
  575TMC3    C6 8528   0.023   2.947  10.379  0.0647 -0.0473 -0.7429
  575TMC3     C 8529   0.270   2.765  10.639 -0.6846  0.0074  0.4928
  575TMC3     O 8530   0.386   2.785  10.615 -0.3658 -0.5493  0.6582
  575TMC3     H 8531   4.715   2.759  10.640 -0.9431  1.3527  0.2573
  575TMC3    H1 8532   0.346   2.947  10.471 -0.5388  1.2063 -1.1894
  575TMC3    H2 8533   4.677   3.000  10.315 -1.0926 -1.8646 -0.9931
  575TMC3    C7 8534   0.202   3.091  10.297 -0.3940 -0.2256  0.3992
  575TMC3    C8 8535   4.565   2.790  10.439 -0.3218  0.5980 -0.2074
  575TMC3    O1 8536   0.307   3.136  10.330  0.6402 -1.3096  0.0265
  575TMC3    O2 8537   4.529   2.706  10.522 -0.1174  0.0298  0.4780
  576MPD2     C 8538   4.487   0.565  12.720 -0.6948 -0.1946 -0.5427
  576MPD2    C1 8539   4.577   0.657  12.680  0.5559  0.0726  0.6185
  576MPD2    C2 8540   4.565   0.779  12.734 -0.3084  0.2314  0.0749
  576MPD2    C3 8541   4.464   0.812  12.825  0.0262 -0.3316  0.3991
  576MPD2    C4 8542   4.375   0.714  12.863  0.4447  0.2875 -0.2580
  576MPD2    C5 8543   4.388   0.592  12.806 -0.1809  0.7204 -0.2245
  576MPD2     H 8544   4.626   0.864  12.706  0.5102  0.5445  2.7646
  576MPD2    H1 8545   4.289   0.735  12.926  1.7687  2.7775  0.7199
  576MPD2    H2 8546   4.489   0.464  12.679 -0.4581 -0.3138 -0.2427
  576MPD2    H3 8547   4.316   0.512  12.819  2.1388 -1.4287 -0.5583
  576MPD2     N 8548   4.455   0.946  12.877  0.3250 -0.4682 -0.3341
  576MPD2    H5 8549   4.510   1.017  12.831  1.3403 -0.8028  0.3643
  576MPD2    N1 8550   4.683   0.622  12.590 -0.7675  0.5097  0.0837
  576MPD2    H7 8551   0.017   0.690  12.542 -0.7925  0.5431  0.1005
  577TMC3    C1 8552   0.105   0.476  12.475 -0.2279 -0.3481 -0.0492
  577TMC3    C2 8553   0.201   0.383  12.510  0.1602  0.0065 -0.2472
  577TMC3    C3 8554   0.274   0.322  12.413 -0.5987 -0.0921 -0.5922
  577TMC3    C4 8555   0.065   0.501  12.342 -0.2107 -0.6991  0.0873
  577TMC3    C5 8556   0.137   0.431  12.249 -0.4601  0.0615  0.3413
  577TMC3    C6 8557   0.240   0.344  12.278  0.4406 -0.1457  0.3252
  577TMC3     C 8558   4.720   0.493  12.573 -0.7391 -0.1391  1.2948
  577TMC3     O 8559   4.718   0.405  12.654  0.9107 -0.3247  0.0466
  577TMC3     H 8560   0.218   0.364  12.615  1.9134 -0.8186 -0.6700
  577TMC3    H1 8561   4.703   0.563  12.324  0.5537  0.3751  0.0919
  577TMC3    H2 8562   0.283   0.293  12.192 -1.1992  0.7586 -1.0473
  577TMC3    C7 8563   0.075   0.414  12.116  0.5653  0.5614 -0.0897
  577TMC3    C8 8564   0.365   0.214  12.452 -0.7780  0.8208 -0.5016
  577TMC3    O1 8565   0.088   0.309  12.053 -0.2235  0.0083  0.0483
  577TMC3    O2 8566   0.343   0.146  12.550 -0.6382 -0.1995 -0.9975
  578MPD2     C 8567   2.241   0.394   0.594  0.1445 -0.7251  0.6051
  578MPD2    C1 8568   2.376   0.380   0.570 -0.2401 -0.5601 -0.6145
  578MPD2    C2 8569   2.447   0.297   0.653  0.4698 -0.0771 -0.5523
  578MPD2    C3 8570   2.384   0.224   0.745  0.0099 -0.1194 -0.8551
  578MPD2    C4 8571   2.250   0.252   0.776  0.6675  0.1303  0.2846
  578MPD2    C5 8572   2.176   0.332   0.698 -0.2748 -0.2872  0.3388
  578MPD2     H 8573   2.554   0.295   0.636  0.7021 -1.0181  1.0333
  578MPD2    H1 8574   2.198   0.206   0.860 -0.6685 -1.4801 -1.4222
  578MPD2    H2 8575   2.178   0.460   0.535  1.3993 -1.0856 -1.1304
  578MPD2    H3 8576   2.070   0.348   0.716 -0.0377  2.1525 -0.4619
  578MPD2     N 8577   2.458   0.137   0.826  0.1988 -0.2164  0.2751
  578MPD2    H5 8578   2.559   0.138   0.815 -0.0222 -0.7312 -1.6458
  578MPD2    N1 8579   2.435   0.469   0.478 -0.1209 -0.2329  0.1038
  578MPD2    H7 8580   2.371   0.535   0.435  0.8446  0.6470  0.0225
  579TMC3    C1 8581   2.518   4.711   0.986 -0.0993  0.1717 -0.1481
  579TMC3    C2 8582   2.643   0.044   0.998  0.4581 -0.0819 -0.0668
  579TMC3    C3 8583   2.756   4.687   1.005 -0.3096  0.2857 -0.0570
  579TMC3    C4 8584   2.508   4.570   0.972  0.3638 -0.2894  0.2580
  579TMC3    C5 8585   2.625   4.504   0.982 -0.7312  0.3772 -0.0013
  579TMC3    C6 8586   2.748   4.557   0.996 -0.2272  0.1425 -0.3654
  579TMC3     C 8587   2.408   0.059   0.924  0.5551  0.5304 -0.7499
  579TMC3     O 8588   2.296   0.023   0.950  0.0206 -0.7484 -0.2356
  579TMC3     H 8589   2.655   0.152   1.004  2.0628 -0.3189  0.7229
  579TMC3    H1 8590   2.411   4.528   0.946 -0.5390  1.6085  0.5060
  579TMC3    H2 8591   2.832   4.489   1.006 -0.2170  0.2471  0.2140
  579TMC3    C7 8592   2.619   4.362   1.014 -0.0806  0.0064 -0.9035
  579TMC3    C8 8593   2.867   0.032   1.060  0.2046 -0.6979 -0.1762
  579TMC3    O1 8594   2.707   4.314   1.086 -0.0073 -0.2797 -0.1644
  579TMC3    O2 8595   2.836   0.137   1.112 -0.2780  0.5728  0.0326
  580TMC3    C1 8596   2.682   0.163  12.178 -0.5418 -0.8870  1.0770
  580TMC3    C2 8597   2.809   0.223  12.172  0.3718 -0.4879  0.4639
  580TMC3    C3 8598   2.907   0.184  12.269  0.1215  0.8950 -0.2813
  580TMC3    C4 8599   2.655   0.062  12.264  0.6256 -0.4594  0.3953
  580TMC3    C5 8600   2.760   0.020  12.348  0.5853 -0.5713  0.2478
  580TMC3    C6 8601   2.878   0.081  12.356 -0.6215 -0.2119  0.7936
  580TMC3     C 8602   2.576   0.199  12.089  0.0939 -0.2530  0.2154
  580TMC3     O 8603   2.460   0.157  12.098  0.1926  0.4237 -0.2907
  580TMC3     H 8604   2.828   0.314  12.115 -3.4586  0.2052  0.3474
  580TMC3    H1 8605   2.563   0.004  12.263 -1.1215  2.3249 -0.7793
  580TMC3    H2 8606   2.947   0.039  12.429  1.1287 -1.4392 -1.5689
  580TMC3    C7 8607   2.759   4.611  12.403 -1.0370 -0.2734  0.5453
  580TMC3    C8 8608   3.042   0.223  12.246 -0.3892 -0.0354 -0.0717
  580TMC3    O1 8609   2.823   4.590  12.505 -0.3911  0.1854 -0.3033
  580TMC3    O2 8610   3.053   0.341  12.214 -0.5976 -0.1669  0.3650
  581MPD2     C 8611   0.517   4.006  14.794  0.0242  0.2383 -0.1890
  581MPD2    C1 8612   0.407   3.940  14.843  0.5655 -0.9596  0.3881
  581MPD2    C2 8613   0.284   4.001  14.834 -0.2088  0.4147 -0.3214
  581MPD2    C3 8614   0.269   4.129  14.776 -0.1827  0.4445 -0.9125
  581MPD2    C4 8615   0.381   4.188  14.727  0.8482 -0.2001  0.0783
  581MPD2    C5 8616   0.503   4.125  14.737 -0.0995  0.3451 -0.6360
  581MPD2     H 8617   0.198   3.964  14.889  0.6801 -1.3989 -0.1538
  581MPD2    H1 8618   0.392   4.286  14.680  0.5653  0.1465  0.7378
  581MPD2    H2 8619   0.612   3.953  14.794  1.0360  2.0642 -1.1669
  581MPD2    H3 8620   0.591   4.164  14.688  0.1956 -0.0259 -0.4066
  581MPD2     N 8621   0.141   4.175  14.750  0.4311  0.2024 -0.4345
  581MPD2    H5 8622   0.060   4.115  14.764  1.4069 -1.3679 -1.5593
  581MPD2    N1 8623   0.428   3.816  14.901  0.4022 -0.4498  0.0687
  581MPD2    H7 8624   0.525   3.786  14.913  1.7834  4.9620  2.1982
  582TMC3    C1 8625   0.387   3.604  15.012 -0.5547  0.2617  0.1247
  582TMC3    C2 8626   0.481   3.606  15.114 -0.4455 -0.3837  0.3127
  582TMC3    C3 8627   0.487   3.500  15.193  1.4680 -0.2490 -0.2607
  582TMC3    C4 8628   0.311   3.490  14.986  0.1814 -0.0412 -0.0447
  582TMC3    C5 8629   0.314   3.384  15.062 -0.0257  0.0491  0.1225
  582TMC3    C6 8630   0.407   3.391  15.161 -0.3801 -0.5168  0.0954
  582TMC3     C 8631   0.335   3.731  14.962  0.1177 -0.0824  1.0534
  582TMC3     O 8632   0.213   3.752  14.966 -0.1341 -0.5616 -0.3971
  582TMC3     H 8633   0.513   3.699  15.160  1.5496 -0.5402 -0.7733
  582TMC3    H1 8634   0.237   3.498  14.908 -1.2386  2.8930  1.5905
  582TMC3    H2 8635   0.418   3.302  15.221  0.2827 -1.5918 -1.6280
  582TMC3    C7 8636   0.190   3.339  15.110 -0.1826 -0.0427 -0.5167
  582TMC3    C8 8637   0.464   3.535  15.327 -0.1926  0.1981  0.6316
  582TMC3    O1 8638   0.191   3.246  15.190  0.1141 -0.3053 -0.0404
  582TMC3    O2 8639   0.547   3.604  15.381 -0.4566 -0.6307 -0.1325
  583MPD2     C 8640   0.309   0.966  16.612 -0.6141 -0.8138 -0.4939
  583MPD2    C1 8641   0.356   1.099  16.602  0.0900 -0.4402  0.2170
  583MPD2    C2 8642   0.323   1.183  16.707 -0.2896  0.0192  0.8143
  583MPD2    C3 8643   0.252   1.137  16.825 -0.2414 -0.3012  0.3669
  583MPD2    C4 8644   0.216   1.004  16.836  0.5669  0.1083 -0.5949
  583MPD2    C5 8645   0.245   0.926  16.737 -0.0484 -0.6559  0.6680
  583MPD2     H 8646   0.350   1.288  16.694  1.0152 -0.5748 -1.3176
  583MPD2    H1 8647   0.183   0.969  16.934  1.6739  1.3490  0.2123
  583MPD2    H2 8648   0.334   0.892  16.536  0.1546  0.6951 -1.7031
  583MPD2    H3 8649   0.209   0.824  16.737 -3.5940  0.6090  0.9613
  583MPD2     N 8650   0.225   1.237  16.917 -0.5671  0.1720 -0.3246
  583MPD2    H5 8651   0.267   1.328  16.905 -2.2675  0.8921 -0.9065
  583MPD2    N1 8652   0.433   1.146  16.489 -0.5137  0.1833  0.0331
  583MPD2    H7 8653   0.443   1.247  16.485 -0.2450  0.0468 -2.7760
  584TMC3    C1 8654   0.127   1.330  17.113 -0.3572 -0.3387 -0.7056
  584TMC3    C2 8655   0.154   1.455  17.061 -0.0186 -0.2833  0.1204
  584TMC3    C3 8656   0.158   1.553  17.155  0.3704 -0.2107 -0.3354
  584TMC3    C4 8657   0.123   1.299  17.246 -0.2180 -0.3925  0.0989
  584TMC3    C5 8658   0.153   1.395  17.335 -0.0884  0.6325  0.6049
  584TMC3    C6 8659   0.162   1.525  17.290 -0.6168 -0.0590  0.1082
  584TMC3     C 8660   0.143   1.217  17.029  0.1734 -0.1457 -0.3371
  584TMC3     O 8661   0.064   1.126  17.059  0.5406 -0.3135 -0.1530
  584TMC3     H 8662   0.150   1.477  16.954  1.1872 -0.0834  0.1071
  584TMC3    H1 8663   0.118   1.196  17.280  2.7979 -0.9767 -1.2789
  584TMC3    H2 8664   0.174   1.608  17.359  1.6198  1.0524 -1.5819
  584TMC3    C7 8665   0.168   1.366  17.476 -0.8469  0.3202  0.6844
  584TMC3    C8 8666   0.210   1.673  17.107 -0.6076 -0.3972 -0.9883
  584TMC3    O1 8667   0.118   1.260  17.517 -0.5929 -0.4735  0.1093
  584TMC3    O2 8668   0.189   1.699  16.993 -0.0574  0.0752 -0.6460
  585MPD2     C 8669   0.267   4.620   0.527  0.9459  0.3557  0.4658
  585MPD2    C1 8670   0.139   4.600   0.479 -0.1649 -0.3067  0.2868
  585MPD2    C2 8671   0.099   4.477   0.452 -0.1826  0.1407  0.1073
  585MPD2    C3 8672   0.181   4.368   0.480 -0.1413  0.6013 -0.2574
  585MPD2    C4 8673   0.307   4.387   0.540 -0.7822  0.3852 -0.3570
  585MPD2    C5 8674   0.346   4.513   0.563 -0.0357  0.1701 -0.4084
  585MPD2     H 8675   4.723   4.456   0.416 -0.6154 -1.1705  2.0956
  585MPD2    H1 8676   0.386   4.314   0.548  0.1840  1.5394  0.6027
  585MPD2    H2 8677   0.306   4.718   0.552  0.2141  0.7696 -0.0076
  585MPD2    H3 8678   0.448   4.531   0.593 -0.2494 -0.4705  0.6763
  585MPD2     N 8679   0.133   4.234   0.446 -0.0130 -0.2429 -0.1101
  585MPD2    H5 8680   0.051   4.235   0.385 -1.6783  0.7473  2.1800
  585MPD2    N1 8681   0.055   4.712   0.465 -0.5834  0.0696  0.1784
  585MPD2    H7 8682   0.101   0.078   0.470  0.2288 -0.3602  0.5370
  586TMC3    C1 8683   0.130   4.000   0.434 -0.3636  0.8105  0.1300
  586TMC3    C2 8684   0.101   3.914   0.532  0.5725 -0.4533  0.6819
  586TMC3    C3 8685   0.000   3.820   0.506  0.1737  0.2813  0.4970
  586TMC3    C4 8686   0.058   4.001   0.317 -0.0854 -0.1546  0.1610
  586TMC3    C5 8687   4.688   3.907   0.291  0.3287 -0.1558 -0.4780
  586TMC3    C6 8688   4.659   3.811   0.385 -0.5399  0.1939 -0.5316
  586TMC3     C 8689   0.201   4.117   0.472  0.3607  0.7462  0.1782
  586TMC3     O 8690   0.291   4.089   0.554  0.0937 -0.0203 -0.0948
  586TMC3     H 8691   0.158   3.893   0.623 -0.4941  0.6707  1.5996
  586TMC3    H1 8692   0.075   4.087   0.253 -1.6317  1.0174  1.3273
  586TMC3    H2 8693   4.573   3.748   0.365 -0.1251  0.1241 -2.1242
  586TMC3    C7 8694   4.614   3.904   0.170 -0.3881  0.2800  0.3586
  586TMC3    C8 8695   4.681   3.718   0.600 -0.3166 -0.4605  0.0136
  586TMC3    O1 8696   4.513   3.835   0.164 -0.1859 -0.0891  0.7218
  586TMC3    O2 8697   4.573   3.667   0.578  0.4175 -0.2776 -0.2648
  587TMC3    C1 8698   1.497   2.939  17.225 -0.2183  0.1748  0.0678
  587TMC3    C2 8699   1.547   3.039  17.143 -0.8535 -0.4795  0.4859
  587TMC3    C3 8700   1.652   3.003  17.059 -0.7292  0.7088 -0.1499
  587TMC3    C4 8701   1.560   2.818  17.235  0.2504 -0.1802  1.1248
  587TMC3    C5 8702   1.663   2.784  17.154 -0.0149  0.5546  0.2158
  587TMC3    C6 8703   1.716   2.880  17.069  0.9688 -0.0529  0.2060
  587TMC3     C 8704   1.361   2.952  17.275  0.2389 -0.3527  0.2167
  587TMC3     O 8705   1.327   2.875  17.370 -0.0777 -0.0942  0.4126
  587TMC3     H 8706   1.497   3.135  17.141 -0.4325 -0.2539  0.8400
  587TMC3    H1 8707   1.518   2.747  17.305  2.8964 -3.2077 -0.4135
  587TMC3    H2 8708   1.808   2.870  17.012  0.9950  0.2361  0.1973
  587TMC3    C7 8709   1.747   2.669  17.195 -0.3435  0.3270 -0.2866
  587TMC3    C8 8710   1.710   3.105  16.976  0.4269  0.0346 -0.2724
  587TMC3    O1 8711   1.725   2.612  17.301  0.0758 -0.0883 -0.0722
  587TMC3    O2 8712   1.826   3.099  16.950  0.0724 -0.4111 -0.1234
  588TMC3    C1 8713   0.397   1.241  10.015  0.0163 -0.0436  0.4570
  588TMC3    C2 8714   0.394   1.112   9.978 -0.1663  0.5244  0.0101
  588TMC3    C3 8715   0.507   1.056   9.986 -0.5323 -0.2003 -0.3541
  588TMC3    C4 8716   0.509   1.310  10.052 -1.0667  0.6765  0.3317
  588TMC3    C5 8717   0.627   1.249  10.044 -0.1550  0.3023  0.5563
  588TMC3    C6 8718   0.629   1.121  10.005  0.4773 -0.6197  0.0449
  588TMC3     C 8719   0.278   1.327   9.995 -0.3208  0.2004 -0.1781
  588TMC3     O 8720   0.228   1.325   9.886  0.4059  0.1612 -0.3413
  588TMC3     H 8721   0.301   1.057   9.964 -0.0035 -0.1384  1.4637
  588TMC3    H1 8722   0.502   1.418  10.056  0.2197  0.7109  1.6792
  588TMC3    H2 8723   0.718   1.059  10.012  1.2538  0.4371 -0.4055
  588TMC3    C7 8724   0.746   1.331  10.042 -0.0658 -0.2905  0.6325
  588TMC3    C8 8725   0.511   0.913   9.953 -0.0971 -0.2354  0.7480
  588TMC3    O1 8726   0.837   1.295   9.972 -0.0339  0.1329  0.4161
  588TMC3    O2 8727   0.431   0.884   9.861  0.3897  0.4493 -0.1166
  589TMC3    C1 8728   2.992   3.411   0.972  0.0222 -0.0411  0.5770
  589TMC3    C2 8729   3.030   3.460   1.092  0.2004 -0.4482  0.3528
  589TMC3    C3 8730   3.156   3.427   1.129 -0.8485 -0.3219  0.2676
  589TMC3    C4 8731   3.062   3.312   0.900 -0.6230 -0.3090  0.5696
  589TMC3    C5 8732   3.191   3.284   0.940  0.1305  0.3801  0.6901
  589TMC3    C6 8733   3.236   3.345   1.057  0.2271 -0.3778  0.2140
  589TMC3     C 8734   2.847   3.427   0.921 -0.1371 -0.4514  0.2868
  589TMC3     O 8735   2.812   3.373   0.815 -0.1280  0.0525 -0.3952
  589TMC3     H 8736   2.978   3.548   1.130  2.2529  0.6957  0.5241
  589TMC3    H1 8737   3.013   3.257   0.820  0.9349  0.7625 -1.1012
  589TMC3    H2 8738   3.338   3.322   1.088  0.9527  1.1366 -1.0690
  589TMC3    C7 8739   3.272   3.178   0.887 -0.1780  0.0951 -0.3466
  589TMC3    C8 8740   3.197   3.515   1.239 -0.5592 -0.0097  1.2249
  589TMC3    O1 8741   3.387   3.163   0.924 -0.1748 -0.4192 -0.0849
  589TMC3    O2 8742   3.109   3.577   1.294  0.2794 -0.4509 -0.8047
  590MPD2     C 8743   3.113   1.571  16.809 -0.4050 -0.4581 -0.0305
  590MPD2    C1 8744   3.051   1.609  16.690 -0.2802  0.8789 -0.0167
  590MPD2    C2 8745   3.128   1.658  16.584 -0.4044  0.4756 -0.2542
  590MPD2    C3 8746   3.269   1.658  16.599  0.2881  0.5354  0.2340
  590MPD2    C4 8747   3.325   1.626  16.715 -0.0620  1.1850  0.2142
  590MPD2    C5 8748   3.247   1.582  16.823  0.0309  0.5377  0.2887
  590MPD2     H 8749   3.080   1.697  16.495  0.5746  0.4836 -0.7824
  590MPD2    H1 8750   3.432   1.629  16.733  0.1147 -0.3640 -0.6278
  590MPD2    H2 8751   3.057   1.536  16.895  1.0722  1.1802  1.6098
  590MPD2    H3 8752   3.293   1.560  16.919 -0.5966 -0.8393  0.2791
  590MPD2     N 8753   3.346   1.709  16.493 -0.1279 -0.5840 -0.2448
  590MPD2    H5 8754   3.293   1.765  16.427 -2.4455 -2.6029 -0.1162
  590MPD2    N1 8755   2.907   1.606  16.681  0.2788 -0.0545  0.0872
  590MPD2    H7 8756   2.858   1.570  16.762 -2.0027 -1.9422 -2.1170
  591TMC3    C1 8757   3.526   1.794  16.365 -0.2146  0.6078  0.4603
  591TMC3    C2 8758   3.609   1.746  16.269 -0.2039  0.2131 -0.0247
  591TMC3    C3 8759   3.606   1.819  16.148  0.0221 -0.5219 -0.5868
  591TMC3    C4 8760   3.452   1.911  16.349 -0.6871  1.2802  0.3844
  591TMC3    C5 8761   3.467   1.993  16.237  0.6508 -0.6561  0.2650
  591TMC3    C6 8762   3.541   1.935  16.137 -0.6433  0.3136 -0.4111
  591TMC3     C 8763   3.486   1.708  16.475 -0.5497 -0.4548  0.6118
  591TMC3     O 8764   3.557   1.616  16.511  0.3883 -0.2085  0.2691
  591TMC3     H 8765   3.669   1.657  16.280  0.2329  0.7943  2.3237
  591TMC3    H1 8766   3.395   1.960  16.427  0.0216  0.9759  1.0911
  591TMC3    H2 8767   3.525   1.984  16.042  0.8522  0.2378 -0.6965
  591TMC3    C7 8768   3.361   2.083  16.214  0.1290 -0.2043  0.9114
  591TMC3    C8 8769   3.693   1.777  16.039  0.0985  1.0475  0.2673
  591TMC3    O1 8770   3.259   2.068  16.279 -0.2782  0.0506  0.1585
  591TMC3    O2 8771   3.720   1.655  16.026 -0.1797  0.4931 -0.1722
  592MPD2     C 8772   3.938   4.155  11.237 -0.4560  0.1571 -0.3567
  592MPD2    C1 8773   3.924   4.176  11.370 -0.1715  0.4771  0.2666
  592MPD2    C2 8774   3.823   4.115  11.434  0.3776 -0.9979 -1.0039
  592MPD2    C3 8775   3.739   4.020  11.374 -0.0600 -0.6597  0.4853
  592MPD2    C4 8776   3.743   4.012  11.233  0.0887  0.1361 -0.6805
  592MPD2    C5 8777   3.844   4.075  11.171 -0.8722 -0.1214  0.1131
  592MPD2     H 8778   3.818   4.122  11.542 -0.4178  2.8230 -1.3015
  592MPD2    H1 8779   3.669   3.957  11.175  1.6546 -4.3481  1.5914
  592MPD2    H2 8780   4.015   4.214  11.188 -1.0450  1.9818  0.8900
  592MPD2    H3 8781   3.855   4.077  11.063 -0.1207 -2.9553  0.1376
  592MPD2     N 8782   3.634   3.965  11.451 -0.0640  0.5422 -0.8178
  592MPD2    H5 8783   3.646   3.977  11.551 -1.6570 -1.5451 -0.3896
  592MPD2    N1 8784   4.011   4.264  11.432 -0.2475  0.1180 -0.2338
  592MPD2    H7 8785   4.076   4.312  11.370  0.3485 -0.5770 -0.1535
  593TMC3    C1 8786   4.125   4.388  11.577  0.0591 -0.3812  0.0752
  593TMC3    C2 8787   4.109   4.465  11.696 -0.3319  0.6568 -0.0104
  593TMC3    C3 8788   4.207   4.563  11.723 -0.4264 -0.4940  0.6571
  593TMC3    C4 8789   4.238   4.405  11.499 -0.8429 -0.2111 -0.1281
  593TMC3    C5 8790   4.321   4.508  11.522  0.1232  0.3622  0.0633
  593TMC3    C6 8791   4.318   4.577  11.644  0.1821  0.1861 -0.1076
  593TMC3     C 8792   4.028   4.288  11.565  0.3492  0.3146 -0.4798
  593TMC3     O 8793   3.964   4.246  11.664 -0.1885 -0.6056 -0.1158
  593TMC3     H 8794   4.018   4.454  11.753 -1.3549 -0.3812 -1.8485
  593TMC3    H1 8795   4.251   4.338  11.414 -1.6807  1.9673 -1.9649
  593TMC3    H2 8796   4.390   4.657  11.654 -0.4822  0.5067  2.0526
  593TMC3    C7 8797   4.432   4.537  11.432 -0.4518  0.1290 -0.2895
  593TMC3    C8 8798   4.195   4.666  11.831 -0.4627  0.5802  0.4186
  593TMC3    O1 8799   4.516   4.619  11.471 -0.0894 -0.2798 -0.2370
  593TMC3    O2 8800   4.084   4.702  11.858  0.1816  0.8089 -0.1191
  594MPD2     C 8801   1.943   2.895  14.120 -0.6426  0.6467 -0.1084
  594MPD2    C1 8802   1.971   2.826  14.236  0.6946  0.7990 -0.1010
  594MPD2    C2 8803   2.084   2.867  14.297  0.3632  0.2606 -0.0825
  594MPD2    C3 8804   2.176   2.955  14.245 -0.0215  0.8352 -0.4532
  594MPD2    C4 8805   2.156   2.998  14.114  0.1128 -0.4443 -0.1400
  594MPD2    C5 8806   2.038   2.961  14.049  0.0648  0.2153 -0.0751
  594MPD2     H 8807   2.098   2.834  14.400 -0.6670  1.3465  0.3997
  594MPD2    H1 8808   2.227   3.059  14.059  0.4345 -0.4150  0.3069
  594MPD2    H2 8809   1.859   2.869  14.057 -0.9303  2.0655 -0.2950
  594MPD2    H3 8810   2.017   2.986  13.946 -1.0684 -0.7634 -0.0735
  594MPD2     N 8811   2.295   2.977  14.317  0.6317 -0.6687  0.7701
  594MPD2    H5 8812   2.308   2.929  14.405 -0.2470  1.4353  2.0685
  594MPD2    N1 8813   1.877   2.733  14.280  0.5126  0.5632  0.0729
  594MPD2    H7 8814   1.787   2.728  14.235  0.7204 -1.5221 -0.1163
  595TMC3    C1 8815   2.578   3.282  14.509 -0.5993  0.0518  0.5666
  595TMC3    C2 8816   2.551   3.200  14.401  0.2812  0.9585 -0.3754
  595TMC3    C3 8817   2.455   3.110  14.413  0.6032  0.6011  0.1461
  595TMC3    C4 8818   2.524   3.260  14.637 -0.4572  0.3720  0.4979
  595TMC3    C5 8819   2.433   3.163  14.643 -0.1195 -0.5775 -0.7677
  595TMC3    C6 8820   2.399   3.082  14.534 -0.1836 -0.4364 -0.2418
  595TMC3     C 8821   2.689   3.376  14.501  0.0891  0.1159 -0.1705
  595TMC3     O 8822   2.720   3.445  14.600 -1.0871  0.3600 -0.2989
  595TMC3     H 8823   2.592   3.224  14.304  1.8743  0.3793  0.1405
  595TMC3    H1 8824   2.538   3.335  14.714  0.2399 -2.4535  3.1347
  595TMC3    H2 8825   2.315   3.014  14.543  0.1828 -0.6376  1.5709
  595TMC3    C7 8826   2.335   3.164  14.753  0.0236 -0.8003 -0.1542
  595TMC3    C8 8827   2.391   3.070  14.291  0.8444 -0.4246 -0.6528
  595TMC3    O1 8828   2.215   3.148  14.722 -0.0275  0.5414  0.1832
  595TMC3    O2 8829   2.416   3.138  14.193 -0.1665  0.2455 -0.3569
  596MPD2     C 8830   1.137   0.704  16.642  0.0528 -0.4415  0.4535
  596MPD2    C1 8831   1.185   0.829  16.616 -0.2808 -0.3590  0.0813
  596MPD2    C2 8832   1.263   0.856  16.506  0.3692 -0.3396 -0.2684
  596MPD2    C3 8833   1.282   0.767  16.410 -0.5257  0.4538  0.1765
  596MPD2    C4 8834   1.228   0.641  16.428  0.2339  0.3649 -0.1215
  596MPD2    C5 8835   1.165   0.609  16.553  0.1162 -0.3369 -0.2143
  596MPD2     H 8836   1.307   0.955  16.506 -0.8640  0.2209  0.8387
  596MPD2    H1 8837   1.232   0.562  16.354 -1.3745  1.0380 -0.9450
  596MPD2    H2 8838   1.087   0.672  16.733 -1.2490  1.0608  0.2751
  596MPD2    H3 8839   1.128   0.508  16.565  1.2455 -0.7678 -0.2857
  596MPD2     N 8840   1.338   0.801  16.282  0.0940  0.3337  0.0061
  596MPD2    H5 8841   1.334   0.722  16.217  0.1552  0.0120  0.3913
  596MPD2    N1 8842   1.168   0.933  16.705  0.6914  0.0990  0.9627
  596MPD2    H7 8843   1.215   1.020  16.682 -1.1972  1.6611  3.0505
  597TMC3    C1 8844   1.107   1.065  16.886 -0.1285 -0.1236  0.7162
  597TMC3    C2 8845   1.208   1.139  16.843 -0.2718 -0.1304 -0.3534
  597TMC3    C3 8846   1.193   1.274  16.860 -0.5898  0.3174  0.1596
  597TMC3    C4 8847   0.992   1.115  16.943  0.6960 -0.4523 -0.0592
  597TMC3    C5 8848   0.979   1.249  16.954  0.0263  0.1101 -0.2124
  597TMC3    C6 8849   1.080   1.326  16.915  0.3112  0.3895  0.1161
  597TMC3     C 8850   1.113   0.935  16.830 -0.4792  0.4155 -0.9131
  597TMC3     O 8851   1.054   0.850  16.893 -0.5219  0.4080 -0.4223
  597TMC3     H 8852   1.300   1.097  16.802  0.6318  1.3724  0.1206
  597TMC3    H1 8853   0.923   1.043  16.985  1.6914 -0.1541  2.0566
  597TMC3    H2 8854   1.081   1.423  16.964 -3.0032  0.4846 -0.0118
  597TMC3    C7 8855   0.880   1.305  17.040 -0.8542 -0.3321 -0.1103
  597TMC3    C8 8856   1.285   1.359  16.791 -1.1775  0.1012 -0.1323
  597TMC3    O1 8857   0.809   1.228  17.106 -0.6403  0.3034  0.3253
  597TMC3    O2 8858   1.357   1.301  16.712 -0.6296  0.4831  0.1625
  598TMC3    C1 8859   4.253   2.743  15.260  0.5427 -0.3158 -0.2147
  598TMC3    C2 8860   4.247   2.607  15.277 -0.5495 -0.1220  0.2638
  598TMC3    C3 8861   4.229   2.528  15.168  0.4188 -0.6205  0.1688
  598TMC3    C4 8862   4.250   2.796  15.138  0.0682  0.2008  0.3348
  598TMC3    C5 8863   4.227   2.714  15.034 -0.5422 -0.4618 -0.6892
  598TMC3    C6 8864   4.213   2.581  15.042  0.2059 -0.4989 -0.0570
  598TMC3     C 8865   4.231   2.823  15.386  0.4662  0.4203 -0.0401
  598TMC3     O 8866   4.268   2.770  15.494  0.1835  0.2166  0.2655
  598TMC3     H 8867   4.237   2.563  15.376 -0.0586 -2.2019 -0.5991
  598TMC3    H1 8868   4.261   2.904  15.129 -2.3275  0.2508 -1.8645
  598TMC3    H2 8869   4.194   2.518  14.956 -1.1093  0.2902 -0.3355
  598TMC3    C7 8870   4.229   2.769  14.897  0.0493 -0.6212 -0.7739
  598TMC3    C8 8871   4.163   2.405  15.209 -0.0543  0.5792  0.0373
  598TMC3    O1 8872   4.202   2.687  14.809  0.3635  0.0181 -0.1699
  598TMC3    O2 8873   4.197   2.345  15.310 -0.8832  0.6363 -0.0740
  599MPD2     C 8874   4.618   0.046  15.881 -0.1770  0.2252 -0.0973
  599MPD2    C1 8875   4.535   4.664  15.911  0.4524  0.0218  0.7840
  599MPD2    C2 8876   4.420   4.692  15.988  0.6014  1.1074  0.1004
  599MPD2    C3 8877   4.398   0.096  16.036  0.0356  0.3121 -0.0658
  599MPD2    C4 8878   4.491   0.191  16.013 -0.7284 -0.3115 -0.3016
  599MPD2    C5 8879   4.602   0.168  15.936 -0.4727 -0.1654  0.4964
  599MPD2     H 8880   4.363   4.608  16.026  2.0934  1.4769  3.1420
  599MPD2    H1 8881   4.478   0.291  16.052  0.8603  0.6133 -2.1469
  599MPD2    H2 8882   4.708   0.025  15.823  0.5101  4.0661 -0.4470
  599MPD2    H3 8883   4.667   0.253  15.916 -2.2770  0.5771 -2.2304
  599MPD2     N 8884   4.288   0.130  16.113  0.1839 -0.2386 -0.2421
  599MPD2    H5 8885   4.279   0.222  16.155  0.0829  0.3830 -1.6322
  599MPD2    N1 8886   4.595   4.536  15.891  0.3555 -0.2057  0.5622
  599MPD2    H7 8887   4.696   4.526  15.886  0.4758  0.6114  1.3507
  600TMC3    C1 8888   4.075   0.102  16.222  0.2706  0.6365 -0.3871
  600TMC3    C2 8889   3.977   0.015  16.272 -0.3853  0.0155 -0.9091
  600TMC3    C3 8890   3.885   0.064  16.356 -0.0475  0.0074 -0.5664
  600TMC3    C4 8891   4.066   0.244  16.241  0.2038  0.0177  0.3469
  600TMC3    C5 8892   3.963   0.288  16.318  0.9954 -0.4571 -0.4828
  600TMC3    C6 8893   3.873   0.206  16.379  0.3027 -0.1022  0.0246
  600TMC3     C 8894   4.188   0.046  16.147 -0.1782  0.1993 -0.4680
  600TMC3     O 8895   4.172   4.656  16.105  0.2519 -0.0773 -0.5788
  600TMC3     H 8896   3.988   4.634  16.250  0.3216 -0.2481  0.7102
  600TMC3    H1 8897   4.146   0.301  16.194  1.4283 -1.3174  0.8025
  600TMC3    H2 8898   3.819   0.241  16.466 -0.4649 -0.2852 -0.3755
  600TMC3    C7 8899   3.977   0.419  16.386  0.0852 -0.7446  0.4994
  600TMC3    C8 8900   3.803   4.702  16.432  0.4510  0.1203 -0.3009
  600TMC3    O1 8901   3.888   0.440  16.466 -0.0138  1.0863 -0.0776
  600TMC3    O2 8902   3.845   4.593  16.459 -0.7153 -0.2277  0.3630
  601MPD2     C 8903   0.661   2.300   0.641  0.1448  0.6605 -0.4996
  601MPD2    C1 8904   0.722   2.310   0.519 -0.1911  0.1854  0.0387
  601MPD2    C2 8905   0.835   2.232   0.483 -0.1707  0.1790 -0.1701
  601MPD2    C3 8906   0.881   2.132   0.564  0.0676 -0.0613 -0.2203
  601MPD2    C4 8907   0.816   2.114   0.682  0.5896 -0.4316  0.0925
  601MPD2    C5 8908   0.713   2.205   0.722 -0.0869  0.1334  0.0859
  601MPD2     H 8909   0.884   2.252   0.389 -0.1046  0.0826 -0.1568
  601MPD2    H1 8910   0.854   2.029   0.738 -1.0098 -1.1148  0.1709
  601MPD2    H2 8911   0.583   2.360   0.687 -0.7590 -1.2015  0.4321
  601MPD2    H3 8912   0.668   2.191   0.820  0.6020  0.3239  0.4294
  601MPD2     N 8913   0.986   2.040   0.544  0.4089 -0.9707 -0.1437
  601MPD2    H5 8914   1.004   1.978   0.623  1.9859  0.0184  0.2783
  601MPD2    N1 8915   0.686   2.411   0.426  0.7473 -0.7800  0.2733
  601MPD2    H7 8916   0.735   2.412   0.337 -3.5958 -2.3538 -2.1293
  602TMC3    C1 8917   0.570   2.594   0.339 -0.4661  0.7875 -0.3817
  602TMC3    C2 8918   0.691   2.655   0.293 -0.5498 -0.2183 -0.6968
  602TMC3    C3 8919   0.684   2.746   0.202  0.6622 -0.0876 -0.3002
  602TMC3    C4 8920   0.448   2.637   0.282 -0.0398 -0.4475 -0.2441
  602TMC3    C5 8921   0.454   2.732   0.186  0.1073  1.0252  0.6178
  602TMC3    C6 8922   0.571   2.796   0.144  0.2167  0.3838  0.3738
  602TMC3     C 8923   0.572   2.489   0.440  0.3234  0.2306  0.1668
  602TMC3     O 8924   0.479   2.478   0.522 -0.1642 -0.0182  0.0287
  602TMC3     H 8925   0.783   2.622   0.339  0.3247  0.1035 -2.2296
  602TMC3    H1 8926   0.348   2.602   0.307 -0.4171  0.9401  0.1701
  602TMC3    H2 8927   0.573   2.861   0.057  0.0361  1.9546  1.5466
  602TMC3    C7 8928   0.325   2.779   0.125  0.1215 -0.9971  0.2718
  602TMC3    C8 8929   0.813   2.805   0.165 -0.6325 -0.2752  0.5273
  602TMC3    O1 8930   0.235   2.700   0.107 -0.0854  0.1357 -0.4770
  602TMC3    O2 8931   0.917   2.746   0.164 -0.5055  0.4383 -0.0350
  603TMC3    C1 8932   4.703   3.595  11.121 -0.0602 -0.6403 -0.1419
  603TMC3    C2 8933   4.695   3.562  11.253  0.2370  0.0173  0.4540
  603TMC3    C3 8934   0.092   3.575  11.316  0.9073  0.1287  0.1312
  603TMC3    C4 8935   0.094   3.630  11.058  0.3685 -0.3520 -0.5284
  603TMC3    C5 8936   0.210   3.631  11.125  0.0149  0.5019  0.2573
  603TMC3    C6 8937   0.205   3.626  11.264 -0.0444  0.4132 -0.6450
  603TMC3     C 8938   4.591   3.580  11.035  0.2212  0.4378 -0.1909
  603TMC3     O 8939   4.614   3.523  10.930  0.0869  0.1035 -0.1930
  603TMC3     H 8940   4.612   3.510  11.298  0.4196 -0.3609  0.3547
  603TMC3    H1 8941   0.088   3.669  10.957  0.3928  0.9118 -0.0394
  603TMC3    H2 8942   0.303   3.607  11.307  0.2854  2.0456 -0.6891
  603TMC3    C7 8943   0.329   3.686  11.058  0.8833 -0.6985 -0.6339
  603TMC3    C8 8944   0.101   3.513  11.444  0.4397 -0.4943 -0.1319
  603TMC3    O1 8945   0.395   3.772  11.118 -0.4103 -0.5490  0.2295
  603TMC3    O2 8946   0.041   3.402  11.453  0.1988  0.0361  0.3624
  604MPD2     C 8947   0.354   1.622  16.212 -0.2585 -0.1318 -0.0082
  604MPD2    C1 8948   0.298   1.741  16.170  0.2595  0.4406 -0.3053
  604MPD2    C2 8949   0.348   1.807  16.062 -0.6006 -0.6077 -1.0608
  604MPD2    C3 8950   0.461   1.754  15.996  0.0792  0.1177  0.2846
  604MPD2    C4 8951   0.510   1.626  16.021  0.1165  0.2527  0.4671
  604MPD2    C5 8952   0.459   1.563  16.133 -0.5488 -0.1016  0.4445
  604MPD2     H 8953   0.307   1.903  16.032 -0.3920 -0.5717 -1.2246
  604MPD2    H1 8954   0.588   1.580  15.962  0.8124  0.1249  1.4859
  604MPD2    H2 8955   0.305   1.561  16.288  0.3911 -0.5109  0.1067
  604MPD2    H3 8956   0.490   1.463  16.162  0.7758  0.5664  1.3599
  604MPD2     N 8957   0.507   1.831  15.886  0.5568  0.2081 -0.0931
  604MPD2    H5 8958   0.459   1.913  15.851  1.5071  0.6020 -0.4637
  604MPD2    N1 8959   0.192   1.796  16.247  0.2037 -0.3601 -0.1082
  604MPD2    H7 8960   0.179   1.748  16.336 -3.2443  1.2899  0.2857
  605TMC3    C1 8961   0.062   1.967  16.334  0.3293  0.0196 -0.4650
  605TMC3    C2 8962   0.140   1.981  16.447 -1.0383  0.5491 -0.5880
  605TMC3    C3 8963   0.116   2.084  16.535  0.4650  0.3519 -0.4917
  605TMC3    C4 8964   4.690   2.056  16.305  0.6808 -0.3152 -0.7155
  605TMC3    C5 8965   4.669   2.155  16.396 -0.0792 -0.1230 -0.3767
  605TMC3    C6 8966   0.014   2.172  16.512  0.3063  0.0928 -0.2017
  605TMC3     C 8967   0.122   1.910  16.221 -0.2304 -0.1243 -0.1052
  605TMC3     O 8968   0.086   1.950  16.115  0.6829 -0.5634 -0.4256
  605TMC3     H 8969   0.228   1.918  16.458 -2.1543 -0.7950  0.5877
  605TMC3    H1 8970   4.641   2.054  16.209  0.3003 -0.3695 -0.5174
  605TMC3    H2 8971   0.009   2.266  16.567 -0.6619 -0.0361 -0.0758
  605TMC3    C7 8972   4.569   2.254  16.363  0.1774  0.4563 -0.1702
  605TMC3    C8 8973   0.221   2.116  16.631 -0.7375 -1.2920  0.3288
  605TMC3    O1 8974   4.534   2.262  16.249 -0.2940 -0.3197 -0.1447
  605TMC3    O2 8975   0.327   2.060  16.606  0.2168  0.1615  0.3499
  606TMC3    C1 8976   1.568   0.715  16.886 -0.6502 -0.3991  0.3397
  606TMC3    C2 8977   1.580   0.652  17.007 -0.5687  0.4903 -0.2419
  606TMC3    C3 8978   1.585   0.516  17.017 -0.0497 -0.4582 -0.4669
  606TMC3    C4 8979   1.534   0.641  16.775  0.4002  0.4360 -0.5311
  606TMC3    C5 8980   1.533   0.503  16.784  0.0384  0.5045  0.2033
  606TMC3    C6 8981   1.558   0.439  16.905  0.0762  0.2900 -0.1771
  606TMC3     C 8982   1.573   0.853  16.873  0.2352 -0.0810 -0.7932
  606TMC3     O 8983   1.554   0.890  16.760  0.6909 -0.1881 -0.0399
  606TMC3     H 8984   1.620   0.706  17.092  0.5160  0.1099 -0.5150
  606TMC3    H1 8985   1.521   0.691  16.680 -0.9977  0.2720 -0.4199
  606TMC3    H2 8986   1.569   0.331  16.903  0.2498  0.3360 -1.6786
  606TMC3    C7 8987   1.452   0.437  16.682  0.6571  0.6168 -0.3608
  606TMC3    C8 8988   1.648   0.459  17.133 -0.5380 -0.2309 -0.0652
  606TMC3    O1 8989   1.459   0.480  16.566 -0.1402  0.4015  0.3880
  606TMC3    O2 8990   1.694   0.535  17.221 -0.0543  0.1888  0.2649
  607MPD2     C 8991   3.781   3.578  11.490 -0.1135  0.6230 -0.6014
  607MPD2    C1 8992   3.832   3.658  11.580  1.2600 -0.1625  0.3689
  607MPD2    C2 8993   3.787   3.641  11.710 -0.1522 -0.7474  0.6723
  607MPD2    C3 8994   3.685   3.560  11.745 -0.1197 -0.0797  0.6354
  607MPD2    C4 8995   3.627   3.482  11.648 -0.0858  0.4493  0.2013
  607MPD2    C5 8996   3.680   3.485  11.523  0.3283  0.4605  0.7853
  607MPD2     H 8997   3.825   3.696  11.795  0.8283 -0.3728 -0.0071
  607MPD2    H1 8998   3.545   3.411  11.658 -0.3867  0.9803  1.4115
  607MPD2    H2 8999   3.832   3.562  11.396 -0.1545 -0.1350 -0.4962
  607MPD2    H3 9000   3.650   3.421  11.441 -0.5624 -1.3288  2.4995
  607MPD2     N 9001   3.648   3.557  11.882 -0.7194  0.1476 -0.1321
  607MPD2    H5 9002   3.698   3.627  11.936  1.5811  0.4048 -2.6057
  607MPD2    N1 9003   3.935   3.750  11.556  0.6966  0.6959 -0.0518
  607MPD2    H7 9004   3.979   3.789  11.639 -0.5035  0.8297  0.5255
  608TMC3    C1 9005   4.115   3.872  11.471  0.4279 -0.4384  0.5696
  608TMC3    C2 9006   4.107   3.942  11.594  0.1640 -0.1449 -0.6075
  608TMC3    C3 9007   4.227   3.976  11.644 -0.8276  0.4223 -0.4887
  608TMC3    C4 9008   4.237   3.837  11.413  0.1376 -0.3286 -0.5568
  608TMC3    C5 9009   4.347   3.865  11.488 -0.1239  0.0598 -0.1685
  608TMC3    C6 9010   4.341   3.937  11.604 -0.1410  0.1156  0.5678
  608TMC3     C 9011   4.010   3.775  11.446 -0.1553 -0.4319  0.0355
  608TMC3     O 9012   4.010   3.734  11.331 -0.6093 -0.0804 -0.2655
  608TMC3     H 9013   4.009   3.972  11.632 -0.1104  1.8042 -2.8596
  608TMC3    H1 9014   4.240   3.774  11.325  1.9401 -0.2281 -0.5533
  608TMC3    H2 9015   4.427   3.970  11.661  0.5270  2.5495 -1.8374
  608TMC3    C7 9016   4.476   3.838  11.427  0.1028  0.1010 -0.2717
  608TMC3    C8 9017   4.224   4.030  11.781  0.8268 -0.3770  0.2181
  608TMC3    O1 9018   4.473   3.807  11.308 -0.3012  0.3842 -0.5618
  608TMC3    O2 9019   4.314   4.095  11.830 -0.0334 -0.1363 -0.3897
  609TMC3    C1 9020   3.223   1.670   9.217  0.0654 -0.3131  0.9405
  609TMC3    C2 9021   3.094   1.620   9.203  0.3571 -0.2217 -0.3064
  609TMC3    C3 9022   3.069   1.495   9.261 -0.4594  0.4539 -0.2761
  609TMC3    C4 9023   3.328   1.595   9.264 -0.7819  0.1448  0.3075
  609TMC3    C5 9024   3.299   1.471   9.308  0.0998 -0.6293 -0.0945
  609TMC3    C6 9025   3.166   1.424   9.321 -0.0180  0.2619  0.3984
  609TMC3     C 9026   3.215   1.806   9.260  0.1258  0.0409  0.0876
  609TMC3     O 9027   3.104   1.859   9.237  0.3956  0.0954  0.2989
  609TMC3     H 9028   3.022   1.683   9.154  1.1424  0.4946 -0.5356
  609TMC3    H1 9029   3.429   1.632   9.269 -1.1073  0.6780  2.6404
  609TMC3    H2 9030   3.139   1.328   9.363  0.9866 -0.1256  0.1398
  609TMC3    C7 9031   3.394   1.418   9.403 -0.5610 -0.1827 -0.3803
  609TMC3    C8 9032   2.935   1.460   9.307  0.3693 -0.2263  0.3141
  609TMC3    O1 9033   3.489   1.484   9.441  0.4864 -0.6072  0.3775
  609TMC3    O2 9034   2.913   1.349   9.354 -0.1962  0.1242  0.2458
  610TMC3    C1 9035   4.070   3.330  12.616  0.3532 -0.9671  0.3274
  610TMC3    C2 9036   4.139   3.374  12.506 -0.5546  0.3223  0.0579
  610TMC3    C3 9037   4.271   3.371  12.525 -0.3980  0.0179 -0.4302
  610TMC3    C4 9038   4.129   3.276  12.729 -0.3038 -0.0287  0.2090
  610TMC3    C5 9039   4.268   3.263  12.730  0.2151 -0.0139 -0.5933
  610TMC3    C6 9040   4.336   3.303  12.626 -0.2575  0.2551  0.0053
  610TMC3     C 9041   3.940   3.377  12.633 -0.0258 -0.9768  0.0510
  610TMC3     O 9042   3.855   3.317  12.702 -0.2923 -0.3825 -0.4093
  610TMC3     H 9043   4.090   3.406  12.415  0.6038 -0.7641 -0.9390
  610TMC3    H1 9044   4.059   3.230  12.797 -0.5563  0.6392  0.3993
  610TMC3    H2 9045   4.442   3.282  12.614 -0.5579 -0.3358 -1.5532
  610TMC3    C7 9046   4.334   3.164  12.818  0.4064 -0.4760  0.5249
  610TMC3    C8 9047   4.353   3.418  12.417 -0.2710  0.0024 -0.5311
  610TMC3    O1 9048   4.457   3.142  12.813 -0.9267 -0.5542 -0.0732
  610TMC3    O2 9049   4.324   3.389  12.301  0.4029  0.1274  0.1418
  611MPD2     C 9050   4.448   3.254  10.394  0.5147  0.2125 -0.2176
  611MPD2    C1 9051   4.405   3.347  10.299 -0.4947 -0.3404  0.3540
  611MPD2    C2 9052   4.499   3.438  10.254  0.5695 -0.3402  1.1321
  611MPD2    C3 9053   4.629   3.440  10.307  0.0483 -0.9485  0.4798
  611MPD2    C4 9054   4.660   3.357  10.406  0.4993 -0.4041  0.4081
  611MPD2    C5 9055   4.570   3.264  10.452 -0.4986 -0.0836 -0.0432
  611MPD2     H 9056   4.473   3.512  10.179  3.7168  0.7213  1.0506
  611MPD2    H1 9057   0.036   3.355  10.446  0.1505  0.4631  1.3317
  611MPD2    H2 9058   4.381   3.182  10.438 -0.2140  0.8359 -0.3201
  611MPD2    H3 9059   4.604   3.189  10.522 -0.5955 -0.1887 -0.1092
  611MPD2     N 9060   0.007   3.532  10.270  0.1152  1.1394  0.2749
  611MPD2    H5 9061   0.090   3.539  10.328  0.9613 -2.4624 -0.4775
  611MPD2    N1 9062   4.268   3.350  10.268 -0.1783 -0.1945 -0.7354
  611MPD2    H7 9063   4.213   3.281  10.317  0.3354  0.4920  0.8014
  612TMC3    C1 9064   0.103   3.715  10.155  0.4042  0.0312 -0.3267
  612TMC3    C2 9065   0.174   3.738  10.270  0.4036 -0.0532 -0.2243
  612TMC3    C3 9066   0.291   3.814  10.257  0.4845 -0.8370  0.4267
  612TMC3    C4 9067   0.145   3.762  10.035 -0.7053  0.7243 -0.1406
  612TMC3    C5 9068   0.258   3.837  10.029  0.5106  0.6681  0.2420
  612TMC3    C6 9069   0.331   3.867  10.139  0.0564  0.6433 -0.3842
  612TMC3     C 9070   0.004   3.609  10.155 -0.4069 -0.7857  0.0891
  612TMC3     O 9071   4.665   3.595  10.053  0.0777  0.0711 -0.1186
  612TMC3     H 9072   0.146   3.700  10.368 -1.6010 -0.6461 -1.0280
  612TMC3    H1 9073   0.090   3.755   9.942 -0.2996  1.3530 -0.4244
  612TMC3    H2 9074   0.414   3.934  10.121  1.5643 -1.3014 -0.7805
  612TMC3    C7 9075   0.275   3.924   9.915 -0.2558 -0.0039  0.4907
  612TMC3    C8 9076   0.395   3.812  10.355 -0.3936 -0.2461  1.2283
  612TMC3    O1 9077   0.276   3.869   9.806 -0.4488  0.2319 -0.6447
  612TMC3    O2 9078   0.500   3.870  10.330  0.5941 -0.2748  0.1673
  613MPD2     C 9079   2.736   1.142  16.678  0.4907  1.4259  0.3195
  613MPD2    C1 9080   2.674   1.146  16.555 -0.4645 -0.1166  0.3314
  613MPD2    C2 9081   2.559   1.069  16.521  0.3713  0.0156  0.1956
  613MPD2    C3 9082   2.512   0.985  16.619 -0.0317 -0.1249 -0.2886
  613MPD2    C4 9083   2.573   0.991  16.742  0.0037 -0.0979 -0.0876
  613MPD2    C5 9084   2.678   1.065  16.779 -0.1302 -0.1289 -0.1340
  613MPD2     H 9085   2.531   1.051  16.418 -1.4614  0.6633  0.5806
  613MPD2    H1 9086   2.530   0.921  16.813  0.1388  0.6763  0.7606
  613MPD2    H2 9087   2.826   1.203  16.686  1.3703  0.3238 -1.0720
  613MPD2    H3 9088   2.721   1.060  16.878  0.0921  0.7815 -0.1909
  613MPD2     N 9089   2.416   0.883  16.590 -0.4562 -0.3762  0.3729
  613MPD2    H5 9090   2.403   0.809  16.659  0.9523 -0.7751  0.2059
  613MPD2    N1 9091   2.746   1.216  16.462 -0.7721 -0.3764 -0.1447
  613MPD2    H7 9092   2.839   1.246  16.492 -0.7420  0.1453 -0.7679
  614TMC3    C1 9093   2.792   1.289  16.249 -0.0816 -0.2880 -0.4337
  614TMC3    C2 9094   2.896   1.197  16.234 -0.5518 -0.6833 -0.3453
  614TMC3    C3 9095   2.934   1.153  16.111 -0.4454  0.2306 -0.4931
  614TMC3    C4 9096   2.748   1.349  16.135  0.4851 -0.4462 -0.2377
  614TMC3    C5 9097   2.795   1.311  16.012  0.1320  0.0514  0.6614
  614TMC3    C6 9098   2.887   1.217  15.997  0.6746  0.2907  0.4915
  614TMC3     C 9099   2.693   1.246  16.344 -0.0457 -1.1408  0.1652
  614TMC3     O 9100   2.574   1.258  16.315 -0.2321 -0.3064 -0.0234
  614TMC3     H 9101   2.921   1.136  16.320  0.1906 -1.8036 -1.3621
  614TMC3    H1 9102   2.678   1.431  16.144  0.3356 -0.9252  2.9332
  614TMC3    H2 9103   2.920   1.181  15.900 -0.4847 -1.1781  0.6393
  614TMC3    C7 9104   2.741   1.382  15.897 -0.8839 -0.8843 -0.3966
  614TMC3    C8 9105   2.942   1.011  16.098  0.5117 -1.2421  0.8716
  614TMC3    O1 9106   2.736   1.505  15.906  0.6310 -0.3601 -0.6206
  614TMC3    O2 9107   2.890   0.964  16.002 -0.2103 -0.0253  0.3845
  615MPD2     C 9108   2.182   2.167  16.264  0.8424 -0.1345 -0.1432
  615MPD2    C1 9109   2.089   2.269  16.282 -0.2579  0.3395 -0.7344
  615MPD2    C2 9110   1.960   2.251  16.237  0.2179  0.2954  0.8195
  615MPD2    C3 9111   1.929   2.144  16.154  0.3634  0.0962 -0.2947
  615MPD2    C4 9112   2.026   2.056  16.124  0.2630  0.6788 -0.2824
  615MPD2    C5 9113   2.151   2.059  16.182 -0.2174 -0.1865  0.7838
  615MPD2     H 9114   1.896   2.337  16.224  0.0158  0.1966  1.1579
  615MPD2    H1 9115   2.000   1.976  16.056 -0.3381  1.3738 -0.8647
  615MPD2    H2 9116   2.283   2.178  16.301  0.7511 -3.0636  0.9813
  615MPD2    H3 9117   2.225   1.988  16.148  0.3107 -0.9708  3.5229
  615MPD2     N 9118   1.807   2.133  16.079  0.2635  0.3176 -1.2066
  615MPD2    H5 9119   1.807   2.082  15.992 -0.8746  0.7975 -1.4902
  615MPD2    N1 9120   2.127   2.405  16.311  0.3622  0.1619  0.0302
  615MPD2    H7 9121   2.051   2.472  16.312  0.8926  0.7605 -0.3775
  616TMC3    C1 9122   2.269   2.591  16.325  0.4097 -0.3788  0.0510
  616TMC3    C2 9123   2.377   2.634  16.256  0.0001 -0.1038  0.1859
  616TMC3    C3 9124   2.383   2.765  16.223  0.1541  0.0772 -0.7150
  616TMC3    C4 9125   2.165   2.675  16.363 -0.2619 -0.2424  0.5724
  616TMC3    C5 9126   2.169   2.804  16.306 -0.8502 -1.1406  0.4707
  616TMC3    C6 9127   2.277   2.850  16.247 -0.0366 -0.2329  0.4144
  616TMC3     C 9128   2.256   2.448  16.329  0.3786 -0.5186 -1.0053
  616TMC3     O 9129   2.357   2.385  16.315  0.2436 -0.2623  0.4287
  616TMC3     H 9130   2.449   2.566  16.213  0.6668  1.3815 -1.0362
  616TMC3    H1 9131   2.081   2.638  16.421 -0.8608 -1.1528 -0.8587
  616TMC3    H2 9132   2.277   2.955  16.221  1.3327 -0.4532 -0.5447
  616TMC3    C7 9133   2.065   2.892  16.350 -0.4609 -0.4979 -0.4141
  616TMC3    C8 9134   2.480   2.809  16.130  0.2469  0.9855 -0.0241
  616TMC3    O1 9135   2.064   3.012  16.319 -0.1997 -0.1734  0.2674
  616TMC3    O2 9136   2.447   2.903  16.059  0.3884  0.3327 -0.2093
  617MPD2     C 9137   4.368   0.963  14.049  0.2937 -0.4575 -0.1256
  617MPD2    C1 9138   4.446   0.902  13.960 -0.1418  0.1669  0.1747
  617MPD2    C2 9139   4.391   0.794  13.889  0.2795  0.3515 -0.1925
  617MPD2    C3 9140   4.263   0.747  13.906 -0.7722 -0.2361  0.6258
  617MPD2    C4 9141   4.180   0.818  13.992 -0.5896  0.9392 -0.0874
  617MPD2    C5 9142   4.237   0.922  14.058  0.6338 -0.1028  0.4996
  617MPD2     H 9143   4.455   0.746  13.816  0.9569 -0.7247  1.1142
  617MPD2    H1 9144   4.079   0.788  14.015 -0.1649  0.5023  1.2360
  617MPD2    H2 9145   4.398   1.051  14.106  0.3248 -0.5099 -0.0616
  617MPD2    H3 9146   4.176   0.975  14.131  1.8668 -1.6726  2.7024
  617MPD2     N 9147   4.216   0.627  13.852 -0.3362 -0.4905 -0.1634
  617MPD2    H5 9148   4.120   0.602  13.877 -0.5520  0.4696 -0.0597
  617MPD2    N1 9149   4.580   0.935  13.934  0.0430 -0.2486  0.6902
  617MPD2    H7 9150   4.624   0.867  13.873 -1.1933  0.4161 -0.9389
  618TMC3    C1 9151   0.067   1.027  13.942 -0.6015 -1.0932 -0.2468
  618TMC3    C2 9152   0.167   1.047  14.033 -0.3723  0.5108 -0.2796
  618TMC3    C3 9153   0.295   1.035  13.994 -0.1109 -0.2114 -0.1287
  618TMC3    C4 9154   0.097   1.005  13.816 -0.4359 -0.6242  0.7753
  618TMC3    C5 9155   0.223   1.007  13.774 -0.4877 -0.1874 -0.0885
  618TMC3    C6 9156   0.326   1.024  13.859  0.6426  0.1957  0.4521
  618TMC3     C 9157   4.656   1.039  13.982  0.3802  0.5247 -0.3713
  618TMC3     O 9158   4.631   1.130  14.060  0.5487  0.0103 -0.3502
  618TMC3     H 9159   0.142   1.069  14.136  2.5179 -1.5750  0.8641
  618TMC3    H1 9160   0.020   0.992  13.740 -0.2238  0.9011  0.3001
  618TMC3    H2 9161   0.427   1.025  13.821  1.4773 -0.4928  2.6148
  618TMC3    C7 9162   0.263   0.951  13.646 -0.4373 -0.0116  1.0037
  618TMC3    C8 9163   0.402   1.021  14.091  0.1629 -0.3054 -0.5475
  618TMC3    O1 9164   0.200   0.850  13.617  0.1639  0.2854 -0.4541
  618TMC3    O2 9165   0.374   1.060  14.203  0.2174 -0.4614  0.1150
  619MPD2     C 9166   1.970   2.314  13.665  0.1823  0.1723 -0.2264
  619MPD2    C1 9167   1.863   2.348  13.586 -0.2780 -0.3017 -0.1381
  619MPD2    C2 9168   1.772   2.254  13.545  0.4167  0.8853 -0.3484
  619MPD2    C3 9169   1.772   2.131  13.610 -0.4636  0.2127 -0.1376
  619MPD2    C4 9170   1.875   2.094  13.696  0.0169  0.3122 -0.2971
  619MPD2    C5 9171   1.976   2.185  13.714 -0.3628 -0.6086 -0.5980
  619MPD2     H 9172   1.698   2.265  13.467  0.3904 -3.0088 -0.9008
  619MPD2    H1 9173   1.879   1.994  13.738  0.0339  1.5082  2.5273
  619MPD2    H2 9174   2.053   2.382  13.682 -0.9619  1.0445  1.9663
  619MPD2    H3 9175   2.061   2.162  13.777 -0.9160  2.7358  1.3719
  619MPD2     N 9176   1.674   2.038  13.576 -0.5148  0.2913 -0.3419
  619MPD2    H5 9177   1.627   2.048  13.487  1.7732 -1.0944 -1.7175
  619MPD2    N1 9178   1.842   2.478  13.536  0.4347 -0.2007 -0.0402
  619MPD2    H7 9179   1.769   2.486  13.466  1.4667  1.4581 -0.8994
  620TMC3    C1 9180   1.864   2.696  13.488  0.5806 -0.6624  0.2650
  620TMC3    C2 9181   1.801   2.670  13.368 -0.8284  0.6807 -0.0077
  620TMC3    C3 9182   1.712   2.759  13.322 -0.4541  0.1618  0.1019
  620TMC3    C4 9183   1.854   2.811  13.556 -0.3750 -0.6196 -0.0308
  620TMC3    C5 9184   1.764   2.902  13.507 -0.1368  0.4434 -0.2089
  620TMC3    C6 9185   1.699   2.878  13.390  0.3379 -0.2767  0.0752
  620TMC3     C 9186   1.916   2.587  13.565  0.5226 -1.1290  0.2696
  620TMC3     O 9187   2.015   2.598  13.641  0.3274  0.3880  0.7185
  620TMC3     H 9188   1.814   2.580  13.310  0.7533  0.1291  1.2083
  620TMC3    H1 9189   1.897   2.814  13.656 -0.2860  1.0071 -0.1293
  620TMC3    H2 9190   1.631   2.951  13.347  2.1547  1.3204 -0.1393
  620TMC3    C7 9191   1.684   2.944  13.618  0.0146  0.2470  0.5850
  620TMC3    C8 9192   1.585   2.711  13.285 -0.7726  0.4329 -1.0379
  620TMC3    O1 9193   1.731   2.993  13.719  0.7399 -0.0085 -0.4893
  620TMC3    O2 9194   1.487   2.761  13.343 -0.8858 -0.5092 -0.4809
  621MPD2     C 9195   2.523   1.823  10.088  0.2870 -0.3632 -0.3574
  621MPD2    C1 9196   2.609   1.770  10.188  0.2703  0.4079  0.5004
  621MPD2    C2 9197   2.744   1.762  10.157 -0.5034 -0.4053  0.3499
  621MPD2    C3 9198   2.788   1.812  10.034 -0.1373 -0.0009  0.1061
  621MPD2    C4 9199   2.697   1.869   9.946  0.4385  0.4528  0.0181
  621MPD2    C5 9200   2.567   1.866   9.968 -0.2453  0.2273  0.2144
  621MPD2     H 9201   2.816   1.730  10.232 -0.4198  2.1178  1.3502
  621MPD2    H1 9202   2.723   1.905   9.848  0.3811  1.6399  0.4441
  621MPD2    H2 9203   2.416   1.830  10.105  0.2600  1.5396 -1.4138
  621MPD2    H3 9204   2.499   1.916   9.900 -0.0280 -0.4138 -0.4767
  621MPD2     N 9205   2.923   1.844  10.010  0.3084 -0.0488 -0.1406
  621MPD2    H5 9206   2.980   1.832  10.094 -0.2431 -0.8520  0.1191
  621MPD2    N1 9207   2.557   1.714  10.310 -0.2909 -0.2492  0.2003
  621MPD2    H7 9208   2.630   1.684  10.374 -0.5441 -0.1958  0.5151
  622TMC3    C1 9209   2.403   1.676  10.488  0.2541 -0.1299 -0.4470
  622TMC3    C2 9210   2.294   1.734  10.555 -0.6726 -0.4106 -0.7982
  622TMC3    C3 9211   2.215   1.650  10.627 -0.2721  0.2683  1.0524
  622TMC3    C4 9212   2.416   1.540  10.483 -0.5189  0.2446 -0.7231
  622TMC3    C5 9213   2.334   1.461  10.565 -1.0646  0.7953 -0.0735
  622TMC3    C6 9214   2.240   1.526  10.644 -0.7926 -0.6169  0.9292
  622TMC3     C 9215   2.435   1.739  10.358 -0.4381 -0.1154 -0.1362
  622TMC3     O 9216   2.345   1.808  10.309  0.0614 -0.4777  0.0189
  622TMC3     H 9217   2.303   1.840  10.575 -0.5778 -0.7757  1.1039
  622TMC3    H1 9218   2.499   1.489  10.435 -1.3680 -4.4729  2.8180
  622TMC3    H2 9219   2.167   1.469  10.701 -0.2504  0.3563  2.6183
  622TMC3    C7 9220   2.348   1.318  10.566  0.5444  0.4601 -0.1672
  622TMC3    C8 9221   2.079   1.681  10.608  0.8542  0.0567  0.0380
  622TMC3    O1 9222   2.442   1.277  10.499 -0.3921  0.3480 -0.1926
  622TMC3    O2 9223   1.993   1.620  10.671 -0.1796 -0.2852  0.2869
  623MPD2     C 9224   0.839   2.386  16.033  0.1732 -0.0306 -0.0297
  623MPD2    C1 9225   0.740   2.323  16.115  0.4798 -0.6636 -0.0008
  623MPD2    C2 9226   0.759   2.330  16.252  0.3661  0.3292  1.0398
  623MPD2    C3 9227   0.872   2.399  16.304  0.2349  0.1191  0.0505
  623MPD2    C4 9228   0.972   2.449  16.217  0.3661 -0.0235 -0.1221
  623MPD2    C5 9229   0.950   2.443  16.088  0.2063  0.5780  0.5236
  623MPD2     H 9230   0.688   2.285  16.320 -0.9818  0.0773 -0.5292
  623MPD2    H1 9231   1.062   2.495  16.255  2.4805 -3.0699 -1.4116
  623MPD2    H2 9232   0.821   2.394  15.927  0.8845  0.5775 -0.1055
  623MPD2    H3 9233   1.015   2.490  16.015 -1.8965  1.6700 -0.6487
  623MPD2     N 9234   0.890   2.403  16.441  0.0744 -0.5890 -0.0977
  623MPD2    H5 9235   0.826   2.343  16.492 -0.1216  0.2916  0.6734
  623MPD2    N1 9236   0.625   2.269  16.055  0.8295 -0.7206 -0.4522
  623MPD2    H7 9237   0.612   2.284  15.956 -0.4719  0.1714 -0.1341
  624TMC3    C1 9238   1.078   2.435  16.873 -1.2860  0.8499 -0.0368
  624TMC3    C2 9239   0.957   2.421  16.929  0.2866 -0.1379 -0.3666
  624TMC3    C3 9240   0.845   2.423  16.851  0.0685 -0.2597  0.4367
  624TMC3    C4 9241   1.091   2.447  16.735  0.4859  0.7116 -0.3335
  624TMC3    C5 9242   0.976   2.435  16.657  0.3557  0.7833 -0.0717
  624TMC3    C6 9243   0.850   2.428  16.712 -0.2755 -1.0611  0.4672
  624TMC3     C 9244   1.191   2.400  16.950  0.5854 -0.4293 -0.5130
  624TMC3     O 9245   1.177   2.316  17.036 -0.0603 -0.2002  0.0816
  624TMC3     H 9246   0.948   2.422  17.038 -0.5881 -1.1466 -0.4216
  624TMC3    H1 9247   1.185   2.461  16.683  0.5841  1.5738  0.0822
  624TMC3    H2 9248   0.759   2.444  16.657  0.1519  0.1564  0.1182
  624TMC3    C7 9249   0.985   2.469  16.518 -0.5058 -0.6704  0.2202
  624TMC3    C8 9250   0.721   2.436  16.921 -0.0153 -1.1848  0.1919
  624TMC3    O1 9251   1.078   2.538  16.482  0.1966  0.3878 -0.5104
  624TMC3    O2 9252   0.710   2.513  17.015 -0.2887  0.3968 -0.0550
  625MPD2     C 9253   0.734   3.004   0.890 -0.4305 -0.7187  0.4613
  625MPD2    C1 9254   0.765   3.131   0.869 -0.4344  0.1870  0.0702
  625MPD2    C2 9255   0.896   3.174   0.853  0.2113  0.2145 -0.7993
  625MPD2    C3 9256   0.997   3.083   0.852  0.0181  0.2527 -0.3998
  625MPD2    C4 9257   0.966   2.951   0.876 -0.4367 -1.0344  0.2526
  625MPD2    C5 9258   0.837   2.914   0.899  0.1864  0.6808  0.6335
  625MPD2     H 9259   0.916   3.278   0.834 -0.0622  0.1108 -1.6533
  625MPD2    H1 9260   1.041   2.873   0.875 -1.0163 -1.5933  2.8196
  625MPD2    H2 9261   0.636   2.958   0.900 -1.6195  1.8810  0.5870
  625MPD2    H3 9262   0.824   2.808   0.922 -0.2478  0.7640  0.7672
  625MPD2     N 9263   1.131   3.128   0.817  0.3843 -0.0577  0.4668
  625MPD2    H5 9264   1.154   3.227   0.828  1.3980 -0.0958 -1.3077
  625MPD2    N1 9265   0.656   3.229   0.857 -0.1341 -0.1537  0.1384
  625MPD2    H7 9266   0.676   3.328   0.845 -0.6180 -0.1902 -0.9360
  626TMC3    C1 9267   0.451   3.328   0.838 -0.5864  0.4225  0.5466
  626TMC3    C2 9268   0.389   3.357   0.720  0.2898 -0.0013  0.0425
  626TMC3    C3 9269   0.368   3.487   0.701 -0.1288 -0.6385  0.8890
  626TMC3    C4 9270   0.471   3.412   0.951  0.0484 -0.3129 -0.0832
  626TMC3    C5 9271   0.414   3.537   0.930 -0.0479 -0.2643  0.4882
  626TMC3    C6 9272   0.372   3.582   0.803  0.1760 -0.2568 -0.6998
  626TMC3     C 9273   0.523   3.201   0.842  0.3068 -0.1869 -0.6897
  626TMC3     O 9274   0.458   3.097   0.812  0.5778 -0.2924  0.1346
  626TMC3     H 9275   0.392   3.287   0.638 -2.6328 -0.8066  0.6387
  626TMC3    H1 9276   0.498   3.367   1.046  1.5401  1.0512  0.1602
  626TMC3    H2 9277   0.343   3.683   0.778 -0.5896  0.3709  2.7575
  626TMC3    C7 9278   0.457   3.631   1.033  0.1363 -0.1067  0.1658
  626TMC3    C8 9279   0.314   3.546   0.578  0.4070 -0.3973  0.2324
  626TMC3    O1 9280   0.488   3.584   1.143  0.4956 -0.5859  0.2613
  626TMC3    O2 9281   0.313   3.672   0.564 -1.0814  0.0188 -0.3679
  627MPD2     C 9282   4.338   4.060  14.203  0.2854  1.2070  0.2384
  627MPD2    C1 9283   4.320   4.061  14.341 -0.5937  0.1434  1.4700
  627MPD2    C2 9284   4.201   4.012  14.387 -0.9092 -0.0864 -0.0501
  627MPD2    C3 9285   4.093   3.984  14.306 -0.2385  0.1873  0.0862
  627MPD2    C4 9286   4.108   3.998  14.166  0.0151 -0.1016 -0.0752
  627MPD2    C5 9287   4.236   4.022  14.122 -0.8271  0.0894 -0.6611
  627MPD2     H 9288   4.194   3.990  14.493 -1.2010  1.3621  0.2351
  627MPD2    H1 9289   4.032   3.973  14.094 -0.2220  2.9591 -0.9119
  627MPD2    H2 9290   4.437   4.087  14.168  0.2048  1.2083  0.0105
  627MPD2    H3 9291   4.265   4.024  14.017  0.2081  0.5093 -0.3592
  627MPD2     N 9292   3.978   3.933  14.371  0.6812  0.1255  0.3327
  627MPD2    H5 9293   3.994   3.917  14.470  2.5328  2.9127  0.4927
  627MPD2    N1 9294   4.417   4.113  14.438 -0.1237  0.2140 -0.1836
  627MPD2    H7 9295   4.386   4.120  14.535  1.3351  0.8301  0.2349
  628TMC3    C1 9296   4.563   4.276  14.511 -0.4969 -0.6214 -0.5838
  628TMC3    C2 9297   4.657   4.232  14.602  0.4624 -0.8116 -0.0544
  628TMC3    C3 9298   4.707   4.330  14.686  0.3594 -0.1273  0.0317
  628TMC3    C4 9299   4.522   4.405  14.500 -1.2425  0.4097  0.1563
  628TMC3    C5 9300   4.581   4.496  14.583  0.5281 -0.2385  0.0189
  628TMC3    C6 9301   4.679   4.460  14.666 -0.5368  0.0731  0.0126
  628TMC3     C 9302   4.526   4.188  14.402 -0.5490 -0.1517  0.2354
  628TMC3     O 9303   4.573   4.210  14.289  0.2660 -0.1567 -0.5563
  628TMC3     H 9304   4.688   4.128  14.605 -1.8646 -1.4328  2.3045
  628TMC3    H1 9305   4.454   4.427  14.419 -0.5136  0.0045 -0.5567
  628TMC3    H2 9306   4.699   4.532  14.745 -1.4143  0.2495  0.0831
  628TMC3    C7 9307   4.545   4.634  14.574  0.3672  0.3687 -0.3039
  628TMC3    C8 9308   0.116   4.311  14.734  0.1673 -0.3448  0.5619
  628TMC3    O1 9309   4.613   4.716  14.638 -0.2098  0.9156 -0.2625
  628TMC3    O2 9310   0.184   4.408  14.760  0.3626 -0.1487  0.0312
  629MPD2     C 9311   2.959   2.799  15.943  0.2364  0.2418  0.1494
  629MPD2    C1 9312   2.954   2.716  16.053 -0.1366 -0.3201 -0.2639
  629MPD2    C2 9313   2.833   2.704  16.117 -0.0845  0.5894 -0.2001
  629MPD2    C3 9314   2.722   2.772  16.079  0.1335  0.1070 -0.6044
  629MPD2    C4 9315   2.722   2.847  15.967  0.3665 -0.1185 -0.8156
  629MPD2    C5 9316   2.843   2.862  15.901 -0.4708 -0.0277 -0.0319
  629MPD2     H 9317   2.811   2.648  16.207 -0.1294  0.8541 -0.0465
  629MPD2    H1 9318   2.639   2.906  15.930 -0.1220  0.7055  1.6485
  629MPD2    H2 9319   3.052   2.821  15.892  0.8924 -0.7749  0.8851
  629MPD2    H3 9320   2.852   2.936  15.823 -0.1375 -0.6433 -0.5769
  629MPD2     N 9321   2.599   2.740  16.144  0.0125  0.4626  0.2026
  629MPD2    H5 9322   2.607   2.676  16.222 -0.9073  0.6751  0.4740
  629MPD2    N1 9323   3.076   2.658  16.095 -0.2261  0.0484  0.0909
  629MPD2    H7 9324   3.153   2.704  16.047 -1.6914  2.0866 -0.3169
  630TMC3    C1 9325   3.227   2.522  16.217  0.7089  0.3321 -0.6397
  630TMC3    C2 9326   3.337   2.577  16.152 -0.6274  0.2388  0.0479
  630TMC3    C3 9327   3.455   2.542  16.213 -0.1805  0.1591 -0.0656
  630TMC3    C4 9328   3.235   2.421  16.313 -0.5852  0.0327  0.4773
  630TMC3    C5 9329   3.359   2.402  16.363  0.0292  0.0835 -0.6906
  630TMC3    C6 9330   3.471   2.467  16.319  0.5494 -0.6500 -0.2342
  630TMC3     C 9331   3.089   2.560  16.192  0.5759  0.0143  1.0562
  630TMC3     O 9332   3.000   2.502  16.249 -0.0098 -0.0784 -0.1467
  630TMC3     H 9333   3.334   2.649  16.071 -0.1646 -0.5615 -0.6844
  630TMC3    H1 9334   3.153   2.406  16.382 -1.4936 -0.6575 -0.7436
  630TMC3    H2 9335   3.563   2.448  16.373  0.9265  1.9820  0.0316
  630TMC3    C7 9336   3.371   2.354  16.495  0.0796 -0.3194 -0.3583
  630TMC3    C8 9337   3.552   2.645  16.203  0.2046 -0.0851 -0.1930
  630TMC3    O1 9338   3.440   2.410  16.581 -0.2560  0.5026  0.1247
  630TMC3    O2 9339   3.593   2.665  16.316 -0.6154 -0.1001  0.2717
  631MPD2     C 9340   1.115   2.945  15.939 -0.2108 -0.3891 -0.3601
  631MPD2    C1 9341   1.126   2.880  15.819  0.1923  0.9039 -0.3374
  631MPD2    C2 9342   1.164   2.744  15.817 -0.4325  0.6966 -0.1493
  631MPD2    C3 9343   1.189   2.671  15.931 -0.9986 -0.3268 -0.7117
  631MPD2    C4 9344   1.177   2.740  16.053  0.1785  0.4518 -0.5122
  631MPD2    C5 9345   1.138   2.876  16.057  0.0710 -0.4783  0.2495
  631MPD2     H 9346   1.178   2.697  15.720 -1.7867 -1.9839  0.9312
  631MPD2    H1 9347   1.210   2.691  16.144 -2.3380 -2.5113 -1.1966
  631MPD2    H2 9348   1.067   3.042  15.932  0.6636  0.1905  1.7611
  631MPD2    H3 9349   1.137   2.934  16.149  1.0109  0.7283 -0.5046
  631MPD2     N 9350   1.255   2.544  15.905 -0.4301 -0.3855  0.3525
  631MPD2    H5 9351   1.251   2.496  15.815  1.3938  0.9080 -0.4001
  631MPD2    N1 9352   1.103   2.967  15.701  0.0017 -0.5966 -0.0507
  631MPD2    H7 9353   1.072   3.062  15.714  0.6366 -0.4037  0.0367
  632TMC3    C1 9354   1.124   3.038  15.472 -0.0757 -0.0644  0.2385
  632TMC3    C2 9355   1.012   3.106  15.467 -0.7848  0.1027  0.5737
  632TMC3    C3 9356   0.961   3.139  15.346  0.2140  0.1384  0.3014
  632TMC3    C4 9357   1.190   3.001  15.353  0.5959  0.5204 -0.4832
  632TMC3    C5 9358   1.128   3.037  15.237 -0.1185 -0.0408 -0.1816
  632TMC3    C6 9359   1.007   3.101  15.224 -0.1677 -0.0400 -0.6306
  632TMC3     C 9360   1.158   2.945  15.578  0.1065  0.4854  0.6825
  632TMC3     O 9361   1.241   2.859  15.558  0.5384 -0.2279  1.1585
  632TMC3     H 9362   0.948   3.110  15.554 -2.2325 -2.0916 -0.3963
  632TMC3    H1 9363   1.286   2.952  15.353  0.7646  0.8518  0.1413
  632TMC3    H2 9364   0.961   3.150  15.138  1.2505  0.8389 -0.8809
  632TMC3    C7 9365   1.185   2.997  15.114  0.3868  0.6873 -0.8699
  632TMC3    C8 9366   0.818   3.158  15.351  0.4831  0.3550  0.1519
  632TMC3    O1 9367   1.143   3.053  15.013 -0.2318 -0.5538 -0.1781
  632TMC3    O2 9368   0.779   3.227  15.445 -0.1304  0.1339 -0.1733
  633MPD2     C 9369   0.750   0.709  17.201  0.9286 -0.3747 -0.7971
  633MPD2    C1 9370   0.666   0.664  17.098 -0.1146  1.2209  0.3019
  633MPD2    C2 9371   0.637   0.526  17.092 -0.7987  0.9147  0.3266
  633MPD2    C3 9372   0.702   0.439  17.177  0.3018 -0.4039 -0.6676
  633MPD2    C4 9373   0.793   0.495  17.264 -0.7790 -0.0667 -0.1046
  633MPD2    C5 9374   0.811   0.624  17.282 -0.8991 -0.3284  0.4028
  633MPD2     H 9375   0.562   0.495  17.021  0.9053  0.1898 -1.1652
  633MPD2    H1 9376   0.870   0.438  17.315 -3.4662 -2.6641  0.9652
  633MPD2    H2 9377   0.775   0.814  17.201  0.0026 -0.1563 -1.3772
  633MPD2    H3 9378   0.874   0.663  17.360  0.1038 -2.1361  0.4885
  633MPD2     N 9379   0.703   0.301  17.175 -0.1192  0.8037 -0.2453
  633MPD2    H5 9380   0.769   0.243  17.225  0.1887  0.0859 -1.4862
  633MPD2    N1 9381   0.607   0.748  16.996  0.0163 -1.0027  0.1364
  633MPD2    H7 9382   0.566   0.697  16.918 -0.6733 -1.9098  1.0879
  634TMC3    C1 9383   0.632   0.947  16.862  0.0870  0.0326  0.2360
  634TMC3    C2 9384   0.681   0.869  16.760  0.4786  0.2940 -0.2242
  634TMC3    C3 9385   0.720   0.924  16.646 -0.3485  0.3099 -0.1074
  634TMC3    C4 9386   0.628   1.078  16.846  0.1272  0.9177 -0.3657
  634TMC3    C5 9387   0.684   1.135  16.737 -0.3964 -0.0032 -0.2519
  634TMC3    C6 9388   0.739   1.054  16.639 -0.0101  0.1936  0.3307
  634TMC3     C 9389   0.609   0.893  16.995 -1.1058  0.4905 -0.9044
  634TMC3     O 9390   0.616   0.965  17.092  0.7671 -0.9439  0.3850
  634TMC3     H 9391   0.705   0.765  16.778 -1.3476 -0.0815  0.0483
  634TMC3    H1 9392   0.584   1.136  16.925  0.1978  0.8261 -0.2595
  634TMC3    H2 9393   0.773   1.094  16.545 -0.8501 -0.6364 -0.3224
  634TMC3    C7 9394   0.677   1.272  16.706 -0.0614  0.4768  0.2894
  634TMC3    C8 9395   0.775   0.834  16.546  0.3193 -0.1774  0.1578
  634TMC3    O1 9396   0.748   1.299  16.609  0.3420  0.3766 -0.0842
  634TMC3    O2 9397   0.728   0.719  16.542  0.1629 -0.6783  0.1703
  635TMC3    C1 9398   1.399   1.080  17.633 -0.3535  0.3935  0.2677
  635TMC3    C2 9399   1.454   0.993   0.028  1.2198  0.1241 -0.1736
  635TMC3    C3 9400   1.490   0.867  17.693  0.6211 -0.2620  0.4638
  635TMC3    C4 9401   1.371   1.032  17.507  0.1961  0.1521  1.3434
  635TMC3    C5 9402   1.389   0.895  17.476 -0.6116 -0.0207 -0.2944
  635TMC3    C6 9403   1.451   0.815  17.569  0.0452  0.2559  0.0758
  635TMC3     C 9404   1.384   1.218  17.665 -0.3502 -0.7390  0.3301
  635TMC3     O 9405   1.406   1.241   0.085 -0.0187  0.2466  0.0155
  635TMC3     H 9406   1.462   1.036   0.128  3.0868 -0.7638  0.0670
  635TMC3    H1 9407   1.344   1.094  17.422 -1.0828 -1.2962  0.7055
  635TMC3    H2 9408   1.485   0.717  17.539  1.8241  0.8902  0.0332
  635TMC3    C7 9409   1.331   0.843  17.350  0.4900  0.7396  0.1153
  635TMC3    C8 9410   1.569   0.795   0.089 -0.2935 -0.3062 -0.1117
  635TMC3    O1 9411   1.291   0.919  17.266 -0.6446  0.3720  0.2213
  635TMC3    O2 9412   1.592   0.854   0.196  0.0745  0.7491 -0.3097
  636MPD2     C 9413   2.112   1.133  15.883 -0.4947 -0.6657  0.5326
  636MPD2    C1 9414   2.112   1.146  16.019 -0.7638  0.2607  0.3348
  636MPD2    C2 9415   2.122   1.041  16.105 -0.0418 -0.1345 -0.5357
  636MPD2    C3 9416   2.155   0.922  16.047 -0.4622 -0.9595 -0.0954
  636MPD2    C4 9417   2.180   0.908  15.911 -0.3891  0.1444 -0.7833
  636MPD2    C5 9418   2.154   1.016  15.832  0.3544  0.3767 -1.0352
  636MPD2     H 9419   2.111   1.048  16.213  1.1729 -2.1730 -0.2615
  636MPD2    H1 9420   2.203   0.811  15.867  0.9204 -0.1630  0.6178
  636MPD2    H2 9421   2.104   1.210  15.808  0.1371  0.6158  1.7883
  636MPD2    H3 9422   2.162   1.004  15.725  2.6389 -1.6338 -0.6445
  636MPD2     N 9423   2.176   0.816  16.140 -0.4866 -0.0649  0.0669
  636MPD2    H5 9424   2.169   0.842  16.238 -1.6075 -1.4751  0.3646
  636MPD2    N1 9425   2.080   1.270  16.081 -0.4591  0.2741  0.0726
  636MPD2    H7 9426   2.092   1.259  16.181 -0.6514 -1.0604 -0.0523
  637TMC3    C1 9427   2.276   0.633  16.240 -0.1219  0.5095 -0.7603
  637TMC3    C2 9428   2.236   0.704  16.349  0.0513 -0.0881 -0.5183
  637TMC3    C3 9429   2.310   0.720  16.455  0.3703  0.0979 -0.1384
  637TMC3    C4 9430   2.396   0.564  16.249 -0.9928  0.1019 -0.4456
  637TMC3    C5 9431   2.463   0.565  16.368 -0.0000 -0.2099 -0.2375
  637TMC3    C6 9432   2.420   0.646  16.468 -0.5497 -0.5826 -0.6856
  637TMC3     C 9433   2.223   0.687  16.110 -0.4308  0.9610 -0.3930
  637TMC3     O 9434   2.259   0.633  16.006 -0.1610  0.1789  0.2345
  637TMC3     H 9435   2.137   0.749  16.358  0.4969  0.6930  0.5549
  637TMC3    H1 9436   2.430   0.503  16.167  0.9899  0.1932  0.3227
  637TMC3    H2 9437   2.485   0.656  16.554  1.2306 -2.2488 -1.8567
  637TMC3    C7 9438   2.608   0.545  16.372  0.3716 -0.5882 -0.3430
  637TMC3    C8 9439   2.339   0.865  16.475  0.0869 -0.6355  0.0371
  637TMC3    O1 9440   2.652   0.478  16.468  0.1958  0.1884  0.2710
  637TMC3    O2 9441   2.307   0.933  16.375 -0.9015 -0.2338  0.4059
  638MPD2     C 9442   1.626   0.034  15.029 -0.1108 -0.0374 -0.8285
  638MPD2    C1 9443   1.583   4.654  14.943  0.1755 -0.8334 -0.3434
  638MPD2    C2 9444   1.555   4.535  15.008 -0.4819 -0.8596 -0.0867
  638MPD2    C3 9445   1.562   4.519  15.140  0.9551  0.4982 -0.0523
  638MPD2    C4 9446   1.600   4.619  15.221  0.2608  0.6758  0.5457
  638MPD2    C5 9447   1.632   0.012  15.162 -0.2994 -0.1558 -0.2990
  638MPD2     H 9448   1.527   4.449  14.949  0.8973 -0.4016 -1.4130
  638MPD2    H1 9449   1.616   4.606  15.327 -1.6472 -0.0624  0.7389
  638MPD2    H2 9450   1.652   0.133  14.995  2.3349  0.2381  1.8338
  638MPD2    H3 9451   1.667   0.095  15.223  0.2293 -0.4474 -0.2046
  638MPD2     N 9452   1.527   4.389  15.190  0.0272  0.3848  0.6065
  638MPD2    H5 9453   1.510   4.317  15.121  2.2789  1.8502 -1.5063
  638MPD2    N1 9454   1.595   4.656  14.805 -0.6757 -0.4781 -0.0072
  638MPD2    H7 9455   1.668   4.716  14.767 -0.6615  0.0093  0.7775
  639TMC3    C1 9456   1.547   4.203  15.341  0.4396 -0.2355 -0.3961
  639TMC3    C2 9457   1.439   4.135  15.288  0.6642 -0.1949 -1.1432
  639TMC3    C3 9458   1.397   4.014  15.334 -0.1040 -0.0518  0.2736
  639TMC3    C4 9459   1.618   4.151  15.448  0.5814 -0.0229 -0.5484
  639TMC3    C5 9460   1.573   4.029  15.494 -0.3754  0.6969  0.7400
  639TMC3    C6 9461   1.469   3.957  15.433  0.2064 -0.0153  0.3134
  639TMC3     C 9462   1.553   4.349  15.323  0.1433  0.0271 -0.6408
  639TMC3     O 9463   1.589   4.407  15.424 -0.3046  0.2538 -0.4864
  639TMC3     H 9464   1.390   4.180  15.202  1.3831 -0.9493 -1.9439
  639TMC3    H1 9465   1.710   4.194  15.485 -0.3868  1.6099 -0.0310
  639TMC3    H2 9466   1.453   3.858  15.473 -2.1401 -0.1502 -0.9040
  639TMC3    C7 9467   1.669   3.940  15.539 -0.1838  0.6553  0.3513
  639TMC3    C8 9468   1.326   3.926  15.239  0.0380 -0.3054  0.1486
  639TMC3    O1 9469   1.666   3.892  15.655 -0.0498 -0.2542  0.6166
  639TMC3    O2 9470   1.322   3.955  15.122 -0.2990  0.0840  0.2872
  640MPD2     C 9471   3.605   2.646   9.506 -0.1508 -0.5534  0.1640
  640MPD2    C1 9472   3.510   2.581   9.439 -0.0949  1.4561 -0.2027
  640MPD2    C2 9473   3.382   2.632   9.431  0.2490  0.2693  0.3486
  640MPD2    C3 9474   3.353   2.761   9.481  0.7211  0.2877 -0.3653
  640MPD2    C4 9475   3.448   2.822   9.560 -0.1466 -0.3778 -0.4234
  640MPD2    C5 9476   3.568   2.764   9.577 -0.4040  0.8359 -0.1874
  640MPD2     H 9477   3.311   2.569   9.379  0.1080  1.1677 -0.5515
  640MPD2    H1 9478   3.427   2.916   9.610  0.1567 -0.0890 -0.8363
  640MPD2    H2 9479   3.701   2.595   9.513  1.4784  2.6438  0.7403
  640MPD2    H3 9480   3.640   2.814   9.640  0.5026 -0.4342 -0.1980
  640MPD2     N 9481   3.226   2.819   9.478 -0.1143  0.3908 -0.3417
  640MPD2    H5 9482   3.210   2.907   9.525 -0.1936 -0.4044  1.1124
  640MPD2    N1 9483   3.548   2.451   9.399  0.0736  0.3533  0.4239
  640MPD2    H7 9484   3.647   2.428   9.403 -0.7146 -3.1350  0.0770
  641TMC3    C1 9485   3.525   2.235   9.321  0.2250  0.0839 -0.4404
  641TMC3    C2 9486   3.620   2.209   9.424 -0.1163 -0.5749  0.3527
  641TMC3    C3 9487   3.687   2.088   9.405  0.3518  0.1691 -0.7430
  641TMC3    C4 9488   3.512   2.168   9.204 -0.1160  0.1980 -0.2308
  641TMC3    C5 9489   3.570   2.045   9.199 -0.6795  0.1430 -0.5667
  641TMC3    C6 9490   3.667   2.006   9.291 -0.1064 -0.1001 -0.0123
  641TMC3     C 9491   3.457   2.358   9.338 -0.8057 -0.6331  0.0750
  641TMC3     O 9492   3.351   2.365   9.278  0.2642  0.2410  0.1628
  641TMC3     H 9493   3.598   2.248   9.523  1.4752  0.2287  0.3884
  641TMC3    H1 9494   3.445   2.204   9.126  2.8438  1.3298 -2.2493
  641TMC3    H2 9495   3.710   1.907   9.295  4.0281  1.6508 -1.3328
  641TMC3    C7 9496   3.510   1.954   9.108  1.2416  0.6976 -0.4265
  641TMC3    C8 9497   3.764   2.028   9.514 -0.8477  0.4587  0.0435
  641TMC3    O1 9498   3.522   1.836   9.141 -0.1975  0.4111 -0.2288
  641TMC3    O2 9499   3.773   1.905   9.504 -0.5964  0.6147  0.1134
  642TMC3    C1 9500   3.908   4.652  12.295 -0.5795 -0.1726 -0.0874
  642TMC3    C2 9501   4.001   4.614  12.203  0.0060 -0.0278 -0.0292
  642TMC3    C3 9502   3.986   4.490  12.150 -0.5329  0.5003  0.3223
  642TMC3    C4 9503   3.801   4.571  12.324 -0.6853  0.2194 -0.5406
  642TMC3    C5 9504   3.793   4.448  12.259 -0.4851  0.5944  0.1433
  642TMC3    C6 9505   3.889   4.399  12.176  0.6491 -0.1954  0.2729
  642TMC3     C 9506   3.888   0.072  12.303 -0.6942  0.0464 -0.2511
  642TMC3     O 9507   3.970   0.135  12.233  0.0734 -0.4822 -0.4830
  642TMC3     H 9508   4.088   4.669  12.166 -0.8294  1.3747  0.1029
  642TMC3    H1 9509   3.723   4.597  12.394 -0.4395 -0.5677  0.0265
  642TMC3    H2 9510   3.899   4.299  12.135  0.3375 -0.1997  0.2107
  642TMC3    C7 9511   3.686   4.353  12.290  0.4916  0.7653 -0.3646
  642TMC3    C8 9512   4.082   4.445  12.059  0.0194 -0.2209 -0.2761
  642TMC3    O1 9513   3.623   4.367  12.397 -0.2842 -0.5923 -0.1753
  642TMC3    O2 9514   4.039   4.368  11.975 -0.9159 -0.2486  0.1486
  643TMC3    C1 9515   2.437   3.540   0.357  0.5162 -0.6744  0.6030
  643TMC3    C2 9516   2.306   3.519   0.344 -0.3183  0.1128 -0.5883
  643TMC3    C3 9517   2.246   3.519   0.224 -0.0848 -0.3530  0.1076
  643TMC3    C4 9518   2.520   3.532   0.252 -0.0302 -0.5784 -0.3149
  643TMC3    C5 9519   2.453   3.529   0.127 -0.4360 -0.4721 -0.7099
  643TMC3    C6 9520   2.320   3.514   0.113 -0.2230 -0.1786 -0.7438
  643TMC3     C 9521   2.470   3.634   0.462 -0.3596 -0.0472 -0.0570
  643TMC3     O 9522   2.370   3.691   0.509  0.0656 -0.0155  0.3372
  643TMC3     H 9523   2.238   3.530   0.428  0.3891  2.2023 -0.2916
  643TMC3    H1 9524   2.618   3.577   0.263  0.3352 -1.4597  0.0331
  643TMC3    H2 9525   2.272   3.526   0.017  0.7073  3.4498 -0.7637
  643TMC3    C7 9526   2.529   3.546  17.696  0.2086  0.2188  0.4089
  643TMC3    C8 9527   2.139   3.619   0.208  0.1795  0.5077  0.3298
  643TMC3    O1 9528   2.468   3.582  17.594 -0.2197  0.0271 -0.2669
  643TMC3    O2 9529   2.052   3.589   0.127  0.2906 -0.9034  0.2643
  644MPD2     C 9530   4.029   3.971   9.434  0.5661 -0.3667 -0.5264
  644MPD2    C1 9531   3.910   3.947   9.367 -1.2807  0.8904 -0.7741
  644MPD2    C2 9532   3.853   4.048   9.288 -0.0627  0.4163  0.2361
  644MPD2    C3 9533   3.916   4.169   9.270  0.1966 -0.3619  0.2523
  644MPD2    C4 9534   4.029   4.194   9.347  0.0453  0.4747  0.0383
  644MPD2    C5 9535   4.086   4.096   9.424 -0.5834 -0.2141 -0.3965
  644MPD2     H 9536   3.768   4.027   9.224  0.8497 -2.2770 -0.0676
  644MPD2    H1 9537   4.084   4.287   9.344  1.7242 -0.4996  0.8904
  644MPD2    H2 9538   4.086   3.899   9.492 -1.9134 -1.4320  0.5961
  644MPD2    H3 9539   4.176   4.117   9.482  1.2801 -2.3113 -2.5402
  644MPD2     N 9540   3.860   4.272   9.181 -0.4858  0.0642  0.2647
  644MPD2    H5 9541   3.770   4.250   9.138  0.9643 -1.0738 -2.1571
  644MPD2    N1 9542   3.853   3.818   9.386 -0.8592  0.1330  0.5885
  644MPD2    H7 9543   3.905   3.749   9.439  2.5430  3.3686  1.4410
  645TMC3    C1 9544   3.820   4.491   9.094 -0.1813 -0.2316 -0.2415
  645TMC3    C2 9545   3.810   4.619   9.133 -0.7320 -0.0545  1.0776
  645TMC3    C3 9546   3.714   4.700   9.077 -0.1130 -1.1029 -0.0391
  645TMC3    C4 9547   3.733   4.437   9.008  0.1129 -0.5250 -0.1167
  645TMC3    C5 9548   3.632   4.520   8.956  0.9832  0.9072  0.1383
  645TMC3    C6 9549   3.625   4.650   8.983  0.3054 -0.7753  0.2627
  645TMC3     C 9550   3.909   4.403   9.166  0.1355 -0.6600  0.5995
  645TMC3     O 9551   4.000   4.460   9.219 -0.4449 -0.2027 -0.0481
  645TMC3     H 9552   3.873   4.657   9.213  0.6495  0.0161 -0.0376
  645TMC3    H1 9553   3.743   4.334   8.974 -1.2912 -1.3210  1.8933
  645TMC3    H2 9554   3.535   4.703   8.955  1.2268  0.3389 -0.6119
  645TMC3    C7 9555   3.547   4.466   8.848  0.0862 -1.1563 -0.5494
  645TMC3    C8 9556   3.690   0.104   9.141  0.2425  0.1088 -0.0906
  645TMC3    O1 9557   3.490   4.547   8.772  0.5820  0.2315  0.1008
  645TMC3    O2 9558   3.719   0.117   9.263 -0.3008 -0.2139  0.4031
  646MPD2     C 9559   1.862   2.938  14.735 -0.0184  0.1192 -0.2480
  646MPD2    C1 9560   1.794   2.975  14.849 -0.3556 -0.1073  0.1116
  646MPD2    C2 9561   1.686   3.060  14.834 -0.1872 -0.5980  0.1943
  646MPD2    C3 9562   1.649   3.106  14.711  0.2167 -0.1399 -0.2075
  646MPD2    C4 9563   1.726   3.071  14.598 -0.6081  0.0627 -0.1952
  646MPD2    C5 9564   1.829   2.979  14.611  0.8954 -0.2259  0.1885
  646MPD2     H 9565   1.630   3.084  14.923 -0.5158 -0.1559 -0.1357
  646MPD2    H1 9566   1.701   3.098  14.496  1.2455  1.9823 -0.1250
  646MPD2    H2 9567   1.937   2.860  14.732 -0.8244 -0.6864  0.9993
  646MPD2    H3 9568   1.878   2.951  14.519  1.1494  0.2143  0.1911
  646MPD2     N 9569   1.534   3.199  14.705 -0.3376  0.3059  0.1394
  646MPD2    H5 9570   1.475   3.206  14.787 -0.4295  1.2929 -0.0140
  646MPD2    N1 9571   1.851   2.936  14.970 -0.7843 -0.1328 -0.3178
  646MPD2    H7 9572   1.933   2.876  14.962 -1.0645 -0.4633 -0.6781
  647TMC3    C1 9573   1.919   2.942  15.198  0.3425  0.3055 -0.6128
  647TMC3    C2 9574   1.874   2.905  15.322  0.1041  0.1762 -0.0995
  647TMC3    C3 9575   1.973   2.867  15.408 -0.6456 -0.7063 -0.0160
  647TMC3    C4 9576   2.046   2.922  15.148 -0.5788  0.0393 -0.7677
  647TMC3    C5 9577   2.138   2.875  15.239 -0.0293 -0.1091  0.6851
  647TMC3    C6 9578   2.106   2.859  15.371  0.9925  0.4580  0.6067
  647TMC3     C 9579   1.815   2.972  15.097  0.0722  0.8015  0.3266
  647TMC3     O 9580   1.710   3.024  15.133 -0.1014 -0.3333  0.1565
  647TMC3     H 9581   1.770   2.912  15.352 -0.5957  0.7469 -2.6788
  647TMC3    H1 9582   2.069   2.976  15.057 -1.2480  0.9113 -0.4145
  647TMC3    H2 9583   2.176   2.832  15.450  1.3277 -1.9541 -0.5288
  647TMC3    C7 9584   2.276   2.846  15.196  0.8558  0.2113  0.2535
  647TMC3    C8 9585   1.935   2.763  15.495  0.8233 -0.1725 -0.5282
  647TMC3    O1 9586   2.338   2.788  15.280 -0.2471  0.2966  0.0431
  647TMC3    O2 9587   1.905   2.661  15.441  0.2763 -0.0123 -0.1658
  648TMC3    C1 9588   1.421   0.930  16.108 -0.4677 -1.0444 -0.3687
  648TMC3    C2 9589   1.461   0.822  16.034 -0.2166  0.0114  0.2392
  648TMC3    C3 9590   1.480   0.847  15.902 -0.7485  0.3934 -0.8273
  648TMC3    C4 9591   1.387   1.054  16.051  0.1347  0.6612  0.3270
  648TMC3    C5 9592   1.419   1.076  15.916 -0.2028 -0.0019  0.0879
  648TMC3    C6 9593   1.475   0.976  15.839 -0.0588  0.0783  0.2109
  648TMC3     C 9594   1.398   0.920  16.248  0.3161  0.4923  0.2568
  648TMC3     O 9595   1.419   1.023  16.308  0.3583 -0.4231 -0.2519
  648TMC3     H 9596   1.486   0.726  16.078  2.2879  0.8334  0.6494
  648TMC3    H1 9597   1.343   1.133  16.110 -0.7247  1.4644 -1.3693
  648TMC3    H2 9598   1.488   0.978  15.731 -0.2601  0.5201  0.1942
  648TMC3    C7 9599   1.352   1.181  15.843  0.2992  0.4220 -0.6994
  648TMC3    C8 9600   1.502   0.740  15.809  0.1143 -1.2576  0.1606
  648TMC3    O1 9601   1.358   1.156  15.723  0.2438 -0.4288  0.3491
  648TMC3    O2 9602   1.562   0.755  15.707 -0.2192 -0.0902 -0.2072
  649TMC3    C1 9603   0.552   1.859  12.530 -0.0841  0.0693  0.5687
  649TMC3    C2 9604   0.672   1.915  12.507 -0.4016 -0.3673 -0.0206
  649TMC3    C3 9605   0.758   1.936  12.615 -0.3284  0.2460 -1.0721
  649TMC3    C4 9606   0.522   1.807  12.654  0.0525 -0.2161  0.1936
  649TMC3    C5 9607   0.611   1.818  12.752  0.1354  0.2074  0.4996
  649TMC3    C6 9608   0.734   1.883  12.738  0.5754 -0.6916  0.2129
  649TMC3     C 9609   0.438   1.904  12.452 -0.2176  0.2706 -0.0103
  649TMC3     O 9610   0.343   1.957  12.508 -0.2984  0.5126  1.0120
  649TMC3     H 9611   0.691   1.970  12.416  0.6498  0.9030  0.9743
  649TMC3    H1 9612   0.420   1.777  12.676 -0.5528  2.5042  1.1329
  649TMC3    H2 9613   0.793   1.899  12.828  1.5202  1.3735 -0.7799
  649TMC3    C7 9614   0.559   1.791  12.886 -0.6024  0.2613 -0.5835
  649TMC3    C8 9615   0.900   1.969  12.591 -0.2022  0.4347  0.0187
  649TMC3    O1 9616   0.601   1.870  12.970 -0.5276 -0.2481  0.5742
  649TMC3    O2 9617   0.981   1.908  12.663 -0.2458  0.1285  0.2288
  650TMC3    C1 9618   3.074   3.997  12.853  0.3233  0.4317  0.6876
  650TMC3    C2 9619   3.084   4.124  12.902  0.4612 -0.5265  0.5346
  650TMC3    C3 9620   2.971   4.198  12.908  0.3943 -0.1425 -0.0532
  650TMC3    C4 9621   2.953   3.944  12.812  0.1011 -0.1270  0.6045
  650TMC3    C5 9622   2.846   4.034  12.804 -0.2509  0.8434  0.2141
  650TMC3    C6 9623   2.850   4.154  12.870 -0.0416 -0.3408 -0.1214
  650TMC3     C 9624   3.198   3.926  12.862 -0.1814 -0.2561  0.3651
  650TMC3     O 9625   3.300   3.992  12.855  0.0679  0.3741  0.3523
  650TMC3     H 9626   3.175   4.170  12.940  1.3914 -2.7033  0.9245
  650TMC3    H1 9627   2.950   3.859  12.745 -0.8514  0.7890 -0.5128
  650TMC3    H2 9628   2.765   4.221  12.868 -0.6574 -1.1240 -0.1310
  650TMC3    C7 9629   2.777   4.030  12.680  0.0733  0.4453  0.5660
  650TMC3    C8 9630   2.990   4.334  12.903  0.3492  0.0426  0.5979
  650TMC3    O1 9631   2.746   3.920  12.640 -0.5043 -0.2529 -0.5007
  650TMC3    O2 9632   3.089   4.370  12.847 -0.0185 -0.4057  0.2127
  651MPD2     C 9633   1.969   0.323  10.805  0.1045 -0.3821 -0.3797
  651MPD2    C1 9634   1.948   0.449  10.859 -0.3393  0.2178  0.5602
  651MPD2    C2 9635   2.054   0.531  10.878  0.5926  0.3046 -0.3960
  651MPD2    C3 9636   2.186   0.490  10.863 -0.1583  0.4816  0.3774
  651MPD2    C4 9637   2.209   0.364  10.812 -0.0265 -0.1111 -0.3418
  651MPD2    C5 9638   2.097   0.285  10.782 -0.2588  0.4554  0.0426
  651MPD2     H 9639   2.031   0.636  10.896 -0.7573  0.2409 -1.7977
  651MPD2    H1 9640   2.308   0.324  10.794 -0.1563 -2.0388  3.2010
  651MPD2    H2 9641   1.894   0.253  10.772  0.5515 -0.4912 -1.1717
  651MPD2    H3 9642   2.119   0.194  10.727  0.2315  2.6409 -3.4121
  651MPD2     N 9643   2.286   0.589  10.884  0.8060  0.5066  0.5581
  651MPD2    H5 9644   2.251   0.676  10.924 -0.5481  1.5892 -3.0056
  651MPD2    N1 9645   1.825   0.489  10.907  0.4447  0.0180 -0.0100
  651MPD2    H7 9646   1.812   0.579  10.952  2.1405  1.0225 -1.5302
  652TMC3    C1 9647   2.690   0.805  10.937  0.4419 -0.1036 -0.1320
  652TMC3    C2 9648   2.629   0.693  10.909  0.1875  0.4947 -0.3559
  652TMC3    C3 9649   2.489   0.698  10.888  0.4619 -0.2206 -1.0456
  652TMC3    C4 9650   2.621   0.922  10.938 -1.1188  0.4886 -0.0359
  652TMC3    C5 9651   2.488   0.926  10.908 -0.3918  0.5638  0.4409
  652TMC3    C6 9652   2.412   0.812  10.890 -0.0199 -0.4236 -0.0923
  652TMC3     C 9653   2.834   0.809  10.955  0.0616  0.1261 -0.3665
  652TMC3     O 9654   2.886   0.714  11.009 -0.5213  0.3547  0.5671
  652TMC3     H 9655   2.684   0.601  10.896  1.5489  1.1131  1.0986
  652TMC3    H1 9656   2.672   1.006  10.984 -2.5875  1.4635 -0.1601
  652TMC3    H2 9657   2.313   0.820  10.848 -0.7810  2.2508  2.2205
  652TMC3    C7 9658   2.415   1.052  10.910 -0.2186  0.1038  0.4774
  652TMC3    C8 9659   2.420   0.573  10.861 -0.2089  0.0827 -0.0063
  652TMC3    O1 9660   2.300   1.037  10.946 -0.5758  0.0424 -0.1596
  652TMC3    O2 9661   2.478   0.465  10.834 -0.0466 -0.2290 -0.7267
  653MPD2     C 9662   1.014   0.821   0.039 -0.1206  0.9431 -0.5534
  653MPD2    C1 9663   0.909   0.905  17.696  0.7098  0.3335  0.0476
  653MPD2    C2 9664   0.793   0.843  17.650  0.3050  0.5214  0.1043
  653MPD2    C3 9665   0.784   0.702  17.640  0.1313  0.3380 -0.3618
  653MPD2    C4 9666   0.890   0.624  17.691 -0.1915 -0.3517 -0.0310
  653MPD2    C5 9667   0.996   0.684   0.041 -0.3792 -0.6494  0.1425
  653MPD2     H 9668   0.709   0.907  17.628 -1.3462 -2.3802 -2.1114
  653MPD2    H1 9669   0.888   0.517   0.009  0.4274 -0.5343 -1.0612
  653MPD2    H2 9670   1.108   0.861   0.075 -0.0026  1.5497 -1.5408
  653MPD2    H3 9671   1.073   0.618   0.081  0.1895  0.2969  0.6198
  653MPD2     N 9672   0.661   0.644  17.588  0.3626 -0.0349  0.3312
  653MPD2    H5 9673   0.592   0.703  17.542 -0.6061 -2.1191 -0.8823
  653MPD2    N1 9674   0.899   1.048   0.024  0.2244  0.3074  0.0714
  653MPD2    H7 9675   0.816   1.084  17.677 -0.4644 -2.4151 -0.7665
  654TMC3    C1 9676   0.516   0.459  17.527 -0.3282  0.7706  0.5434
  654TMC3    C2 9677   0.456   0.535  17.429 -0.0246 -0.5324  0.0276
  654TMC3    C3 9678   0.405   0.457  17.328 -0.1464 -0.4425 -0.7411
  654TMC3    C4 9679   0.506   0.323  17.531 -0.3179  0.1380 -0.0964
  654TMC3    C5 9680   0.422   0.254  17.447 -0.0296 -0.0850 -0.7545
  654TMC3    C6 9681   0.380   0.322  17.340 -0.0626 -0.3486  0.2204
  654TMC3     C 9682   0.620   0.516  17.612  0.1710  0.2416 -0.2077
  654TMC3     O 9683   0.674   0.440  17.693  0.5531 -0.4725 -0.2054
  654TMC3     H 9684   0.471   0.642  17.421 -2.2722 -0.3728 -1.9562
  654TMC3    H1 9685   0.562   0.273  17.609 -0.3372 -1.2757 -0.9838
  654TMC3    H2 9686   0.313   0.269  17.274  0.4640  0.4745 -0.9800
  654TMC3    C7 9687   0.396   0.112  17.467 -0.2219 -0.0261  0.2363
  654TMC3    C8 9688   0.331   0.531  17.224  0.0957  0.2814 -0.4942
  654TMC3    O1 9689   0.337   0.053  17.378  0.0090  0.1851 -0.2371
  654TMC3    O2 9690   0.293   0.644  17.253 -0.0524 -0.2237  0.7703
  655MPD2     C 9691   1.779   0.911  16.109  0.3313 -0.2984  0.1874
  655MPD2    C1 9692   1.781   0.995  16.000 -0.2902  0.5961  0.2860
  655MPD2    C2 9693   1.810   0.933  15.882  0.1033  0.5343 -0.0219
  655MPD2    C3 9694   1.854   0.799  15.873  0.8109 -0.7418  0.4475
  655MPD2    C4 9695   1.855   0.718  15.981 -0.0163  0.1212  0.6059
  655MPD2    C5 9696   1.814   0.778  16.100  0.3378  0.2812 -0.3968
  655MPD2     H 9697   1.819   1.002  15.799  1.0048  2.0455  1.3293
  655MPD2    H1 9698   1.886   0.615  15.981 -2.4729 -0.6203 -1.8580
  655MPD2    H2 9699   1.748   0.938  16.209 -0.5240  2.1901 -0.7730
  655MPD2    H3 9700   1.818   0.717  16.190  1.1587  0.7417 -0.1300
  655MPD2     N 9701   1.902   0.733  15.751 -0.7270  0.2302  0.1706
  655MPD2    H5 9702   1.923   0.634  15.752 -0.4186  0.2901 -0.4646
  655MPD2    N1 9703   1.745   1.132  16.008  0.5860  0.0257  0.3059
  655MPD2    H7 9704   1.716   1.170  15.919  3.3883 -0.9663 -1.0328
  656TMC3    C1 9705   1.676   1.347  16.101  0.7046 -0.0115 -0.0860
  656TMC3    C2 9706   1.623   1.407  16.210  0.9209  0.8984  0.1615
  656TMC3    C3 9707   1.532   1.503  16.207 -0.2082 -0.6558  0.9675
  656TMC3    C4 9708   1.664   1.411  15.984 -0.1429  0.0330  0.6735
  656TMC3    C5 9709   1.570   1.506  15.968  0.9422 -0.4439 -0.6249
  656TMC3    C6 9710   1.504   1.554  16.083  0.2216  0.5563 -0.3323
  656TMC3     C 9711   1.731   1.216  16.121 -0.1442 -0.3401 -0.4900
  656TMC3     O 9712   1.733   1.167  16.233  0.1070  0.2255  0.1433
  656TMC3     H 9713   1.619   1.353  16.304  1.4202  1.4953  0.5237
  656TMC3    H1 9714   1.725   1.386  15.898  1.5995  2.5881  1.1823
  656TMC3    H2 9715   1.414   1.614  16.073  0.3541  0.5944 -1.3256
  656TMC3    C7 9716   1.554   1.564  15.835 -0.0237 -0.0990 -0.1788
  656TMC3    C8 9717   1.405   1.466  16.258 -0.2739  0.0016  0.7754
  656TMC3    O1 9718   1.652   1.560  15.755 -0.6454 -0.5467  0.4554
  656TMC3    O2 9719   1.356   1.359  16.211  0.1346  0.2939  0.4571
  657TMC3    C1 9720   0.712   4.670  14.233 -0.1243 -1.0204  0.7628
  657TMC3    C2 9721   0.629   0.023  14.304 -0.1497  0.6277  0.0378
  657TMC3    C3 9722   0.531   0.087  14.243 -0.2595  0.1193 -0.1930
  657TMC3    C4 9723   0.702   4.641  14.097  0.0436  0.2244 -0.3778
  657TMC3    C5 9724   0.602   4.708  14.031  0.7401 -0.0683 -0.9504
  657TMC3    C6 9725   0.515   0.063  14.105  0.1795 -0.0954  0.1273
  657TMC3     C 9726   0.759   4.552  14.309  0.2755  0.2809 -0.2132
  657TMC3     O 9727   0.769   4.449  14.246 -0.7077 -0.1553  0.4351
  657TMC3     H 9728   0.629   0.031  14.413  1.0914  0.9004  0.0120
  657TMC3    H1 9729   0.767   4.567  14.050  0.6721  1.0448 -0.7879
  657TMC3    H2 9730   0.440   0.113  14.044  1.7487  1.0786 -0.8563
  657TMC3    C7 9731   0.560   4.681  13.891  0.1648 -0.3460 -0.3126
  657TMC3    C8 9732   0.427   0.150  14.320 -0.1281  0.0190 -0.0897
  657TMC3    O1 9733   0.441   4.695  13.869 -0.2259 -0.1395 -0.1730
  657TMC3    O2 9734   0.436   0.141  14.442  0.0810 -0.9228 -0.6352
  658MPD2     C 9735   2.214   0.437  14.961 -0.2170 -0.8855 -0.1861
  658MPD2    C1 9736   2.171   0.562  15.011  0.8468  0.0447 -0.6331
  658MPD2    C2 9737   2.144   0.667  14.922 -0.8882 -0.5951 -0.3817
  658MPD2    C3 9738   2.150   0.645  14.788  0.1431  0.4917 -0.0992
  658MPD2    C4 9739   2.194   0.525  14.735 -0.2127 -0.3022  0.1402
  658MPD2    C5 9740   2.236   0.431  14.826 -0.1872  0.3474  0.1141
  658MPD2     H 9741   2.106   0.764  14.954  4.4924  0.5366  2.6198
  658MPD2    H1 9742   2.191   0.499  14.630 -3.3657 -1.1136  0.4198
  658MPD2    H2 9743   2.225   0.354  15.030 -2.7969 -1.3149 -0.2747
  658MPD2    H3 9744   2.254   0.334  14.782  1.5105  0.6525  0.1628
  658MPD2     N 9745   2.122   0.759  14.707  0.2590 -0.1398  0.0479
  658MPD2    H5 9746   2.079   0.835  14.760  0.6683 -0.6429  1.1116
  658MPD2    N1 9747   2.134   0.569  15.144  0.4481 -0.5188 -0.3073
  658MPD2    H7 9748   2.118   0.488  15.204 -0.5979 -0.1480 -0.0769
  659TMC3    C1 9749   2.010   0.687  15.302  0.5963 -0.8695 -0.2184
  659TMC3    C2 9750   2.026   0.754  15.422  0.0157  0.7142  0.0759
  659TMC3    C3 9751   1.954   0.706  15.531  0.2482  0.2846  0.0704
  659TMC3    C4 9752   1.910   0.589  15.288  0.6345 -0.0941 -0.1046
  659TMC3    C5 9753   1.826   0.568  15.393  0.5019 -0.0919 -0.1606
  659TMC3    C6 9754   1.849   0.626  15.510 -0.2642  0.2222  0.0141
  659TMC3     C 9755   2.111   0.693  15.207  1.8740 -0.1631  0.1069
  659TMC3     O 9756   2.155   0.804  15.177  0.0373 -0.0492  0.2385
  659TMC3     H 9757   2.108   0.822  15.441 -0.7745  2.3318 -2.3579
  659TMC3    H1 9758   1.898   0.540  15.192  1.4200 -1.7384  0.6214
  659TMC3    H2 9759   1.769   0.609  15.581  0.3527 -0.5480  0.5173
  659TMC3    C7 9760   1.681   0.567  15.354  0.3576  0.1816  0.4003
  659TMC3    C8 9761   1.932   0.800  15.635  0.2515  0.2987 -0.1792
  659TMC3    O1 9762   1.611   0.631  15.426 -0.3168  0.8963 -0.2686
  659TMC3    O2 9763   1.928   0.920  15.606 -0.3708 -0.0059 -0.1083
  660MPD2     C 9764   0.244   4.237  12.851 -0.6516 -0.3955  0.2936
  660MPD2    C1 9765   0.128   4.287  12.786  0.4440 -0.0082  0.2292
  660MPD2    C2 9766   0.009   4.236  12.826  0.0859 -0.0700 -0.3585
  660MPD2    C3 9767   4.722   4.152  12.934 -0.1017 -0.8404  0.1271
  660MPD2    C4 9768   0.107   4.108  12.999 -0.1792 -1.0559 -0.3411
  660MPD2    C5 9769   0.228   4.154  12.957  0.2935 -0.5828  0.1249
  660MPD2     H 9770   4.645   4.262  12.769  1.1859  0.6057 -1.7708
  660MPD2    H1 9771   0.081   4.039  13.078  0.2940 -1.3759 -0.4683
  660MPD2    H2 9772   0.346   4.261  12.823 -0.8736  0.0799 -0.1126
  660MPD2    H3 9773   0.318   4.122  13.008 -2.0163 -0.4600  4.2925
  660MPD2     N 9774   4.597   4.099  12.981  0.0896  0.2588  0.0553
  660MPD2    H5 9775   4.614   4.041  13.063 -0.4392  0.2260  0.1430
  660MPD2    N1 9776   0.150   4.361  12.668  0.1464  0.7945  0.1173
  660MPD2    H7 9777   0.247   4.378  12.642  0.0701 -0.8913 -1.2761
  661TMC3    C1 9778   0.094   4.516  12.493  0.0497 -0.0830  0.4390
  661TMC3    C2 9779   0.185   4.479  12.399  0.0859 -0.1340 -0.1049
  661TMC3    C3 9780   0.215   4.563  12.298  0.5147  0.3798  0.6261
  661TMC3    C4 9781   0.029   4.642  12.488  0.1027  0.2570  0.0390
  661TMC3    C5 9782   0.057   0.002  12.381 -0.4651  0.4131 -0.2632
  661TMC3    C6 9783   0.148   4.683  12.280  0.2696  0.7658 -0.3678
  661TMC3     C 9784   0.045   4.424  12.603 -0.1228 -0.8644 -0.6944
  661TMC3     O 9785   4.659   4.458  12.647  0.2134  0.0547 -0.2810
  661TMC3     H 9786   0.227   4.379  12.395 -1.0727 -0.5816 -1.1518
  661TMC3    H1 9787   4.683   4.675  12.564 -0.4952 -0.1115 -0.3523
  661TMC3    H2 9788   0.172   0.025  12.198  1.3813 -2.6164 -2.7796
  661TMC3    C7 9789   4.672   0.088  12.350 -0.1588 -0.4720 -0.5175
  661TMC3    C8 9790   0.319   4.526  12.194 -0.4882 -1.3544  0.1886
  661TMC3    O1 9791   4.621   0.150  12.443  0.2268  0.5906 -0.2406
  661TMC3    O2 9792   0.358   4.409  12.200  0.1809  0.0914 -0.9515
  662MPD2     C 9793   4.692   3.401   0.995  0.4097 -0.3455  0.8149
  662MPD2    C1 9794   4.649   3.382   0.866 -0.0758 -0.1911  0.7330
  662MPD2    C2 9795   4.657   3.486   0.777  0.3665  0.0671  0.4413
  662MPD2    C3 9796   4.721   3.605   0.809 -0.0955 -0.2087  0.2643
  662MPD2    C4 9797   0.039   3.622   0.938  0.0135  0.0835 -0.0583
  662MPD2    C5 9798   0.022   3.525   1.029  0.6784 -0.0356  0.2950
  662MPD2     H 9799   4.616   3.479   0.677  1.2246 -1.4766  0.1993
  662MPD2    H1 9800   0.079   3.715   0.977 -0.5490  0.4046 -0.2402
  662MPD2    H2 9801   4.691   3.328   1.075 -0.8131  0.0079  1.1187
  662MPD2    H3 9802   0.057   3.535   1.132  1.3301 -0.1728  0.0873
  662MPD2     N 9803   0.019   3.713   0.721  0.0421 -0.0158  0.3297
  662MPD2    H5 9804   0.082   3.784   0.758 -1.0849  1.0291  0.2623
  662MPD2    N1 9805   4.591   3.263   0.826  0.1697 -0.2832  1.1156
  662MPD2    H7 9806   4.571   3.256   0.726 -2.3677  2.9028  1.3677
  663TMC3    C1 9807   4.517   3.044   0.820  0.0420 -0.1755 -0.3439
  663TMC3    C2 9808   4.444   3.069   0.705 -0.1054 -0.5963  0.1077
  663TMC3    C3 9809   4.368   2.966   0.649  0.4009  0.2181  0.1222
  663TMC3    C4 9810   4.528   2.919   0.871 -0.4235 -0.0481  0.7566
  663TMC3    C5 9811   4.477   2.813   0.797 -1.0630  0.2363 -0.0323
  663TMC3    C6 9812   4.403   2.836   0.682  0.6188  0.7822 -0.0083
  663TMC3     C 9813   4.563   3.151   0.902  0.0441 -0.7336  0.5508
  663TMC3     O 9814   4.602   3.117   1.012  0.4167  0.1564 -0.1352
  663TMC3     H 9815   4.415   3.174   0.696  1.0060 -0.4389 -1.5706
  663TMC3    H1 9816   4.581   2.908   0.964 -1.4390 -1.2145  1.2101
  663TMC3    H2 9817   4.346   2.749   0.652 -0.4737  1.2641  0.6739
  663TMC3    C7 9818   4.510   2.679   0.847  0.7480  0.4801  0.6119
  663TMC3    C8 9819   4.323   2.985   0.518 -0.4731  0.0744  0.0600
  663TMC3    O1 9820   4.556   2.673   0.962 -0.6337 -0.0142 -0.1148
  663TMC3    O2 9821   4.325   2.891   0.441 -0.1476  0.1466  0.0116
  664MPD2     C 9822   3.105   2.095  17.693  0.0097 -0.0644 -0.1677
  664MPD2    C1 9823   3.134   2.228   0.012 -0.0901 -0.3965 -0.4507
  664MPD2    C2 9824   3.118   2.278   0.138 -0.4691 -0.7199 -0.2064
  664MPD2    C3 9825   3.067   2.203   0.246 -0.5776  0.0909  0.6225
  664MPD2    C4 9826   3.034   2.073   0.222  0.1178  0.7256  0.5771
  664MPD2    C5 9827   3.061   2.013   0.099 -0.8354 -0.5462  0.7081
  664MPD2     H 9828   3.138   2.384   0.148  0.7610 -1.0868  1.1613
  664MPD2    H1 9829   2.989   2.014   0.301 -1.7219 -0.1587 -1.1322
  664MPD2    H2 9830   3.121   2.043  17.600 -1.1981 -1.2299  0.2787
  664MPD2    H3 9831   3.048   1.906   0.085  0.9386 -0.9855  2.4446
  664MPD2     N 9832   3.055   2.267   0.367  0.3117 -0.2327 -0.1722
  664MPD2    H5 9833   3.073   2.367   0.364 -0.5675 -0.0131  1.9135
  664MPD2    N1 9834   3.181   2.310  17.604 -0.0116  0.0401 -0.0134
  664MPD2    H7 9835   3.184   2.410  17.618  0.2122  0.2455 -1.5096
  665TMC3    C1 9836   3.055   2.304   0.599 -0.6575 -0.6091 -0.0020
  665TMC3    C2 9837   3.074   2.240   0.722  0.3124  0.1066 -0.0329
  665TMC3    C3 9838   3.093   2.326   0.821  0.2289  0.3610 -0.5205
  665TMC3    C4 9839   3.039   2.439   0.579 -0.3097  0.8867 -0.1244
  665TMC3    C5 9840   3.039   2.523   0.688 -0.7203 -0.4000 -0.2656
  665TMC3    C6 9841   3.068   2.464   0.806 -0.1078 -0.2130 -0.0136
  665TMC3     C 9842   3.045   2.208   0.489 -0.5128 -0.8608 -0.2559
  665TMC3     O 9843   3.039   2.089   0.518 -0.0120  0.3848  0.2961
  665TMC3     H 9844   3.103   2.136   0.729 -1.8974 -0.6302 -1.7201
  665TMC3    H1 9845   3.002   2.480   0.486  2.6111 -2.7133 -2.8535
  665TMC3    H2 9846   3.057   2.528   0.893  1.8559 -0.8418  0.6937
  665TMC3    C7 9847   2.957   2.642   0.679  0.7939  0.0612  0.4898
  665TMC3    C8 9848   3.094   2.288   0.957 -0.3624  0.0708  0.0238
  665TMC3    O1 9849   2.866   2.649   0.596  0.0288 -0.4508 -0.0783
  665TMC3    O2 9850   3.137   2.371   1.034 -0.6468  0.5697 -0.7630
  666TMC3    C1 9851   3.110   1.953   9.944 -0.7271  0.6770 -0.4971
  666TMC3    C2 9852   3.183   1.888  10.047 -0.2323 -0.6879 -0.7277
  666TMC3    C3 9853   3.265   1.961  10.131 -0.2697  0.0089  0.4384
  666TMC3    C4 9854   3.132   2.087   9.919 -0.4645 -0.1068  0.5165
  666TMC3    C5 9855   3.210   2.151  10.004 -0.2080 -0.3088  0.4411
  666TMC3    C6 9856   3.275   2.096  10.109  1.0023 -0.3144  0.2031
  666TMC3     C 9857   2.973   1.910   9.906  0.7594 -0.0673 -0.4613
  666TMC3     O 9858   2.922   1.954   9.801 -0.0469  0.6741  0.0134
  666TMC3     H 9859   3.170   1.782  10.062 -1.4853 -0.5782 -1.0565
  666TMC3    H1 9860   3.079   2.140   9.841  0.7944  0.5848  0.1230
  666TMC3    H2 9861   3.322   2.158  10.184 -0.0150 -0.3644  0.8771
  666TMC3    C7 9862   3.198   2.297  10.000 -0.1048 -0.4720 -0.7485
  666TMC3    C8 9863   3.256   1.920  10.278 -0.4027  0.4390 -0.3041
  666TMC3    O1 9864   3.079   2.337   9.980 -0.0701 -0.2240 -0.0694
  666TMC3    O2 9865   3.164   1.844  10.301 -0.2058 -0.3823  0.4428
  667MPD2     C 9866   3.526   2.492  14.613  0.2919 -0.2227 -0.3474
  667MPD2    C1 9867   3.499   2.483  14.752  0.1584 -0.0680  0.3075
  667MPD2    C2 9868   3.408   2.389  14.792 -0.1374 -0.3264 -0.6946
  667MPD2    C3 9869   3.343   2.299  14.702  0.1635  0.0988  0.0183
  667MPD2    C4 9870   3.375   2.316  14.567 -0.1363 -0.4031  0.6635
  667MPD2    C5 9871   3.450   2.420  14.519  0.9504 -0.2718  0.2702
  667MPD2     H 9872   3.397   2.391  14.900  0.9333  0.6345 -0.6072
  667MPD2    H1 9873   3.336   2.255  14.485  1.4390 -0.6541  0.0984
  667MPD2    H2 9874   3.597   2.561  14.570  1.3638 -1.4407 -0.5562
  667MPD2    H3 9875   3.455   2.439  14.412  2.9542  2.7116  0.8873
  667MPD2     N 9876   3.251   2.198  14.741  0.3409 -0.1974 -0.2265
  667MPD2    H5 9877   3.217   2.137  14.667 -2.4556  1.5999 -0.4058
  667MPD2    N1 9878   3.569   2.564  14.845 -0.1790  0.2098  0.8430
  667MPD2    H7 9879   3.556   2.556  14.945 -1.2434 -2.4992  0.4855
  668TMC3    C1 9880   3.734   2.701  14.928  0.0178 -0.3425 -0.1092
  668TMC3    C2 9881   3.799   2.820  14.912  0.2792  0.0654 -0.1303
  668TMC3    C3 9882   3.886   2.849  15.010 -0.5188 -0.0628 -0.5570
  668TMC3    C4 9883   3.768   2.609  15.023  0.1227 -0.4581  0.1122
  668TMC3    C5 9884   3.855   2.654  15.121 -0.5023 -0.3817 -0.0321
  668TMC3    C6 9885   3.911   2.777  15.121  0.1586 -0.0635  0.6188
  668TMC3     C 9886   3.667   2.656  14.811  0.1015 -0.0597 -0.6851
  668TMC3     O 9887   3.697   2.712  14.707 -0.2239  0.0852  0.2875
  668TMC3     H 9888   3.762   2.894  14.842  0.6673 -1.8927 -2.4105
  668TMC3    H1 9889   3.734   2.506  15.029  0.1577 -0.5010 -0.3929
  668TMC3    H2 9890   3.973   2.812  15.202  0.3141  1.8406 -0.3105
  668TMC3    C7 9891   3.846   2.591  15.248 -0.6443 -0.2365  0.3155
  668TMC3    C8 9892   3.938   2.982  15.006  0.5019 -0.0482  0.6938
  668TMC3    O1 9893   3.937   2.619  15.323  0.3091 -0.1863 -0.2130
  668TMC3    O2 9894   3.986   3.019  15.110 -0.1835  0.3131  0.2496
  669TMC3    C1 9895   1.660   2.423  14.553  0.2510 -0.0801 -0.7511
  669TMC3    C2 9896   1.561   2.418  14.457  0.4240 -0.6967 -0.7337
  669TMC3    C3 9897   1.592   2.460  14.336  0.0827  0.4128  0.7440
  669TMC3    C4 9898   1.778   2.485  14.526 -0.7349  0.5782  0.7417
  669TMC3    C5 9899   1.797   2.547  14.404  0.0215 -0.1929  0.8301
  669TMC3    C6 9900   1.711   2.519  14.304  0.1540 -0.5257 -0.2766
  669TMC3     C 9901   1.635   2.375  14.688 -0.1395 -0.9682 -0.3581
  669TMC3     O 9902   1.520   2.365  14.734 -0.1626  0.5241  0.4865
  669TMC3     H 9903   1.478   2.351  14.478 -0.3707  0.6098  0.3174
  669TMC3    H1 9904   1.851   2.518  14.599  0.9960 -0.0175 -0.7121
  669TMC3    H2 9905   1.731   2.554  14.203 -1.0668 -0.9632 -0.6669
  669TMC3    C7 9906   1.891   2.657  14.389 -0.1490  0.5736  0.1947
  669TMC3    C8 9907   1.479   2.488  14.240 -0.6166  0.2765 -0.4288
  669TMC3    O1 9908   1.985   2.665  14.466  0.0103 -0.1021 -0.3701
  669TMC3    O2 9909   1.507   2.513  14.123  0.4862  0.3939  0.2346
  670MPD2     C 9910   0.003   4.710  13.297 -0.5560  0.2279  0.8829
  670MPD2    C1 9911   0.091   0.067  13.374 -0.4313 -0.0319  0.1084
  670MPD2    C2 9912   0.057   0.102  13.506  0.2660  0.3644  0.1409
  670MPD2    C3 9913   4.662   0.060  13.554  0.4421  0.2796 -0.1633
  670MPD2    C4 9914   4.590   4.693  13.479  0.1182 -0.5232 -0.4305
  670MPD2    C5 9915   4.617   4.666  13.352 -0.2931 -0.7467  0.6766
  670MPD2     H 9916   0.129   0.146  13.574  1.5251 -1.3134 -0.0879
  670MPD2    H1 9917   4.496   4.653  13.517 -0.7093  2.0362  0.2109
  670MPD2    H2 9918   0.030   4.667  13.202 -0.8270  0.0664  0.8820
  670MPD2    H3 9919   4.559   4.590  13.301 -0.1729 -1.9079  2.2872
  670MPD2     N 9920   4.643   0.085  13.691 -0.0607 -0.2888 -0.0600
  670MPD2    H5 9921   4.716   0.132  13.743 -0.9469 -1.1654  1.9563
  670MPD2    N1 9922   0.208   0.127  13.314 -0.1636  0.3622  0.3563
  670MPD2    H7 9923   0.264   0.184  13.377  2.1634 -1.5270 -0.0258
  671TMC3    C1 9924   4.544   0.054  13.905  0.1292  0.2130 -0.1458
  671TMC3    C2 9925   4.674   0.044  13.958  0.9256 -0.2900 -0.4685
  671TMC3    C3 9926   4.682   4.713  14.083  0.6714 -1.2399  0.8717
  671TMC3    C4 9927   4.436   0.007  13.978 -0.2042 -0.2076 -0.3213
  671TMC3    C5 9928   4.452   4.658  14.093 -0.4397 -0.3657 -0.6453
  671TMC3    C6 9929   4.575   4.662  14.146  0.0067 -0.5002 -0.4583
  671TMC3     C 9930   4.529   0.058  13.757 -0.1121  0.9543  0.0397
  671TMC3     O 9931   4.418   0.023  13.711  0.1294  0.3591 -0.4116
  671TMC3     H 9932   0.044   0.044  13.905  1.5341 -0.3792  0.5940
  671TMC3    H1 9933   4.338   0.023  13.934  0.2609  0.4293 -1.1094
  671TMC3    H2 9934   4.595   4.604  14.235 -0.8891 -1.2871 -0.7647
  671TMC3    C7 9935   4.395   4.529  14.083 -0.1903 -0.3609 -0.1536
  671TMC3    C8 9936   0.081   4.671  14.127 -0.6361  0.1756  0.5037
  671TMC3    O1 9937   4.468   4.430  14.081  0.3573  0.1214  0.0612
  671TMC3    O2 9938   0.151   4.624  14.038 -0.1531  0.3399 -0.2493
  672MPD2     C 9939   4.285   0.793   0.969  0.2631  0.0483  0.8609
  672MPD2    C1 9940   4.371   0.693   0.997  0.8937 -0.2427 -0.1769
  672MPD2    C2 9941   4.503   0.716   1.002  0.3471  0.5752  0.0505
  672MPD2    C3 9942   4.551   0.841   0.981 -0.3937 -0.3674 -0.2506
  672MPD2    C4 9943   4.464   0.941   0.965  0.3120  0.0570 -0.0978
  672MPD2    C5 9944   4.329   0.918   0.958 -0.5022 -1.2938 -0.6082
  672MPD2     H 9945   4.570   0.637   1.036  1.7191  2.3795  1.5451
  672MPD2    H1 9946   4.497   1.045   0.964 -0.0079  0.1717  1.2972
  672MPD2    H2 9947   4.179   0.775   0.956  0.5092 -0.7247 -0.0877
  672MPD2    H3 9948   4.253   0.995   0.950 -0.1714 -0.6211  3.1065
  672MPD2     N 9949   4.689   0.873   0.989  0.3401 -0.3576  0.3229
  672MPD2    H5 9950   4.708   0.964   0.949 -0.4805  0.4392  1.7475
  672MPD2    N1 9951   4.324   0.558   0.999  0.3615  0.5678  0.1619
  672MPD2    H7 9952   4.395   0.486   0.994  1.3386  1.4922  0.8257
  673TMC3    C1 9953   4.217   0.374   0.912  0.5609 -0.6032  0.4621
  673TMC3    C2 9954   4.195   0.270   1.000 -0.4752  0.5797 -0.1795
  673TMC3    C3 9955   4.277   0.162   0.979 -0.3107 -0.4662 -0.4467
  673TMC3    C4 9956   4.287   0.353   0.794 -0.1358 -0.5907  0.1988
  673TMC3    C5 9957   4.354   0.232   0.771  0.2871 -0.2799  0.1413
  673TMC3    C6 9958   4.351   0.142   0.869 -0.3758  0.0222 -0.2253
  673TMC3     C 9959   4.201   0.509   0.957  0.1221 -0.1955  0.2579
  673TMC3     O 9960   4.111   0.574   0.905  0.3139  0.4122  0.5268
  673TMC3     H 9961   4.155   0.295   1.097 -0.9494  0.4377 -0.3363
  673TMC3    H1 9962   4.312   0.442   0.738  1.0233  0.5247  2.5090
  673TMC3    H2 9963   4.390   0.043   0.849 -0.1550  0.6530 -2.8565
  673TMC3    C7 9964   4.479   0.230   0.704  0.0646 -0.0340 -0.4187
  673TMC3    C8 9965   4.314   0.082   1.095 -0.5240 -0.1130 -0.1609
  673TMC3    O1 9966   4.546   0.127   0.709  0.0533  0.0557 -0.4151
  673TMC3    O2 9967   4.244   0.085   1.193  0.1332  0.0886  0.0141
  674MPD2     C 9968   0.342   0.725   0.126 -0.9353 -0.4921 -0.6160
  674MPD2    C1 9969   0.383   0.637   0.222 -0.2224 -0.0761  0.2991
  674MPD2    C2 9970   0.289   0.550   0.281 -0.4209 -0.2911 -0.1316
  674MPD2    C3 9971   0.159   0.549   0.239 -0.3633  0.0909  0.0319
  674MPD2    C4 9972   0.121   0.652   0.150 -0.2621 -0.5260  0.6057
  674MPD2    C5 9973   0.212   0.732   0.093 -0.4756  0.2492 -0.6025
  674MPD2     H 9974   0.322   0.477   0.355 -0.5586  0.9818  1.1874
  674MPD2    H1 9975   0.022   0.669   0.110  0.9747  0.8740 -1.9173
  674MPD2    H2 9976   0.405   0.796   0.074 -1.0969  0.7286  0.8472
  674MPD2    H3 9977   0.178   0.806   0.022 -0.8514  2.5953  2.0394
  674MPD2     N 9978   0.075   0.441   0.275 -0.5211 -0.6207 -0.0303
  674MPD2    H5 9979   0.117   0.365   0.328  0.7597  1.4628  1.9541
  674MPD2    N1 9980   0.515   0.656   0.252  0.1978 -0.9798 -0.3722
  674MPD2    H7 9981   0.555   0.739   0.210 -0.5613 -0.3068  0.2314
  675TMC3    C1 9982   0.731   0.597   0.346 -0.0061 -0.3837 -0.1283
  675TMC3    C2 9983   0.818   0.493   0.378 -0.0928  0.4292 -0.0987
  675TMC3    C3 9984   0.944   0.530   0.415  0.4865 -0.8333  0.0152
  675TMC3    C4 9985   0.762   0.731   0.346  0.1780  0.3306 -1.0049
  675TMC3    C5 9986   0.888   0.764   0.384 -0.3055  0.1761  0.2027
  675TMC3    C6 9987   0.976   0.660   0.424  0.1216 -0.2559 -0.3252
  675TMC3     C 9988   0.591   0.562   0.316  0.0565  0.0440  0.4584
  675TMC3     O 9989   0.565   0.449   0.357  0.3630 -0.1638 -0.2201
  675TMC3     H 9990   0.795   0.388   0.368  0.2666  0.4401 -1.0167
  675TMC3    H1 9991   0.683   0.806   0.349 -0.4260 -0.3785  1.2186
  675TMC3    H2 9992   1.070   0.689   0.470  0.7372 -3.4430  0.4404
  675TMC3    C7 9993   0.929   0.898   0.407  0.0112 -0.6989  0.2753
  675TMC3    C8 9994   1.021   0.430   0.497 -0.1866  0.3364  0.6760
  675TMC3    O1 9995   1.041   0.909   0.460 -0.3990  0.1472 -0.0251
  675TMC3    O2 9996   1.138   0.452   0.526  0.1025  0.2219  0.0520
  676MPD2     C 9997   3.283   3.597  10.856 -0.5089 -0.3656  0.1151
  676MPD2    C1 9998   3.195   3.519  10.932 -0.3436 -0.1593 -0.4479
  676MPD2    C2 9999   3.182   3.385  10.905  0.0521 -0.0516 -0.3559
  676MPD2    C310000   3.251   3.325  10.804  0.2041  0.8280  0.4263
  676MPD2    C410001   3.337   3.407  10.731  0.5639 -0.1205 -0.2589
  676MPD2    C510002   3.356   3.535  10.762  0.0053  0.1197 -0.1931
  676MPD2     H10003   3.106   3.340  10.969  0.5128 -1.9969 -1.1826
  676MPD2    H110004   3.410   3.379  10.655  0.7403 -1.4914  0.4132
  676MPD2    H210005   3.284   3.705  10.868 -3.1069 -0.4443  1.1757
  676MPD2    H310006   3.424   3.599  10.707 -0.2077  1.0294  0.6097
  676MPD2     N10007   3.248   3.187  10.778  0.6082 -0.1858  0.0262
  676MPD2    H510008   3.303   3.154  10.699  1.5827  1.5304 -0.0200
  676MPD2    N110009   3.116   3.581  11.029  0.1986 -0.2649  0.4624
  676MPD2    H710010   3.044   3.530  11.080 -0.5627 -0.5595 -0.8980
  677TMC3    C110011   3.025   3.746  11.172  0.0873 -0.2656 -0.6860
  677TMC3    C210012   2.915   3.665  11.164  0.7440 -0.0982 -0.0803
  677TMC3    C310013   2.825   3.686  11.270  0.3231  0.0765  0.4796
  677TMC3    C410014   3.045   3.842  11.268  0.0156 -0.4037  0.1583
  677TMC3    C510015   2.945   3.863  11.361  0.4699  0.0557  0.5600
  677TMC3    C610016   2.835   3.780  11.361  0.2670 -0.4225  0.3138
  677TMC3     C10017   3.130   3.708  11.083  0.8203 -0.0519 -0.0559
  677TMC3     O10018   3.232   3.775  11.072 -0.2961 -0.1230 -0.0643
  677TMC3     H10019   2.881   3.616  11.074 -0.9641  1.3174 -0.2276
  677TMC3    H110020   3.141   3.893  11.275 -0.3355  0.2842 -0.0455
  677TMC3    H210021   2.747   3.798  11.422  0.0688  1.8590 -0.6429
  677TMC3    C710022   2.968   3.935  11.478  0.4118 -0.2551  0.1487
  677TMC3    C810023   2.705   3.610  11.269 -0.0661  0.2843  0.3588
  677TMC3    O110024   2.876   3.919  11.555 -0.3406 -0.3388  0.2078
  677TMC3    O210025   2.647   3.600  11.158 -0.4635 -0.2883  0.1448
  678MPD2     C10026   3.544   3.716   1.548  0.0040  0.1126  0.3761
  678MPD2    C110027   3.608   3.653   1.444 -0.3784  0.1200 -0.2100
  678MPD2    C210028   3.539   3.581   1.351  1.0471  0.4085  0.3314
  678MPD2    C310029   3.403   3.560   1.375  0.7418  0.3921  0.2452
  678MPD2    C410030   3.339   3.617   1.482  0.0651 -0.4883  0.4689
  678MPD2    C510031   3.410   3.695   1.570 -0.5531  0.0025  0.0329
  678MPD2     H10032   3.594   3.522   1.278  0.8054 -0.6429  1.0005
  678MPD2    H110033   3.232   3.621   1.498 -0.2822 -0.9548 -1.8047
  678MPD2    H210034   3.597   3.784   1.614  2.6617  0.1215 -1.7987
  678MPD2    H310035   3.361   3.752   1.649  1.2021 -1.1599  1.9734
  678MPD2     N10036   3.332   3.500   1.265  0.4413  0.1564  0.3081
  678MPD2    H510037   3.390   3.446   1.201  1.1734 -0.5801  1.5965
  678MPD2    N110038   3.747   3.667   1.421  0.0016  0.0118  0.2779
  678MPD2    H710039   3.768   3.644   1.324 -3.0608 -0.0324 -0.3687
  679TMC3    C110040   4.208   3.680   1.522  0.0001  0.6208  0.9136
  679TMC3    C210041   4.073   3.680   1.559  0.1643  0.0032 -0.1649
  679TMC3    C310042   3.976   3.707   1.471 -0.3745  0.0218  0.0335
  679TMC3    C410043   4.241   3.716   1.393 -0.0085 -0.2217 -0.5275
  679TMC3    C510044   4.142   3.754   1.306  0.2469  0.2109 -0.8242
  679TMC3    C610045   4.010   3.742   1.341  0.0697 -0.4639 -0.5636
  679TMC3     C10046   4.312   3.634   1.612 -0.9676  0.1961 -0.6296
  679TMC3     O10047   4.428   3.636   1.561 -0.5181  0.1403  0.1529
  679TMC3     H10048   4.056   3.638   1.658 -4.0810 -3.4814 -2.4102
  679TMC3    H110049   4.344   3.715   1.361  0.2597 -0.8838  0.3644
  679TMC3    H210050   3.933   3.765   1.269  0.4192  3.9212  0.4763
  679TMC3    C710051   4.182   3.779   1.173  0.6621 -0.1798  1.0160
  679TMC3    C810052   3.838   3.707   1.510 -0.9358  0.0561 -0.3621
  679TMC3    O110053   4.092   3.765   1.086 -0.4930  0.0035  0.4018
  679TMC3    O210054   3.832   3.717   1.631  0.4567 -0.1912  0.1532
  680MPD2     C10055   0.617   2.293  13.605 -0.2938 -0.2568 -0.1049
  680MPD2    C110056   0.588   2.242  13.732 -0.3325  0.5574 -0.0222
  680MPD2    C210057   0.603   2.321  13.849  0.2762 -0.2887  0.5531
  680MPD2    C310058   0.628   2.459  13.839  0.1803  0.1962 -0.3009
  680MPD2    C410059   0.637   2.516  13.713  0.6983 -0.1220  0.6235
  680MPD2    C510060   0.632   2.431  13.599  0.1476  0.0435  0.3471
  680MPD2     H10061   0.577   2.285  13.948 -2.9216  0.3114 -0.0497
  680MPD2    H110062   0.649   2.622  13.698 -0.1240  0.1516  1.9562
  680MPD2    H210063   0.601   2.238  13.514 -1.1806  1.0699 -0.7530
  680MPD2    H310064   0.625   2.475  13.500  1.4378 -0.8342 -0.1368
  680MPD2     N10065   0.647   2.538  13.959  0.3860  0.6209 -0.4316
  680MPD2    H510066   0.632   2.638  13.950  0.7598  0.7776  0.7468
  680MPD2    N110067   0.541   2.107  13.743  0.3269 -0.1394  0.4267
  680MPD2    H710068   0.510   2.084  13.837 -2.0120  0.1677 -0.2784
  681TMC3    C110069   0.487   1.900  13.665 -0.5904  0.0716 -0.3483
  681TMC3    C210070   0.384   1.899  13.759 -0.5352  0.5682  0.2151
  681TMC3    C310071   0.314   1.781  13.766 -0.1434 -0.4417 -0.5602
  681TMC3    C410072   0.522   1.794  13.595 -0.3730 -0.5120 -0.0600
  681TMC3    C510073   0.449   1.682  13.612  0.1091  0.5246  0.0895
  681TMC3    C610074   0.334   1.676  13.683  0.3022 -0.4580 -0.2462
  681TMC3     C10075   0.569   2.012  13.652 -0.9805 -0.3580 -0.1763
  681TMC3     O10076   0.631   2.017  13.548 -0.0815 -0.0391 -0.4148
  681TMC3     H10077   0.347   1.991  13.804 -1.7501 -0.8943  2.1946
  681TMC3    H110078   0.612   1.799  13.535 -0.0860  0.4189  0.4502
  681TMC3    H210079   0.265   1.593  13.689 -0.2680 -0.1118 -2.0174
  681TMC3    C710080   0.472   1.580  13.506  0.0848  0.4651 -0.1000
  681TMC3    C810081   0.187   1.780  13.837  0.7234  1.1925 -0.3041
  681TMC3    O110082   0.443   1.462  13.534  0.3311 -0.4350 -0.2646
  681TMC3    O210083   0.092   1.707  13.802  0.3543 -0.8978  0.2695
  682MPD2     C10084   2.591   3.346  10.557  0.2036  0.2208 -0.3546
  682MPD2    C110085   2.590   3.211  10.548  0.3104 -0.0435 -0.1011
  682MPD2    C210086   2.528   3.137  10.644  0.1348 -0.0029  0.3983
  682MPD2    C310087   2.462   3.190  10.756 -0.1236  0.6817 -0.5637
  682MPD2    C410088   2.472   3.324  10.771 -0.6626  0.1822  0.0920
  682MPD2    C510089   2.533   3.402  10.669  0.3729  0.1109  0.3008
  682MPD2     H10090   2.539   3.030  10.627  0.2098  0.0674  0.0067
  682MPD2    H110091   2.437   3.382  10.856 -0.4792  0.7557 -0.2186
  682MPD2    H210092   2.646   3.409  10.488  2.1360 -0.2714  0.7210
  682MPD2    H310093   2.538   3.510  10.684  0.8373  0.3096 -1.3421
  682MPD2     N10094   2.403   3.106  10.852  1.0681  0.5404  0.3939
  682MPD2    H510095   2.366   3.143  10.939  0.1723 -1.7754  0.9848
  682MPD2    N110096   2.646   3.137  10.437  0.2661  0.0913  0.5445
  682MPD2    H710097   2.615   3.041  10.428 -1.6045  0.7854 -0.4139
  683TMC3    C110098   2.295   2.872  11.174 -0.3572  0.0202  0.1984
  683TMC3    C210099   2.280   2.735  11.159 -0.6011  0.4101  0.2217
  683TMC3    C310100   2.279   2.682  11.032 -0.1015  0.5217  0.3243
  683TMC3    C410101   2.308   2.954  11.060 -0.7456  0.2923  0.2419
  683TMC3    C510102   2.324   2.896  10.936  0.6185 -0.7295 -0.0364
  683TMC3    C610103   2.311   2.756  10.923 -1.1389  0.4651  0.2182
  683TMC3     C10104   2.293   2.932  11.309  0.0171 -0.1720  0.0944
  683TMC3     O10105   2.277   3.054  11.316 -0.1238 -0.1598 -0.9376
  683TMC3     H10106   2.271   2.679  11.252  0.3919  0.1807  0.1808
  683TMC3    H110107   2.318   3.060  11.082  2.1596 -0.1537  1.0460
  683TMC3    H210108   2.327   2.712  10.825 -1.2522  1.2891 -0.1627
  683TMC3    C710109   2.380   2.974  10.824 -0.2140  1.0604 -0.0520
  683TMC3    C810110   2.306   2.536  11.028 -0.4869 -0.6176  0.4135
  683TMC3    O110111   2.381   2.911  10.721 -0.1948  0.3377 -0.0574
  683TMC3    O210112   2.372   2.501  10.931 -0.2893  0.5558  0.0862
  684MPD2     C10113   0.134   2.544  16.603 -0.2831  0.3701  0.1028
  684MPD2    C110114   0.103   2.598  16.483 -0.0794 -0.5260 -0.1756
  684MPD2    C210115   0.081   2.739  16.469 -0.1650 -0.4962 -0.2049
  684MPD2    C310116   0.079   2.813  16.587 -0.4704  0.1272 -0.3475
  684MPD2    C410117   0.101   2.754  16.710 -0.9656 -0.7061 -0.5723
  684MPD2    C510118   0.134   2.625  16.715 -1.0317 -0.0923  0.3963
  684MPD2     H10119   0.065   2.796  16.378  1.3224 -1.5300 -1.1316
  684MPD2    H110120   0.101   2.805  16.805  1.0345 -0.6506 -0.5969
  684MPD2    H210121   0.165   2.443  16.627 -0.3573  0.5320  0.8797
  684MPD2    H310122   0.135   2.580  16.814  4.6398  0.5376  0.5988
  684MPD2     N10123   0.061   2.961  16.588  0.3505  0.2371 -0.0610
  684MPD2    H510124   0.072   3.014  16.674  1.7032 -1.6568  0.9204
  684MPD2    N110125   0.118   2.526  16.364 -0.2711 -0.4207 -0.0669
  684MPD2    H710126   0.055   2.549  16.288 -0.0872  1.7099  0.4464
  685TMC3    C110127   0.244   2.375  16.213  0.9122 -0.1683 -0.7916
  685TMC3    C210128   0.219   2.460  16.103  0.6901  0.0309 -0.1636
  685TMC3    C310129   0.297   2.431  15.988  0.1629 -0.4261  0.8224
  685TMC3    C410130   0.327   2.264  16.201  0.0797  0.3684  0.0236
  685TMC3    C510131   0.403   2.238  16.093 -0.6392  0.2500 -0.6005
  685TMC3    C610132   0.389   2.327  15.988  0.1296 -0.5654  0.3813
  685TMC3     C10133   0.209   2.418  16.350 -0.5984  0.2166  0.1773
  685TMC3     O10134   0.287   2.378  16.431  0.4326  0.0669 -0.0822
  685TMC3     H10135   0.156   2.547  16.113 -0.5460 -0.9632  0.6472
  685TMC3    H110136   0.346   2.208  16.292  0.4251  1.4187  0.6008
  685TMC3    H210137   0.448   2.314  15.899  0.3871  0.9500  0.3299
  685TMC3    C710138   0.537   2.194  16.119  0.7347 -0.1153  0.3482
  685TMC3    C810139   0.249   2.474  15.862 -0.1462 -0.5674  0.7273
  685TMC3    O110140   0.549   2.125  16.216  0.1920 -0.8128  0.2370
  685TMC3    O210141   0.300   2.417  15.768 -0.1794 -0.1780  0.1282
  686MPD2     C10142   1.547   2.882  15.768  0.1036 -0.2076  0.5014
  686MPD2    C110143   1.614   2.793  15.845  0.4641  0.1781 -0.0918
  686MPD2    C210144   1.668   2.687  15.784 -0.6666  0.5718  0.6878
  686MPD2    C310145   1.637   2.649  15.654  0.7377  0.2032  0.1332
  686MPD2    C410146   1.567   2.745  15.582 -0.3326 -0.7811 -0.2281
  686MPD2    C510147   1.531   2.867  15.634  0.1450  0.1031 -0.5763
  686MPD2     H10148   1.720   2.618  15.849 -1.5511  0.8407  1.6885
  686MPD2    H110149   1.544   2.728  15.478  3.5116 -0.8191 -1.0449
  686MPD2    H210150   1.499   2.963  15.820  2.2962 -0.1118  2.3566
  686MPD2    H310151   1.485   2.946  15.576 -0.0975 -0.6764 -1.4346
  686MPD2     N10152   1.647   2.522  15.594  0.3265 -0.1683  0.1897
  686MPD2    H510153   1.666   2.524  15.494 -0.6109  0.9440  0.0283
  686MPD2    N110154   1.617   2.814  15.985  0.0364 -0.4104 -0.4972
  686MPD2    H710155   1.581   2.905  16.013  0.6815 -0.6184  1.0304
  687TMC3    C110156   1.618   2.381  15.789  0.3483  0.0548 -0.6979
  687TMC3    C210157   1.494   2.434  15.822  0.0253 -0.0147 -0.1174
  687TMC3    C310158   1.436   2.389  15.941  0.3735 -0.6314  0.0153
  687TMC3    C410159   1.688   2.295  15.870 -0.4031 -0.1945  0.0303
  687TMC3    C510160   1.629   2.268  15.988 -0.4050 -0.5707  0.6186
  687TMC3    C610161   1.506   2.319  16.024 -0.0668  0.6741 -0.6184
  687TMC3     C10162   1.682   2.408  15.664  0.3621 -0.6275 -0.0509
  687TMC3     O10163   1.740   2.316  15.613  0.4482 -0.1530  0.0933
  687TMC3     H10164   1.443   2.514  15.769  1.6660  0.4529 -0.9911
  687TMC3    H110165   1.785   2.257  15.841  1.3408  2.5466  2.3454
  687TMC3    H210166   1.463   2.281  16.116 -1.2260 -3.5957 -2.9512
  687TMC3    C710167   1.705   2.218  16.105  0.0772 -0.4587 -0.1881
  687TMC3    C810168   1.335   2.474  16.001  0.5835 -0.0089  0.1215
  687TMC3    O110169   1.674   2.262  16.215  0.2116  0.2869 -0.0717
  687TMC3    O210170   1.349   2.492  16.124  0.1914 -0.5131 -0.0080
  688MPD2     C10171   0.791   1.679  17.356 -0.4629  0.4507  0.2968
  688MPD2    C110172   0.812   1.546  17.376  0.0607 -0.5909 -0.7917
  688MPD2    C210173   0.825   1.466  17.265  0.0477 -0.0306 -0.1672
  688MPD2    C310174   0.828   1.515  17.142  0.5505 -0.1853 -0.6597
  688MPD2    C410175   0.806   1.650  17.121  0.0799  0.6468 -0.3570
  688MPD2    C510176   0.787   1.732  17.227  0.1032 -0.4542  0.1107
  688MPD2     H10177   0.838   1.362  17.294 -2.1195 -0.3091 -0.1590
  688MPD2    H110178   0.802   1.688  17.020  0.0816 -0.5418 -0.8075
  688MPD2    H210179   0.771   1.749  17.436  1.7479  0.0583  1.1836
  688MPD2    H310180   0.769   1.838  17.212  0.7001 -0.0709  2.0496
  688MPD2     N10181   0.873   1.440  17.034 -0.2893 -0.0392 -0.0561
  688MPD2    H510182   0.901   1.498  16.956  0.2651 -0.1490  0.0655
  688MPD2    N110183   0.825   1.489  17.501 -0.4034  0.3066 -0.7904
  688MPD2    H710184   0.837   1.388  17.494 -0.6097  0.1325  1.4827
  689TMC3    C110185   0.886   1.465   0.018  0.0036 -0.1291  0.0557
  689TMC3    C210186   0.941   1.533   0.123  0.4096  0.3056  0.1624
  689TMC3    C310187   1.021   1.462   0.209  0.2028 -0.6843  0.3335
  689TMC3    C410188   0.907   1.331  17.697  0.1670 -0.1045 -0.2891
  689TMC3    C510189   0.980   1.262   0.093  0.1761 -0.2110  0.2575
  689TMC3    C610190   1.039   1.327   0.195  1.0036  0.3281  0.5069
  689TMC3     C10191   0.836   1.550  17.622  0.5899 -0.5982 -0.4995
  689TMC3     O10192   0.803   1.666  17.650 -0.0943 -0.3847  0.0855
  689TMC3     H10193   0.927   1.639   0.137  2.0349  0.5887 -0.3377
  689TMC3    H110194   0.858   1.275  17.618  0.6047 -0.4655 -0.3060
  689TMC3    H210195   1.080   1.270   0.277  0.1003 -1.3013 -0.1731
  689TMC3    C710196   1.000   1.120   0.087  0.2927  0.7997 -0.2731
  689TMC3    C810197   1.061   1.537   0.332 -0.5212 -0.1084  0.0254
  689TMC3    O110198   1.090   1.073   0.156  0.7262  0.1269  0.3281
  689TMC3    O210199   0.997   1.635   0.360 -0.7251  0.1932 -0.6755
  690MPD2     C10200   3.158   3.137  15.753 -0.3356  0.1106  0.5167
  690MPD2    C110201   3.045   3.200  15.717  0.8052 -0.0988  0.2284
  690MPD2    C210202   3.028   3.339  15.743  0.8490 -0.0179 -0.4587
  690MPD2    C310203   3.134   3.409  15.804 -0.4292  0.3836 -0.1062
  690MPD2    C410204   3.244   3.334  15.857  0.3693  0.5541  0.3629
  690MPD2    C510205   3.255   3.201  15.827  0.4180  0.0673  0.0278
  690MPD2     H10206   2.935   3.388  15.719  0.4327 -0.5147  0.1374
  690MPD2    H110207   3.331   3.382  15.900  0.0878  2.6358 -1.4119
  690MPD2    H210208   3.163   3.030  15.735 -2.6462  0.0001  0.4514
  690MPD2    H310209   3.339   3.144  15.865  1.4545  1.9935  0.6562
  690MPD2     N10210   3.144   3.550  15.797 -0.3433  0.2637  0.1350
  690MPD2    H510211   3.233   3.586  15.830 -0.0922 -0.3239  0.0978
  690MPD2    N110212   2.942   3.121  15.656  0.2360 -0.5037 -0.1053
  690MPD2    H710213   2.968   3.034  15.611 -0.8004  0.7997 -3.2485
  691TMC3    C110214   2.711   3.079  15.582  0.6177 -0.0045 -0.4845
  691TMC3    C210215   2.583   3.119  15.608 -0.1102  0.4239 -0.7526
  691TMC3    C310216   2.481   3.029  15.572 -0.7988 -0.2089  0.7244
  691TMC3    C410217   2.740   2.957  15.535  0.3624 -0.2775 -0.7230
  691TMC3    C510218   2.645   2.862  15.514  0.0534 -0.2154  0.1636
  691TMC3    C610219   2.518   2.908  15.527  0.1743 -0.3215 -0.0153
  691TMC3     C10220   2.810   3.160  15.661 -0.3951 -0.2500  0.4493
  691TMC3     O10221   2.765   3.244  15.734 -0.3375 -0.1262  0.0467
  691TMC3     H10222   2.569   3.222  15.640  0.4000  0.5251 -0.8468
  691TMC3    H110223   2.846   2.935  15.522  0.4546  0.7776 -1.7553
  691TMC3    H210224   2.439   2.837  15.508 -2.7267  2.6606  0.7889
  691TMC3    C710225   2.669   2.750  15.423 -0.3367  0.0600 -1.0717
  691TMC3    C810226   2.381   3.032  15.676  0.3473 -0.3910  0.4998
  691TMC3    O110227   2.748   2.762  15.331 -0.2879  0.3629 -0.2693
  691TMC3    O210228   2.325   2.926  15.703 -0.6404  0.5627  0.4332
  692TMC3    C110229   4.636   4.314  15.924 -0.4687 -0.2448  0.4277
  692TMC3    C210230   0.016   4.345  16.008 -0.1098 -0.1674 -0.0590
  692TMC3    C310231   0.104   4.241  16.048 -0.7109 -1.0057  0.4156
  692TMC3    C410232   4.612   4.195  15.871 -0.3161  0.6031 -0.5666
  692TMC3    C510233   4.693   4.094  15.907 -0.1010  0.4904 -0.8242
  692TMC3    C610234   0.064   4.118  16.004  0.4154 -0.2926 -0.0190
  692TMC3     C10235   4.532   4.417  15.909 -0.2575  0.4258  0.0374
  692TMC3     O10236   4.411   4.388  15.908 -0.1719  0.1673  0.3544
  692TMC3     H10237   0.015   4.438  16.065  0.2068 -1.9124  2.7850
  692TMC3    H110238   4.519   4.172  15.820 -0.9545  4.3194 -1.1183
  692TMC3    H210239   0.146   4.051  16.025  0.2475  0.3588  2.8109
  692TMC3    C710240   4.664   3.957  15.876 -0.1650  1.0409  0.1023
  692TMC3    C810241   0.134   4.232  16.190 -0.5438  0.5327  1.4094
  692TMC3    O110242   4.571   3.943  15.796 -0.3552 -0.6771  0.3380
  692TMC3    O210243   0.142   4.116  16.235  0.0892  0.0010 -0.0700
  693MPD2     C10244   4.387   2.334  10.416  0.1073 -0.0277 -0.2424
  693MPD2    C110245   4.352   2.200  10.415  0.8258 -0.3783  0.2222
  693MPD2    C210246   4.446   2.098  10.400 -0.4711  0.8119  0.0417
  693MPD2    C310247   4.577   2.128  10.394 -0.0397 -0.1480  0.1190
  693MPD2    C410248   4.621   2.258  10.404 -0.1466 -0.1987 -0.3882
  693MPD2    C510249   4.522   2.354  10.407 -0.1765 -0.5691 -0.4614
  693MPD2     H10250   4.424   1.992  10.411  3.9346 -0.4476 -3.3572
  693MPD2    H110251   0.002   2.283  10.411 -0.6397  1.3618  1.5328
  693MPD2    H210252   4.327   2.418  10.451  0.9779 -0.1549  1.5559
  693MPD2    H310253   4.557   2.456  10.411 -2.9204  0.2931  1.0551
  693MPD2     N10254   4.678   2.029  10.397 -0.1108  0.2748  0.2798
  693MPD2    H510255   0.046   2.064  10.422  0.3443 -0.7702  0.0521
  693MPD2    N110256   4.226   2.170  10.462 -0.3884 -0.1616  0.0842
  693MPD2    H710257   4.168   2.248  10.488  1.1641  1.3124 -0.8713
  694TMC3    C110258   4.054   2.039  10.554 -0.3458 -0.4453  0.0186
  694TMC3    C210259   3.964   1.934  10.532 -0.3541  0.1543  0.7905
  694TMC3    C310260   3.863   1.910  10.623  0.3822  0.4251  0.7880
  694TMC3    C410261   4.048   2.111  10.667 -0.2030  0.3873 -0.4453
  694TMC3    C510262   3.962   2.062  10.765 -0.2713  1.0515 -0.1120
  694TMC3    C610263   3.870   1.965  10.745  0.1391  0.0153  0.9533
  694TMC3     C10264   4.162   2.051  10.453  0.3926  0.7300  0.3879
  694TMC3     O10265   4.197   1.947  10.400 -0.1200 -0.2293 -0.4812
  694TMC3     H10266   3.982   1.879  10.440 -0.8167 -1.0349  1.4042
  694TMC3    H110267   4.130   2.174  10.698 -0.5721  1.2698 -1.2666
  694TMC3    H210268   3.795   1.931  10.816 -0.6065 -0.0416  0.1290
  694TMC3    C710269   3.978   2.117  10.892 -0.0675 -0.9370 -0.5643
  694TMC3    C810270   3.771   1.810  10.587  0.3746  0.6361 -0.6660
  694TMC3    O110271   4.031   2.226  10.906  0.1570  0.1395  0.0301
  694TMC3    O210272   3.733   1.744  10.681 -0.1708  0.2932  0.3808
  695MPD2     C10273   0.375   3.926  13.500  0.1348  1.0094  0.0644
  695MPD2    C110274   0.338   4.034  13.570 -0.2498  0.2744  0.0331
  695MPD2    C210275   0.214   4.087  13.551  0.5309 -0.9965  0.8887
  695MPD2    C310276   0.125   4.040  13.464 -0.3721 -0.7530 -0.3548
  695MPD2    C410277   0.172   3.942  13.375  0.2990 -0.2994  0.1208
  695MPD2    C510278   0.297   3.890  13.398  0.1348  0.2158 -0.9642
  695MPD2     H10279   0.165   4.154  13.620  0.3519 -0.6041  0.3762
  695MPD2    H110280   0.113   3.902  13.292  1.6596 -1.3474 -0.3444
  695MPD2    H210281   0.477   3.889  13.503  1.3787  4.5711  1.1733
  695MPD2    H310282   0.334   3.816  13.327  0.0500 -0.1465 -0.6313
  695MPD2     N10283   4.717   4.090  13.462  0.3997 -0.0089 -1.1024
  695MPD2    H510284   4.686   4.139  13.545 -0.6936  1.2086 -2.2414
  695MPD2    N110285   0.404   4.086  13.684  0.2831  0.0876 -0.3261
  695MPD2    H710286   0.367   4.170  13.727 -0.4466 -1.3115  1.7502
  696TMC3    C110287   4.494   4.112  13.411 -0.0883  0.6512  0.1329
  696TMC3    C210288   4.449   4.096  13.541 -0.2273  0.1212 -0.6308
  696TMC3    C310289   4.327   4.143  13.571 -0.3745  0.5454  0.7113
  696TMC3    C410290   4.415   4.162  13.313 -0.1470  0.3027 -0.1559
  696TMC3    C510291   4.296   4.213  13.351  0.8483  0.3074  0.1666
  696TMC3    C610292   4.251   4.202  13.480 -0.1378 -0.1694 -0.1175
  696TMC3     C10293   4.622   4.062  13.370  0.3979  0.1090  0.5780
  696TMC3     O10294   4.636   4.020  13.257  0.0926  0.0981 -0.2069
  696TMC3     H10295   4.505   4.053  13.623  0.0198  0.8736 -0.4057
  696TMC3    H110296   4.454   4.183  13.213 -0.3583  0.6251 -0.1714
  696TMC3    H210297   4.165   4.259  13.512  0.1952  0.6121 -0.6202
  696TMC3    C710298   4.254   4.332  13.274 -0.7347  0.0684 -0.1126
  696TMC3    C810299   4.292   4.149  13.713 -0.5145 -0.4384 -0.5417
  696TMC3    O110300   4.290   4.325  13.160 -0.1972  0.1477  0.3702
  696TMC3    O210301   4.391   4.146  13.792 -0.2329 -0.4540  0.0058
  697MPD2     C10302   4.390   1.740  15.578  0.3648  0.3670  0.1726
  697MPD2    C110303   4.355   1.675  15.456 -0.4728 -0.4513  0.1672
  697MPD2    C210304   4.327   1.748  15.336 -0.2772 -0.2337  0.4792
  697MPD2    C310305   4.340   1.891  15.338  0.4006 -0.1797  0.1433
  697MPD2    C410306   4.365   1.949  15.460  0.1754  0.5030  0.0375
  697MPD2    C510307   4.389   1.875  15.575  0.0374 -0.0310 -0.1391
  697MPD2     H10308   4.292   1.705  15.243  1.0586  1.5363 -0.8530
  697MPD2    H110309   4.359   2.057  15.473  1.2071  0.7981 -1.9392
  697MPD2    H210310   4.416   1.683  15.666 -1.9772 -0.8693  0.0878
  697MPD2    H310311   4.409   1.937  15.662 -2.3066  0.7942 -0.1788
  697MPD2     N10312   4.315   1.976  15.224 -0.1617 -0.1781  0.3586
  697MPD2    H510313   4.258   1.949  15.144 -0.3550  0.3310  0.3279
  697MPD2    N110314   4.356   1.533  15.443 -0.4228  0.7595  0.4837
  697MPD2    H710315   4.335   1.494  15.352 -1.4921 -0.8610  1.4171
  698TMC3    C110316   4.348   2.171  15.096  0.4548 -0.2186  0.7146
  698TMC3    C210317   4.444   2.257  15.056  0.1079 -0.4615 -0.5574
  698TMC3    C310318   4.435   2.320  14.930  0.4027  0.3591 -0.8681
  698TMC3    C410319   4.247   2.130  15.009 -0.0198 -0.1194 -0.0179
  698TMC3    C510320   4.241   2.191  14.889  0.4603 -0.1805  0.0865
  698TMC3    C610321   4.342   2.272  14.845  0.5115 -0.2195  0.2858
  698TMC3     C10322   4.374   2.100  15.215  0.3177 -0.2022 -0.1090
  698TMC3     O10323   4.471   2.145  15.282 -0.0026  0.3309  0.6942
  698TMC3     H10324   4.528   2.275  15.121 -1.0461 -0.5000  0.9537
  698TMC3    H110325   4.164   2.064  15.032 -0.4052  0.4489  0.2152
  698TMC3    H210326   4.336   2.307  14.742  0.9416 -3.7825 -0.9622
  698TMC3    C710327   4.159   2.115  14.793 -0.1610 -0.4992  0.3692
  698TMC3    C810328   4.557   2.375  14.866 -0.0734  0.1005  0.2683
  698TMC3    O110329   4.040   2.099  14.823  0.4535 -0.9211  0.0770
  698TMC3    O210330   4.554   2.386  14.745  0.4192 -0.4327  0.5287
  699TMC3    C110331   4.369   4.040  12.978 -0.2546  0.0080  0.1239
  699TMC3    C210332   4.386   3.927  13.037  0.0846 -0.5204  0.2775
  699TMC3    C310333   4.272   3.851  13.062  0.6273 -0.1417  0.2356
  699TMC3    C410334   4.238   4.086  12.947  0.3189 -0.0951  0.3916
  699TMC3    C510335   4.128   4.008  12.962 -0.0930 -0.9328 -0.1683
  699TMC3    C610336   4.147   3.886  13.017  0.6903  0.4905  0.0397
  699TMC3     C10337   4.472   4.129  12.931 -0.3225 -0.2821 -0.3610
  699TMC3     O10338   4.450   4.196  12.830 -0.1644 -0.3940  0.1454
  699TMC3     H10339   4.482   3.895  13.077  1.2103 -0.3099 -2.2539
  699TMC3    H110340   4.230   4.186  12.906  2.0399 -0.4838 -0.8879
  699TMC3    H210341   4.059   3.825  13.034 -0.4403  1.8508 -0.8926
  699TMC3    C710342   4.012   4.088  12.995 -0.0051 -0.3156 -0.1361
  699TMC3    C810343   4.252   3.777  13.190  0.0085 -0.3097 -0.5440
  699TMC3    O110344   4.015   4.208  13.012  0.7703  0.1389  0.1142
  699TMC3    O210345   4.139   3.758  13.232 -0.5753  0.6831 -0.0088
  700TMC3    C110346   3.547   1.696  16.989 -0.7675  0.5568 -0.0732
  700TMC3    C210347   3.607   1.577  16.960 -1.0320  0.3592 -0.6972
  700TMC3    C310348   3.611   1.479  17.054  0.0930  0.4506  0.3616
  700TMC3    C410349   3.490   1.716  17.105  0.4585  0.4878 -0.4221
  700TMC3    C510350   3.502   1.618  17.199  0.7379  0.8179  0.0528
  700TMC3    C610351   3.563   1.497  17.183 -0.6148 -0.0100 -0.4609
  700TMC3     C10352   3.576   1.808  16.899 -0.1089 -0.3488 -0.1489
  700TMC3     O10353   3.619   1.782  16.789  0.0337 -0.3440  0.3055
  700TMC3     H10354   3.653   1.560  16.863 -0.0888 -0.2574 -0.1446
  700TMC3    H110355   3.433   1.807  17.123 -1.3900 -0.6758 -0.4999
  700TMC3    H210356   3.576   1.429  17.267 -0.7942 -3.1850 -2.9893
  700TMC3    C710357   3.435   1.656  17.324 -0.1680  0.3290 -0.3721
  700TMC3    C810358   3.727   1.389  17.033  0.0621 -0.4458  0.1715
  700TMC3    O110359   3.391   1.771  17.337  0.6797 -0.4814  0.5726
  700TMC3    O210360   3.820   1.424  16.967 -0.4730 -0.4020 -0.2163
  701TMC3    C110361   3.252   0.485  15.441  0.3956  0.8542  0.2718
  701TMC3    C210362   3.241   0.459  15.310  0.0769 -0.4669 -0.7467
  701TMC3    C310363   3.332   0.522  15.230  0.7125 -0.0403  0.3417
  701TMC3    C410364   3.351   0.554  15.499  0.3391  0.3920  0.4004
  701TMC3    C510365   3.448   0.594  15.417 -0.5675 -0.4253  0.2083
  701TMC3    C610366   3.437   0.590  15.282 -0.3090  0.1889  0.5238
  701TMC3     C10367   3.157   0.421  15.527  0.4352  0.8395 -0.1967
  701TMC3     O10368   3.067   0.359  15.470  0.4352 -0.6295  0.0171
  701TMC3     H10369   3.152   0.408  15.278 -0.6452 -0.2302  0.9072
  701TMC3    H110370   3.362   0.574  15.605 -2.8529  1.2950  0.5838
  701TMC3    H210371   3.517   0.618  15.215  0.9738 -3.7022  0.4383
  701TMC3    C710372   3.554   0.684  15.462 -0.3230  0.1283 -0.1846
  701TMC3    C810373   3.339   0.492  15.082 -0.2865  0.0397  0.8178
  701TMC3    O110374   3.608   0.747  15.370  0.1528 -0.1937 -0.3344
  701TMC3    O210375   3.447   0.505  15.022  0.4409  0.1648 -0.3869
  702MPD2     C10376   3.687   2.734  10.420 -0.4875  0.0379 -1.2990
  702MPD2    C110377   3.622   2.852  10.434 -0.1446 -0.1831 -0.2545
  702MPD2    C210378   3.674   2.959  10.363 -0.5979 -0.2729  0.2320
  702MPD2    C310379   3.795   2.943  10.295  0.1492  0.4383  0.0784
  702MPD2    C410380   3.853   2.825  10.283 -0.4333  0.1573 -0.0330
  702MPD2    C510381   3.799   2.719  10.341  0.0943  0.8872  0.3049
  702MPD2     H10382   3.619   3.053  10.366  1.3349  0.8241  1.3712
  702MPD2    H110383   3.940   2.808  10.220 -0.4203 -0.5858  0.1842
  702MPD2    H210384   3.656   2.638  10.459 -0.0005 -0.2005 -1.4922
  702MPD2    H310385   3.844   2.622  10.324 -0.0518  0.9409 -0.3892
  702MPD2     N10386   3.864   3.049  10.234  0.5418 -0.0426 -0.7416
  702MPD2    H510387   3.954   3.038  10.188  2.7927  1.3074  3.3295
  702MPD2    N110388   3.496   2.871  10.502 -0.1561  0.2275 -0.7349
  702MPD2    H710389   3.445   2.958  10.488  0.0664  0.4637 -0.1051
  703TMC3    C110390   3.888   3.272  10.149 -0.1563  0.1296  0.4863
  703TMC3    C210391   3.818   3.370  10.091  0.2883 -0.4197  0.4222
  703TMC3    C310392   3.867   3.499  10.097 -0.1892  0.0306 -0.0847
  703TMC3    C410393   4.012   3.292  10.199 -0.3548 -0.4332  0.6908
  703TMC3    C510394   4.061   3.416  10.170  0.6389  0.1984 -0.1829
  703TMC3    C610395   3.990   3.525  10.133  0.2598  0.7314 -0.6696
  703TMC3     C10396   3.808   3.169  10.210  0.8748  1.1608  1.2472
  703TMC3     O10397   3.692   3.209  10.208 -0.0233 -0.3891 -0.3733
  703TMC3     H10398   3.722   3.355  10.045 -1.4333  4.2155  2.4658
  703TMC3    H110399   4.067   3.210  10.245 -2.7308 -1.2506  2.0585
  703TMC3    H210400   4.033   3.624  10.119 -0.8289  1.1172 -1.3219
  703TMC3    C710401   4.202   3.440  10.184  0.3664 -0.2109 -0.4654
  703TMC3    C810402   3.770   3.611  10.127  0.3079  0.8105  0.3803
  703TMC3    O110403   4.258   3.530  10.129  0.0595 -0.1689 -0.1706
  703TMC3    O210404   3.811   3.723  10.122  0.4443  0.3156  0.4313
  704TMC3    C110405   0.902   1.232  12.958 -1.0405 -0.2905  0.1465
  704TMC3    C210406   1.006   1.281  12.886 -0.5694 -0.5122 -0.3624
  704TMC3    C310407   1.132   1.258  12.922  0.1457  0.4399  0.7920
  704TMC3    C410408   0.921   1.160  13.074 -0.1574 -0.5792  0.1142
  704TMC3    C510409   1.050   1.124  13.098 -0.6257  0.5965  0.0721
  704TMC3    C610410   1.159   1.164  13.023  0.7446 -0.5742 -1.0370
  704TMC3     C10411   0.798   1.180  12.884  0.1937 -0.0841  0.4594
  704TMC3     O10412   0.687   1.190  12.935 -0.3307  0.0186 -0.4824
  704TMC3     H10413   0.990   1.329  12.790 -0.3813 -0.1504 -0.2119
  704TMC3    H110414   0.831   1.130  13.126 -0.1325  0.5138  0.7964
  704TMC3    H210415   1.256   1.125  13.054  0.2377  0.3947  1.7966
  704TMC3    C710416   1.065   0.984  13.120  0.3766  0.0418 -0.2830
  704TMC3    C810417   1.217   1.233  12.807  0.2420 -0.0818  0.4129
  704TMC3    O110418   1.138   0.931  13.035  0.1977 -0.2355 -0.8083
  704TMC3    O210419   1.164   1.190  12.707  0.5473 -0.3258 -0.5622
  705MPD2     C10420   0.186   3.804  16.691  0.5010  0.4269 -0.6236
  705MPD2    C110421   0.163   3.898  16.589  0.2730  0.0139  0.4712
  705MPD2    C210422   0.061   3.986  16.612 -0.1655  0.6646  0.2584
  705MPD2    C310423   4.715   3.985  16.733 -0.2500 -0.1797  0.0268
  705MPD2    C410424   0.019   3.898  16.834  0.0046  0.0834  0.2875
  705MPD2    C510425   0.119   3.809  16.810 -0.6835  0.3059  0.6873
  705MPD2     H10426   0.041   4.060  16.536 -0.0145  2.0737  1.5832
  705MPD2    H110427   4.695   3.902  16.932  0.5997 -0.7590  0.6135
  705MPD2    H210428   0.258   3.725  16.668 -0.4898 -0.5350 -0.3918
  705MPD2    H310429   0.131   3.729  16.883  0.2623 -0.2649 -0.1056
  705MPD2     N10430   4.605   4.069  16.752 -0.5569 -0.1295 -0.3376
  705MPD2    H510431   4.531   4.045  16.818  1.3933 -0.7542  1.5993
  705MPD2    N110432   0.223   3.885  16.464  0.1293 -0.0424 -0.3637
  705MPD2    H710433   0.200   3.953  16.393 -0.4323 -0.2160 -0.3508
  706TMC3    C110434   0.381   3.712  16.069 -0.8591  0.7279  0.6432
  706TMC3    C210435   0.417   3.834  16.017  0.2176  0.2773  0.2413
  706TMC3    C310436   0.416   3.937  16.108 -0.3408 -0.5116 -0.2809
  706TMC3    C410437   0.354   3.691  16.205 -0.4679 -0.4196  0.1090
  706TMC3    C510438   0.359   3.797  16.285 -0.4857  0.1244 -0.6163
  706TMC3    C610439   0.390   3.921  16.239 -0.4426 -0.0859  0.0592
  706TMC3     C10440   0.334   3.611  15.985  0.3287 -0.1688 -0.4460
  706TMC3     O10441   0.307   3.503  16.033 -0.0820  0.5860 -0.5815
  706TMC3     H10442   0.445   3.857  15.915 -1.4299  0.1572 -0.2456
  706TMC3    H110443   0.325   3.596  16.247 -0.3472 -0.2392  0.6006
  706TMC3    H210444   0.382   4.005  16.307 -1.0431 -0.6029  0.6202
  706TMC3    C710445   0.300   3.782  16.419  0.3220 -0.3276 -0.7431
  706TMC3    C810446   0.442   4.072  16.053  0.0564  0.1372  0.2204
  706TMC3    O110447   0.320   3.670  16.461  0.2034 -1.0938 -0.1386
  706TMC3    O210448   0.439   4.079  15.932  0.3331  0.2211  0.3626
  707TMC3    C110449   2.125   2.890   1.779  0.0771 -0.0729 -0.5162
  707TMC3    C210450   2.224   2.920   1.870  1.0158 -0.2544 -0.0111
  707TMC3    C310451   2.199   2.935   2.003 -0.3886  0.0441  0.1475
  707TMC3    C410452   1.991   2.886   1.822  0.3731  0.3074  0.1155
  707TMC3    C510453   1.973   2.900   1.961 -0.2330 -0.1021  0.0186
  707TMC3    C610454   2.076   2.937   2.051  0.1000  0.0334  0.0564
  707TMC3     C10455   2.168   2.877   1.650  0.1064 -0.4206  0.5073
  707TMC3     O10456   2.286   2.892   1.632  0.0590  0.5082  0.0327
  707TMC3     H10457   2.329   2.933   1.847  0.5905  2.0582 -0.6316
  707TMC3    H110458   1.912   2.874   1.748  1.7496 -1.2570 -1.1020
  707TMC3    H210459   2.063   2.958   2.156  1.9443 -1.8448  0.6608
  707TMC3    C710460   1.836   2.883   2.005  0.3205  0.4815  0.8275
  707TMC3    C810461   2.313   2.918   2.092 -0.2888  0.2722  0.4423
  707TMC3    O110462   1.758   2.843   1.918  0.3699  0.1465  0.1004
  707TMC3    O210463   2.322   2.996   2.183  0.6018  0.4732 -0.6525
  708MPD2     C10464   2.486   2.215  14.111  0.5045  0.1896  0.2341
  708MPD2    C110465   2.547   2.337  14.111 -0.1928  0.1835 -0.3421
  708MPD2    C210466   2.662   2.349  14.195  0.4629 -0.1627  0.6611
  708MPD2    C310467   2.696   2.248  14.281  0.8238  0.3058 -0.4836
  708MPD2    C410468   2.627   2.133  14.292 -0.0400  0.5194  0.5172
  708MPD2    C510469   2.523   2.117  14.204  0.1376  0.4294  0.9757
  708MPD2     H10470   2.727   2.433  14.179 -2.0018  1.7695  0.7005
  708MPD2    H110471   2.658   2.052  14.358  0.0567  0.7249  0.7273
  708MPD2    H210472   2.401   2.195  14.047 -0.4276  2.5541  0.7433
  708MPD2    H310473   2.471   2.022  14.207  3.2678 -1.2963  1.5355
  708MPD2     N10474   2.807   2.259  14.371 -0.6156 -0.6347 -0.2258
  708MPD2    H510475   2.814   2.181  14.436 -0.9106  0.0344  0.6070
  708MPD2    N110476   2.511   2.426  14.006  0.5452 -0.7535 -0.5538
  708MPD2    H710477   2.444   2.390  13.939  1.2925 -0.7660 -1.2813
  709TMC3    C110478   2.638   2.637  14.062 -0.1143  0.3515  0.4456
  709TMC3    C210479   2.727   2.737  14.013 -0.7027  0.5414 -0.0887
  709TMC3    C310480   2.757   2.842  14.103  0.2522 -0.5995  0.1686
  709TMC3    C410481   2.585   2.646  14.187  0.2267 -0.1864  0.0970
  709TMC3    C510482   2.636   2.739  14.272  0.8588  0.7242  0.2197
  709TMC3    C610483   2.717   2.841  14.231  0.0182  0.0856 -1.0932
  709TMC3     C10484   2.579   2.542  13.969 -0.2834  0.1463 -0.1077
  709TMC3     O10485   2.568   2.581  13.854  0.0114  0.2624  0.3312
  709TMC3     H10486   2.753   2.744  13.909 -3.1383 -0.5641 -0.7916
  709TMC3    H110487   2.499   2.583  14.209  1.8566 -2.2677  0.5313
  709TMC3    H210488   2.763   2.909  14.302 -0.2735 -1.2994  0.4083
  709TMC3    C710489   2.661   2.688  14.409 -0.8141 -0.0815  0.5030
  709TMC3    C810490   2.787   2.976  14.059  0.2762  0.0242  0.5395
  709TMC3    O110491   2.764   2.723  14.467  0.0148  0.2990  0.2197
  709TMC3    O210492   2.771   3.065  14.141 -0.2666  0.4173 -0.2549
  710TMC3    C110493   3.910   3.837   0.419 -0.0806 -0.5460  0.4089
  710TMC3    C210494   3.979   3.737   0.357  0.2447 -0.8133  0.2003
  710TMC3    C310495   4.113   3.734   0.389 -0.0556  0.0310  0.1813
  710TMC3    C410496   3.965   3.924   0.507  0.1563 -0.0173  0.1144
  710TMC3    C510497   4.097   3.916   0.531  0.6511 -0.9766 -0.1386
  710TMC3    C610498   4.175   3.825   0.470 -0.0485 -0.0078 -0.4075
  710TMC3     C10499   3.760   3.822   0.428 -0.4755  0.0589  0.2098
  710TMC3     O10500   3.713   3.748   0.347 -0.9843  0.0982 -0.0661
  710TMC3     H10501   3.922   3.676   0.288  0.3682 -0.9428  0.2146
  710TMC3    H110502   3.916   4.015   0.540  0.3375 -0.1669  0.8012
  710TMC3    H210503   4.279   3.811   0.494 -0.0982  2.2842  1.1241
  710TMC3    C710504   4.133   3.934   0.668  0.2077 -0.2811  0.3102
  710TMC3    C810505   4.187   3.607   0.396  0.8116 -0.1930 -0.2280
  710TMC3    O110506   4.043   3.923   0.748  0.1941 -0.3093  0.0020
  710TMC3    O210507   4.285   3.598   0.472 -0.0772 -0.1365  0.3232
  711TMC3    C110508   4.144   0.186  14.903  0.2471 -0.1364 -0.4694
  711TMC3    C210509   4.223   0.296  14.918  0.6376 -0.6239  0.6965
  711TMC3    C310510   4.357   0.270  14.913 -0.2335  1.0685  0.6358
  711TMC3    C410511   4.189   0.067  14.852  0.3581 -0.4357  1.0273
  711TMC3    C510512   4.326   0.049  14.839 -0.3702 -0.2037 -0.2235
  711TMC3    C610513   4.407   0.144  14.885 -0.0567  0.3474  0.2627
  711TMC3     C10514   4.006   0.185  14.951 -0.1118 -0.4691  0.6314
  711TMC3     O10515   3.940   0.088  14.921  0.8393  0.1880  0.4324
  711TMC3     H10516   4.184   0.389  14.957 -4.0917 -2.0751 -0.5286
  711TMC3    H110517   4.120   4.708  14.842  1.3890 -1.1333 -0.2614
  711TMC3    H210518   4.511   0.126  14.859 -0.2063  0.0816 -0.1384
  711TMC3    C710519   4.376   4.638  14.844 -0.1100 -0.0539 -0.2300
  711TMC3    C810520   4.444   0.351  14.991 -0.4280 -0.3306 -0.4814
  711TMC3    O110521   4.487   4.630  14.900 -0.3075 -0.1294  0.4741
  711TMC3    O210522   4.411   0.468  15.002  0.1717 -0.3497  0.0814
  712MPD2     C10523   1.143   1.382  14.117  0.3356  0.4437  0.2758
  712MPD2    C110524   1.072   1.390  14.002  0.2848  0.4570  0.4086
  712MPD2    C210525   1.114   1.483  13.909  0.1945 -0.7749  0.5459
  712MPD2    C310526   1.230   1.563  13.928 -0.6974 -0.5072 -0.1286
  712MPD2    C410527   1.297   1.549  14.044 -0.3261 -0.0450  0.6378
  712MPD2    C510528   1.248   1.461  14.139 -0.1003  0.1909 -0.1144
  712MPD2     H10529   1.061   1.488  13.815 -0.4460 -1.4805  0.8759
  712MPD2    H110530   1.375   1.618  14.073 -0.4058  0.2828  0.0585
  712MPD2    H210531   1.103   1.327  14.201  1.1489  1.0348  1.0515
  712MPD2    H310532   1.296   1.450  14.236 -0.6207 -1.4243 -0.0494
  712MPD2     N10533   1.285   1.654  13.832 -0.1494 -0.1549  0.2648
  712MPD2    H510534   1.351   1.718  13.873  1.1776 -0.4549 -1.4124
  712MPD2    N110535   0.967   1.305  13.982  0.7449  0.5984 -0.3123
  712MPD2    H710536   0.925   1.306  13.889 -2.4265  0.5664  1.1416
  713TMC3    C110537   1.318   1.761  13.634  1.2227 -0.0266 -0.6721
  713TMC3    C210538   1.435   1.811  13.687  0.4343 -0.6589 -0.2783
  713TMC3    C310539   1.520   1.867  13.596  0.4937  0.2421 -0.0488
  713TMC3    C410540   1.284   1.770  13.495 -0.1598  0.5359  0.1757
  713TMC3    C510541   1.372   1.828  13.414 -0.3615 -0.9258 -0.3868
  713TMC3    C610542   1.486   1.881  13.461 -0.6795  0.0202 -0.3055
  713TMC3     C10543   1.250   1.660  13.704  0.3087  0.1005 -0.4763
  713TMC3     O10544   1.190   1.577  13.636 -0.2910 -0.7470 -0.2890
  713TMC3     H10545   1.466   1.796  13.789  0.4037 -1.0427 -0.3253
  713TMC3    H110546   1.191   1.726  13.461 -1.0578  0.7885  2.2850
  713TMC3    H210547   1.557   1.926  13.393 -2.9928  1.3148 -1.8932
  713TMC3    C710548   1.339   1.864  13.275  0.3687  0.5340  0.7140
  713TMC3    C810549   1.641   1.928  13.647  0.1283  0.5981  0.1298
  713TMC3    O110550   1.430   1.913  13.214 -0.3868 -0.4402  0.7723
  713TMC3    O210551   1.681   1.889  13.756 -0.1572 -0.4654 -0.5564
  714MPD2     C10552   2.235   3.948   1.446 -0.8265 -0.6001  0.3252
  714MPD2    C110553   2.289   4.064   1.404 -0.6017  0.3099 -0.3835
  714MPD2    C210554   2.253   4.120   1.290  0.4455 -0.4376 -0.3470
  714MPD2    C310555   2.150   4.065   1.210 -0.2162  0.5624  0.0355
  714MPD2    C410556   2.104   3.937   1.252 -0.4371 -0.3150  0.3445
  714MPD2    C510557   2.138   3.886   1.374 -0.2256 -0.0788 -0.0981
  714MPD2     H10558   2.287   4.213   1.248 -4.0181  0.6041 -1.6106
  714MPD2    H110559   2.022   3.890   1.200 -0.3062 -0.3095  0.1344
  714MPD2    H210560   2.264   3.904   1.541 -0.7320 -1.2560 -0.0105
  714MPD2    H310561   2.093   3.792   1.406  0.1042 -0.0019  0.6086
  714MPD2     N10562   2.111   4.130   1.095 -0.4952  0.1306  1.1258
  714MPD2    H510563   2.143   4.225   1.077 -0.1514  0.2841  2.6153
  714MPD2    N110564   2.388   4.126   1.491 -0.4979 -0.3060 -0.9165
  714MPD2    H710565   2.430   4.065   1.560 -2.2948 -1.3817 -0.8009
  715TMC3    C110566   2.558   4.283   1.528 -0.1274  0.3460  0.3374
  715TMC3    C210567   2.649   4.181   1.500  0.5060 -0.7753 -0.6675
  715TMC3    C310568   2.781   4.212   1.514 -0.8088  0.2991 -0.1575
  715TMC3    C410569   2.603   4.406   1.570  0.2283  0.4760  0.8692
  715TMC3    C510570   2.742   4.426   1.593  1.1936 -0.1952 -0.2415
  715TMC3    C610571   2.831   4.327   1.572 -0.4158 -0.2767 -0.6774
  715TMC3     C10572   2.425   4.261   1.476 -0.1758  0.1843  0.0432
  715TMC3     O10573   2.365   4.359   1.431  0.4933  0.0403 -0.0997
  715TMC3     H10574   2.616   4.090   1.452  0.1523 -1.2299  0.4130
  715TMC3    H110575   2.523   4.478   1.562  2.0429  2.3705 -0.2391
  715TMC3    H210576   2.937   4.349   1.565  0.4455 -3.2279  3.3715
  715TMC3    C710577   2.795   4.552   1.646 -0.6078  0.5257 -0.0178
  715TMC3    C810578   2.877   4.114   1.451 -0.0100  0.3918  0.1828
  715TMC3    O110579   2.917   4.564   1.641 -0.1433  0.0953 -0.2056
  715TMC3    O210580   2.837   4.063   1.351 -0.7762 -0.0596 -0.5780
  716MPD2     C10581   3.908   2.166   9.819  0.7903  0.4981 -0.5527
  716MPD2    C110582   3.855   2.069   9.733 -0.5271 -0.4683  0.0742
  716MPD2    C210583   3.857   1.938   9.772  0.1650 -0.0583 -0.4911
  716MPD2    C310584   3.911   1.901   9.888  0.3457  0.5063  0.6035
  716MPD2    C410585   3.956   1.994   9.977 -0.3991  0.7656  0.0101
  716MPD2    C510586   3.950   2.123   9.938  0.1035  0.7336  0.0519
  716MPD2     H10587   3.829   1.858   9.705  2.2240 -0.7268 -0.5667
  716MPD2    H110588   3.982   1.962  10.077  0.6819 -0.5801 -0.7044
  716MPD2    H210589   3.905   2.273   9.808  2.1882  0.6622  0.7440
  716MPD2    H310590   3.978   2.196  10.012  2.0391 -0.9229  0.9411
  716MPD2     N10591   3.910   1.764   9.917 -0.0391  0.5671 -0.4944
  716MPD2    H510592   3.868   1.709   9.843  1.3332 -1.6934  0.3968
  716MPD2    N110593   3.791   2.114   9.618  0.1409  0.4505 -0.7401
  716MPD2    H710594   3.771   2.213   9.613  2.9481  1.0011 -0.9624
  717TMC3    C110595   3.919   1.562  10.025  0.1260  0.3206 -0.1268
  717TMC3    C210596   3.900   1.498   9.902  0.0630  0.0706 -0.5850
  717TMC3    C310597   3.841   1.375   9.896  0.3934  0.0046  1.0204
  717TMC3    C410598   3.867   1.511  10.143 -0.0357  0.5437 -0.0015
  717TMC3    C510599   3.805   1.389  10.130 -1.1118 -0.4785  0.3748
  717TMC3    C610600   3.798   1.320  10.010  0.1086  0.1500  0.2181
  717TMC3     C10601   3.958   1.703  10.027  0.5409  0.5002  0.4785
  717TMC3     O10602   3.988   1.750  10.137 -0.4314  0.2529  0.6674
  717TMC3     H10603   3.936   1.546   9.812 -0.3943  0.1655 -0.7195
  717TMC3    H110604   3.892   1.566  10.233  1.7774  0.9031 -0.7441
  717TMC3    H210605   3.755   1.221  10.003  2.5433 -1.0304  2.0294
  717TMC3    C710606   3.745   1.316  10.241  0.1097  0.2547  0.0092
  717TMC3    C810607   3.763   1.348   9.777 -0.1741  0.0896 -0.3620
  717TMC3    O110608   3.703   1.206  10.210  0.1341  0.0780 -0.0997
  717TMC3    O210609   3.754   1.439   9.693  0.1621  0.1631  0.6585
  718MPD2     C10610   2.635   2.145  13.061 -0.0698  0.4167  0.2317
  718MPD2    C110611   2.567   2.049  12.987  0.1334  0.4990  0.0193
  718MPD2    C210612   2.523   1.932  13.049 -0.2158  0.0731  0.0572
  718MPD2    C310613   2.576   1.904  13.175  0.5715 -0.3361 -0.3068
  718MPD2    C410614   2.645   1.998  13.248 -0.5144 -0.2139  0.0313
  718MPD2    C510615   2.665   2.122  13.190  0.0731 -0.1091  0.2665
  718MPD2     H10616   2.466   1.861  12.991 -1.3935  1.2143 -0.1888
  718MPD2    H110617   2.676   1.977  13.350 -3.3914  1.3095  1.2009
  718MPD2    H210618   2.659   2.238  13.011  1.2305  1.2897  2.4766
  718MPD2    H310619   2.728   2.186  13.250  2.4974 -0.5398 -1.8180
  718MPD2     N10620   2.546   1.776  13.232 -0.4028 -0.0368  0.3264
  718MPD2    H510621   2.499   1.714  13.167 -3.6413  1.6671  1.0439
  718MPD2    N110622   2.546   2.073  12.851  0.3966  0.2632  0.2921
  718MPD2    H710623   2.565   2.168  12.821 -0.7013 -0.1254 -1.6294
  719TMC3    C110624   2.534   2.017  12.618  0.3038 -0.1162  0.3336
  719TMC3    C210625   2.502   1.913  12.538  0.1759  0.2690 -0.1090
  719TMC3    C310626   2.593   1.869  12.442 -0.0155  0.2541 -0.1678
  719TMC3    C410627   2.655   2.084  12.598  0.3063  0.0288  0.0406
  719TMC3    C510628   2.740   2.029  12.505 -0.8039  0.0205 -0.4927
  719TMC3    C610629   2.713   1.937  12.414 -0.3015 -0.3209  0.0790
  719TMC3     C10630   2.511   1.978  12.757  0.3861  0.5165  0.6595
  719TMC3     O10631   2.479   1.861  12.764 -0.0019 -0.7365 -0.0462
  719TMC3     H10632   2.409   1.858  12.553 -0.2272  0.9478 -0.1414
  719TMC3    H110633   2.682   2.157  12.673 -2.8158  1.4270 -0.2062
  719TMC3    H210634   2.795   1.893  12.358 -1.5710  1.2167 -2.9485
  719TMC3    C710635   2.852   2.115  12.465  0.9483 -0.3496  0.2549
  719TMC3    C810636   2.621   1.724  12.448 -0.3978 -0.7865  0.0941
  719TMC3    O110637   2.913   2.095  12.360  0.2832  0.2676 -0.0537
  719TMC3    O210638   2.693   1.677  12.361 -0.1861 -0.3708  0.2559
  720MPD2     C10639   0.588   3.147  14.176  0.2542 -0.8400 -0.8920
  720MPD2    C110640   0.679   3.176  14.077  0.0727 -0.2967 -0.1371
  720MPD2    C210641   0.806   3.117  14.079 -0.5698 -0.1517  0.6194
  720MPD2    C310642   0.843   3.041  14.192 -0.1269  0.1399  0.0735
  720MPD2    C410643   0.736   2.989  14.270 -0.2869  0.2383 -0.0358
  720MPD2    C510644   0.612   3.046  14.266 -0.0010 -0.7149  0.2606
  720MPD2     H10645   0.880   3.142  14.003 -0.4608  4.9268  2.3827
  720MPD2    H110646   0.757   2.920  14.351 -0.8493 -1.0268 -0.9708
  720MPD2    H210647   0.489   3.190  14.188  1.0189  0.4924  0.7416
  720MPD2    H310648   0.540   2.995  14.328 -0.7747 -0.3373 -0.3196
  720MPD2     N10649   0.984   3.016  14.200  0.1195 -0.0514 -0.5189
  720MPD2    H510650   1.048   3.067  14.139 -1.8565  1.4531 -1.3130
  720MPD2    N110651   0.645   3.266  13.972 -0.3438 -0.8741 -0.1398
  720MPD2    H710652   0.711   3.280  13.897  0.4037 -1.3962  0.4133
  721TMC3    C110653   1.188   2.957  14.312 -0.2913  0.1499 -0.2657
  721TMC3    C210654   1.245   2.883  14.413 -0.0461 -0.2665  0.0464
  721TMC3    C310655   1.381   2.871  14.415 -0.2408 -0.5585 -0.2775
  721TMC3    C410656   1.266   3.035  14.230 -0.7843  0.6114  0.6583
  721TMC3    C510657   1.398   3.042  14.256 -0.1114 -0.4187  0.3235
  721TMC3    C610658   1.459   2.960  14.345  0.1099  0.1756 -0.1064
  721TMC3     C10659   1.042   2.949  14.301  0.0220 -0.7286  0.0422
  721TMC3     O10660   0.984   2.897  14.392  0.0928 -0.5176 -0.4692
  721TMC3     H10661   1.186   2.808  14.462 -1.8933  1.9650  1.2409
  721TMC3    H110662   1.216   3.086  14.149  2.1631 -0.4649 -1.8540
  721TMC3    H210663   1.567   2.955  14.356  0.1612  1.0921 -0.2156
  721TMC3    C710664   1.483   3.122  14.179 -0.9466 -0.8060 -0.0153
  721TMC3    C810665   1.445   2.832  14.534  0.2418 -0.9599  0.5091
  721TMC3    O110666   1.438   3.174  14.078  0.1518  0.3583  0.3866
  721TMC3    O210667   1.558   2.793  14.523 -0.2462 -0.0565  0.7525
  722MPD2     C10668   0.188   1.889  13.410 -0.0928  0.2744 -0.6935
  722MPD2    C110669   0.164   1.998  13.337  0.0210 -0.1423  1.1098
  722MPD2    C210670   0.029   2.030  13.313  0.7200 -0.0616  0.1889
  722MPD2    C310671   4.650   1.947  13.358  0.0875  0.4554 -0.5204
  722MPD2    C410672   4.680   1.826  13.415 -0.3892 -0.2706 -0.0920
  722MPD2    C510673   0.091   1.797  13.427 -0.1397 -0.3434 -0.2278
  722MPD2     H10674   4.724   2.119  13.259  2.0685 -0.5088 -1.2727
  722MPD2    H110675   4.598   1.755  13.430 -0.6393 -0.3349 -1.7254
  722MPD2    H210676   0.288   1.863  13.440 -0.1759  0.3184 -0.3770
  722MPD2    H310677   0.119   1.702  13.471  0.3713 -0.1241 -0.0822
  722MPD2     N10678   4.511   1.989  13.342 -0.2525 -0.2549 -0.5335
  722MPD2    H510679   4.489   2.075  13.293  0.6584  2.3874  3.7732
  722MPD2    N110680   0.269   2.087  13.298  0.0340  0.6337 -0.4561
  722MPD2    H710681   0.240   2.179  13.269 -2.6573 -0.3409 -0.8139
  723TMC3    C110682   4.276   1.978  13.360 -0.1269  0.3137 -0.5433
  723TMC3    C210683   4.168   1.902  13.377 -0.0832  0.8399  0.3879
  723TMC3    C310684   4.043   1.958  13.361 -0.5661 -0.6037 -0.3601
  723TMC3    C410685   4.270   2.116  13.339 -0.6074  0.0833  0.3058
  723TMC3    C510686   4.147   2.172  13.333  0.2794  0.4601 -0.7257
  723TMC3    C610687   4.028   2.097  13.335 -0.2303  0.2467  1.1222
  723TMC3     C10688   4.400   1.920  13.393  0.3304  0.0655  0.1720
  723TMC3     O10689   4.392   1.807  13.444 -0.6375  0.3048  0.1735
  723TMC3     H10690   4.170   1.798  13.407 -0.7629  0.5260 -0.6609
  723TMC3    H110691   4.356   2.177  13.312 -0.7412 -0.0704 -0.4504
  723TMC3    H210692   3.932   2.135  13.303  0.3643  0.4878 -0.3513
  723TMC3    C710693   4.142   2.291  13.253 -0.3883  0.7129 -0.4083
  723TMC3    C810694   3.937   1.873  13.318  0.8498 -0.1872  0.5022
  723TMC3    O110695   4.230   2.311  13.169 -0.7188 -0.5790  0.0718
  723TMC3    O210696   3.827   1.922  13.335  0.0395 -0.1010 -0.3015
  724TMC3    C110697   1.330   4.465  10.148 -0.0458 -0.2627 -0.6924
  724TMC3    C210698   1.263   4.570  10.100  0.2121  0.3120  0.1165
  724TMC3    C310699   1.236   4.574   9.961 -0.7667  0.8948  0.1282
  724TMC3    C410700   1.375   4.362  10.070 -0.2203  0.5360  1.0759
  724TMC3    C510701   1.358   4.375   9.935 -0.3302 -0.5735 -0.1307
  724TMC3    C610702   1.287   4.485   9.879  0.0866 -0.0336 -0.8907
  724TMC3     C10703   1.327   4.453  10.292 -0.5246  0.0182  0.4279
  724TMC3     O10704   1.341   4.336  10.328 -0.1112  0.6466  0.3302
  724TMC3     H10705   1.186   4.614  10.162 -1.6712 -2.9312  0.1466
  724TMC3    H110706   1.420   4.275  10.115 -0.5997  0.1735  0.7471
  724TMC3    H210707   1.274   4.498   9.772  1.8833 -1.7315 -1.3223
  724TMC3    C710708   1.421   4.274   9.851 -0.6828 -0.0860 -0.4274
  724TMC3    C810709   1.154   4.680   9.903  0.0146  0.3766  0.4988
  724TMC3    O110710   1.498   4.192   9.898 -0.5014 -0.3225 -0.2511
  724TMC3    O210711   1.113   4.660   9.789  0.1609 -0.7246 -0.3987
  725TMC3    C110712   1.331   3.604  12.859 -0.1979  0.1792  0.0798
  725TMC3    C210713   1.311   3.650  12.726 -0.0231  0.6945 -0.6559
  725TMC3    C310714   1.232   3.572  12.647  0.0829 -0.7107 -0.3442
  725TMC3    C410715   1.286   3.479  12.901 -1.1031 -0.0522 -0.1012
  725TMC3    C510716   1.231   3.397  12.812  0.1865  0.3159 -0.7468
  725TMC3    C610717   1.191   3.448  12.691  0.3611 -0.9219 -0.4766
  725TMC3     C10718   1.362   3.713  12.951  0.5592 -0.6801 -0.0897
  725TMC3     O10719   1.352   3.830  12.913 -0.0595  0.3070  0.3329
  725TMC3     H10720   1.350   3.744  12.687  1.5053 -0.0569 -0.9264
  725TMC3    H110721   1.325   3.436  12.993 -0.4233  3.5092  1.2875
  725TMC3    H210722   1.137   3.381  12.625  0.2436 -1.8649  0.5931
  725TMC3    C710723   1.309   3.280  12.786 -0.0599 -0.3933  0.1479
  725TMC3    C810724   1.253   3.570  12.505  0.7250 -0.0900 -0.3815
  725TMC3    O110725   1.360   3.274  12.673  0.3501  0.1319 -0.6198
  725TMC3    O210726   1.218   3.471  12.447 -0.2466  0.0360  0.0675
  726MPD2     C10727   0.221   0.051  10.526  0.1496  0.0795  0.1412
  726MPD2    C110728   0.183   0.165  10.595 -0.2580 -0.1031 -0.0255
  726MPD2    C210729   0.065   0.171  10.660  0.3056 -0.2383  0.2036
  726MPD2    C310730   4.698   0.064  10.653 -0.0598 -0.3865  0.2835
  726MPD2    C410731   0.006   4.684  10.573  0.3588  0.7023  0.4493
  726MPD2    C510732   0.131   4.670  10.523 -0.5019  0.3342 -0.4115
  726MPD2     H10733   0.026   0.257  10.713 -2.3614 -1.8316  0.8759
  726MPD2    H110734   4.663   4.602  10.556 -1.0117  1.8742  0.1953
  726MPD2    H210735   0.320   0.040  10.485 -0.2919 -0.3416 -0.8057
  726MPD2    H310736   0.152   4.587  10.456 -0.3941 -1.4291  1.8427
  726MPD2     N10737   4.569   0.064  10.700 -0.0543 -0.5202 -0.4228
  726MPD2    H510738   4.508   4.715  10.666  0.0900 -0.9275  0.2008
  726MPD2    N110739   0.258   0.283  10.587 -0.3830 -0.0280  0.3111
  726MPD2    H710740   0.236   0.356  10.654  0.4399 -0.5757  1.1598
  727TMC3    C110741   0.353   0.459  10.474  0.5111  0.5679  0.4441
  727TMC3    C210742   0.393   0.529  10.585 -0.0498  0.6332  0.6933
  727TMC3    C310743   0.388   0.667  10.579 -0.1497 -0.2819 -0.3700
  727TMC3    C410744   0.326   0.514  10.354  0.6459 -0.6367 -0.7235
  727TMC3    C510745   0.334   0.649  10.345 -0.9893 -0.0122 -0.5458
  727TMC3    C610746   0.371   0.724  10.454 -0.6853  0.5966 -0.8208
  727TMC3     C10747   0.332   0.315  10.477  0.5692 -0.5009 -0.3566
  727TMC3     O10748   0.344   0.251  10.375 -0.1775 -1.0690  0.3554
  727TMC3     H10749   0.420   0.478  10.677 -1.4593  1.0351  1.3380
  727TMC3    H110750   0.291   0.454  10.270 -1.3278  2.5886 -2.1969
  727TMC3    H210751   0.404   0.826  10.439 -0.3181  0.5375 -0.4268
  727TMC3    C710752   0.287   0.705  10.218 -0.5355  0.1325 -0.4759
  727TMC3    C810753   0.456   0.746  10.682  0.4597 -0.1750  0.7470
  727TMC3    O110754   0.273   0.632  10.118  0.5284  0.5346  0.3342
  727TMC3    O210755   0.534   0.687  10.755  0.1289 -0.3660  0.7711
  728TMC3    C110756   3.099   3.774  15.734  0.1824 -0.2098  0.0684
  728TMC3    C210757   3.234   3.803  15.714 -0.6693  0.3134  0.0188
  728TMC3    C310758   3.266   3.926  15.670  0.5509  0.8767  0.0518
  728TMC3    C410759   3.001   3.863  15.712  0.2519 -0.0672  0.4950
  728TMC3    C510760   3.041   3.983  15.658 -0.1852 -0.0813 -0.1187
  728TMC3    C610761   3.171   4.017  15.633 -0.3487 -0.0054  0.6721
  728TMC3     C10762   3.054   3.633  15.734 -0.1401 -0.7349  0.5833
  728TMC3     O10763   2.934   3.613  15.706 -0.0067 -0.2687  0.0271
  728TMC3     H10764   3.313   3.729  15.722  1.2769  2.4578  0.6853
  728TMC3    H110765   2.896   3.848  15.731  0.7077 -3.4671  0.4336
  728TMC3    H210766   3.198   4.117  15.600  1.9206 -0.9676 -0.4068
  728TMC3    C710767   2.940   4.085  15.644 -1.0453  0.0308  0.4365
  728TMC3    C810768   3.401   3.978  15.715 -0.3559 -0.7007  0.0885
  728TMC3    O110769   2.850   4.090  15.723 -0.5653  0.2675  0.2784
  728TMC3    O210770   3.432   4.094  15.684  0.6960  0.0838 -0.4606
  729MPD2     C10771   0.385   0.196  16.342  0.5914 -0.3246  0.0507
  729MPD2    C110772   0.515   0.157  16.351 -0.3839 -0.1713  0.2570
  729MPD2    C210773   0.559   0.106  16.470  0.6480  0.2545 -0.0840
  729MPD2    C310774   0.472   0.092  16.577  0.6122 -0.1533  0.1880
  729MPD2    C410775   0.345   0.146  16.567  0.3236 -0.8796 -0.4023
  729MPD2    C510776   0.301   0.193  16.449  0.2115  0.2012  0.5259
  729MPD2     H10777   0.659   0.065  16.480  1.6104  2.4768 -0.5764
  729MPD2    H110778   0.277   0.132  16.651  0.9296 -2.7073 -0.2311
  729MPD2    H210779   0.349   0.236  16.247  1.6995 -0.4328 -0.4082
  729MPD2    H310780   0.203   0.238  16.451 -1.3106 -3.2218  1.6361
  729MPD2     N10781   0.512   0.016  16.691  0.0330 -0.3799 -0.2589
  729MPD2    H510782   0.442   4.715  16.760 -1.8536 -0.1391 -2.0748
  729MPD2    N110783   0.603   0.179  16.240 -0.0531 -0.0522  0.4118
  729MPD2    H710784   0.571   0.215  16.150  0.5436  2.3914  1.1743
  730TMC3    C110785   0.653   4.668  16.863 -0.3933  0.4454  0.8219
  730TMC3    C210786   0.788   4.644  16.889 -0.6716  0.8456  0.4748
  730TMC3    C310787   0.854   4.720  16.969 -0.4882 -0.9230 -0.0241
  730TMC3    C410788   0.591   0.036  16.949 -0.1082  0.5336 -0.1117
  730TMC3    C510789   0.665   0.105  17.051 -0.0476  0.4483  0.2723
  730TMC3    C610790   0.801   0.086  17.055  0.2336  0.2153 -0.3178
  730TMC3     C10791   0.639   4.689  16.720  0.5223  0.6972 -0.1886
  730TMC3     O10792   0.746   4.684  16.655  0.4370 -0.2334 -0.0769
  730TMC3     H10793   0.843   4.574  16.827  0.8870  0.4270  2.3509
  730TMC3    H110794   0.489   0.070  16.939  0.0308  1.5668  1.8595
  730TMC3    H210795   0.872   0.140  17.117  0.9938 -1.0629 -0.0674
  730TMC3    C710796   0.618   0.234  17.089  0.0037  0.3532 -0.9522
  730TMC3    C810797   0.981   0.044  16.913  0.0256  0.4636 -0.7068
  730TMC3    O110798   0.510   0.268  17.043  0.2435  0.4958  0.1507
  730TMC3    O210799   1.056   0.096  16.993 -0.1007  0.5776 -0.1412
  731MPD2     C10800   1.045   3.429  12.087  0.1558  0.7721 -1.0625
  731MPD2    C110801   1.006   3.294  12.071 -0.2347 -0.1353 -0.6870
  731MPD2    C210802   0.929   3.240  12.173  0.3553  0.4305  0.0755
  731MPD2    C310803   0.897   3.307  12.282  0.8100  0.6602 -0.3996
  731MPD2    C410804   0.934   3.443  12.297  0.1919 -0.6383  0.0932
  731MPD2    C510805   1.007   3.503  12.200  0.1988  0.0031  0.0660
  731MPD2     H10806   0.882   3.143  12.161 -0.5521  1.1470 -2.1490
  731MPD2    H110807   0.888   3.496  12.378  0.0855 -2.4783  1.2333
  731MPD2    H210808   1.115   3.468  12.015  0.9791  0.1248 -0.6166
  731MPD2    H310809   1.041   3.605  12.219  0.9115 -0.5790  1.8868
  731MPD2     N10810   0.810   3.233  12.372 -0.3990 -0.6747  0.2826
  731MPD2    H510811   0.780   3.140  12.343 -0.2793 -0.8864  0.8439
  731MPD2    N110812   1.048   3.225  11.954  0.0740  0.1628 -0.4225
  731MPD2    H710813   1.087   3.282  11.880 -0.1099  1.5226  0.5207
  732TMC3    C110814   1.060   3.040  11.811  0.0821  0.0642 -0.3062
  732TMC3    C210815   0.974   2.968  11.739 -0.4703  0.1531 -1.0505
  732TMC3    C310816   1.022   2.905  11.625  0.2044 -0.4683  0.0364
  732TMC3    C410817   1.191   3.054  11.778  0.2167 -0.2273  0.1190
  732TMC3    C510818   1.235   3.002  11.660 -0.3468 -0.6952  1.2133
  732TMC3    C610819   1.151   2.930  11.581  0.8027 -0.6904  0.0470
  732TMC3     C10820   1.016   3.093  11.934  0.5845  1.2176  0.2886
  732TMC3     O10821   0.945   3.014  11.992  0.4379  0.2190 -0.1372
  732TMC3     H10822   0.870   2.960  11.770 -0.3390  4.7473  0.5876
  732TMC3    H110823   1.243   3.141  11.817  1.7921 -1.3538  0.5066
  732TMC3    H210824   1.194   2.871  11.500 -0.2178 -0.0990 -0.9204
  732TMC3    C710825   1.378   3.006  11.641 -1.0396  0.3538  0.4950
  732TMC3    C810826   0.959   2.781  11.582 -0.3292 -0.2348  0.0363
  732TMC3    O110827   1.424   2.984  11.527 -0.0484 -0.5389  0.1705
  732TMC3    O210828   1.019   2.700  11.519 -0.0825 -0.8780 -0.1686
  733TMC3    C110829   2.497   1.370  13.404  0.1213  0.1559  0.2788
  733TMC3    C210830   2.513   1.505  13.424  0.0571  0.0475 -0.8176
  733TMC3    C310831   2.569   1.583  13.334  0.5165 -0.0674 -0.2635
  733TMC3    C410832   2.544   1.317  13.287  0.2752  0.2873  0.0769
  733TMC3    C510833   2.610   1.402  13.201 -0.7859 -0.4665  0.2721
  733TMC3    C610834   2.621   1.535  13.222  0.1894 -0.3117  0.6720
  733TMC3     C10835   2.362   1.332  13.422  0.2467  0.8413 -0.1008
  733TMC3     O10836   2.281   1.414  13.385  0.4795 -0.1096 -0.6031
  733TMC3     H10837   2.464   1.555  13.506 -0.8398 -1.7499 -0.2473
  733TMC3    H110838   2.523   1.216  13.253  2.4479 -0.5163  1.1004
  733TMC3    H210839   2.689   1.589  13.157 -0.7782  0.0512 -0.0336
  733TMC3    C710840   2.661   1.355  13.076 -0.4570  0.2211  0.4731
  733TMC3    C810841   2.576   1.722  13.357 -0.2656 -0.2996  0.3941
  733TMC3    O110842   2.716   1.244  13.073 -0.0286  0.3686 -0.2136
  733TMC3    O210843   2.620   1.764  13.460 -0.0556  0.4521  0.0042
  734MPD2     C10844   3.998   4.023  12.242  0.4510  0.4390 -0.4502
  734MPD2    C110845   3.936   3.930  12.157 -1.0116 -0.6538  0.8689
  734MPD2    C210846   3.987   3.906  12.030  0.3064 -0.0915  0.3734
  734MPD2    C310847   4.078   3.994  11.975 -0.4513 -0.2641  1.4786
  734MPD2    C410848   4.129   4.096  12.058 -0.5647  0.2928 -0.0599
  734MPD2    C510849   4.093   4.105  12.188 -0.6087 -0.0194 -0.0821
  734MPD2     H10850   3.954   3.816  11.980  1.0762 -1.6272  2.6145
  734MPD2    H110851   4.196   4.173  12.021  0.0482 -0.4404 -0.4791
  734MPD2    H210852   3.962   4.021  12.344  2.3575 -1.4513  0.1815
  734MPD2    H310853   4.136   4.189  12.241 -0.1130  0.0980 -0.6722
  734MPD2     N10854   4.126   3.966  11.846 -0.1722  0.6997 -0.1632
  734MPD2    H510855   4.084   3.890  11.793  0.9491 -1.7869  2.4858
  734MPD2    N110856   3.833   3.848  12.212 -0.2258 -0.4918 -0.2852
  734MPD2    H710857   3.794   3.861  12.305 -0.7473  2.4806 -0.9367
  735TMC3    C110858   3.683   3.674  12.190 -0.8763 -0.0078  0.3071
  735TMC3    C210859   3.584   3.630  12.103 -0.1638  0.1696  0.2824
  735TMC3    C310860   3.563   3.496  12.081  0.5328  0.2064  0.4411
  735TMC3    C410861   3.763   3.588  12.254  0.0828  0.1447 -0.0492
  735TMC3    C510862   3.745   3.456  12.229  0.2351 -0.4977 -0.3206
  735TMC3    C610863   3.644   3.412  12.151 -0.4055  0.2491 -0.2505
  735TMC3     C10864   3.749   3.782  12.127 -0.1262 -0.6641 -0.1307
  735TMC3     O10865   3.733   3.782  12.002 -0.4828  0.4072  0.5125
  735TMC3     H10866   3.525   3.706  12.052 -1.4848  0.5468  2.3887
  735TMC3    H110867   3.855   3.615  12.305 -0.9234 -2.5392  3.1614
  735TMC3    H210868   3.618   3.309  12.129  0.9185  0.0521 -0.8816
  735TMC3    C710869   3.872   3.385  12.226  0.0396  0.0477  0.4216
  735TMC3    C810870   3.568   3.471  11.941  0.5029 -0.0736  0.5480
  735TMC3    O110871   3.968   3.447  12.193 -0.1344  0.7430  0.0276
  735TMC3    O210872   3.516   3.366  11.900 -0.5746 -0.2026  0.1549
  736MPD2     C10873   3.930   3.067  12.401 -1.0483  0.5313 -0.0497
  736MPD2    C110874   3.960   3.171  12.318  0.0688  1.1142  0.8550
  736MPD2    C210875   4.093   3.176  12.265 -0.7131 -0.4696  0.1077
  736MPD2    C310876   4.179   3.065  12.287  0.1132  0.2438  0.5367
  736MPD2    C410877   4.141   2.970  12.378 -0.4108 -0.2750 -0.4729
  736MPD2    C510878   4.016   2.968  12.426  0.1814 -0.2015 -0.6277
  736MPD2     H10879   4.123   3.260  12.203 -2.0779  0.3568  0.5637
  736MPD2    H110880   4.200   2.884  12.409  0.6417  0.5512 -0.1742
  736MPD2    H210881   3.829   3.059  12.439 -1.1514 -1.1933 -0.7026
  736MPD2    H310882   3.998   2.881  12.488 -1.5938  0.2220 -0.5341
  736MPD2     N10883   4.306   3.056  12.231 -0.2521  0.4261  0.4293
  736MPD2    H510884   4.340   3.145  12.193  0.9370  0.6136  1.9298
  736MPD2    N110885   3.857   3.264  12.290 -0.0230 -0.1629 -0.0341
  736MPD2    H710886   3.764   3.248  12.329 -0.1516 -1.0066 -0.6821
  737TMC3    C110887   4.510   2.968  12.156  0.2167 -1.1660 -0.0402
  737TMC3    C210888   4.557   3.090  12.118 -0.2652  0.5430  0.3831
  737TMC3    C310889   4.651   3.107  12.019 -0.4835  0.1521 -0.0354
  737TMC3    C410890   4.546   2.856  12.082 -0.5369 -0.3717  0.0407
  737TMC3    C510891   4.628   2.877  11.969 -0.0975 -0.4256  0.1087
  737TMC3    C610892   4.686   3.003  11.939 -0.7849 -0.6881 -0.1467
  737TMC3     C10893   4.394   2.952  12.243  0.2022 -0.3585 -0.3949
  737TMC3     O10894   4.376   2.839  12.287  0.4460 -0.2813 -0.2170
  737TMC3     H10895   4.539   3.178  12.178 -1.1029  1.4093 -1.1386
  737TMC3    H110896   4.513   2.755  12.101 -1.2274  0.0084  0.8898
  737TMC3    H210897   0.050   3.012  11.877 -0.5484  0.9054  0.4387
  737TMC3    C710898   4.685   2.756  11.899  0.1712 -0.5593  0.1777
  737TMC3    C810899   0.010   3.231  12.028 -0.1930 -0.8057 -0.2364
  737TMC3    O110900   4.668   2.656  11.967  0.1570 -0.1388  0.5046
  737TMC3    O210901   0.013   3.297  12.130 -0.1306  0.3874 -0.3712
  738MPD2     C10902   0.082   2.536  14.805 -0.4491  0.3339  0.1665
  738MPD2    C110903   0.041   2.496  14.929  0.1135  0.3230  0.7704
  738MPD2    C210904   0.125   2.528  15.039  0.1934  0.6462  0.3685
  738MPD2    C310905   0.243   2.600  15.016  0.2005  0.4391 -0.4962
  738MPD2    C410906   0.281   2.637  14.887  0.9858 -0.6439  0.5007
  738MPD2    C510907   0.198   2.610  14.785 -0.0411  0.2028 -0.0704
  738MPD2     H10908   0.099   2.489  15.137 -0.5184 -0.2950 -0.1968
  738MPD2    H110909   0.379   2.677  14.861  0.3211  0.9130  0.3942
  738MPD2    H210910   0.023   2.519  14.716 -0.3278 -0.8012  0.2939
  738MPD2    H310911   0.229   2.634  14.684 -1.8103 -1.1246 -0.9353
  738MPD2     N10912   0.333   2.627  15.119  0.0973  0.3763 -0.1207
  738MPD2    H510913   0.430   2.636  15.091  0.6535 -1.3572  1.3031
  738MPD2    N110914   4.645   2.427  14.956  0.3428  0.3921  0.2736
  738MPD2    H710915   4.622   2.414  15.054 -1.6095  1.0904 -0.0864
  739TMC3    C110916   0.437   2.590  15.313 -0.4864  0.5449  0.6349
  739TMC3    C210917   0.536   2.540  15.232 -0.0897  0.0242 -0.3760
  739TMC3    C310918   0.662   2.602  15.215 -0.2411 -0.0161 -0.2680
  739TMC3    C410919   0.471   2.695  15.396 -0.2488  0.4337  0.3676
  739TMC3    C510920   0.594   2.753  15.381  0.6509  0.3120  0.4592
  739TMC3    C610921   0.696   2.703  15.300  0.5972  0.4198 -0.3885
  739TMC3     C10922   0.309   2.613  15.252  1.3163  0.8235 -0.0762
  739TMC3     O10923   0.202   2.628  15.311  0.3615  0.1028 -0.0949
  739TMC3     H10924   0.513   2.463  15.159 -0.3561  0.4371 -0.7222
  739TMC3    H110925   0.391   2.755  15.437 -0.6443  0.9037 -1.0865
  739TMC3    H210926   0.790   2.751  15.280  0.6431  0.8130  0.7475
  739TMC3    C710927   0.645   2.826  15.490  0.2659 -0.6027  0.4136
  739TMC3    C810928   0.687   2.640  15.075 -0.0159  0.7951 -0.0494
  739TMC3    O110929   0.749   2.892  15.483  0.4190 -0.0154  0.5705
  739TMC3    O210930   0.582   2.666  15.012  0.8172 -0.1243 -0.1632
  740TMC3    C110931   0.748   3.530  14.288 -0.2258  0.4210  0.0702
  740TMC3    C210932   0.758   3.464  14.408 -0.5485  0.1405 -0.3095
  740TMC3    C310933   0.866   3.388  14.423 -0.5912  0.3215  0.2859
  740TMC3    C410934   0.827   3.509  14.181  0.1477  0.1012  0.0065
  740TMC3    C510935   0.944   3.438  14.207  0.2288 -0.1790 -0.1173
  740TMC3    C610936   0.966   3.386  14.334  0.0578 -0.2614 -0.2274
  740TMC3     C10937   0.647   3.638  14.268 -0.0886 -0.1277 -0.1251
  740TMC3     O10938   0.670   3.706  14.171 -0.4468  0.5547 -0.1237
  740TMC3     H10939   0.694   3.480  14.493  0.9752  2.5578  0.3862
  740TMC3    H110940   0.812   3.561  14.087  0.2768  0.2708  0.0795
  740TMC3    H210941   1.051   3.319  14.339  0.0177 -0.2593  0.6178
  740TMC3    C710942   1.024   3.384  14.095  0.3656  0.2318 -0.0048
  740TMC3    C810943   0.870   3.296  14.528  0.2973 -1.0974 -0.1662
  740TMC3    O110944   1.099   3.286  14.114  0.6035  0.2336  0.2625
  740TMC3    O210945   0.979   3.250  14.560  0.2642  0.1500 -0.7232
  741TMC3    C110946   4.516   2.996  14.174  0.4694  0.5874 -0.0026
  741TMC3    C210947   4.399   2.923  14.193 -1.0126  0.1812  0.4296
  741TMC3    C310948   4.399   2.826  14.290  0.0865  0.1963 -0.7431
  741TMC3    C410949   4.627   2.981  14.265 -0.3143 -0.8613 -0.1233
  741TMC3    C510950   4.611   2.889  14.365  0.3708 -1.0116  0.5557
  741TMC3    C610951   4.505   2.803  14.373 -1.0661 -0.3286  0.7338
  741TMC3     C10952   4.532   3.067  14.053  0.0511  0.6775 -0.7252
  741TMC3     O10953   4.471   3.031  13.950  0.0518  0.6126  0.6016
  741TMC3     H10954   4.315   2.944  14.126 -0.6235  4.1342  1.1608
  741TMC3    H110955   0.001   3.018  14.241 -0.0838 -0.5466  1.3384
  741TMC3    H210956   4.495   2.733  14.455  1.8357 -0.8853  0.6135
  741TMC3    C710957   4.682   2.924  14.486 -0.4796 -1.1827 -0.1980
  741TMC3    C810958   4.287   2.730  14.278 -0.2941 -0.6255 -0.4971
  741TMC3    O110959   0.037   3.015  14.468 -0.8027  0.1732  0.2199
  741TMC3    O210960   4.217   2.735  14.177 -0.5036 -0.2428  0.1798
  742TMC3    C110961   0.142   1.713  15.517 -0.2560 -0.1226 -0.7429
  742TMC3    C210962   0.036   1.675  15.436  0.3722 -0.5830 -0.4370
  742TMC3    C310963   0.070   1.577  15.339 -0.0966 -0.1269 -0.2170
  742TMC3    C410964   0.260   1.646  15.521 -0.0554  0.7014  0.1235
  742TMC3    C510965   0.283   1.546  15.435  0.5355  0.2290  0.6691
  742TMC3    C610966   0.191   1.509  15.342  0.2147  0.1464 -0.7738
  742TMC3     C10967   0.134   1.829  15.609  0.2743 -0.2851 -0.1050
  742TMC3     O10968   0.216   1.834  15.703 -0.3589  0.4399 -0.9608
  742TMC3     H10969   4.665   1.727  15.442  0.3122 -0.6757 -0.5957
  742TMC3    H110970   0.335   1.686  15.587 -1.3809 -2.0541  3.2908
  742TMC3    H210971   0.218   1.440  15.263  2.9049  1.7609 -1.2625
  742TMC3    C710972   0.402   1.474  15.443  0.1288 -0.5954  0.5063
  742TMC3    C810973   4.708   1.537  15.238 -0.4540  0.2409  0.1613
  742TMC3    O110974   0.448   1.439  15.334 -0.4205 -0.3991  0.0006
  742TMC3    O210975   0.001   1.432  15.177 -0.2330  0.1267  0.4434
  743MPD2     C10976   3.360   2.766   2.058 -0.7189  0.0942 -0.4485
  743MPD2    C110977   3.371   2.712   1.934  0.2358  0.6119 -0.1105
  743MPD2    C210978   3.470   2.756   1.844 -0.6652  0.4447  0.0483
  743MPD2    C310979   3.558   2.849   1.883  0.5709 -0.0587 -0.0508
  743MPD2    C410980   3.552   2.901   2.017 -0.2313  0.2734  0.5755
  743MPD2    C510981   3.446   2.860   2.096  0.6847  0.2767  0.3164
  743MPD2     H10982   3.483   2.730   1.740  0.3701 -0.1832  0.3407
  743MPD2    H110983   3.600   2.990   2.056 -1.0853 -0.7985  4.0262
  743MPD2    H210984   3.285   2.721   2.122  0.1596 -1.5248 -0.5547
  743MPD2    H310985   3.425   2.894   2.197 -0.9131  0.0130  0.0822
  743MPD2     N10986   3.654   2.896   1.798  0.3791  0.0622 -0.3567
  743MPD2    H510987   3.649   2.856   1.705  1.3209 -1.3122  0.1771
  743MPD2    N110988   3.272   2.618   1.897 -0.1384 -0.4244  0.1624
  743MPD2    H710989   3.191   2.604   1.957  0.6971 -0.3508  1.3090
  744TMC3    C110990   3.132   2.482   1.758 -0.1396  0.4035  0.1688
  744TMC3    C210991   3.029   2.540   1.831 -0.7252  0.9270 -0.2358
  744TMC3    C310992   2.910   2.475   1.822  0.4117  0.9684 -0.6225
  744TMC3    C410993   3.107   2.371   1.683  0.5564  0.6485  0.5772
  744TMC3    C510994   2.981   2.320   1.673 -0.5098 -0.2550 -0.7594
  744TMC3    C610995   2.876   2.361   1.745 -0.3103  0.4049 -0.0392
  744TMC3     C10996   3.263   2.550   1.771  0.0434  0.0355 -0.2949
  744TMC3     O10997   3.344   2.552   1.679  0.2506  0.1454  0.5106
  744TMC3     H10998   3.030   2.648   1.844 -1.9835  0.8356  0.6505
  744TMC3    H110999   3.192   2.329   1.631 -0.7871 -0.5338 -0.6461
  744TMC3    H211000   2.776   2.321   1.736 -0.3456  0.4882 -0.0100
  744TMC3    C711001   2.945   2.216   1.579  0.8263 -0.7965  0.5260
  744TMC3    C811002   2.798   2.535   1.888  0.0963 -0.0105 -0.2089
  744TMC3    O111003   2.851   2.145   1.612 -0.0093  0.0239  0.1818
  744TMC3    O211004   2.688   2.486   1.859 -0.0459 -0.0566  0.4938
  745TMC3    C111005   0.817   1.138  13.975 -0.2029 -0.1926 -0.4973
  745TMC3    C211006   0.741   1.238  13.924 -0.1451  0.0782 -0.0713
  745TMC3    C311007   0.687   1.222  13.796 -0.7319 -0.3273  0.3173
  745TMC3    C411008   0.854   1.026  13.908  0.4926  0.6406 -0.3905
  745TMC3    C511009   0.782   1.006  13.794  0.1345  0.6802  0.1128
  745TMC3    C611010   0.702   1.102  13.737 -0.7215  0.1051  0.4507
  745TMC3     C11011   0.928   1.198  14.049 -0.2682 -0.7063  0.3664
  745TMC3     O11012   0.987   1.128  14.133 -0.1935 -0.0714  0.2389
  745TMC3     H11013   0.706   1.324  13.979 -0.6558 -1.8497  2.6101
  745TMC3    H111014   0.942   0.968  13.934 -0.3236 -0.5291 -0.2334
  745TMC3    H211015   0.661   1.079  13.639  1.8590 -1.4582 -0.2836
  745TMC3    C711016   0.853   0.930  13.692  0.4407  0.5660  0.5696
  745TMC3    C811017   0.698   1.332  13.708 -0.7853 -0.1418 -0.1514
  745TMC3    O111018   0.777   0.850  13.633  0.2323  0.3787  0.7012
  745TMC3    O211019   0.699   1.298  13.589  0.0207 -0.0108  0.6218
  746TMC3    C111020   3.223   2.956  10.811 -0.2499 -0.3624 -0.5364
  746TMC3    C211021   3.322   2.931  10.721  0.4664  0.5496 -0.0003
  746TMC3    C311022   3.325   2.812  10.641 -0.2445 -0.3231  0.6482
  746TMC3    C411023   3.112   2.870  10.819  0.2633  0.5370 -0.0947
  746TMC3    C511024   3.120   2.752  10.744  0.3502 -0.5229 -0.4557
  746TMC3    C611025   3.224   2.723  10.656 -0.3943  0.2822 -0.3650
  746TMC3     C11026   3.193   3.089  10.858 -0.2290  0.5298 -0.0619
  746TMC3     O11027   3.127   3.104  10.960 -0.0477 -0.2414 -0.0858
  746TMC3     H11028   3.402   3.004  10.713  0.4921  0.5685  0.3960
  746TMC3    H111029   3.022   2.896  10.873  0.9352  0.4253  1.0877
  746TMC3    H211030   3.236   2.626  10.609  1.1230 -1.6800  4.0474
  746TMC3    C711031   3.013   2.649  10.738  0.5609 -0.0346 -0.1253
  746TMC3    C811032   3.443   2.776  10.583  0.0281  0.5747  0.2756
  746TMC3    O111033   2.998   2.602  10.627 -0.1896 -0.1224 -0.0103
  746TMC3    O211034   3.481   2.659  10.592 -0.0683  0.0637  0.0541
  747TMC3    C111035   0.737   2.597  11.157  0.4640 -0.4381  0.7711
  747TMC3    C211036   0.649   2.540  11.248 -0.4719  0.6675 -0.1092
  747TMC3    C311037   0.571   2.625  11.321  0.1290  0.2433  0.5752
  747TMC3    C411038   0.760   2.733  11.154  0.4993 -0.9696  0.7528
  747TMC3    C511039   0.677   2.809  11.236  0.4990 -0.0057  0.6859
  747TMC3    C611040   0.583   2.759  11.319 -0.2961  0.3524  0.9925
  747TMC3     C11041   0.801   2.503  11.062  0.0035  0.2465 -0.6361
  747TMC3     O11042   0.770   2.385  11.078 -0.1281 -0.0477  0.1220
  747TMC3     H11043   0.650   2.432  11.257  0.8214  0.6712 -0.2676
  747TMC3    H111044   0.828   2.780  11.084  1.3830 -1.2247  1.4319
  747TMC3    H211045   0.522   2.826  11.379 -0.5760  2.2959 -1.4861
  747TMC3    C711046   0.697   2.958  11.229  0.6972  0.6761 -0.2186
  747TMC3    C811047   0.477   2.557  11.411 -0.6973 -0.8861  0.6988
  747TMC3    O111048   0.652   3.019  11.322 -0.8068  0.2615  0.1800
  747TMC3    O211049   0.486   2.440  11.428 -0.6310  0.0386 -0.8552
  748MPD2     C11050   1.283   3.035   1.936  0.4138 -1.1095 -0.0542
  748MPD2    C111051   1.384   3.087   2.006 -0.4759 -0.2359  0.2753
  748MPD2    C211052   1.507   3.112   1.953 -0.6287 -0.5472  0.2500
  748MPD2    C311053   1.529   3.083   1.818 -0.2914 -0.7686 -0.7883
  748MPD2    C411054   1.428   3.031   1.748 -0.2767  0.2916 -0.2146
  748MPD2    C511055   1.306   3.004   1.806  0.1974 -0.5019 -0.3060
  748MPD2     H11056   1.590   3.140   2.016 -1.5668  1.2164  0.7022
  748MPD2    H111057   1.424   3.017   1.640 -1.8456 -1.6846  0.0843
  748MPD2    H211058   1.183   3.028   1.977  0.5876 -0.1153  0.5485
  748MPD2    H311059   1.223   2.983   1.739  0.5588  0.3777 -1.0266
  748MPD2     N11060   1.656   3.123   1.761 -0.0772 -0.0126 -0.3251
  748MPD2    H511061   1.727   3.156   1.825  0.4357 -2.5143  0.4043
  748MPD2    N111062   1.353   3.101   2.144 -0.1083  0.1233  0.5370
  748MPD2    H711063   1.264   3.065   2.178 -1.3741  2.3066 -0.4919
  749TMC3    C111064   1.830   3.159   1.589  0.2813 -0.1350  0.8931
  749TMC3    C211065   1.922   3.184   1.689  0.7134 -0.2231  0.6228
  749TMC3    C311066   2.050   3.228   1.648  0.7010 -0.1372  0.4043
  749TMC3    C411067   1.857   3.170   1.452  0.7976  0.7787 -0.1685
  749TMC3    C511068   1.981   3.216   1.418 -0.4262 -0.2594 -0.1477
  749TMC3    C611069   2.078   3.250   1.510  0.4222  0.2614 -0.0654
  749TMC3     C11070   1.685   3.120   1.621 -0.1830 -0.6534 -0.5202
  749TMC3     O11071   1.606   3.087   1.534  0.4455  0.3537  0.1781
  749TMC3     H11072   1.902   3.171   1.795 -0.0203 -1.8770  0.2833
  749TMC3    H111073   1.787   3.144   1.373  1.3717 -0.0648 -0.4056
  749TMC3    H211074   2.170   3.296   1.477  0.5917 -1.0149 -1.3848
  749TMC3    C711075   2.004   3.269   1.284  0.7054  0.6065  0.8752
  749TMC3    C811076   2.154   3.227   1.744 -0.2639 -0.1015 -0.1363
  749TMC3    O111077   2.090   3.356   1.272 -0.4818 -0.2774 -0.0564
  749TMC3    O211078   2.126   3.243   1.863 -0.1618  0.2927 -0.0876
  750MPD2     C11079   3.496   0.178  11.355 -0.7948 -0.1605 -0.3712
  750MPD2    C111080   3.379   0.139  11.299 -0.0202 -0.2000 -0.0818
  750MPD2    C211081   3.369   0.018  11.234  0.0324 -0.7098 -0.5604
  750MPD2    C311082   3.481   4.655  11.226 -0.9259 -0.3731 -0.5484
  750MPD2    C411083   3.595   4.698  11.286 -0.2158  0.5091 -0.1934
  750MPD2    C511084   3.604   0.089  11.358 -0.0615  0.7374 -0.8007
  750MPD2     H11085   3.273   4.713  11.191 -1.0703  0.1176  1.3308
  750MPD2    H111086   3.686   4.640  11.278  0.0339  0.7404  1.0227
  750MPD2    H211087   3.511   0.277  11.399 -1.9573 -0.5075  0.8097
  750MPD2    H311088   3.700   0.124  11.394 -0.5501  0.3569  0.8807
  750MPD2     N11089   3.473   4.526  11.171 -0.5659  0.0141 -0.5854
  750MPD2    H511090   3.556   4.471  11.193  1.0250  1.9706 -1.7215
  750MPD2    N111091   3.277   0.236  11.291 -0.3336 -0.6737 -0.4521
  750MPD2    H711092   3.296   0.329  11.325  0.7153 -1.5414  1.3532
  751TMC3    C111093   3.390   4.345  11.031  0.4789  0.2078 -0.7619
  751TMC3    C211094   3.276   4.281  10.995  0.2482  0.2380  0.5011
  751TMC3    C311095   3.275   4.189  10.900  0.5473 -0.4613 -0.4486
  751TMC3    C411096   3.513   4.303  10.987  0.1477  0.1953 -0.1896
  751TMC3    C511097   3.510   4.208  10.884  0.4444 -0.3032 -0.8030
  751TMC3    C611098   3.393   4.147  10.838 -0.2081  0.0926 -0.2161
  751TMC3     C11099   3.374   4.480  11.087 -0.4634  0.4705 -0.1409
  751TMC3     O11100   3.259   4.515  11.075  0.3175 -0.1394 -0.6565
  751TMC3     H11101   3.178   4.314  11.029  0.6883  0.7929  1.2195
  751TMC3    H111102   3.605   4.360  11.000  1.0666 -1.8389  2.2575
  751TMC3    H211103   3.387   4.087  10.748 -0.8346  0.8393 -0.6757
  751TMC3    C711104   3.621   4.150  10.820 -0.1422 -0.4167  0.2953
  751TMC3    C811105   3.157   4.128  10.845  0.3179 -0.1132 -0.4519
  751TMC3    O111106   3.724   4.217  10.798 -0.1511  0.6596 -0.4041
  751TMC3    O211107   3.159   4.080  10.732  0.0149  0.0500 -0.2320
  752TMC3    C111108   1.177   4.488  16.803  0.5560  0.1539  0.2090
  752TMC3    C211109   1.101   4.379  16.768  0.0193  0.1772  0.1269
  752TMC3    C311110   1.017   4.331  16.863 -0.8753 -0.2240 -0.0755
  752TMC3    C411111   1.200   4.524  16.926 -0.4631  0.0049 -0.1522
  752TMC3    C511112   1.118   4.469  17.021  0.1046 -0.4665  0.6823
  752TMC3    C611113   1.027   4.372  16.993  0.2678 -0.3637 -0.2487
  752TMC3     C11114   1.263   4.547  16.697  1.2647  0.3846 -0.2712
  752TMC3     O11115   1.368   4.596  16.728  0.3774  0.1655  0.0081
  752TMC3     H11116   1.107   4.335  16.669  0.6972  1.5022 -0.4140
  752TMC3    H111117   1.274   4.602  16.942  0.3896 -1.1633  1.6874
  752TMC3    H211118   0.975   4.329  17.078  2.7002 -0.1084  1.3527
  752TMC3    C711119   1.132   4.514  17.156 -0.1393  0.2298  0.9412
  752TMC3    C811120   0.934   4.228  16.820  0.2204  0.1848 -0.3536
  752TMC3    O111121   1.036   4.495  17.235 -0.2841  0.1341 -0.2224
  752TMC3    O211122   0.958   4.191  16.707 -0.3141 -0.3020  0.1850
  753TMC3    C111123   3.361   1.073  13.468  0.1871 -0.4589  0.5192
  753TMC3    C211124   3.318   1.085  13.597 -0.1905 -0.2460 -0.2394
  753TMC3    C311125   3.244   0.984  13.656 -0.4979 -0.8902  0.2965
  753TMC3    C411126   3.324   0.961  13.387 -0.0050 -0.8414 -0.4685
  753TMC3    C511127   3.246   0.865  13.446  0.9926 -0.0050  0.3530
  753TMC3    C611128   3.219   0.866  13.584 -0.0310  0.0749  0.2359
  753TMC3     C11129   3.490   1.137  13.442 -0.1842 -0.9512  0.2055
  753TMC3     O11130   3.514   1.238  13.508 -0.6353 -0.2376  0.2101
  753TMC3     H11131   3.349   1.172  13.654 -0.7873  0.4071 -0.9013
  753TMC3    H111132   3.356   0.951  13.284  0.4787  0.3219 -0.4337
  753TMC3    H211133   3.184   0.773  13.627  2.1313 -1.6282 -1.7025
  753TMC3    C711134   3.221   0.747  13.375  0.2269 -0.2770 -0.6658
  753TMC3    C811135   3.231   0.976  13.799  0.0743 -0.1012 -0.0915
  753TMC3    O111136   3.289   0.732  13.271 -0.0190  0.4244  0.0543
  753TMC3    O211137   3.170   0.872  13.832 -0.7281 -0.3714 -0.3942
  754MPD2     C11138   2.167   4.432  12.901 -0.4366  0.8953 -0.5560
  754MPD2    C111139   2.084   4.323  12.898 -0.3483 -0.6678 -0.4293
  754MPD2    C211140   1.950   4.342  12.935  0.2010  0.0782  0.1656
  754MPD2    C311141   1.902   4.465  12.990 -0.5593 -0.6298 -0.4265
  754MPD2    C411142   1.991   4.560  13.001 -0.3483  0.0604  0.6480
  754MPD2    C511143   2.123   4.552  12.957  0.1983  0.0155 -0.7855
  754MPD2     H11144   1.871   4.273  12.907 -1.1980  0.9247  2.0058
  754MPD2    H111145   1.956   4.651  13.048  0.4972  1.2921 -1.1131
  754MPD2    H211146   2.271   4.427  12.872 -0.4643 -0.1775 -0.4518
  754MPD2    H311147   2.182   4.642  12.971  2.1847 -1.4867  0.4374
  754MPD2     N11148   1.768   4.491  13.034  0.3591 -0.2376 -0.5924
  754MPD2    H511149   1.744   4.584  13.066 -1.4803 -0.3604 -1.6502
  754MPD2    N111150   2.135   4.192  12.860  0.1901 -0.0390  0.4058
  754MPD2    H711151   2.231   4.190  12.828  1.0607  1.2825  2.8701
  755MPD2     C11152   1.414   0.357  13.497  0.3759  0.5990 -0.2681
  755MPD2    C111153   1.372   0.258  13.585 -0.7463 -0.6233  0.1740
  755MPD2    C211154   1.419   0.131  13.555 -0.4993 -0.6686  0.3295
  755MPD2    C311155   1.489   0.097  13.440 -0.5730 -0.5553 -0.2497
  755MPD2    C411156   1.512   0.193  13.344  0.3486  0.2181 -0.0054
  755MPD2    C511157   1.479   0.322  13.378  0.5371 -0.4918 -0.1788
  755MPD2     H11158   1.400   0.049  13.624 -0.7937  0.9687  2.1884
  755MPD2    H111159   1.568   0.176  13.252 -1.3715 -0.0818 -0.9945
  755MPD2    H211160   1.392   0.461  13.517 -0.2412  0.7629 -1.7773
  755MPD2    H311161   1.515   0.398  13.311  1.1220  0.5306  1.2858
  755MPD2     N11162   1.536   4.694  13.403 -0.6032 -0.3331 -0.2541
  755MPD2    H511163   1.557   4.686  13.304  0.8367  0.7977 -0.0302
  755MPD2    N111164   1.294   0.282  13.700  0.4049  0.2654  0.1843
  755MPD2    H711165   1.281   0.202  13.761 -3.6013  0.3438 -0.5771
  756MPD2     C11166   3.664   4.611   9.475  0.2831  0.7018 -0.2654
  756MPD2    C111167   3.573   4.708   9.456 -0.7110  0.3741  0.0376
  756MPD2    C211168   3.466   4.702   9.367  0.1250  0.2614  0.5044
  756MPD2    C311169   3.453   4.581   9.292  0.2939  0.2911  0.4801
  756MPD2    C411170   3.544   4.480   9.317  0.3986 -0.5390  0.2688
  756MPD2    C511171   3.644   4.491   9.412  0.0005  0.3280  0.7526
  756MPD2     H11172   3.401   0.063   9.352 -1.4032 -1.3460 -1.9468
  756MPD2    H111173   3.537   4.382   9.271  0.0427 -0.4693  0.1751
  756MPD2    H211174   3.744   4.616   9.548  2.8577 -0.6459 -2.9815
  756MPD2    H311175   3.720   4.415   9.422 -1.5230 -1.2259  0.5297
  756MPD2     N11176   3.354   4.571   9.188 -0.5238 -0.1365  0.5680
  756MPD2    H511177   3.300   4.656   9.174  2.4650  0.9136 -4.5746
  756MPD2    N111178   3.577   0.098   9.542 -0.1603 -0.3461  0.1995
  756MPD2    H711179   3.507   0.168   9.521 -0.5691 -0.2574  1.9204
  757MPD2     C11180   2.830   3.813   8.740 -0.8717 -0.6104 -0.2495
  757MPD2    C111181   2.929   3.811   8.841 -0.5294  0.5756 -0.0559
  757MPD2    C211182   2.996   3.928   8.866 -0.2165  0.2360 -0.3104
  757MPD2    C311183   2.979   4.042   8.784  0.7161 -0.5141  0.8141
  757MPD2    C411184   2.897   4.027   8.670 -0.2411  0.1095 -0.0356
  757MPD2    C511185   2.819   3.918   8.654 -0.4814  0.0329  0.3873
  757MPD2     H11186   3.066   3.938   8.948  0.9086 -0.0626 -1.2352
  757MPD2    H111187   2.883   4.112   8.605  1.2787  0.4965  0.1497
  757MPD2    H211188   2.763   3.728   8.737 -1.2119 -0.3786  0.9562
  757MPD2    H311189   2.741   3.911   8.578 -0.6250 -2.0165  0.7213
  757MPD2     N11190   3.057   4.157   8.816 -0.0645  0.2338 -0.6742
  757MPD2    H511191   3.097   4.157   8.909  2.3262 -0.1264 -1.7157
  757MPD2    N111192   2.936   3.692   8.921  0.1766  0.6635 -0.1368
  757MPD2    H711193   2.875   3.621   8.882 -2.7739  2.1948  1.7454
  758MPD2     C11194   2.326   4.148  15.768 -0.4187 -0.0682 -0.1287
  758MPD2    C111195   2.345   4.074  15.888 -0.1689  0.8057 -0.7114
  758MPD2    C211196   2.292   4.113  16.002  0.0337  0.1098 -0.4147
  758MPD2    C311197   2.210   4.222  16.014 -0.0683  0.2031 -0.4949
  758MPD2    C411198   2.188   4.299  15.898  0.4005 -0.4970  0.3806
  758MPD2    C511199   2.246   4.260  15.780 -0.2324  0.0678 -0.6242
  758MPD2     H11200   2.298   4.051  16.091 -2.3241 -1.0781 -1.0534
  758MPD2    H111201   2.122   4.385  15.899  1.4299  0.3034 -1.4732
  758MPD2    H211202   2.363   4.118  15.671 -0.7931  0.5792 -0.4741
  758MPD2    H311203   2.226   4.308  15.685 -3.4781 -0.8382 -0.4043
  758MPD2     N11204   2.140   4.259  16.131 -0.1321  0.5752 -0.4347
  758MPD2    H511205   2.075   4.337  16.121 -0.7031  0.3998  1.7356
  758MPD2    N111206   2.416   3.956  15.879  0.7119 -0.7044  0.5748
  758MPD2    H711207   2.466   3.937  15.793 -0.9106  1.2321 -0.8021
  759MPD2     C11208   2.178   2.187   9.592 -0.0873 -0.1708  0.8773
  759MPD2    C111209   2.203   2.294   9.672 -0.5283  0.8419 -0.1733
  759MPD2    C211210   2.333   2.352   9.673  0.6226 -0.0066  0.3290
  759MPD2    C311211   2.431   2.296   9.591 -0.0369  0.0124 -0.0451
  759MPD2    C411212   2.410   2.183   9.522  0.3505  0.4748 -0.5472
  759MPD2    C511213   2.281   2.129   9.526 -0.8729 -0.3194 -0.1628
  759MPD2     H11214   2.344   2.441   9.735 -0.1992 -0.7183  1.4988
  759MPD2    H111215   2.480   2.119   9.469 -0.5246 -0.7193 -0.2445
  759MPD2    H211216   2.078   2.145   9.595  0.1187 -0.8445 -1.1763
  759MPD2    H311217   2.257   2.041   9.467 -0.8778  0.3395 -1.1504
  759MPD2     N11218   2.557   2.360   9.599  0.3292  0.1065 -0.2228
  759MPD2    H511219   2.568   2.428   9.674  0.1820 -0.6278  0.4755
  759MPD2    N111220   2.105   2.341   9.760  0.0776  0.1221 -0.1050
  759MPD2    H711221   2.132   2.406   9.833  1.8215 -0.1668 -0.4992
  760MPD2     C11222   1.233   0.127  12.235 -0.0960 -0.3980 -0.6490
  760MPD2    C111223   1.308   0.124  12.122 -0.5070  0.6233 -0.6602
  760MPD2    C211224   1.332   0.012  12.056  0.1745  0.3575  0.6469
  760MPD2    C311225   1.272   4.620  12.094 -0.2265 -0.0882  0.5377
  760MPD2    C411226   1.195   4.618  12.202 -0.4590  0.3493 -0.4877
  760MPD2    C511227   1.183   0.007  12.276 -0.4604 -0.0554 -0.5332
  760MPD2     H11228   1.392   0.016  11.966 -0.4492 -1.3943  0.1546
  760MPD2    H111229   1.138   4.528  12.221 -1.7061  0.9637 -1.2740
  760MPD2    H211230   1.215   0.213  12.298 -4.4530 -1.8578  0.0740
  760MPD2    H311231   1.117   0.001  12.361  0.5939  0.7765  0.3467
  760MPD2     N11232   1.283   4.497  12.019 -0.3775 -0.0155 -0.0560
  760MPD2    H511233   1.234   4.420  12.064 -2.6648  1.8595  0.6664
  760MPD2    N111234   1.371   0.234  12.065 -0.2462 -0.6437  0.1724
  760MPD2    H711235   1.409   0.225  11.971  2.5066  1.0173  1.1248
  761MPD2     C11236   2.742   3.847  10.934  0.0778 -0.0473 -0.5619
  761MPD2    C111237   2.851   3.820  10.853  0.9087  0.5159  0.2191
  761MPD2    C211238   2.955   3.910  10.852 -0.2178  0.2212 -0.3786
  761MPD2    C311239   2.955   4.023  10.938 -0.4937  0.9389 -0.0705
  761MPD2    C411240   2.855   4.032  11.030 -0.2178 -0.0796  0.2831
  761MPD2    C511241   2.747   3.952  11.027  0.4088 -0.1650 -0.2516
  761MPD2     H11242   3.045   3.887  10.796  0.6854  0.8632  0.7858
  761MPD2    H111243   2.861   4.122  11.091 -2.9351  1.9296 -2.3859
  761MPD2    H211244   2.668   3.768  10.945  1.0750 -0.7125  1.4313
  761MPD2    H311245   2.667   3.967  11.099 -0.0569  0.2520 -0.8557
  761MPD2     N11246   3.050   4.123  10.931 -0.0691  0.7317  0.8895
  761MPD2    H511247   3.049   4.197  11.001  0.0341  2.0031 -0.4450
  761MPD2    N111248   2.851   3.699  10.773  0.2542 -0.4457  0.3241
  761MPD2    H711249   2.773   3.634  10.775 -0.2912  0.0438 -3.5544
  762MPD2     C11250   3.400   3.750  10.446  0.2670  0.2894  0.7927
  762MPD2    C111251   3.368   3.631  10.388 -0.3124  1.0772  0.1760
  762MPD2    C211252   3.455   3.577  10.289 -1.9323  0.5645  0.4821
  762MPD2    C311253   3.564   3.638  10.264 -0.3518 -0.0253 -0.0200
  762MPD2    C411254   3.592   3.767  10.309 -0.2058  1.0378 -1.0171
  762MPD2    C511255   3.510   3.817  10.407  0.3729  0.5248 -0.4661
  762MPD2     H11256   3.445   3.478  10.245  1.0508 -0.3550  1.8731
  762MPD2    H111257   3.677   3.825  10.276 -0.4467  1.2922 -1.1863
  762MPD2    H211258   3.333   3.792  10.521  0.3564  0.1180  0.9695
  762MPD2    H311259   3.538   3.916  10.441  3.8252 -0.0635 -1.5537
  762MPD2     N11260   3.651   3.564  10.178 -0.0958 -1.1896 -0.1229
  762MPD2    H511261   3.628   3.466  10.166  1.0265 -1.2130 -2.1535
  762MPD2    N111262   3.247   3.567  10.426  1.1552 -0.6125 -0.2862
  762MPD2    H711263   3.188   3.613  10.494 -0.2125 -2.4477 -0.2347
  763MPD2     C11264   4.434   3.991  16.128 -0.6969  0.5208  0.1207
  763MPD2    C111265   4.370   4.105  16.089 -0.0064 -0.4375  0.8986
  763MPD2    C211266   4.383   4.217  16.166 -0.3734 -0.0361 -0.1675
  763MPD2    C311267   4.463   4.222  16.278 -0.2779 -0.2281 -0.0650
  763MPD2    C411268   4.536   4.108  16.310  0.5179 -0.1179  0.2636
  763MPD2    C511269   4.524   3.998  16.231 -0.3253  0.8880 -0.3058
  763MPD2     H11270   4.321   4.304  16.151  2.6207  2.1303 -0.1813
  763MPD2    H111271   4.599   4.112  16.399  0.9694 -0.1441 -0.0527
  763MPD2    H211272   4.417   3.897  16.076 -0.8677  1.4810 -1.5513
  763MPD2    H311273   4.584   3.915  16.267 -0.0140  0.5437 -1.6114
  763MPD2     N11274   4.484   4.342  16.356 -0.1777  0.6140  0.3893
  763MPD2    H511275   4.557   4.346  16.427  0.6232 -0.3969 -0.3651
  763MPD2    N111276   4.293   4.114  15.972 -0.1257  0.0129  0.4782
  763MPD2    H711277   4.257   4.208  15.961  2.0569  0.8330  0.3191
  764MPD2     C11278   2.250   1.166   0.147 -0.2392  0.2355 -0.3707
  764MPD2    C111279   2.207   1.116   0.023 -0.4807 -0.1388  0.6537
  764MPD2    C211280   2.198   0.977   0.010 -0.5041  0.3624  0.1178
  764MPD2    C311281   2.219   0.888   0.115  0.2947 -0.2290 -0.2061
  764MPD2    C411282   2.282   0.940   0.224 -0.1515 -0.6047  0.4873
  764MPD2    C511283   2.298   1.073   0.238 -0.2051 -0.6586 -0.2694
  764MPD2     H11284   2.182   0.931  17.612 -1.3297  0.9728 -0.0249
  764MPD2    H111285   2.306   0.885   0.315  0.7909 -0.7230  0.1647
  764MPD2    H211286   2.258   1.273   0.159 -1.3152  0.1667  0.9237
  764MPD2    H311287   2.352   1.111   0.324 -1.2767  0.5342 -0.1095
  764MPD2     N11288   2.183   0.752   0.093  0.4869  0.5964  0.4308
  764MPD2    H511289   2.143   0.729   0.003 -0.1047  1.0830  0.5739
  764MPD2    N111290   2.166   1.185  17.615  0.2698 -0.0721 -0.1989
  764MPD2    H711291   2.133   1.122  17.542 -1.9374 -2.6182  2.9454
  765MPD2     C11292   2.087   3.255  16.032  0.2440  0.0269 -0.3844
  765MPD2    C111293   2.140   3.358  15.954 -0.3362 -0.4165  0.4163
  765MPD2    C211294   2.229   3.329  15.849  0.0923 -0.3481  0.3262
  765MPD2    C311295   2.261   3.198  15.827 -0.3956 -0.2793 -0.6032
  765MPD2    C411296   2.218   3.100  15.914 -0.1792  0.5001  0.1654
  765MPD2    C511297   2.126   3.125  16.009 -0.1488  0.4032  0.5185
  765MPD2     H11298   2.276   3.401  15.782  0.3441 -1.2847 -0.5025
  765MPD2    H111299   2.256   2.999  15.918  3.5125  1.9495  1.7127
  765MPD2    H211300   2.017   3.285  16.110  2.2261  0.1215  1.3661
  765MPD2    H311301   2.105   3.044  16.078  1.3782  0.7490  1.3878
  765MPD2     N11302   2.351   3.161  15.726  0.5540 -0.0524  0.1965
  765MPD2    H511303   2.379   3.241  15.669 -1.3193  0.7388  0.3633
  765MPD2    N111304   2.097   3.484  15.997 -0.4710 -0.0933 -0.4187
  765MPD2    H711305   2.030   3.481  16.073  0.1571 -0.4007  0.1175
  766MPD2     C11306   1.425   3.516  15.836  0.1406  0.4050  0.5119
  766MPD2    C111307   1.499   3.605  15.765 -0.4568 -0.2679  0.3978
  766MPD2    C211308   1.512   3.598  15.623  0.2558  0.5954 -0.6101
  766MPD2    C311309   1.461   3.491  15.554 -0.7439  0.3343 -0.2492
  766MPD2    C411310   1.389   3.400  15.633  0.8078  0.4811  1.0135
  766MPD2    C511311   1.367   3.414  15.767 -0.1799  0.1029  0.5802
  766MPD2     H11312   1.572   3.674  15.573  0.9616 -0.4159 -1.3035
  766MPD2    H111313   1.347   3.315  15.581  0.9248 -0.4249  2.4118
  766MPD2    H211314   1.407   3.515  15.943  0.3886  1.9927  0.5616
  766MPD2    H311315   1.314   3.333  15.817 -3.2728  2.2985  0.8576
  766MPD2     N11316   1.476   3.476  15.416  0.0703  0.4809 -0.7821
  766MPD2    H511317   1.448   3.391  15.368  3.0160 -1.3607  0.7409
  766MPD2    N111318   1.595   3.697  15.824  0.2089 -0.0501 -0.2715
  766MPD2    H711319   1.637   3.774  15.773 -0.9833  1.6320  1.2614
  767MPD2     C11320   1.176   3.600  15.337 -0.1546  0.2913  0.2709
  767MPD2    C111321   1.212   3.701  15.253  0.0782  0.1525 -0.6963
  767MPD2    C211322   1.228   3.674  15.114  0.0225 -0.0670 -0.0094
  767MPD2    C311323   1.219   3.544  15.063  0.1628  0.4767  0.5921
  767MPD2    C411324   1.187   3.449  15.150  0.5783 -0.7393  0.0500
  767MPD2    C511325   1.171   3.480  15.280 -0.1061 -0.6584  0.6426
  767MPD2     H11326   1.264   3.752  15.047 -2.7058  0.3874 -0.9404
  767MPD2    H111327   1.157   3.356  15.104  1.4270 -1.5117  1.0605
  767MPD2    H211328   1.147   3.621  15.439 -1.5886 -1.0651  0.1386
  767MPD2    H311329   1.137   3.402  15.347  1.7091 -1.4412  0.6302
  767MPD2     N11330   1.222   3.506  14.923  0.1396  0.3169 -0.8435
  767MPD2    H511331   1.203   3.410  14.894  1.3447 -0.0853 -0.3250
  767MPD2    N111332   1.260   3.825  15.309 -0.5260  0.1315  0.3060
  767MPD2    H711333   1.262   3.832  15.410  0.7874 -3.2369  0.5115
  768MPD2     C11334   3.154   2.247  10.423  0.5848  0.4934 -0.6999
  768MPD2    C111335   3.081   2.183  10.521  0.4408 -0.2911 -0.1852
  768MPD2    C211336   3.117   2.208  10.653 -0.0166  0.2174 -0.4651
  768MPD2    C311337   3.227   2.282  10.689 -0.4414  0.7817  0.5343
  768MPD2    C411338   3.296   2.343  10.590  0.3688 -0.0755 -0.5106
  768MPD2    C511339   3.249   2.337  10.460  0.3349  0.0586 -0.8259
  768MPD2     H11340   3.053   2.160  10.726  2.2907 -3.0017 -0.5677
  768MPD2    H111341   3.377   2.410  10.615 -0.4459  1.1205 -1.0853
  768MPD2    H211342   3.131   2.235  10.318 -0.7039 -1.4195 -0.1898
  768MPD2    H311343   3.300   2.404  10.391 -0.4479  0.4425 -1.0386
  768MPD2     N11344   3.268   2.311  10.818  0.7848 -0.0251 -0.0570
  768MPD2    H511345   3.355   2.362  10.825  1.5807 -1.7324  2.5116
  768MPD2    N111346   2.978   2.091  10.493 -0.3752 -0.5563  0.2354
  768MPD2    H711347   2.936   2.046  10.574 -1.8499 -0.4082 -0.4410
  769MPD2     C11348   3.136   0.292  14.649  0.0084 -0.4515 -0.0788
  769MPD2    C111349   3.045   0.295  14.742  0.2531 -0.2845 -0.5400
  769MPD2    C211350   3.077   0.349  14.867 -0.8578 -0.2805  0.2539
  769MPD2    C311351   3.201   0.398  14.899 -0.1686  0.3689 -0.7360
  769MPD2    C411352   3.291   0.407  14.793  0.6733 -0.3923 -0.2047
  769MPD2    C511353   3.258   0.338  14.673  0.2055  0.2389 -1.1170
  769MPD2     H11354   3.006   0.350  14.949 -1.2720 -0.2058 -0.1082
  769MPD2    H111355   3.393   0.443  14.804  0.8964 -0.9114 -0.5400
  769MPD2    H211356   3.108   0.263  14.549  2.1995 -1.8726 -0.2727
  769MPD2    H311357   3.329   0.327  14.592  0.6789  0.0442 -0.6799
  769MPD2     N11358   3.223   0.441  15.034  0.0139 -0.7656 -0.0013
  769MPD2    H511359   3.144   0.451  15.097  1.0640  0.6582  1.0856
  769MPD2    N111360   2.923   0.226  14.719  0.5850  0.0940  0.1212
  769MPD2    H711361   2.914   0.182  14.628  0.4521  1.0053 -0.3073
  770MPD2     C11362   2.447   4.158  15.291 -0.2995 -0.1077  0.2078
  770MPD2    C111363   2.481   4.121  15.155 -0.7438 -0.2630  0.5146
  770MPD2    C211364   2.548   4.212  15.074  0.5111 -0.3717 -0.2236
  770MPD2    C311365   2.565   4.338  15.122  0.4909  0.0962 -0.2120
  770MPD2    C411366   2.529   4.375  15.251 -0.1230  0.0871 -0.2593
  770MPD2    C511367   2.466   4.286  15.334 -0.2304  0.4051 -0.0010
  770MPD2     H11368   2.583   4.185  14.975 -0.9281  0.7721 -1.0479
  770MPD2    H111369   2.539   4.478  15.285 -0.6366 -0.1696  0.6629
  770MPD2    H211370   2.396   4.087  15.355  2.1594 -0.4973  1.7360
  770MPD2    H311371   2.426   4.305  15.433  0.5579 -1.1189  0.5950
  770MPD2     N11372   2.621   4.427  15.032  0.5513  0.0732 -0.1720
  770MPD2    H511373   2.659   4.397  14.942  0.1462  0.9926 -0.6456
  770MPD2    N111374   2.447   3.988  15.109  0.0275 -0.7197 -0.0729
  770MPD2    H711375   2.403   3.928  15.179 -0.7698 -0.1588 -0.0840
  771MPD2     C11376   3.866   3.190  14.042  0.1396 -0.0100 -0.3981
  771MPD2    C111377   3.807   3.285  13.952  0.2953 -0.2488  0.0778
  771MPD2    C211378   3.727   3.233  13.850 -0.5685 -0.1971 -0.1576
  771MPD2    C311379   3.704   3.097  13.841 -0.6431 -0.5168  0.3480
  771MPD2    C411380   3.774   3.008  13.915  0.7937  0.2924  0.5783
  771MPD2    C511381   3.849   3.056  14.025 -0.4633  0.3350  0.1579
  771MPD2     H11382   3.669   3.298  13.786 -0.3677 -0.0432 -0.1840
  771MPD2    H111383   3.766   2.900  13.912 -0.0402  0.3745 -0.2102
  771MPD2    H211384   3.930   3.224  14.122  1.3354  0.3805 -1.5296
  771MPD2    H311385   3.891   2.982  14.092 -0.5251  0.4656  0.3420
  771MPD2     N11386   3.611   3.059  13.737 -0.0085  0.5871  0.7032
  771MPD2    H511387   3.583   3.128  13.668  1.0420  0.3276  0.0059
  771MPD2    N111388   3.811   3.423  13.960  0.0010  0.2422 -0.2886
  771MPD2    H711389   3.772   3.474  13.881  0.2269 -0.5506 -0.9161
  772MPD2     C11390   3.538   4.009  13.662 -0.7046 -0.4440  0.5104
  772MPD2    C111391   3.524   3.915  13.757 -0.1369  1.5444 -0.0937
  772MPD2    C211392   3.396   3.873  13.788  0.4972 -0.1595 -0.2914
  772MPD2    C311393   3.283   3.924  13.717 -0.8122  0.5712  0.1036
  772MPD2    C411394   3.301   4.028  13.631  0.2681  0.5868  1.1021
  772MPD2    C511395   3.428   4.071  13.601  0.6045  0.1326 -0.3131
  772MPD2     H11396   3.384   3.783  13.848  0.7207 -0.1221 -0.1904
  772MPD2    H111397   3.219   4.083  13.585  0.8102  1.1173  0.7757
  772MPD2    H211398   3.632   4.041  13.619 -0.3391 -0.7484  1.0908
  772MPD2    H311399   3.447   4.147  13.526 -2.2636  0.4051 -0.7828
  772MPD2     N11400   3.157   3.873  13.719 -0.6321  0.3606 -0.0139
  772MPD2    H511401   3.094   3.915  13.650 -1.8191 -4.1250 -1.6921
  772MPD2    N111402   3.637   3.851  13.820  0.4479 -0.4371 -0.3442
  772MPD2    H711403   3.618   3.783  13.894 -0.1552  2.5768  2.2681
  773MPD2     C11404   3.105   4.428   0.251 -0.7010  0.7324  0.5929
  773MPD2    C111405   3.008   4.332   0.226  0.3128  0.0254  0.2468
  773MPD2    C211406   3.047   4.198   0.209 -0.0828 -0.0097 -1.1927
  773MPD2    C311407   3.182   4.169   0.205  0.2671  0.3138 -0.1192
  773MPD2    C411408   3.280   4.270   0.228  0.2274 -0.2271 -0.3758
  773MPD2    C511409   3.237   4.399   0.250 -0.3233  0.1174 -0.8817
  773MPD2     H11410   2.978   4.115   0.203  0.3708 -0.3848 -1.1563
  773MPD2    H111411   3.387   4.252   0.227  0.2825  0.0964 -0.3778
  773MPD2    H211412   3.082   4.529   0.281  0.6865  1.2629 -0.1552
  773MPD2    H311413   3.307   4.481   0.259 -0.0023 -0.5027  2.2442
  773MPD2     N11414   3.213   4.030   0.200  0.3082  0.0017 -0.4526
  773MPD2    H511415   3.139   3.967   0.228  0.5671 -0.8999 -1.8097
  773MPD2    N111416   2.874   4.375   0.236 -0.8431  0.4880 -0.0508
  773MPD2    H711417   2.863   4.468   0.275 -1.5477  1.0930 -1.7072
  774MPD2     C11418   1.680   3.258  13.013 -0.0354  0.0886 -0.2931
  774MPD2    C111419   1.748   3.318  13.117 -0.2487  0.0969 -0.5470
  774MPD2    C211420   1.773   3.455  13.109  0.3926 -0.0786 -0.5039
  774MPD2    C311421   1.729   3.535  13.006  0.3473  0.6870  0.1892
  774MPD2    C411422   1.661   3.476  12.904  0.0974  0.2896  0.4979
  774MPD2    C511423   1.644   3.339  12.905  0.3781  0.6251 -0.5452
  774MPD2     H11424   1.834   3.503  13.185  0.5983 -0.0918 -0.6572
  774MPD2    H111425   1.627   3.529  12.816  1.7295  0.5345  0.0257
  774MPD2    H211426   1.668   3.151  13.007  0.1324  0.1226 -1.3116
  774MPD2    H311427   1.598   3.285  12.823 -1.6589  1.3857  0.1091
  774MPD2     N11428   1.759   3.666  13.013 -0.1786 -0.1391  0.6520
  774MPD2    H511429   1.812   3.695  13.094  2.7845 -0.1728 -1.2555
  774MPD2    N111430   1.813   3.246  13.219 -0.1616 -0.2085 -0.1521
  774MPD2    H711431   1.834   3.147  13.209  0.2571 -0.1177 -0.1921
  775MPD2     C11432   3.987   0.549  15.639  0.0887 -0.1160  0.5101
  775MPD2    C111433   4.009   0.653  15.729 -0.3343  0.5775  0.1503
  775MPD2    C211434   4.088   0.761  15.695 -0.4508 -0.1156  0.3123
  775MPD2    C311435   4.133   0.777  15.560 -0.0275 -0.2936  0.3154
  775MPD2    C411436   4.098   0.676  15.470 -0.2139 -0.4043  0.7872
  775MPD2    C511437   4.029   0.563  15.509 -0.6280  0.0179 -0.2241
  775MPD2     H11438   4.096   0.843  15.765  1.2581 -0.7314  0.8332
  775MPD2    H111439   4.135   0.671  15.368  0.6556  1.1595  1.0358
  775MPD2    H211440   3.923   0.466  15.668 -0.7418  0.2068 -0.3967
  775MPD2    H311441   4.022   0.475  15.447 -0.9196 -0.8638  1.0601
  775MPD2     N11442   4.204   0.884  15.502  0.4948  0.2376  0.5374
  775MPD2    H511443   4.206   0.880  15.401  0.0341 -2.2592  0.6160
  775MPD2    N111444   3.953   0.641  15.857  0.0875  0.2314  0.0304
  775MPD2    H711445   3.877   0.573  15.862 -0.0098  0.3218 -0.2361
  776MPD2     C11446   2.819   0.982  11.266 -0.0628  0.4180  0.3767
  776MPD2    C111447   2.937   0.923  11.302 -0.3444  0.0201  0.8776
  776MPD2    C211448   3.044   1.009  11.325 -0.5075  0.0116 -0.9397
  776MPD2    C311449   3.033   1.150  11.305 -0.0633 -0.2294  0.5258
  776MPD2    C411450   2.914   1.206  11.265 -0.4595  0.8505  0.1181
  776MPD2    C511451   2.803   1.122  11.255 -0.5738 -0.9802 -0.5120
  776MPD2     H11452   3.141   0.966  11.349 -0.3198  1.0865  0.2508
  776MPD2    H111453   2.900   1.314  11.263 -2.0524  0.6127 -1.5680
  776MPD2    H211454   2.730   0.925  11.240 -0.3406  1.9675 -2.1817
  776MPD2    H311455   2.712   1.156  11.208 -0.2804 -0.1713 -0.5058
  776MPD2     N11456   3.139   1.241  11.323 -0.2743 -0.5072 -0.6990
  776MPD2    H511457   3.116   1.336  11.296  4.2734  0.8527  0.1343
  776MPD2    N111458   2.936   0.782  11.325 -0.1003  0.5306  0.4502
  776MPD2    H711459   2.848   0.734  11.308 -0.7722  1.9610 -0.0919
  777MPD2     C11460   2.781   3.063   0.925 -0.0804  0.0410  0.2253
  777MPD2    C111461   2.894   3.015   0.991 -0.4839  0.6010  0.8838
  777MPD2    C211462   2.961   2.906   0.939  0.3896 -0.3969 -0.0869
  777MPD2    C311463   2.908   2.831   0.836 -0.5978 -0.0269  0.0600
  777MPD2    C411464   2.788   2.864   0.789 -0.4411 -0.7315  0.2010
  777MPD2    C511465   2.721   2.977   0.834 -0.3367 -0.4943 -0.4045
  777MPD2     H11466   3.038   2.862   1.001 -0.9952 -1.4593  0.8807
  777MPD2    H111467   2.731   2.809   0.715 -0.6187 -0.8919  0.4595
  777MPD2    H211468   2.727   3.154   0.948  2.1811  1.9189 -1.8689
  777MPD2    H311469   2.631   3.008   0.781 -1.0207 -3.4783 -0.9760
  777MPD2     N11470   2.987   2.722   0.791 -0.3372 -0.0255  0.0046
  777MPD2    H511471   3.080   2.703   0.827  0.7253  0.3316 -2.5569
  777MPD2    N111472   2.930   3.089   1.109  0.2178  0.6874  0.1305
  777MPD2    H711473   2.861   3.153   1.146  1.5553  0.5725  2.8054
  778MPD2     C11474   4.003   3.262  14.949 -0.0999  0.6127 -0.4334
  778MPD2    C111475   4.000   3.168  14.850 -0.6809  0.1288  0.4693
  778MPD2    C211476   4.022   3.208  14.718  0.4049  0.4104 -0.0249
  778MPD2    C311477   4.060   3.337  14.699  0.2236  0.5015  0.4145
  778MPD2    C411478   4.061   3.433  14.803 -0.1280  0.0929 -0.8164
  778MPD2    C511479   4.045   3.392  14.930 -0.0320  0.2312 -0.0208
  778MPD2     H11480   4.025   3.134  14.639  0.3479  1.4859 -1.0337
  778MPD2    H111481   4.081   3.539  14.803 -2.3223  0.5122 -0.7337
  778MPD2    H211482   3.996   3.238  15.055  0.0951 -1.3897 -0.8611
  778MPD2    H311483   4.050   3.457  15.016 -2.4223  0.6923 -0.2548
  778MPD2     N11484   4.091   3.374  14.567 -0.0549 -0.0748 -0.6143
  778MPD2    H511485   4.099   3.297  14.501 -2.8682  0.8496 -2.0298
  778MPD2    N111486   3.960   3.035  14.880  0.6349  0.1198  0.2738
  778MPD2    H711487   3.932   2.975  14.804  3.7697  0.7766 -1.3912
  779MPD2     C11488   3.212   2.000  14.294 -0.1434  0.3127  0.8549
  779MPD2    C111489   3.351   2.015  14.282 -0.3325 -0.0084 -0.4309
  779MPD2    C211490   3.393   2.134  14.229 -0.2495 -0.1168 -0.1818
  779MPD2    C311491   3.315   2.239  14.195 -0.2316 -0.1893  0.7291
  779MPD2    C411492   3.181   2.224  14.221 -0.0268  0.8297  0.5560
  779MPD2    C511493   3.132   2.104  14.254  0.1210 -0.1554 -0.0745
  779MPD2     H11494   3.501   2.144  14.226 -0.1654 -1.5773 -2.0600
  779MPD2    H111495   3.112   2.307  14.213 -2.0360 -1.0498 -1.7690
  779MPD2    H211496   3.162   1.907  14.318  0.1956  0.4803  2.1906
  779MPD2    H311497   3.027   2.092  14.274  0.1716 -0.7115 -0.1421
  779MPD2     N11498   3.387   2.361  14.180 -0.3770  0.1054 -0.5340
  779MPD2    H511499   3.487   2.346  14.171 -0.7733 -2.0769 -1.3282
  779MPD2    N111500   3.447   1.917  14.328  0.0627 -0.6687  0.5473
  779MPD2    H711501   3.546   1.941  14.330  0.0948 -0.7759  0.2188
  780MPD2     C11502   3.715   1.214   1.353 -0.6306  0.2772  0.0521
  780MPD2    C111503   3.627   1.235   1.250  0.2897 -0.4181  0.6342
  780MPD2    C211504   3.673   1.308   1.144  0.4354 -0.0858  0.2201
  780MPD2    C311505   3.804   1.355   1.140 -0.7281  0.1210  0.4289
  780MPD2    C411506   3.889   1.335   1.246  0.0135 -0.7842  0.1438
  780MPD2    C511507   3.843   1.269   1.356  0.7682  0.0364 -0.5049
  780MPD2     H11508   3.603   1.326   1.063 -0.6415 -0.1117  1.1377
  780MPD2    H111509   3.992   1.367   1.241 -0.2220 -0.2237 -1.0361
  780MPD2    H211510   3.697   1.151   1.439 -1.7501 -0.4258 -0.7032
  780MPD2    H311511   3.903   1.258   1.446 -0.1211  0.4752  0.1321
  780MPD2     N11512   3.847   1.421   1.023  0.0266  0.2554  0.3508
  780MPD2    H511513   3.773   1.424   0.954  1.5719  1.1433 -1.2522
  780MPD2    N111514   3.498   1.181   1.271  0.1048 -0.2476  0.3858
  780MPD2    H711515   3.486   1.128   1.357 -0.1181 -0.6643  0.0961
  781MPD2     C11516   0.572   3.277  12.015 -0.1539  0.0185  0.8832
  781MPD2    C111517   0.597   3.410  12.039  0.3146 -0.5329  0.0881
  781MPD2    C211518   0.689   3.463  11.947 -0.0339  0.2438 -0.6863
  781MPD2    C311519   0.752   3.397  11.843 -0.1350 -0.4410  0.1362
  781MPD2    C411520   0.720   3.264  11.831  0.1001  0.6444 -0.0564
  781MPD2    C511521   0.635   3.203  11.915  0.3916 -0.6656 -0.5718
  781MPD2     H11522   0.699   3.571  11.943 -1.0776  0.3802  0.3614
  781MPD2    H111523   0.766   3.200  11.757  0.6534  0.1461  0.7240
  781MPD2    H211524   0.495   3.223  12.069  0.6944 -0.5764  1.5006
  781MPD2    H311525   0.611   3.098  11.906  0.6546 -0.9111  1.6896
  781MPD2     N11526   0.837   3.457  11.748  0.8020 -0.8142 -0.3000
  781MPD2    H511527   0.854   3.398  11.667  0.4651 -0.3047 -0.7396
  781MPD2    N111528   0.535   3.484  12.139 -0.6691 -0.8097 -0.0577
  781MPD2    H711529   0.556   3.583  12.138 -3.1162 -0.2735  0.7321
  782MPD2     C11530   3.913   4.490  10.221  0.2799  0.3177 -0.1522
  782MPD2    C111531   4.023   4.428  10.274 -0.5792  0.9526 -0.1168
  782MPD2    C211532   4.101   4.498  10.369  0.5537 -0.7607  0.3161
  782MPD2    C311533   4.054   4.619  10.419  0.1808  0.3162 -0.1427
  782MPD2    C411534   3.929   4.662  10.376  0.7487 -0.4493  0.2182
  782MPD2    C511535   3.862   4.607  10.271 -0.1892 -0.3914  0.4932
  782MPD2     H11536   4.195   4.457  10.404 -0.8494 -2.6122  1.8783
  782MPD2    H111537   3.887   0.022  10.430 -2.2753 -1.8434  0.0261
  782MPD2    H211538   3.857   4.434  10.148 -0.9246 -0.3571  1.2884
  782MPD2    H311539   3.762   4.637  10.241  0.0580  0.9379  0.9962
  782MPD2     N11540   4.135   4.677  10.523  0.0069  0.1854  0.3066
  782MPD2    H511541   4.221   4.626  10.543  0.1165 -0.0320 -0.6824
  782MPD2    N111542   4.052   4.302  10.228 -0.2959  0.3181 -0.4818
  782MPD2    H711543   3.977   4.259  10.175 -1.4814  0.7033  0.8891
  783MPD2     C11544   3.687   3.798  10.785  0.4371  0.4593 -0.4083
  783MPD2    C111545   3.701   3.926  10.750 -0.8055 -0.2019 -0.0610
  783MPD2    C211546   3.784   3.964  10.645  0.5525  0.4039  0.2912
  783MPD2    C311547   3.856   3.867  10.578 -0.0144  0.3487  0.2968
  783MPD2    C411548   3.832   3.732  10.611 -0.2352 -0.3617 -1.0338
  783MPD2    C511549   3.750   3.698  10.715 -0.0638  0.2578  0.2195
  783MPD2     H11550   3.793   4.064  10.606 -1.1104 -0.8660 -3.3354
  783MPD2    H111551   3.885   3.646  10.572  1.0371  1.2878 -2.9765
  783MPD2    H211552   3.615   3.772  10.862 -0.1245  0.3182 -0.9801
  783MPD2    H311553   3.749   3.597  10.753  1.2403  0.3407  0.4686
  783MPD2     N11554   3.933   3.902  10.466  0.5619 -0.1490  0.0558
  783MPD2    H511555   3.945   4.002  10.448  0.9606  0.3170  2.8741
  783MPD2    N111556   3.613   4.018  10.818  0.4836 -0.2255  0.0936
  783MPD2    H711557   3.552   3.966  10.880  0.3534 -2.6774 -2.1005
  784MPD2     C11558   4.642   4.523   1.335 -0.3704  0.9936 -0.1176
  784MPD2    C111559   4.709   4.619   1.271  0.2858  0.5966  0.2064
  784MPD2    C211560   4.648   4.704   1.185 -0.2359 -0.3457 -0.1092
  784MPD2    C311561   4.512   4.697   1.178  1.0407  0.2684  0.9760
  784MPD2    C411562   4.438   4.621   1.261 -0.1296 -0.5644  0.0199
  784MPD2    C511563   4.503   4.527   1.330  0.1672 -0.2636  0.2911
  784MPD2     H11564   4.708   0.046   1.124 -0.3755 -0.0838  0.0378
  784MPD2    H111565   4.331   4.623   1.274 -0.0606 -1.8550  0.7951
  784MPD2    H211566   4.687   4.434   1.379  1.2016  2.2955  0.9246
  784MPD2    H311567   4.449   4.450   1.385  0.2602 -0.5084  0.0427
  784MPD2     N11568   4.452   0.059   1.093 -0.6554 -0.0513  0.0540
  784MPD2    H511569   4.507   0.108   1.022  0.6669 -1.4752  0.0869
  784MPD2    N111570   0.126   4.638   1.283 -0.2599  0.2493 -0.0383
  784MPD2    H711571   0.166   4.718   1.236 -0.8395  1.1763  1.0351
  785MPD2     C11572   1.895   2.531  10.515  0.2570 -0.3852  0.1748
  785MPD2    C111573   1.815   2.642  10.496  0.8597  0.8282 -0.2159
  785MPD2    C211574   1.684   2.620  10.469 -0.2253 -0.4925  0.2906
  785MPD2    C311575   1.626   2.494  10.453 -0.2015  0.3089 -0.2032
  785MPD2    C411576   1.716   2.391  10.460  0.6489 -0.3189 -0.6120
  785MPD2    C511577   1.848   2.405  10.486 -0.7434 -0.0117  0.4218
  785MPD2     H11578   1.621   2.708  10.465  2.0237  1.1253  0.3962
  785MPD2    H111579   1.682   2.290  10.438  1.2742 -0.3059 -1.6187
  785MPD2    H211580   2.000   2.536  10.539  0.3404 -0.1989 -0.2411
  785MPD2    H311581   1.910   2.316  10.480 -2.2210 -0.8684 -1.7465
  785MPD2     N11582   1.495   2.485  10.410 -0.3435  1.2516 -0.1204
  785MPD2    H511583   1.448   2.575  10.403 -0.2308  1.4682  1.7582
  785MPD2    N111584   1.853   2.769  10.539  0.8020  0.2841  0.6799
  785MPD2    H711585   1.780   2.838  10.547  0.2756  0.0576 -2.0100
  786MPD2     C11586   4.422   1.690  14.823 -0.1495  0.2913 -0.2547
  786MPD2    C111587   4.500   1.580  14.842  0.0783 -0.1653  0.4671
  786MPD2    C211588   4.575   1.558  14.964  0.2916  0.0006  0.5138
  786MPD2    C311589   4.570   1.663  15.063  0.7551  0.4562 -0.0496
  786MPD2    C411590   4.506   1.781  15.026 -0.0106 -0.4875 -0.1094
  786MPD2    C511591   4.431   1.789  14.910  0.5829  0.6905 -0.6071
  786MPD2     H11592   4.631   1.467  14.984 -1.2938 -0.6247  2.0246
  786MPD2    H111593   4.492   1.870  15.087  2.7588  0.0658 -0.2849
  786MPD2    H211594   4.344   1.688  14.747  1.2507 -1.6220 -1.6043
  786MPD2    H311595   4.365   1.874  14.895 -1.6110 -1.4704 -3.1905
  786MPD2     N11596   4.632   1.650  15.193 -0.0776  0.2713 -0.1103
  786MPD2    H511597   4.637   1.734  15.249  1.0652  1.4349 -1.9572
  786MPD2    N111598   4.485   1.481  14.742 -0.4131 -0.5491 -0.2586
  786MPD2    H711599   4.417   1.499  14.669 -1.2615  1.7611  1.0788
  787MPD2     C11600   4.618   0.726  14.229  0.0053 -0.4618  0.1606
  787MPD2    C111601   4.703   0.824  14.281 -0.4698  0.0912 -1.3412
  787MPD2    C211602   0.111   0.818  14.253 -0.3273  0.0403  0.1312
  787MPD2    C311603   0.156   0.711  14.174 -0.0784 -0.1955  0.7161
  787MPD2    C411604   0.060   0.634  14.110  0.8034 -0.0645 -0.1401
  787MPD2    C511605   4.652   0.628  14.150  0.3083 -0.6201  0.3320
  787MPD2     H11606   0.181   0.885  14.301  1.4462 -1.1757 -0.7597
  787MPD2    H111607   0.073   0.550  14.042 -1.2729  0.5004 -1.2539
  787MPD2    H211608   4.512   0.739  14.245  0.5435  2.5595  1.3421
  787MPD2    H311609   4.580   0.572  14.091 -0.2154 -1.3573  1.6854
  787MPD2     N11610   0.293   0.684  14.151 -0.2365  0.1437  0.2831
  787MPD2    H511611   0.353   0.695  14.231 -1.5854  0.2250  1.2773
  787MPD2    N111612   4.643   0.927  14.364  0.2048  0.5981 -0.8155
  787MPD2    H711613   4.542   0.922  14.368  0.1955  1.7320  0.5162
  788MPD2     C11614   1.744   3.699   0.813  0.5985 -0.3340  0.8178
  788MPD2    C111615   1.624   3.635   0.808 -0.3177 -0.3809  0.1190
  788MPD2    C211616   1.521   3.712   0.756  0.4166 -0.1025  0.7746
  788MPD2    C311617   1.544   3.836   0.706 -0.1683  0.7289  0.0782
  788MPD2    C411618   1.668   3.892   0.705  0.2611  0.7600  0.8518
  788MPD2    C511619   1.772   3.823   0.756  0.2448 -0.1783  0.2989
  788MPD2     H11620   1.422   3.668   0.754  1.2730 -2.0075 -0.2268
  788MPD2    H111621   1.673   3.976   0.637  2.2051 -0.1278 -0.1010
  788MPD2    H211622   1.828   3.649   0.860  2.7242 -0.1033 -2.7394
  788MPD2    H311623   1.873   3.864   0.753 -0.0335  0.5252  0.6555
  788MPD2     N11624   1.444   3.909   0.641 -0.0413  0.3326  0.2883
  788MPD2    H511625   1.476   3.975   0.570 -0.7398 -0.7628 -1.0384
  788MPD2    N111626   1.617   3.501   0.846 -0.0604 -0.7389  0.6812
  788MPD2    H711627   1.702   3.445   0.841  0.4092  0.0754 -0.3430
  789MPD2     C11628   1.771   3.386  16.847 -0.1192 -1.4014  0.4882
  789MPD2    C111629   1.647   3.334  16.885  0.5698  0.5869  0.5043
  789MPD2    C211630   1.540   3.411  16.849 -0.6619 -0.4420 -0.1537
  789MPD2    C311631   1.537   3.531  16.789  0.2892  0.0249 -0.5163
  789MPD2    C411632   1.661   3.582  16.757 -0.3791 -0.6629 -0.0162
  789MPD2    C511633   1.776   3.509  16.783 -0.3250 -0.4377  0.4299
  789MPD2     H11634   1.443   3.371  16.878 -0.1980  0.0085  2.0117
  789MPD2    H111635   1.660   3.684  16.720  1.8488 -0.1643  1.2673
  789MPD2    H211636   1.859   3.329  16.873  1.1136  0.5845  0.7152
  789MPD2    H311637   1.873   3.555  16.768 -0.4127 -0.1779  0.6741
  789MPD2     N11638   1.421   3.607  16.771  0.5601 -0.5119 -0.3114
  789MPD2    H511639   1.422   3.691  16.715  0.4766 -0.7587 -0.6846
  789MPD2    N111640   1.621   3.210  16.941  0.4022  0.3696 -0.4361
  789MPD2    H711641   1.525   3.184  16.960  0.5788 -0.4714 -0.6902
  790MPD2     C11642   2.895   1.058  13.741  0.0436 -0.1866  0.2113
  790MPD2    C111643   2.859   0.925  13.723  0.0274 -0.2164 -0.0270
  790MPD2    C211644   2.846   0.884  13.592  0.0605 -0.2727 -0.0703
  790MPD2    C311645   2.875   0.965  13.486 -0.7105 -0.4105 -0.1799
  790MPD2    C411646   2.915   1.097  13.508 -0.3597 -0.1462  0.3419
  790MPD2    C511647   2.927   1.139  13.636  0.1519  0.1278 -0.2559
  790MPD2     H11648   2.826   0.781  13.564  1.1338 -0.5655  0.2507
  790MPD2    H111649   2.938   1.161  13.424 -2.2145 -0.5701 -0.4983
  790MPD2    H211650   2.933   1.094  13.836 -0.6912  0.7763  0.1335
  790MPD2    H311651   2.967   1.237  13.657 -0.5672  0.4727 -0.4974
  790MPD2     N11652   2.874   0.905  13.358 -0.0689  0.1064  0.2152
  790MPD2    H511653   2.810   0.827  13.343  1.9960 -1.9857  2.1611
  790MPD2    N111654   2.842   0.847  13.837  0.1269 -0.2508 -0.0541
  790MPD2    H711655   2.868   0.882  13.929  1.1645  1.0198 -0.8379
  791MPD2     C11656   2.328   0.718  13.036  0.9669  0.3789  0.4953
  791MPD2    C111657   2.437   0.638  13.018  0.6843  0.0567 -0.4292
  791MPD2    C211658   2.419   0.502  12.982 -0.3737  0.9170 -0.1579
  791MPD2    C311659   2.290   0.464  12.948 -0.1606 -0.1464 -0.5121
  791MPD2    C411660   2.191   0.552  12.964  0.4437  0.4131  0.0771
  791MPD2    C511661   2.204   0.673  13.021  0.0656 -0.4401 -0.1638
  791MPD2     H11662   2.498   0.431  12.958 -0.3551  0.5930  0.8737
  791MPD2    H111663   2.091   0.516  12.942  1.1093 -0.7970 -0.9597
  791MPD2    H211664   2.340   0.822  13.064 -2.1852  1.5118 -2.4015
  791MPD2    H311665   2.120   0.739  13.034  1.7996  1.9975 -1.3003
  791MPD2     N11666   2.273   0.334  12.890 -0.0689 -0.0619  0.0433
  791MPD2    H511667   2.359   0.288  12.865 -0.2578 -0.7836  0.7393
  791MPD2    N111668   2.563   0.700  13.033  0.5019  0.0932 -0.8478
  791MPD2    H711669   2.561   0.800  13.050  1.6128 -0.1617  0.8062
  792MPD2     C11670   3.830   0.362  11.187  0.4271 -0.2760 -0.2440
  792MPD2    C111671   3.701   0.401  11.191 -0.1387 -0.0478 -0.0858
  792MPD2    C211672   3.605   0.342  11.114  0.3727  0.5784  0.1711
  792MPD2    C311673   3.645   0.230  11.041  1.0028  0.2966  0.4730
  792MPD2    C411674   3.770   0.179  11.044 -0.2905  0.0989 -0.1187
  792MPD2    C511675   3.866   0.248  11.122 -0.2894 -0.3269  0.3367
  792MPD2     H11676   3.499   0.362  11.112  0.2195 -0.1838  0.7077
  792MPD2    H111677   3.807   0.097  10.983  2.1254  1.3005 -0.2702
  792MPD2    H211678   3.907   0.410  11.248 -0.5401  1.5205 -0.4399
  792MPD2    H311679   3.972   0.226  11.131 -0.1652 -0.7117 -2.0505
  792MPD2     N11680   3.552   0.154  10.969 -0.1334 -0.3071 -0.0568
  792MPD2    H511681   3.593   0.065  10.940  1.7637  0.7228 -0.5709
  792MPD2    N111682   3.681   0.511  11.273 -0.0314 -0.1908 -0.1854
  792MPD2    H711683   3.765   0.550  11.316  0.3953 -0.7958 -0.4793
  793MPD2     C11684   3.122   0.254  10.101  0.6566  0.1693 -0.2340
  793MPD2    C111685   3.247   0.257  10.154 -0.1372 -0.9994 -0.5967
  793MPD2    C211686   3.263   0.240  10.290 -0.2188 -0.3750 -0.2721
  793MPD2    C311687   3.153   0.203  10.367 -0.1053  0.7174  0.2522
  793MPD2    C411688   3.024   0.195  10.314 -0.1198  1.0447  0.5301
  793MPD2    C511689   3.013   0.229  10.179 -0.6559  0.3703  0.6255
  793MPD2     H11690   3.360   0.254  10.335  0.1035  1.3717 -1.5015
  793MPD2    H111691   2.942   0.164  10.378  0.4093 -5.1034 -1.6894
  793MPD2    H211692   3.110   0.265   9.994  0.1979 -1.2901 -0.3315
  793MPD2    H311693   2.917   0.227  10.129 -0.6814  1.1343  0.6423
  793MPD2     N11694   3.189   0.164  10.496  0.6016  0.4451 -0.2531
  793MPD2    H511695   3.286   0.181  10.521  0.0805  1.7381  0.8887
  793MPD2    N111696   3.365   0.296  10.083 -0.2195 -0.7082  0.3721
  793MPD2    H711697   3.457   0.284  10.124 -0.4938 -0.0745  1.1645
  794MPD2     C11698   2.527   0.295   0.075 -0.1056 -0.1212 -0.2977
  794MPD2    C111699   2.455   0.195   0.016 -0.0990 -0.6266  0.3008
  794MPD2    C211700   2.378   0.224  17.607 -0.1161  0.1000 -0.5482
  794MPD2    C311701   2.379   0.347  17.541  0.1237 -0.5834  1.1938
  794MPD2    C411702   2.447   0.450  17.606  0.6346 -0.6081 -0.0354
  794MPD2    C511703   2.516   0.423   0.021  0.1942 -0.1745  0.6768
  794MPD2     H11704   2.307   0.148  17.575 -1.3911  2.2050 -2.6878
  794MPD2    H111705   2.457   0.551  17.568 -3.3491  0.1823  1.0024
  794MPD2    H211706   2.592   0.275   0.159 -1.0960  0.7937  0.6868
  794MPD2    H311707   2.572   0.507   0.061  0.5539  0.1805 -0.5801
  794MPD2     N11708   2.318   0.372  17.415  0.0105 -0.7566  0.6670
  794MPD2    H511709   2.337   0.459  17.366 -1.0948 -0.6972  0.3385
  794MPD2    N111710   2.466   0.061   0.044 -0.6078 -0.6133 -0.1589
  794MPD2    H711711   2.402   0.005  17.688 -1.2733  1.2013 -1.2095
  795MPD2     C11712   1.013   2.071  12.936  0.6749  0.4602  0.5529
  795MPD2    C111713   0.943   2.050  13.054  0.2180  0.5802  0.1083
  795MPD2    C211714   1.006   1.992  13.167 -0.0075  0.1409  0.8960
  795MPD2    C311715   1.137   1.956  13.154  0.3879  0.1014  0.1543
  795MPD2    C411716   1.200   1.966  13.034 -0.1847 -0.4990  0.3419
  795MPD2    C511717   1.137   2.023  12.925 -0.9269 -0.4710 -0.5337
  795MPD2     H11718   0.953   1.970  13.259  0.7948 -0.2514  1.2607
  795MPD2    H111719   1.303   1.936  13.018 -0.1949 -1.1785  1.5456
  795MPD2    H211720   0.963   2.109  12.847  0.6556 -0.3465  0.2272
  795MPD2    H311721   1.185   2.036  12.829 -0.3261  0.4576 -0.1128
  795MPD2     N11722   1.203   1.888  13.260 -0.0882 -0.2821 -0.1395
  795MPD2    H511723   1.143   1.871  13.340  1.1390 -0.3642  0.7559
  795MPD2    N111724   0.809   2.090  13.068  0.3937  0.1970  0.2742
  795MPD2    H711725   0.768   2.067  13.158 -0.0590 -1.2484 -0.3066
  796MPD2     C11726   4.628   3.469  15.988 -0.0736 -0.3900  0.4914
  796MPD2    C111727   4.671   3.531  16.104 -0.0030  0.5437 -0.3381
  796MPD2    C211728   4.697   3.672  16.101  0.4199 -0.0810  0.0066
  796MPD2    C311729   4.676   3.733  15.979  0.0795  0.4775  0.0596
  796MPD2    C411730   4.632   3.663  15.863  0.3834  0.7688 -0.5268
  796MPD2    C511731   4.615   3.531  15.870 -0.1760  0.4479 -0.4503
  796MPD2     H11732   0.017   3.734  16.178 -0.6527  0.5645  0.1064
  796MPD2    H111733   4.613   3.708  15.766 -0.5407  1.1733 -0.1651
  796MPD2    H211734   4.628   3.361  15.988  1.1992 -0.3935 -2.8531
  796MPD2    H311735   4.572   3.477  15.786 -0.8813  0.1872  0.0725
  796MPD2     N11736   4.696   3.871  15.977  0.2620  0.7189 -0.5579
  796MPD2    H511737   4.720   3.922  16.061 -1.2755  2.3518 -1.1050
  796MPD2    N111738   4.705   3.450  16.217  0.0334  0.1354  0.4370
  796MPD2    H711739   4.713   3.349  16.204  1.0841  0.2509  0.1919
  797MPD2     C11740   0.159   2.943  17.611  1.0318  0.0025  0.6708
  797MPD2    C111741   0.271   2.983  17.679 -0.2398  0.7071  0.9445
  797MPD2    C211742   0.318   3.107  17.655 -0.7135  0.1178  0.2416
  797MPD2    C311743   0.265   3.197  17.560 -0.3947  0.2580 -0.1620
  797MPD2    C411744   0.155   3.148  17.488 -0.0315 -0.2997 -0.0644
  797MPD2    C511745   0.107   3.025  17.518 -0.2483  0.4576  0.9631
  797MPD2     H11746   0.403   3.143   0.013  1.1629 -0.2641 -2.3303
  797MPD2    H111747   0.107   3.213  17.415  1.8719  1.5538  0.3212
  797MPD2    H211748   0.121   2.842  17.621  0.2866  0.2582  0.4298
  797MPD2    H311749   0.018   2.997  17.463  1.6598  2.1486 -3.0153
  797MPD2     N11750   0.333   3.324  17.523 -0.7360  0.0772 -0.5799
  797MPD2    H511751   0.292   3.383  17.452 -1.8234 -1.1836 -0.9958
  797MPD2    N111752   0.347   2.908   0.071  0.0125 -0.6618  0.1361
  797MPD2    H711753   0.428   2.959   0.105  0.7144  0.1508 -2.7144
  798MPD2     C11754   1.007   3.226  17.652 -0.8583  0.9632  0.0589
  798MPD2    C111755   0.878   3.252   0.004 -0.0212  0.1654 -0.5884
  798MPD2    C211756   0.813   3.150   0.069 -0.3832  0.1276  0.1203
  798MPD2    C311757   0.873   3.032   0.087  0.2376 -0.0159 -0.2332
  798MPD2    C411758   1.007   3.009   0.049 -0.2539 -0.2249 -0.3099
  798MPD2    C511759   1.068   3.108  17.677  0.2230  0.0831 -0.7936
  798MPD2     H11760   0.710   3.166   0.096 -0.9993  0.0271 -2.1838
  798MPD2    H111761   1.058   2.915   0.068 -2.8586 -1.8734 -1.3898
  798MPD2    H211762   1.058   3.296  17.586  0.0727  0.2467  0.0278
  798MPD2    H311763   1.174   3.089  17.662  0.7043  0.5958  1.9760
  798MPD2     N11764   0.791   2.938   0.150 -0.2537  0.2470 -0.3827
  798MPD2    H511765   0.695   2.964   0.171 -0.7901 -1.2962 -0.8743
  798MPD2    N111766   0.805   3.367  17.683 -0.3538 -0.2507 -0.7948
  798MPD2    H711767   0.705   3.364  17.697 -0.1783  0.6992  0.6982
  799MPD2     C11768   4.422   0.185  14.550 -0.1793 -0.2252 -0.6722
  799MPD2    C111769   4.396   0.078  14.459  0.1522 -0.9119  0.2281
  799MPD2    C211770   4.315   0.109  14.342 -0.0589  0.2287 -0.1183
  799MPD2    C311771   4.256   0.232  14.330  0.3325  0.1056 -0.3467
  799MPD2    C411772   4.262   0.321  14.437  0.1476  0.2332  1.1073
  799MPD2    C511773   4.347   0.305  14.542  0.1094 -0.3606 -0.0613
  799MPD2     H11774   4.296   0.036  14.265  1.0484  0.5814 -0.7223
  799MPD2    H111775   4.211   0.416  14.425 -2.5073 -1.4287 -0.6964
  799MPD2    H211776   4.506   0.186  14.618  1.0905 -0.7365 -2.2353
  799MPD2    H311777   4.363   0.393  14.602  3.0027 -0.5364 -0.5810
  799MPD2     N11778   4.196   0.266  14.211 -0.0036  0.4153  0.2363
  799MPD2    H511779   4.176   0.366  14.202  0.3275  0.4308 -0.3526
  799MPD2    N111780   4.452   4.674  14.478  0.4943 -0.4723  0.5015
  799MPD2    H711781   4.393   4.602  14.437 -1.1748  1.7893 -1.0766
  800MPD2     C11782   0.884   1.788  13.577 -0.4321  0.8848 -0.0433
  800MPD2    C111783   0.876   1.774  13.712  0.4067 -0.2034  0.4753
  800MPD2    C211784   0.814   1.668  13.775  0.4261 -0.4251 -0.3591
  800MPD2    C311785   0.772   1.562  13.699  0.2584 -0.4848 -0.2103
  800MPD2    C411786   0.792   1.573  13.560 -0.2144 -0.5560 -0.2548
  800MPD2    C511787   0.848   1.684  13.504  0.3776  0.2708  0.3421
  800MPD2     H11788   0.786   1.659  13.879 -2.0467  4.6191 -0.5997
  800MPD2    H111789   0.757   1.500  13.487  4.5457 -0.1289 -2.9518
  800MPD2    H211790   0.924   1.875  13.527  1.0795 -0.3925 -1.0673
  800MPD2    H311791   0.847   1.699  13.396 -2.6899 -0.7868  0.2369
  800MPD2     N11792   0.727   1.451  13.771 -0.8608 -0.4673  0.6924
  800MPD2    H511793   0.700   1.466  13.868  0.6571 -0.4703  1.1136
  800MPD2    N111794   0.937   1.879  13.782 -0.0722 -0.1739  0.3478
  800MPD2    H711795   1.008   1.932  13.731  0.4634 -1.3640 -0.1486
  801MPD2     C11796   0.951   2.289  14.522  0.3840  0.1978 -0.0310
  801MPD2    C111797   0.854   2.268  14.429 -0.0819 -0.5168  0.1848
  801MPD2    C211798   0.721   2.280  14.469 -0.4997  0.0782  0.3730
  801MPD2    C311799   0.690   2.301  14.597  0.5439 -0.0569  0.5800
  801MPD2    C411800   0.789   2.321  14.689 -0.2859  0.5735 -0.3433
  801MPD2    C511801   0.921   2.306  14.654 -0.4404 -0.1323 -0.7743
  801MPD2     H11802   0.642   2.253  14.399 -2.6338  1.7819  2.1448
  801MPD2    H111803   0.777   2.331  14.796 -2.7747 -0.4946 -0.5437
  801MPD2    H211804   1.058   2.277  14.505 -0.0314 -1.4915 -1.5320
  801MPD2    H311805   0.984   2.340  14.734 -0.9377 -2.2258  0.5133
  801MPD2     N11806   0.556   2.293  14.649  0.5646 -0.8294 -0.4810
  801MPD2    H511807   0.543   2.288  14.750  0.6212 -0.2783 -0.4445
  801MPD2    N111808   0.889   2.239  14.287 -0.1915 -0.0813  0.2527
  801MPD2    H711809   0.814   2.238  14.218  1.1862 -0.1113 -1.2629
  802MPD2     C11810   3.942   1.832  17.529 -0.1495  0.5527 -0.7272
  802MPD2    C111811   4.048   1.878  17.596  0.1174  0.1342  0.1709
  802MPD2    C211812   4.138   1.793  17.650  0.4265 -0.4476 -0.0017
  802MPD2    C311813   4.138   1.656  17.610 -0.1141 -0.5795  0.2856
  802MPD2    C411814   4.039   1.612  17.534  0.6298  0.9125 -1.2563
  802MPD2    C511815   3.935   1.697  17.499  0.2774 -0.5354  0.7598
  802MPD2     H11816   4.216   1.839   0.010  2.0298 -1.0755 -1.6341
  802MPD2    H111817   4.051   1.511  17.496 -2.8923 -0.8407  2.3802
  802MPD2    H211818   3.878   1.907  17.483 -1.0726  0.3706  0.2694
  802MPD2    H311819   3.850   1.664  17.440 -0.6904  0.9180  1.3338
  802MPD2     N11820   4.249   1.576  17.652  0.4870  0.9025 -0.4537
  802MPD2    H511821   4.319   1.617   0.014  0.9043 -1.2313  0.4791
  802MPD2    N111822   4.070   2.015  17.634 -0.3030  0.3569 -0.1749
  802MPD2    H711823   4.141   2.039   0.004  1.4134  0.4419 -1.9605
  803MPD2     C11824   1.126   0.566  12.079  0.7626  0.2463 -0.0536
  803MPD2    C111825   1.198   0.626  12.181 -0.0320 -0.2893  0.8321
  803MPD2    C211826   1.165   0.590  12.311 -0.3817 -0.2543 -0.2660
  803MPD2    C311827   1.095   0.471  12.328 -0.3314  0.0118 -0.8570
  803MPD2    C411828   1.029   0.407  12.225  0.6135 -0.2405 -0.1959
  803MPD2    C511829   1.041   0.465  12.102 -0.1946 -0.0331 -0.6482
  803MPD2     H11830   1.216   0.633  12.396  2.2174  0.3248 -2.1008
  803MPD2    H111831   0.965   0.322  12.241 -0.1963  0.2617 -0.7778
  803MPD2    H211832   1.152   0.602  11.980 -0.1854 -0.0567 -0.4085
  803MPD2    H311833   0.996   0.414  12.018 -0.2855  0.3890 -0.8562
  803MPD2     N11834   1.082   0.410  12.453  0.4062  0.8127  0.9964
  803MPD2    H511835   1.037   0.320  12.462  0.0045  0.7688 -1.6342
  803MPD2    N111836   1.286   0.735  12.152 -0.2696 -0.0736  0.1680
  803MPD2    H711837   1.322   0.785  12.234  1.4087 -2.3534  0.8215
  804MPD2     C11838   0.316   1.957  17.086  0.0999 -0.6456 -0.3799
  804MPD2    C111839   0.345   1.867  17.185  0.5196  0.6452 -0.5996
  804MPD2    C211840   0.438   1.910  17.274  0.2168  0.1323  0.6923
  804MPD2    C311841   0.498   2.032  17.277 -0.4672  0.2568  0.2403
  804MPD2    C411842   0.465   2.120  17.176  0.6958  0.5876 -1.2697
  804MPD2    C511843   0.375   2.079  17.084 -0.1885 -0.0567 -0.1891
  804MPD2     H11844   0.473   1.832  17.341 -1.2864 -0.3571  0.9153
  804MPD2    H111845   0.511   2.217  17.173  3.4402 -0.6797  0.0684
  804MPD2    H211846   0.237   1.936  17.015  0.8416  0.6794 -1.5761
  804MPD2    H311847   0.342   2.144  17.004  0.0530  1.4167  0.8908
  804MPD2     N11848   0.580   2.054  17.389 -0.1962 -0.1679 -1.3775
  804MPD2    H511849   0.577   1.980  17.458 -1.1809 -0.0285 -1.2720
  804MPD2    N111850   0.296   1.737  17.197 -0.3686 -0.2617  0.0136
  804MPD2    H711851   0.330   1.680  17.274  0.8849  0.8431  0.2923
  805MPD2     C11852   4.652   0.479  15.163 -0.3610  0.2368  0.1237
  805MPD2    C111853   4.629   0.341  15.148 -0.6736 -0.3714 -0.5979
  805MPD2    C211854   4.681   0.252  15.241  0.6500  0.5226 -0.3943
  805MPD2    C311855   0.055   0.300  15.331 -0.3430 -0.2331  0.2135
  805MPD2    C411856   0.094   0.428  15.334  0.3582  0.2985  0.0346
  805MPD2    C511857   0.027   0.514  15.252 -0.2935  0.1591 -0.7303
  805MPD2     H11858   4.671   0.144  15.235  0.5844  0.5822 -1.3432
  805MPD2    H111859   0.173   0.466  15.397 -1.0100 -0.1409  2.0419
  805MPD2    H211860   4.609   0.556  15.099  3.1217  0.7606 -1.5613
  805MPD2    H311861   0.069   0.613  15.241  1.4373 -0.5341 -0.3275
  805MPD2     N11862   0.114   0.203  15.418 -0.5023 -0.0585  0.0797
  805MPD2    H511863   0.096   0.106  15.395  0.7929 -0.0303 -1.0364
  805MPD2    N111864   4.543   0.281  15.052 -0.2768 -0.1771  0.1392
  805MPD2    H711865   4.535   0.180  15.055  2.0853 -0.3337  1.1075
  806MPD2     C11866   0.980   0.102   0.891  0.1652 -0.3528 -0.6340
  806MPD2    C111867   0.856   0.124   0.840  0.9988 -0.2928 -0.9000
  806MPD2    C211868   0.837   0.216   0.729  0.2033 -0.1508  0.1526
  806MPD2    C311869   0.946   0.285   0.676  0.4473 -1.3500  0.5620
  806MPD2    C411870   1.066   0.265   0.738 -0.0899  0.0924  0.6171
  806MPD2    C511871   1.083   0.174   0.840  0.0595  1.1100 -0.2482
  806MPD2     H11872   0.740   0.235   0.683  0.3612  1.5372  0.5146
  806MPD2    H111873   1.153   0.324   0.713 -0.6015  0.0670 -1.2824
  806MPD2    H211874   0.990   0.029   0.970  0.2190 -0.9034 -1.1511
  806MPD2    H311875   1.174   0.152   0.895 -1.0132 -1.2725  0.5861
  806MPD2     N11876   0.925   0.367   0.564  0.4960  0.1018 -0.0018
  806MPD2    H511877   0.830   0.374   0.529 -0.2822 -1.6418  1.7667
  806MPD2    N111878   0.748   0.047   0.899 -0.2612  0.2240 -0.6543
  806MPD2    H711879   0.772   4.706   0.972 -2.1479  0.2471 -0.0007
  807MPD2     C11880   4.635   4.545   0.791 -0.4985 -0.0057 -0.1710
  807MPD2    C111881   4.688   4.472   0.896 -0.1268 -0.3016 -0.3430
  807MPD2    C211882   4.605   4.388   0.969 -0.8337 -0.5112  0.4534
  807MPD2    C311883   4.466   4.381   0.946 -0.6741 -0.4895  0.1240
  807MPD2    C411884   4.411   4.479   0.863 -0.0481  0.3714 -0.2702
  807MPD2    C511885   4.497   4.547   0.781  0.0005  0.0049  0.0966
  807MPD2     H11886   4.647   4.326   1.048 -1.5161 -0.6979  0.6631
  807MPD2    H111887   4.304   4.484   0.847 -0.2757 -1.4656  0.5957
  807MPD2    H211888   4.685   4.611   0.721 -0.4737  0.2759  0.1164
  807MPD2    H311889   4.470   4.619   0.704  1.9770  0.2033 -0.4193
  807MPD2     N11890   4.397   4.279   1.012  0.1959 -0.5794  0.8241
  807MPD2    H511891   4.438   4.233   1.092  0.2532 -1.1558  0.4635
  807MPD2    N111892   0.098   4.474   0.928  0.3506 -0.3529  0.4295
  807MPD2    H711893   0.135   4.404   0.992 -0.5793  0.2248  1.6043
  808MPD2     C11894   1.552   0.896  10.587  0.5853  0.3375 -0.3608
  808MPD2    C111895   1.469   0.986  10.519 -0.4494 -0.4276  1.1066
  808MPD2    C211896   1.515   1.112  10.489 -0.9090 -0.9689 -0.0547
  808MPD2    C311897   1.649   1.135  10.507 -0.1393 -0.4959  0.9755
  808MPD2    C411898   1.733   1.045  10.574  0.3247  0.6030 -0.0682
  808MPD2    C511899   1.677   0.925  10.616  0.7319  0.4794  0.0871
  808MPD2     H11900   1.457   1.167  10.415  0.3050 -1.7422 -1.5739
  808MPD2    H111901   1.837   1.065  10.596  0.2627  1.7864 -0.8523
  808MPD2    H211902   1.511   0.803  10.622  1.6600  0.6342  1.6575
  808MPD2    H311903   1.737   0.854  10.672  1.0422 -0.5539 -1.5470
  808MPD2     N11904   1.713   1.251  10.461  0.2413 -0.1677 -0.4158
  808MPD2    H511905   1.814   1.247  10.466  0.3561  2.3247 -0.5123
  808MPD2    N111906   1.340   0.940  10.496  0.3471  0.7222 -0.0875
  808MPD2    H711907   1.271   1.012  10.477 -0.6263 -0.8543 -2.5039
  809MPD2     C11908   2.531   1.291  10.055 -0.3656  0.2853  0.1714
  809MPD2    C111909   2.452   1.215  10.137 -0.6118 -0.7012 -0.0297
  809MPD2    C211910   2.344   1.280  10.192 -0.2604  0.6185 -0.0046
  809MPD2    C311911   2.310   1.412  10.169 -0.0638  0.1123  0.5468
  809MPD2    C411912   2.399   1.483  10.095  0.1586 -0.5741 -0.1382
  809MPD2    C511913   2.512   1.421  10.036  0.3540  0.2908 -0.3196
  809MPD2     H11914   2.285   1.217  10.258 -1.6514  0.1882 -1.6715
  809MPD2    H111915   2.396   1.591  10.085 -0.5565 -0.7282 -1.6428
  809MPD2    H211916   2.619   1.251  10.008 -0.3561  0.8767 -0.3120
  809MPD2    H311917   2.586   1.476   9.981 -0.7599  1.2753 -0.8281
  809MPD2     N11918   2.189   1.474  10.205  0.2945 -0.2706  0.5047
  809MPD2    H511919   2.183   1.570  10.174  0.1191 -0.0047  1.3977
  809MPD2    N111920   2.475   1.080  10.169 -0.1870  1.1032  0.9872
  809MPD2    H711921   2.438   1.043  10.255 -1.0979 -0.3488 -0.0390
  810MPD2     C11922   0.921   0.219  11.155  0.4956  0.1947 -0.2171
  810MPD2    C111923   0.919   0.314  11.052  0.6590 -0.5331 -0.5411
  810MPD2    C211924   0.921   0.449  11.095  0.0082  0.2662 -0.2399
  810MPD2    C311925   0.932   0.484  11.227  0.2682 -0.4870 -0.4539
  810MPD2    C411926   0.933   0.388  11.326  0.6992 -0.0960 -0.3524
  810MPD2    C511927   0.937   0.260  11.286 -0.0194 -0.4011 -0.3992
  810MPD2     H11928   0.897   0.524  11.021 -0.9130  0.4745  0.2637
  810MPD2    H111929   0.930   0.408  11.432 -0.7843 -0.3325 -0.3450
  810MPD2    H211930   0.911   0.112  11.143  1.1787  0.2098 -0.9357
  810MPD2    H311931   0.949   0.178  11.357 -1.5745 -1.1949 -1.0504
  810MPD2     N11932   0.940   0.619  11.275  0.2206 -0.2141  0.1760
  810MPD2    H511933   0.929   0.645  11.373 -1.2546 -2.1196  0.5149
  810MPD2    N111934   0.886   0.275  10.919  0.4695 -0.8490  0.0155
  810MPD2    H711935   0.866   0.175  10.914 -1.5891 -0.4541  0.5655
  811MPD2     C11936   0.565   0.423  10.035  0.0551 -0.3703 -0.6130
  811MPD2    C111937   0.600   0.487  10.153  0.2527 -0.7006 -0.5069
  811MPD2    C211938   0.620   0.626  10.155 -0.3251  0.0052 -0.2865
  811MPD2    C311939   0.572   0.700  10.046 -0.1994  0.2282  0.7030
  811MPD2    C411940   0.531   0.632   9.935 -0.3484 -0.2627  0.0244
  811MPD2    C511941   0.535   0.500   9.929 -0.2669  0.1603 -0.9786
  811MPD2     H11942   0.657   0.677  10.244  0.1374  1.9388 -1.5846
  811MPD2    H111943   0.493   0.682   9.846 -0.0604  1.5967  0.9494
  811MPD2    H211944   0.568   0.317  10.014  1.3899 -0.7948  1.7337
  811MPD2    H311945   0.504   0.449   9.839 -1.3470  0.1678 -0.6183
  811MPD2     N11946   0.589   0.838  10.037 -0.8584 -0.4309 -0.0909
  811MPD2    H511947   0.626   0.888  10.117  1.6316 -1.1405 -0.8105
  811MPD2    N111948   0.641   0.395  10.257  0.4079 -0.1299  0.3011
  811MPD2    H711949   0.639   0.299  10.224  0.3885 -0.1858  0.4671
  812MPD2     C11950   4.048   0.640  12.299 -0.6845  0.5904  0.2531
  812MPD2    C111951   3.980   0.726  12.378 -0.8654 -0.1282  0.4282
  812MPD2    C211952   3.952   0.679  12.506  0.3913 -0.0927  0.4591
  812MPD2    C311953   3.993   0.558  12.548 -0.6989  0.4671 -0.5393
  812MPD2    C411954   4.070   0.473  12.468  0.6453 -0.8553 -0.7965
  812MPD2    C511955   4.094   0.517  12.342 -0.6838 -0.2105  0.5829
  812MPD2     H11956   3.880   0.729  12.570 -0.1535  0.1759 -0.3555
  812MPD2    H111957   4.106   0.377  12.504 -1.3817 -1.8315 -1.4282
  812MPD2    H211958   4.060   0.670  12.196 -0.6453  0.2622  0.1637
  812MPD2    H311959   4.145   0.448  12.275 -0.3973 -0.5134  1.1125
  812MPD2     N11960   3.958   0.527  12.680  0.0189 -0.1042  0.5142
  812MPD2    H511961   3.902   0.589  12.738 -1.5886  0.5141 -1.6809
  812MPD2    N111962   3.926   0.841  12.325 -0.1532 -0.2321 -0.4466
  812MPD2    H711963   3.956   0.863  12.231 -0.0453 -1.1056 -0.6127
  813MPD2     C11964   3.125   2.533  13.094 -0.2337  0.9504  0.1812
  813MPD2    C111965   3.095   2.657  13.050 -0.1862  0.5327  0.5680
  813MPD2    C211966   2.970   2.683  12.993  0.0033 -0.4052  0.7684
  813MPD2    C311967   2.869   2.593  13.003 -0.1319 -0.0816  0.0000
  813MPD2    C411968   2.903   2.462  13.041  0.0204  0.7938  1.1555
  813MPD2    C511969   3.025   2.433  13.088 -0.1792 -0.5075  0.7007
  813MPD2     H11970   2.957   2.780  12.946  3.6075 -0.5245 -0.5169
  813MPD2    H111971   2.835   2.379  13.057  0.7574 -0.1466 -0.5264
  813MPD2    H211972   3.220   2.508  13.139 -0.1736  0.6473 -0.1076
  813MPD2    H311973   3.050   2.334  13.123  3.1629  1.0799  2.7704
  813MPD2     N11974   2.738   2.637  12.977 -0.1004 -0.7033  0.6157
  813MPD2    H511975   2.732   2.733  12.944 -0.7869  0.0631  2.9090
  813MPD2    N111976   3.189   2.746  13.084 -0.1141  0.2306  0.5393
  813MPD2    H711977   3.263   2.723  13.150  0.4930  0.4696 -0.0533
  814MPD2     C11978   3.415   3.941  12.143 -0.1004 -0.3423 -0.1461
  814MPD2    C111979   3.476   3.985  12.033  0.7185 -0.0938  0.1785
  814MPD2    C211980   3.560   4.094  12.048  0.2314 -0.4601 -0.5319
  814MPD2    C311981   3.573   4.164  12.168 -0.0935 -0.2963 -0.0741
  814MPD2    C411982   3.505   4.117  12.286  0.0259  0.3545  0.2070
  814MPD2    C511983   3.426   4.007  12.265 -0.6167 -0.0442  0.1389
  814MPD2     H11984   3.615   4.126  11.960 -0.1382  0.1627 -0.5379
  814MPD2    H111985   3.518   4.162  12.384  2.1472  0.2698 -0.0484
  814MPD2    H211986   3.342   3.861  12.138  1.1468 -1.5821  1.8341
  814MPD2    H311987   3.372   3.966  12.349 -1.3757 -0.6634 -0.6404
  814MPD2     N11988   3.662   4.276  12.179 -0.6394  0.1078 -0.2699
  814MPD2    H511989   3.710   4.312  12.097 -1.4083  1.2750 -0.2096
  814MPD2    N111990   3.471   3.919  11.910  0.0085 -0.2477 -0.0813
  814MPD2    H711991   3.536   3.953  11.840 -1.7662  0.0709 -1.5836
  815MPD2     C11992   4.018   2.722  11.564 -0.4856 -0.3730  0.7624
  815MPD2    C111993   4.027   2.586  11.598 -0.3328 -0.2725  0.0748
  815MPD2    C211994   3.931   2.534  11.686 -0.4448  0.2335 -0.2026
  815MPD2    C311995   3.830   2.611  11.742  0.4159 -0.0424 -0.2840
  815MPD2    C411996   3.831   2.746  11.705  0.0495  0.4832  0.3341
  815MPD2    C511997   3.912   2.800  11.612 -0.0864  0.0914 -0.4441
  815MPD2     H11998   3.929   2.429  11.716  3.8283  0.2776  0.1093
  815MPD2    H111999   3.759   2.810  11.754 -2.1582 -2.4204  0.8889
  815MPD2    H212000   4.072   2.762  11.479 -0.1463  0.6019  1.4466
  815MPD2    H312001   3.895   2.904  11.590  2.0597  0.7500  0.9838
  815MPD2     N12002   3.743   2.550  11.837 -0.3007 -0.6235 -0.2387
  815MPD2    H512003   3.763   2.453  11.860  1.4178 -0.2118  0.0160
  815MPD2    N112004   4.130   2.506  11.542 -0.4430  0.7394  0.0624
  815MPD2    H712005   4.186   2.547  11.468 -1.0083 -0.5353 -1.0749
  816MPD2     C12006   3.737   1.042  17.129  0.2779  0.0183  0.4647
  816MPD2    C112007   3.792   1.156  17.084 -0.0009 -0.0584  0.1331
  816MPD2    C212008   3.924   1.154  17.037  0.0290  0.2498 -0.5618
  816MPD2    C312009   3.995   1.042  17.040 -0.2760 -0.0879 -0.7125
  816MPD2    C412010   3.935   0.917  17.079  0.9705 -0.1564 -0.5221
  816MPD2    C512011   3.805   0.923  17.120 -0.7268  0.1302  1.0794
  816MPD2     H12012   3.976   1.247  17.018 -1.8730  1.4189 -0.0732
  816MPD2    H112013   3.991   0.824  17.076 -0.3149 -0.9743  0.7151
  816MPD2    H212014   3.631   1.036  17.149  0.3418  0.6713  1.0053
  816MPD2    H312015   3.752   0.830  17.139 -0.9079 -0.1397 -0.7899
  816MPD2     N12016   4.131   1.056  17.013  0.0158 -0.0446  0.3096
  816MPD2    H512017   4.162   1.148  16.985 -2.3474  1.2384  1.8512
  816MPD2    N112018   3.708   1.266  17.090 -0.4233 -0.1367  0.1460
  816MPD2    H712019   3.614   1.256  17.127 -0.7662  0.1969 -0.6127
  817MPD2     C12020   3.937   2.908   9.765 -0.4895 -0.4451  0.0031
  817MPD2    C112021   3.973   2.884   9.638 -0.4153  0.9065 -0.3809
  817MPD2    C212022   3.976   2.991   9.548 -0.1375  0.2723 -0.4303
  817MPD2    C312023   3.943   3.121   9.590 -0.3464 -0.4240 -0.5008
  817MPD2    C412024   3.900   3.135   9.722  1.5184  0.6558 -0.4097
  817MPD2    C512025   3.899   3.033   9.810 -0.0793 -0.2687 -0.5835
  817MPD2     H12026   4.003   2.966   9.447  2.4243  0.1621  0.2695
  817MPD2    H112027   3.866   3.228   9.766  1.1920  1.5189 -2.5019
  817MPD2    H212028   3.933   2.831   9.841  0.1983 -1.4390 -0.9705
  817MPD2    H312029   3.851   3.047   9.906 -1.5173 -1.0587 -1.1982
  817MPD2     N12030   3.933   3.229   9.489  0.3720 -0.2708 -0.1577
  817MPD2    H512031   3.944   3.217   9.389  1.9060 -0.3975  0.0266
  817MPD2    N112032   3.999   2.753   9.590  0.0361  0.0100  0.7286
  817MPD2    H712033   4.033   2.743   9.495 -0.1316 -0.5939  0.7317
  818MPD2     C12034   3.294   2.755  10.202  0.0881 -0.0401  0.3855
  818MPD2    C112035   3.186   2.716  10.129  0.7955 -0.4403  0.1282
  818MPD2    C212036   3.187   2.589  10.083 -0.1906  0.6302  0.4413
  818MPD2    C312037   3.294   2.500  10.100 -0.1732 -0.5278  0.2359
  818MPD2    C412038   3.405   2.544  10.168  0.4153 -0.2647  0.4464
  818MPD2    C512039   3.397   2.666  10.224 -0.0843  0.4378 -0.3707
  818MPD2     H12040   3.098   2.559  10.029  0.3386  1.2000 -0.7474
  818MPD2    H112041   3.490   2.479  10.190 -0.6968 -1.7351  0.3994
  818MPD2    H212042   3.308   2.855  10.241 -1.8361  0.9860 -1.6196
  818MPD2    H312043   3.486   2.698  10.277  0.6531 -0.4241 -1.0815
  818MPD2     N12044   3.297   2.361  10.060 -0.0778  0.1969 -0.8072
  818MPD2    H512045   3.392   2.324  10.059  0.4480  1.5786 -1.4976
  818MPD2    N112046   3.077   2.799  10.104 -0.2035 -0.5126 -0.1866
  818MPD2    H712047   3.005   2.762  10.042 -1.2284  3.3483 -1.3035
  819MPD2     C12048   0.340   4.107  15.214  0.3508  0.0066 -0.9783
  819MPD2    C112049   0.305   4.103  15.346  0.0294 -0.5161  0.0187
  819MPD2    C212050   0.385   4.043  15.441 -0.0721  0.5281  0.0327
  819MPD2    C312051   0.500   3.975  15.389 -0.3001 -0.3003  0.0752
  819MPD2    C412052   0.525   3.971  15.258 -0.6458  0.4050  0.1469
  819MPD2    C512053   0.449   4.046  15.169 -0.1229  0.3974 -0.1251
  819MPD2     H12054   0.357   4.034  15.545  1.6259  0.9351  0.5258
  819MPD2    H112055   0.607   3.910  15.222  0.2613  1.7307 -0.0332
  819MPD2    H212056   0.276   4.152  15.139  0.2848 -1.5968 -1.8836
  819MPD2    H312057   0.478   4.053  15.065  2.1348 -1.9940  0.3280
  819MPD2     N12058   0.589   3.908  15.476 -0.1132  0.2386 -0.6972
  819MPD2    H512059   0.674   3.867  15.438  1.4104  3.4656 -0.7848
  819MPD2    N112060   0.170   4.134  15.371  0.0447 -0.2512  0.2456
  819MPD2    H712061   0.109   4.152  15.292 -1.4743 -1.6332  1.1036
  820MPD2     C12062   4.244   4.312  14.736 -0.2873 -0.2743  0.1629
  820MPD2    C112063   4.323   4.399  14.810  0.2834  0.0672  0.1495
  820MPD2    C212064   4.397   4.350  14.919  0.4974  0.0292 -0.4418
  820MPD2    C312065   4.401   4.208  14.943  0.1626 -0.1218  0.6563
  820MPD2    C412066   4.322   4.124  14.874  0.4632  0.6712  0.1161
  820MPD2    C512067   4.247   4.178  14.767  0.4154 -0.1090  0.3107
  820MPD2     H12068   4.444   4.428  14.978  1.3885 -0.7340 -0.1353
  820MPD2    H112069   4.326   4.016  14.886 -0.6121  0.8907  2.4494
  820MPD2    H212070   4.168   4.344  14.665 -0.1210  0.8857  0.5084
  820MPD2    H312071   4.175   4.116  14.715  2.4676 -1.6200 -0.7367
  820MPD2     N12072   4.467   4.157  15.060  0.3098  0.6147  0.2670
  820MPD2    H512073   4.443   4.063  15.088 -0.1842  0.6378 -0.0772
  820MPD2    N112074   4.307   4.539  14.784  0.7537  0.0690 -1.0003
  820MPD2    H712075   4.234   4.567  14.719  0.8820 -0.8228 -1.5291
  821MPD2     C12076   1.062   0.820  13.544  0.2111 -0.3397 -0.1749
  821MPD2    C112077   1.055   0.954  13.565 -0.0689 -0.2734  0.4427
  821MPD2    C212078   1.156   1.038  13.519 -0.1567 -0.6367 -0.2833
  821MPD2    C312079   1.255   0.996  13.431  0.1978 -0.4116 -0.3867
  821MPD2    C412080   1.252   0.857  13.408  0.9192 -0.6404  1.1746
  821MPD2    C512081   1.167   0.774  13.473  0.1138  0.2516 -0.2036
  821MPD2     H12082   1.160   1.143  13.547  1.1933 -0.3816 -1.3993
  821MPD2    H112083   1.330   0.818  13.344 -0.7768 -0.8620 -0.7404
  821MPD2    H212084   0.990   0.751  13.586  0.1274  0.8304  1.5575
  821MPD2    H312085   1.174   0.666  13.460 -1.4575  0.0372  0.7890
  821MPD2     N12086   1.360   1.077  13.380  0.7682 -0.2750 -0.2383
  821MPD2    H512087   1.433   1.026  13.330  3.7566  3.0245  0.7202
  821MPD2    N112088   0.959   1.002  13.652 -0.2647 -0.5162  0.0893
  821MPD2    H712089   0.966   1.099  13.682 -1.6390  0.1980 -1.9005
  822MPD2     C12090   1.138   1.356  15.736  0.0792  0.1071 -0.2859
  822MPD2    C112091   1.192   1.366  15.863  0.1558  0.3394 -0.7988
  822MPD2    C212092   1.148   1.473  15.940 -0.5030 -0.0526 -0.2371
  822MPD2    C312093   1.032   1.542  15.900 -0.5953  0.1257  0.4639
  822MPD2    C412094   0.973   1.519  15.782 -0.3781  0.6956  0.2061
  822MPD2    C512095   1.032   1.432  15.697 -0.4227 -0.1976 -0.3428
  822MPD2     H12096   1.192   1.496  16.036  1.5688 -2.6610 -0.5939
  822MPD2    H112097   0.884   1.572  15.751 -0.3476 -0.2793 -1.5431
  822MPD2    H212098   1.164   1.282  15.662 -1.4032  0.8069 -1.5035
  822MPD2    H312099   0.993   1.405  15.600 -0.8593  0.5510 -0.3828
  822MPD2     N12100   0.973   1.639  15.973  0.1448 -0.1331  0.0940
  822MPD2    H512101   0.876   1.665  15.961  0.0198  0.1716  1.7694
  822MPD2    N112102   1.292   1.285  15.910 -0.4961 -0.1203 -0.5073
  822MPD2    H712103   1.308   1.292  16.010  0.8372  0.9319 -0.7916
  823MPD2     C12104   0.529   1.764  16.706 -0.1339  0.3532  0.2179
  823MPD2    C112105   0.585   1.685  16.613 -0.3915 -0.7304  0.0798
  823MPD2    C212106   0.622   1.556  16.642 -0.3062  0.6309  0.2690
  823MPD2    C312107   0.598   1.504  16.767 -0.2283 -0.8220  0.2759
  823MPD2    C412108   0.546   1.583  16.861 -0.2413  0.0274  0.6361
  823MPD2    C512109   0.509   1.711  16.834  0.3978  0.4901  0.4191
  823MPD2     H12110   0.676   1.496  16.570 -1.4560  0.1141 -0.1752
  823MPD2    H112111   0.529   1.548  16.963 -0.2772 -2.4374 -0.2078
  823MPD2    H212112   0.507   1.869  16.691  0.2076  0.3590 -0.2737
  823MPD2    H312113   0.467   1.773  16.912  3.0950  3.5424 -0.5353
  823MPD2     N12114   0.604   1.361  16.791  0.0227  0.0462  0.4752
  823MPD2    H512115   0.575   1.327  16.883  0.3779  2.2671  1.4157
  823MPD2    N112116   0.615   1.749  16.489  1.1207  0.3166  0.0567
  823MPD2    H712117   0.634   1.849  16.484 -0.7861  0.6893  0.0702
  824MPD2     C12118   1.314   0.434  15.768  0.5182  0.2100  0.5393
  824MPD2    C112119   1.428   0.507  15.771 -0.0965  0.3429  1.0509
  824MPD2    C212120   1.543   0.465  15.698  0.5152 -1.2505  0.3211
  824MPD2    C312121   1.543   0.337  15.645  0.1190 -0.2895 -0.2113
  824MPD2    C412122   1.421   0.272  15.631  0.3903  0.2822  0.3957
  824MPD2    C512123   1.309   0.316  15.697  0.1137  0.2223  0.1009
  824MPD2     H12124   1.635   0.522  15.689 -0.6856  0.4698 -1.0857
  824MPD2    H112125   1.404   0.174  15.589 -0.3397 -0.6200  2.7440
  824MPD2    H212126   1.223   0.461  15.820  0.2561  1.3642 -0.5068
  824MPD2    H312127   1.225   0.249  15.708  0.4519 -0.4252 -1.2856
  824MPD2     N12128   1.663   0.275  15.604  0.0511 -0.0854  0.1811
  824MPD2    H512129   1.751   0.322  15.620 -1.8171  3.7959 -1.0388
  824MPD2    N112130   1.425   0.628  15.839  0.0129 -0.0343  0.0574
  824MPD2    H712131   1.364   0.643  15.918  1.3878  0.0966  1.0875
  825MPD2     C12132   2.475   0.174  15.310  0.1088  0.8159 -0.6269
  825MPD2    C112133   2.365   0.252  15.335  0.0096 -0.2174  0.1222
  825MPD2    C212134   2.382   0.391  15.314  0.6908 -0.0460 -0.2089
  825MPD2    C312135   2.498   0.443  15.266 -0.1931 -0.5216  0.1859
  825MPD2    C412136   2.612   0.363  15.258 -0.0836  0.0859 -0.3378
  825MPD2    C512137   2.598   0.227  15.282 -0.3465  0.5916  1.2363
  825MPD2     H12138   2.298   0.458  15.308 -0.0968 -1.1245 -1.2662
  825MPD2    H112139   2.705   0.404  15.218 -0.0723 -0.7037 -1.1270
  825MPD2    H212140   2.468   0.067  15.296 -0.1494  0.9100 -1.2393
  825MPD2    H312141   2.679   0.158  15.261 -2.7495 -2.0934  0.9249
  825MPD2     N12142   2.517   0.575  15.219  0.1970  0.5432 -0.5680
  825MPD2    H512143   2.590   0.600  15.153 -0.2566 -0.4921 -1.4649
  825MPD2    N112144   2.243   0.190  15.371 -0.5724 -0.1884 -0.3185
  825MPD2    H712145   2.253   0.090  15.386  1.4619  0.2171  1.0192
  826MPD2     C12146   1.617   0.287  13.851 -0.9396 -0.4469  0.3473
  826MPD2    C112147   1.666   0.368  13.746 -0.2731 -0.3083  0.2297
  826MPD2    C212148   1.610   0.501  13.741 -0.0787  0.0429  0.2891
  826MPD2    C312149   1.517   0.536  13.835 -0.2373 -0.7675  0.5030
  826MPD2    C412150   1.483   0.455  13.943 -0.0654 -0.0059 -0.1154
  826MPD2    C512151   1.528   0.329  13.949 -0.0553  0.0142 -0.3619
  826MPD2     H12152   1.643   0.570  13.663 -1.5805 -1.4228 -1.6479
  826MPD2    H112153   1.411   0.488  14.018  0.5671  2.0780 -0.4338
  826MPD2    H212154   1.658   0.189  13.873 -1.3311 -0.6796  0.0416
  826MPD2    H312155   1.512   0.267  14.037 -0.1876  1.9268  0.9621
  826MPD2     N12156   1.454   0.663  13.825  0.6335 -0.2508  0.3535
  826MPD2    H512157   1.395   0.687  13.905 -0.3618  0.7349 -0.6714
  826MPD2    N112158   1.768   0.319  13.659  0.0939 -0.5074  0.0911
  826MPD2    H712159   1.800   0.226  13.686  0.5491 -0.2319  0.4970
  827MPD2     C12160   3.034   1.168  10.129 -0.0252 -0.1379 -0.0476
  827MPD2    C112161   3.005   1.122  10.257 -0.3369 -0.1764 -0.3314
  827MPD2    C212162   2.935   1.008  10.283 -0.7463  0.4700 -0.3496
  827MPD2    C312163   2.932   0.923  10.172 -0.9976  0.3966 -0.3290
  827MPD2    C412164   2.952   0.971  10.044  0.1822 -0.6604  0.3249
  827MPD2    C512165   2.989   1.103  10.020  0.0683 -0.3357 -0.5884
  827MPD2     H12166   2.914   0.973  10.383 -1.3791 -1.7216 -1.2675
  827MPD2    H112167   2.919   0.915   9.956 -0.5891 -1.8806  1.3895
  827MPD2    H212168   3.095   1.253  10.103 -0.8531  0.3229 -0.4979
  827MPD2    H312169   3.001   1.146   9.921 -2.0100 -1.3941 -1.2812
  827MPD2     N12170   2.887   0.788  10.193  0.1850  0.1216  0.2489
  827MPD2    H512171   2.868   0.759  10.288  1.2386 -0.2819  0.3428
  827MPD2    N112172   3.045   1.209  10.364 -0.6910  1.1695  0.0775
  827MPD2    H712173   3.112   1.283  10.345 -0.8137  1.1699 -0.3747
  828MPD2     C12174   1.325   1.497  12.581  0.4086 -0.2204  0.3190
  828MPD2    C112175   1.268   1.468  12.459  0.5823  0.0852  0.2498
  828MPD2    C212176   1.346   1.475  12.345 -0.8089  0.0043  1.1121
  828MPD2    C312177   1.487   1.491  12.353  0.4270  0.0435 -0.3289
  828MPD2    C412178   1.546   1.509  12.480  0.3610  0.1415  0.3174
  828MPD2    C512179   1.464   1.523  12.588  0.1255  0.9869  0.4655
  828MPD2     H12180   1.291   1.459  12.253 -0.0928  2.4429  0.2592
  828MPD2    H112181   1.650   1.534  12.495  0.3001  0.5057  0.1245
  828MPD2    H212182   1.263   1.492  12.669 -0.5146 -0.8051 -0.3597
  828MPD2    H312183   1.511   1.556  12.680  0.5154  0.0209  0.6163
  828MPD2     N12184   1.570   1.500  12.239 -0.0071  0.8016 -0.6543
  828MPD2    H512185   1.669   1.508  12.258 -0.5284 -0.2125  2.3982
  828MPD2    N112186   1.136   1.450  12.440 -0.1696  0.8667  0.2076
  828MPD2    H712187   1.114   1.415  12.348 -2.6988 -1.0900  1.5377
  829MPD2     C12188   0.678   1.703  11.779  0.1176  0.9432  0.4393
  829MPD2    C112189   0.583   1.629  11.848 -0.2131 -0.3429  0.1062
  829MPD2    C212190   0.621   1.529  11.930 -0.1080 -0.1395  0.4370
  829MPD2    C312191   0.749   1.529  11.982  0.2121  0.6326  0.6734
  829MPD2    C412192   0.847   1.605  11.918  0.3569  0.2655 -0.3980
  829MPD2    C512193   0.808   1.685  11.815 -0.5332 -0.0451 -0.5876
  829MPD2     H12194   0.547   1.458  11.965 -2.4660  2.4829  0.8262
  829MPD2    H112195   0.948   1.601  11.956  1.1842  4.4585 -2.1826
  829MPD2    H212196   0.650   1.776  11.704  2.5379  0.2699 -1.1331
  829MPD2    H312197   0.881   1.754  11.775 -1.1733  2.2457  2.1929
  829MPD2     N12198   0.782   1.453  12.100  0.2137 -0.5543  0.1938
  829MPD2    H512199   0.872   1.476  12.140 -0.0220  2.3965 -0.9414
  829MPD2    N112200   0.448   1.645  11.803  0.1434 -0.2637  0.6838
  829MPD2    H712201   0.441   1.719  11.734 -0.2193  0.7684  1.8375
  830MPD2     C12202   1.169   4.187  15.696 -0.4480 -0.7931  1.0819
  830MPD2    C112203   1.074   4.141  15.611 -0.1069  0.1174  0.5108
  830MPD2    C212204   0.987   4.225  15.539  0.3307 -1.0038  0.0678
  830MPD2    C312205   1.013   4.367  15.544 -0.2484  0.0196  0.3069
  830MPD2    C412206   1.115   4.410  15.629 -0.3027 -0.6771  0.3269
  830MPD2    C512207   1.191   4.320  15.700 -0.7521 -0.4950 -0.3835
  830MPD2     H12208   0.907   4.188  15.476  0.0832  0.2373 -0.3433
  830MPD2    H112209   1.132   4.516  15.643  0.9249 -0.5311 -2.4153
  830MPD2    H212210   1.227   4.124  15.762  1.9674 -0.7630 -0.9883
  830MPD2    H312211   1.253   4.361  15.779 -0.6488 -1.0486 -0.1764
  830MPD2     N12212   0.942   4.463  15.466  0.7485 -0.2199 -0.0826
  830MPD2    H512213   0.952   4.559  15.496  0.2281  0.1357 -1.0510
  830MPD2    N112214   1.057   3.998  15.620  0.1173 -0.3246 -0.2187
  830MPD2    H712215   1.111   3.938  15.682 -1.1853  0.0465  1.2817
  831MPD2     C12216   1.181   1.656  16.460  0.1246 -0.7339  0.9413
  831MPD2    C112217   1.215   1.562  16.366 -1.1672 -0.3369 -0.2472
  831MPD2    C212218   1.121   1.475  16.312 -0.3855  0.0695 -0.7377
  831MPD2    C312219   0.993   1.474  16.367  1.0532  0.0884  0.0401
  831MPD2    C412220   0.963   1.560  16.475 -0.7086  0.3429  0.1132
  831MPD2    C512221   1.055   1.652  16.518  0.1969  0.2063 -0.1323
  831MPD2     H12222   1.134   1.408  16.227 -0.1537  1.9415 -2.1925
  831MPD2    H112223   0.866   1.567  16.523 -1.0907 -0.2659 -0.5748
  831MPD2    H212224   1.257   1.729  16.486 -0.8434  0.4799  0.3391
  831MPD2    H312225   1.024   1.726  16.591 -0.5389 -0.2245 -0.0093
  831MPD2     N12226   0.890   1.382  16.335  0.1359 -0.0037 -0.4243
  831MPD2    H512227   0.798   1.402  16.373  0.6065 -1.0967  1.3090
  831MPD2    N112228   1.349   1.559  16.338 -0.1718 -0.4303  0.1873
  831MPD2    H712229   1.413   1.629  16.376 -1.9055  0.5928  1.2068
  832MPD2     C12230   4.367   1.905  17.331  0.4341 -0.0863  0.3378
  832MPD2    C112231   4.383   2.006  17.421 -0.9301 -0.3808 -0.5003
  832MPD2    C212232   4.318   2.123  17.394  0.8306 -0.1878 -0.2568
  832MPD2    C312233   4.224   2.134  17.299  0.5519  0.6899  0.7732
  832MPD2    C412234   4.201   2.024  17.217 -0.1253  0.1727 -0.1180
  832MPD2    C512235   4.277   1.917  17.232  0.2584 -0.3662 -0.1583
  832MPD2     H12236   4.332   2.198  17.470 -2.1964 -1.0632  1.1761
  832MPD2    H112237   4.128   2.019  17.137  0.1528 -0.5275 -0.3264
  832MPD2    H212238   4.406   1.804  17.341 -1.0296 -0.7606 -0.7159
  832MPD2    H312239   4.258   1.832  17.167 -0.7314 -1.4745  1.5842
  832MPD2     N12240   4.147   2.245  17.282 -0.3272 -0.1432  0.1245
  832MPD2    H512241   4.072   2.222  17.218 -2.6017  0.9797  2.3708
  832MPD2    N112242   4.471   1.993  17.531 -0.0552  0.1278  0.1879
  832MPD2    H712243   4.493   1.897  17.555 -1.3671  0.0032  0.8652
  833MPD2     C12244   1.805   3.455  12.610 -0.1740 -0.0891  0.8113
  833MPD2    C112245   1.771   3.533  12.502  0.4957 -0.0278  0.1322
  833MPD2    C212246   1.775   3.477  12.374  0.2318 -0.1965 -0.2836
  833MPD2    C312247   1.829   3.356  12.357 -0.5517 -0.7402  0.1761
  833MPD2    C412248   1.862   3.271  12.459 -0.8191 -0.4847 -1.0549
  833MPD2    C512249   1.860   3.328  12.580  0.0811 -0.2990 -0.5514
  833MPD2     H12250   1.746   3.537  12.288 -1.8761 -1.2394 -0.3047
  833MPD2    H112251   1.910   3.173  12.461  1.9085  0.8396 -1.2660
  833MPD2    H212252   1.805   3.494  12.711 -1.0551 -2.0130  1.5448
  833MPD2    H312253   1.895   3.269  12.665  1.4421  1.4165  0.0853
  833MPD2     N12254   1.847   3.316  12.224  0.4494 -0.1185  0.6655
  833MPD2    H512255   1.811   3.382  12.157 -0.3285  0.4424  1.6404
  833MPD2    N112256   1.723   3.661  12.530  0.4243  0.0500 -0.3630
  833MPD2    H712257   1.692   3.679  12.625 -0.7774  0.5433 -0.8459
  834MPD2     C12258   2.413   2.775  11.611  0.3968 -0.0763  0.0591
  834MPD2    C112259   2.333   2.862  11.539 -0.3898 -0.1638  0.1273
  834MPD2    C212260   2.257   2.953  11.604 -0.5544 -0.3047 -0.8024
  834MPD2    C312261   2.264   2.972  11.738  0.5592  0.1156  0.9566
  834MPD2    C412262   2.346   2.889  11.809  0.3809 -0.7065  0.0428
  834MPD2    C512263   2.414   2.789  11.748  0.7436 -0.5864  0.5519
  834MPD2     H12264   2.205   3.026  11.543 -1.9728 -0.2467  0.4640
  834MPD2    H112265   2.349   2.885  11.918 -0.9783  1.5651  0.1652
  834MPD2    H212266   2.474   2.700  11.562 -0.0177  1.2566 -2.4538
  834MPD2    H312267   2.483   2.723  11.798  0.4657 -1.3921 -0.1462
  834MPD2     N12268   2.184   3.068  11.806  0.6202 -0.1948 -0.0001
  834MPD2    H512269   2.190   3.079  11.906  2.6429  1.9664 -0.3663
  834MPD2    N112270   2.341   2.845  11.401 -0.2713 -0.2803  0.2786
  834MPD2    H712271   2.397   2.766  11.370 -1.4058 -1.2527  0.6997
  835MPD2     C12272   1.952   1.222  10.991 -0.8517  0.0681  0.4288
  835MPD2    C112273   1.914   1.352  11.030  0.6918  0.2409  0.4839
  835MPD2    C212274   1.952   1.395  11.154 -0.2124  0.0476 -0.2389
  835MPD2    C312275   2.036   1.321  11.237 -0.3439 -0.1463  0.3046
  835MPD2    C412276   2.072   1.191  11.203 -0.6362 -0.0097  0.0148
  835MPD2    C512277   2.031   1.151  11.081 -0.4250  0.3338 -0.4546
  835MPD2     H12278   1.924   1.496  11.181 -1.5315 -0.0450 -1.2805
  835MPD2    H112279   2.131   1.132  11.272  1.8894  3.0461  0.4826
  835MPD2    H212280   1.917   1.179  10.898 -0.3193  1.5107 -0.4445
  835MPD2    H312281   2.054   1.048  11.055 -0.7493 -0.2163  1.4358
  835MPD2     N12282   2.073   1.367  11.365  0.4528  0.4599 -0.4569
  835MPD2    H512283   2.114   1.297  11.425 -1.6640 -2.3829 -2.3584
  835MPD2    N112284   1.848   1.442  10.947  0.2602  0.2590 -0.2909
  835MPD2    H712285   1.810   1.516  11.004 -0.1455  0.4302 -0.7800
  836MPD2     C12286   1.684   1.927  11.669  0.1508  0.0074  0.1729
  836MPD2    C112287   1.741   1.850  11.767  0.1520  0.2691  0.4731
  836MPD2    C212288   1.683   1.847  11.892  0.2031 -0.3009  0.6009
  836MPD2    C312289   1.563   1.909  11.917  0.1389 -0.4581  0.1285
  836MPD2    C412290   1.503   1.978  11.812  0.0134 -0.3333 -0.0405
  836MPD2    C512291   1.563   1.990  11.685  0.4131  0.0932 -0.1696
  836MPD2     H12292   1.720   1.789  11.976  3.1389  0.8061  0.0648
  836MPD2    H112293   1.402   2.016  11.820  0.2510  0.1099  0.8754
  836MPD2    H212294   1.734   1.935  11.573  0.1728  1.3500  0.2933
  836MPD2    H312295   1.508   2.038  11.605 -0.3387  1.3154  1.0664
  836MPD2     N12296   1.485   1.905  12.030  0.0211 -0.2160 -0.5794
  836MPD2    H512297   1.387   1.932  12.020  0.4001  2.0266  1.6508
  836MPD2    N112298   1.860   1.785  11.732  0.3231  0.1593  0.0087
  836MPD2    H712299   1.887   1.785  11.635  0.5863 -4.2568  0.0780
  837MPD2     C12300   0.871   1.595   9.982 -0.0194 -0.4661 -0.0166
  837MPD2    C112301   0.773   1.578  10.070  0.1334  0.1638  0.4333
  837MPD2    C212302   0.699   1.691  10.115 -1.2941  0.1295  0.7014
  837MPD2    C312303   0.729   1.822  10.073 -0.1127  0.2958 -0.0969
  837MPD2    C412304   0.842   1.841   9.991  0.4166 -0.7114  0.2479
  837MPD2    C512305   0.897   1.724   9.939 -0.3665  0.2520  0.7599
  837MPD2     H12306   0.617   1.683  10.185 -1.7854 -0.0588  0.1058
  837MPD2    H112307   0.890   1.937   9.983 -2.8401  1.1210  2.3680
  837MPD2    H212308   0.920   1.507   9.941  0.9869  1.2849 -2.5359
  837MPD2    H312309   0.975   1.736   9.864 -1.5978  0.3064 -0.5128
  837MPD2     N12310   0.648   1.924  10.112  0.2904 -0.3407  0.1977
  837MPD2    H512311   0.577   1.891  10.177 -0.3774  0.3911 -0.1476
  837MPD2    N112312   0.727   1.449  10.109 -0.0364  0.1784  0.6921
  837MPD2    H712313   0.643   1.460  10.164  0.3839  2.4890  0.8732
  838MPD2     C12314   3.522   0.145  12.109  0.2713  0.0750  0.7275
  838MPD2    C112315   3.446   0.031  12.078  0.4198  0.2571  0.4007
  838MPD2    C212316   3.315   0.023  12.126  0.1728 -0.1272  0.0396
  838MPD2    C312317   3.254   0.133  12.191  0.3397  0.7990 -0.8977
  838MPD2    C412318   3.337   0.243  12.214  0.3992  0.1251  0.5495
  838MPD2    C512319   3.469   0.244  12.183  0.3009 -0.3067 -0.7781
  838MPD2     H12320   3.253   4.662  12.099  0.3095  0.0619 -0.8861
  838MPD2    H112321   3.305   0.331  12.269 -1.3764 -0.8704  1.1162
  838MPD2    H212322   3.617   0.171  12.065  1.5903 -2.3113  2.2517
  838MPD2    H312323   3.531   0.329  12.207  0.5068 -0.8403  0.5608
  838MPD2     N12324   3.120   0.112  12.232 -0.9278 -0.2724  0.6896
  838MPD2    H512325   3.078   0.022  12.208  1.9816 -1.7900  1.3597
  838MPD2    N112326   3.503   4.657  12.000  0.3693 -1.0102  0.1158
  838MPD2    H712327   3.437   4.588  11.965 -0.4936  0.5096 -1.2861
  839MPD2     C12328   3.084   3.993  11.737  0.3860 -0.1784  0.3016
  839MPD2    C112329   3.154   4.020  11.620  0.5557 -0.4197  0.7314
  839MPD2    C212330   3.265   4.101  11.624  0.0746 -0.4180 -0.0595
  839MPD2    C312331   3.302   4.165  11.741  1.0123  0.2729 -0.3561
  839MPD2    C412332   3.230   4.135  11.858  0.0869 -0.3450 -0.3850
  839MPD2    C512333   3.133   4.041  11.857 -0.1985 -0.4658  0.4754
  839MPD2     H12334   3.316   4.124  11.532 -2.7619  1.7838 -1.0785
  839MPD2    H112335   3.238   4.184  11.954 -0.2411 -1.2240  0.0891
  839MPD2    H212336   2.995   3.931  11.743 -0.4646  0.9330 -0.8736
  839MPD2    H312337   3.073   4.025  11.946  0.7466 -0.3685  1.1345
  839MPD2     N12338   3.402   4.261  11.758  0.4451  0.3508 -0.4831
  839MPD2    H512339   3.405   4.316  11.844  3.1275 -1.8743  0.8550
  839MPD2    N112340   3.096   3.986  11.492 -0.6308  0.1283  0.2656
  839MPD2    H712341   3.152   3.993  11.408 -0.4487 -0.4003  0.3424
  840MPD2     C12342   3.427   1.627  10.259 -0.2194 -0.4785  0.5234
  840MPD2    C112343   3.454   1.598  10.398 -0.1391  0.1964 -0.4060
  840MPD2    C212344   3.564   1.649  10.466 -1.3722 -0.8188 -0.5720
  840MPD2    C312345   3.646   1.734  10.393  0.1719  0.2507  0.1601
  840MPD2    C412346   3.627   1.750  10.256 -0.8917  0.2830  0.2632
  840MPD2    C512347   3.519   1.703  10.191  0.1878 -0.9204 -0.9312
  840MPD2     H12348   3.583   1.622  10.569 -1.5622  0.3219 -0.2305
  840MPD2    H112349   3.689   1.822  10.203 -0.9211  1.5335  1.9592
  840MPD2    H212350   3.343   1.584  10.205 -0.6337  0.6710  0.2556
  840MPD2    H312351   3.502   1.745  10.093  0.1800 -1.6222 -1.2354
  840MPD2     N12352   3.749   1.808  10.456  0.1558  0.6708  0.2396
  840MPD2    H512353   3.793   1.879  10.399  1.9182 -2.1212 -1.8949
  840MPD2    N112354   3.364   1.520  10.465 -0.0543  0.1395  0.6755
  840MPD2    H712355   3.279   1.499  10.412  1.0353 -1.6636 -0.3566
  841MPD2     C12356   2.876   1.456  15.335 -0.3218  0.2225  0.0574
  841MPD2    C112357   2.837   1.443  15.202 -0.3414 -0.2215  0.6231
  841MPD2    C212358   2.831   1.547  15.118 -1.1981 -0.4627 -0.5853
  841MPD2    C312359   2.864   1.672  15.164 -0.0834  0.0833  0.3132
  841MPD2    C412360   2.889   1.692  15.300  0.3580  0.0712  0.0964
  841MPD2    C512361   2.910   1.582  15.378 -0.4518 -0.2126 -0.3787
  841MPD2     H12362   2.794   1.532  15.018  0.2803 -1.7809 -0.9425
  841MPD2    H112363   2.915   1.787  15.345  3.0965 -1.3739  1.5510
  841MPD2    H212364   2.909   1.377  15.403  0.1209  0.4280  0.0792
  841MPD2    H312365   2.948   1.592  15.479 -0.0557 -0.5214 -0.4993
  841MPD2     N12366   2.866   1.776  15.070  0.1712  0.2542  0.6174
  841MPD2    H512367   2.856   1.747  14.973 -1.8163  1.4264  0.4685
  841MPD2    N112368   2.813   1.315  15.148  0.0250  0.5365 -0.1973
  841MPD2    H712369   2.771   1.312  15.056  2.4624 -0.0506 -1.2741
  842MPD2     C12370   3.213   2.044  16.619  0.3327  0.4404  0.0852
  842MPD2    C112371   3.264   2.173  16.623  0.0019  0.1221 -0.2311
  842MPD2    C212372   3.285   2.230  16.749  0.3884  0.7222 -0.8273
  842MPD2    C312373   3.252   2.162  16.865 -0.7542  0.3788 -0.0355
  842MPD2    C412374   3.198   2.035  16.858  0.1822  0.8126 -0.0059
  842MPD2    C512375   3.184   1.979  16.736  0.5202 -0.0946  0.5484
  842MPD2     H12376   3.309   2.336  16.755  0.1190  0.6983  0.6643
  842MPD2    H112377   3.161   1.986  16.947 -0.1675 -0.1705 -0.6901
  842MPD2    H212378   3.219   1.999  16.520  0.4794  0.8514 -0.0936
  842MPD2    H312379   3.141   1.881  16.719 -0.4364  0.4855 -0.4475
  842MPD2     N12380   3.262   2.227  16.991 -0.4556  1.0193  0.8053
  842MPD2    H512381   3.220   2.183  17.072 -1.6074  1.3539  0.3818
  842MPD2    N112382   3.294   2.237  16.505  0.1933 -0.1708 -0.4746
  842MPD2    H712383   3.256   2.206  16.416 -0.2454  0.3006 -0.4487
  843MPD2     C12384   0.208   2.609   0.824 -0.0315  0.2711  0.6567
  843MPD2    C112385   0.338   2.589   0.856  0.6718 -0.4864 -0.8905
  843MPD2    C212386   0.438   2.663   0.791 -0.3240  0.8334  0.2818
  843MPD2    C312387   0.404   2.745   0.687  0.2923  0.5705  0.0701
  843MPD2    C412388   0.269   2.768   0.666 -0.3147  0.1705  0.3678
  843MPD2    C512389   0.174   2.703   0.736 -0.1096 -0.5283 -0.1195
  843MPD2     H12390   0.539   2.668   0.831  0.7032  2.4550 -2.5590
  843MPD2    H112391   0.237   2.842   0.594 -1.4513 -0.7109 -0.0338
  843MPD2    H212392   0.132   2.555   0.879 -0.8270 -0.0335 -0.7496
  843MPD2    H312393   0.071   2.725   0.709  0.7552  1.1103 -2.0226
  843MPD2     N12394   0.495   2.826   0.606 -0.3990  0.2370 -0.1168
  843MPD2    H512395   0.458   2.894   0.541 -0.3340  0.1427 -0.2513
  843MPD2    N112396   0.364   2.498   0.957  0.3556 -0.3796 -0.2160
  843MPD2    H712397   0.279   2.467   1.003 -0.7430  0.5167 -1.6350
  844MPD2     C12398   4.070   2.050  16.704  0.4918 -0.1530  0.3592
  844MPD2    C112399   4.205   2.027  16.678 -0.2419 -0.2447  0.2233
  844MPD2    C212400   4.305   2.069  16.763 -0.0104 -0.1763 -0.4289
  844MPD2    C312401   4.271   2.156  16.863 -0.0684 -0.0450 -0.4700
  844MPD2    C412402   4.140   2.186  16.897 -0.4250  0.2407 -0.4261
  844MPD2    C512403   4.044   2.131  16.815  0.1384 -0.5820  0.5071
  844MPD2     H12404   4.410   2.045  16.744 -0.1693 -1.7224  0.7108
  844MPD2    H112405   4.109   2.242  16.985 -0.7393  1.8261 -1.5541
  844MPD2    H212406   3.986   2.020  16.643  0.3319  0.8761  0.0753
  844MPD2    H312407   3.943   2.162  16.838  0.3302  1.6736 -1.7384
  844MPD2     N12408   4.378   2.186  16.947 -0.0090  0.5829  0.0605
  844MPD2    H512409   4.470   2.146  16.931 -0.1932 -0.2395  1.0379
  844MPD2    N112410   4.249   1.962  16.560 -0.3495 -0.3280  0.6887
  844MPD2    H712411   4.348   1.941  16.561 -0.3497 -0.4319 -1.4988
  845MPD2     C12412   4.379   2.952  17.543 -0.2296  0.1044 -0.0396
  845MPD2    C112413   4.296   2.856  17.495  0.4862 -0.0907  0.2786
  845MPD2    C212414   4.337   2.729  17.453 -1.0420  0.3178  0.0716
  845MPD2    C312415   4.470   2.697  17.455 -0.4829 -0.2519  0.4976
  845MPD2    C412416   4.555   2.776  17.529  0.4064  0.4653  0.1987
  845MPD2    C512417   4.506   2.900  17.574 -0.0475  0.4587  0.9643
  845MPD2     H12418   4.271   2.675  17.386 -1.5693  2.0144 -0.7741
  845MPD2    H112419   4.658   2.749  17.552 -0.4342 -2.6633  0.3438
  845MPD2    H212420   4.352   3.049  17.582  1.6759  1.2678 -1.5592
  845MPD2    H312421   4.560   2.962  17.645  4.2818  0.2410 -2.1853
  845MPD2     N12422   4.508   2.575  17.400 -0.0011  0.5536  0.1857
  845MPD2    H512423   4.432   2.514  17.372 -0.0721  0.2729  1.0007
  845MPD2    N112424   4.164   2.893  17.473  0.2348  0.4507  0.0034
  845MPD2    H712425   4.142   2.992  17.471  0.5518  0.4914 -1.3813
  846MPD2     C12426   1.154   3.405  13.616  0.5636 -0.3092  0.3326
  846MPD2    C112427   1.083   3.512  13.645 -0.5877  0.0876 -0.3913
  846MPD2    C212428   1.041   3.536  13.771  0.6134  0.3913 -0.2206
  846MPD2    C312429   1.081   3.446  13.867  0.1255 -0.5870  0.0318
  846MPD2    C412430   1.156   3.334  13.842 -0.4190 -0.3731 -0.0965
  846MPD2    C512431   1.193   3.316  13.712 -0.2863 -0.4666 -0.6103
  846MPD2     H12432   0.976   3.619  13.795 -0.0888 -0.1898 -0.1087
  846MPD2    H112433   1.183   3.258  13.914 -0.1645 -0.4948 -0.3189
  846MPD2    H212434   1.183   3.384  13.514  1.2017 -1.7902  0.8112
  846MPD2    H312435   1.247   3.226  13.686  2.0615  0.7646 -0.0233
  846MPD2     N12436   1.016   3.461  13.986 -0.3255 -0.0027 -0.3692
  846MPD2    H512437   0.948   3.536  13.992 -0.8571 -0.5942  1.0041
  846MPD2    N112438   1.047   3.608  13.555  0.2742 -0.0627 -0.1516
  846MPD2    H712439   0.980   3.678  13.584  2.2624  2.5430 -1.8390
  847MPD2     C12440   1.113   4.657  14.404  0.0937 -0.4503  0.0471
  847MPD2    C112441   1.171   4.607  14.524 -0.6896  0.5184  0.5283
  847MPD2    C212442   1.202   4.478  14.534  0.4423 -0.0685  0.2632
  847MPD2    C312443   1.173   4.392  14.424  0.4215  0.4251 -0.2148
  847MPD2    C412444   1.108   4.434  14.319 -0.0292 -0.1442  0.1008
  847MPD2    C512445   1.079   4.571  14.302  0.0293 -0.0931 -0.0495
  847MPD2     H12446   1.254   4.441  14.622  0.6729 -0.0512  0.1367
  847MPD2    H112447   1.088   4.368  14.234 -1.6834  0.5495 -0.0515
  847MPD2    H212448   1.109   0.039  14.383 -0.2229 -0.0918  1.9617
  847MPD2    H312449   1.022   4.605  14.217  1.1948 -0.0222 -0.8150
  847MPD2     N12450   1.205   4.256  14.450 -0.1058  0.1682  0.5063
  847MPD2    H512451   1.243   4.245  14.544  0.6868  1.6970  0.3631
  847MPD2    N112452   1.216   4.693  14.625  0.2883  0.4585 -0.2327
  847MPD2    H712453   1.279   4.655  14.695 -1.3173  0.0493  0.9970
  848MPD2     C12454   4.392   2.671  16.788 -0.3825 -0.0488  0.3125
  848MPD2    C112455   4.272   2.722  16.837 -0.6372  0.5189 -0.5124
  848MPD2    C212456   4.216   2.832  16.780  0.9134  0.7548  0.1827
  848MPD2    C312457   4.283   2.899  16.683  0.6386  0.2235  0.5135
  848MPD2    C412458   4.400   2.847  16.620 -0.4880 -0.3413 -0.2245
  848MPD2    C512459   4.456   2.735  16.681 -0.0267 -0.4133 -0.4098
  848MPD2     H12460   4.116   2.869  16.803  0.3515 -1.3868  1.1898
  848MPD2    H112461   4.452   2.895  16.538  1.2225 -0.5855  0.7132
  848MPD2    H212462   4.443   2.581  16.820  1.9459  1.2304  0.1807
  848MPD2    H312463   4.546   2.691  16.639 -1.6049 -3.4593 -0.5823
  848MPD2     N12464   4.223   3.008  16.616 -0.1626  0.1665  0.3970
  848MPD2    H512465   4.269   3.032  16.529  0.2648 -2.0173  0.0064
  848MPD2    N112466   4.215   2.663  16.955  0.6864  0.4269  0.1594
  848MPD2    H712467   4.252   2.575  16.991 -1.0454  0.1911  1.3279
  849MPD2     C12468   2.462   2.398  14.512 -0.2752  0.2967  0.3045
  849MPD2    C112469   2.557   2.492  14.535 -0.0719 -0.5118  0.0143
  849MPD2    C212470   2.644   2.487  14.640 -0.0858  0.9975 -0.0589
  849MPD2    C312471   2.637   2.378  14.722 -0.1385 -0.4002  0.2154
  849MPD2    C412472   2.547   2.284  14.699  0.0694  0.2985  0.3691
  849MPD2    C512473   2.454   2.291  14.596 -0.0941 -0.2117 -0.1374
  849MPD2     H12474   2.713   2.570  14.654  2.8407 -1.5579  0.4595
  849MPD2    H112475   2.554   2.191  14.755  0.1246  0.4319  0.5815
  849MPD2    H212476   2.390   2.398  14.431  0.2676 -1.0959 -0.1686
  849MPD2    H312477   2.387   2.207  14.579  0.6608 -0.6730 -0.8717
  849MPD2     N12478   2.735   2.350  14.820 -0.5131 -0.4807 -0.6867
  849MPD2    H512479   2.705   2.269  14.873  2.0593 -1.3662 -0.5722
  849MPD2    N112480   2.564   2.594  14.436  0.4231 -1.2040 -0.1575
  849MPD2    H712481   2.489   2.580  14.369  1.6291 -2.0127 -1.3534
  850MPD2     C12482   1.319   0.573  14.999  1.1534  0.4298 -0.3415
  850MPD2    C112483   1.359   0.663  15.098 -0.7771  0.1906  0.7178
  850MPD2    C212484   1.471   0.641  15.179 -0.4289 -0.2186 -0.3905
  850MPD2    C312485   1.540   0.526  15.160  0.7996 -0.1913 -0.3130
  850MPD2    C412486   1.509   0.435  15.059  0.2781  0.8976  0.2921
  850MPD2    C512487   1.396   0.463  14.977 -0.0988  0.8306 -0.3011
  850MPD2     H12488   1.495   0.718  15.252  0.9349 -0.5130 -0.5385
  850MPD2    H112489   1.573   0.348  15.045 -0.9032 -0.0925  1.1029
  850MPD2    H212490   1.230   0.586  14.938 -0.2201  0.9385  1.7834
  850MPD2    H312491   1.365   0.385  14.908  3.4977  0.4267 -1.4825
  850MPD2     N12492   1.658   0.504  15.231  0.0545  0.4719 -0.5209
  850MPD2    H512493   1.730   0.443  15.193 -2.3113 -1.2412 -2.1880
  850MPD2    N112494   1.271   0.775  15.106 -0.4417  0.3689 -0.2221
  850MPD2    H712495   1.201   0.778  15.033 -0.8894 -0.5040  0.1723
  851MPD2     C12496   0.535   0.634  15.325  0.0944  0.6344  0.0483
  851MPD2    C112497   0.652   0.634  15.251 -0.3967  0.7611 -0.7769
  851MPD2    C212498   0.716   0.516  15.231 -0.1700 -0.1823  0.4561
  851MPD2    C312499   0.667   0.395  15.280  0.5993  0.2974  0.2465
  851MPD2    C412500   0.549   0.399  15.355  0.4559 -0.0856 -0.6511
  851MPD2    C512501   0.478   0.520  15.371  0.0622  0.7760 -0.2194
  851MPD2     H12502   0.816   0.503  15.192 -0.3979  0.6513 -0.3982
  851MPD2    H112503   0.503   0.311  15.398 -0.2423 -1.0765 -3.4263
  851MPD2    H212504   0.484   0.727  15.349  0.8963  1.6020 -1.9906
  851MPD2    H312505   0.382   0.509  15.421 -0.8556  0.4461 -2.0493
  851MPD2     N12506   0.741   0.276  15.259  0.1463 -0.3043  0.3689
  851MPD2    H512507   0.805   0.275  15.180  0.2795  1.0028  0.4594
  851MPD2    N112508   0.703   0.749  15.198  0.1752 -0.3470  0.2316
  851MPD2    H712509   0.647   0.828  15.227 -1.6542 -1.0049 -1.5502
  852MPD2     C12510   1.470   2.403   9.685  0.1033  0.2318 -0.6144
  852MPD2    C112511   1.476   2.509   9.769 -0.2841  0.4019  0.0910
  852MPD2    C212512   1.562   2.613   9.741  0.2266 -0.2429  0.2954
  852MPD2    C312513   1.644   2.617   9.634 -0.1504 -0.2037 -0.2504
  852MPD2    C412514   1.641   2.508   9.548 -0.8657  0.2163  0.3257
  852MPD2    C512515   1.552   2.409   9.576 -0.4816 -0.2723 -0.1285
  852MPD2     H12516   1.559   2.695   9.812  2.6761 -0.1723  0.2999
  852MPD2    H112517   1.688   2.489   9.453  0.3552 -4.1335  1.8172
  852MPD2    H212518   1.398   2.323   9.698  0.0943  0.1881 -0.9415
  852MPD2    H312519   1.540   2.326   9.508 -0.6442 -1.6486  1.6014
  852MPD2     N12520   1.726   2.731   9.612 -0.0895 -0.1338 -0.4151
  852MPD2    H512521   1.730   2.802   9.685  0.7606 -0.0447 -0.5479
  852MPD2    N112522   1.417   2.508   9.894 -0.5882 -0.1419  0.2002
  852MPD2    H712523   1.442   2.578   9.963 -0.1760 -1.8420  1.7892
  853MPD2     C12524   2.511   3.001  12.237  0.6093 -0.1962 -0.5656
  853MPD2    C112525   2.473   3.096  12.149 -0.8927  0.4202 -0.1093
  853MPD2    C212526   2.537   3.100  12.028 -0.3915  0.6172  0.3881
  853MPD2    C312527   2.621   3.001  11.989  0.4092 -0.0794 -0.1188
  853MPD2    C412528   2.649   2.901  12.072 -0.0564 -0.5873 -0.3879
  853MPD2    C512529   2.596   2.903  12.197  0.4476  0.2295  1.5087
  853MPD2     H12530   2.526   3.183  11.958 -0.2046 -2.1358 -2.9199
  853MPD2    H112531   2.722   2.822  12.057  3.6471  2.5634  0.9322
  853MPD2    H212532   2.464   3.001  12.334  0.0131  0.2551 -0.8537
  853MPD2    H312533   2.624   2.831  12.272 -0.6633 -2.2454 -0.4781
  853MPD2     N12534   2.674   2.988  11.863  0.5717 -0.7052 -0.2227
  853MPD2    H512535   2.734   2.907  11.855 -2.0978 -2.8662  1.3755
  853MPD2    N112536   2.385   3.194  12.197  0.4937  0.2398 -0.4534
  853MPD2    H712537   2.357   3.189  12.295  0.1650 -0.7407 -0.5973
  854MPD2     C12538   4.188   3.007  13.114 -1.0659 -0.2060 -0.1261
  854MPD2    C112539   4.286   3.063  13.040 -0.0911  0.4485  0.3644
  854MPD2    C212540   4.410   3.033  13.086 -0.3868  0.0485 -0.3773
  854MPD2    C312541   4.433   2.962  13.203 -0.9666  0.1787 -0.1726
  854MPD2    C412542   4.329   2.917  13.280  0.3083  0.2262  0.4556
  854MPD2    C512543   4.203   2.940  13.237 -0.3280  0.8404  0.1738
  854MPD2     H12544   4.495   3.077  13.035 -1.5773 -0.8711 -3.1525
  854MPD2    H112545   4.345   2.866  13.375  0.6651 -0.4035  0.0540
  854MPD2    H212546   4.087   3.003  13.075 -1.4839  1.9401  0.7840
  854MPD2    H312547   4.115   2.911  13.293 -0.5273  0.6613 -0.2316
  854MPD2     N12548   4.571   2.931  13.236  0.3420 -0.1949  0.3722
  854MPD2    H512549   4.579   2.877  13.322 -1.8445  0.3354  0.9226
  854MPD2    N112550   4.246   3.127  12.919  0.5710  0.3598  0.0624
  854MPD2    H712551   4.146   3.125  12.898  0.5513 -1.2103  0.2828
  855MPD2     C12552   0.063   2.755  14.041  0.1034  0.1240  0.1415
  855MPD2    C112553   0.183   2.805  13.996  0.5646  0.5816  1.4607
  855MPD2    C212554   0.191   2.830  13.860 -0.1748 -0.3174  0.0786
  855MPD2    C312555   0.089   2.800  13.771  0.0669  0.0112 -0.3687
  855MPD2    C412556   4.697   2.743  13.825 -0.4728  0.1607  0.3398
  855MPD2    C512557   4.686   2.721  13.957 -0.6400 -0.2417 -0.1885
  855MPD2     H12558   0.285   2.865  13.821 -0.0286  0.4578  1.1150
  855MPD2    H112559   4.615   2.708  13.764 -1.1189  1.0721  0.6813
  855MPD2    H212560   0.037   2.752  14.146 -0.5088  1.2467  0.0174
  855MPD2    H312561   4.590   2.682  13.989 -0.5593  2.3508  3.2360
  855MPD2     N12562   0.098   2.800  13.634 -0.1564  0.4331  0.0648
  855MPD2    H512563   0.012   2.780  13.585  0.8608 -2.8469 -0.4305
  855MPD2    N112564   0.293   2.824  14.085  0.3798 -0.6636  0.0881
  855MPD2    H712565   0.375   2.857  14.035  0.7189  1.1911  1.8859
  856MPD2     C12566   1.674   3.788  14.036  0.3896 -0.3499  0.1829
  856MPD2    C112567   1.744   3.886  14.102  0.5850 -0.4283 -0.1247
  856MPD2    C212568   1.672   4.004  14.131 -0.6463  0.1990 -0.3986
  856MPD2    C312569   1.539   4.023  14.089  0.3001  0.8621  1.0294
  856MPD2    C412570   1.475   3.920  14.021 -0.8725 -0.1406  0.9111
  856MPD2    C512571   1.545   3.806  13.990  0.0525 -0.0160 -0.0065
  856MPD2     H12572   1.721   4.078  14.194 -2.6265  0.6640  0.6063
  856MPD2    H112573   1.371   3.941  14.000 -1.3029 -0.6098  2.5567
  856MPD2    H212574   1.721   3.692  14.020 -0.5228 -0.8952  0.7798
  856MPD2    H312575   1.501   3.730  13.926 -0.0866 -0.8894  1.1116
  856MPD2     N12576   1.460   4.142  14.113 -0.2345  0.2850 -0.3754
  856MPD2    H512577   1.371   4.145  14.065  0.9339  1.7721 -2.5158
  856MPD2    N112578   1.881   3.873  14.141  0.1365 -0.0490 -0.0247
  856MPD2    H712579   1.919   3.955  14.187  1.4631 -1.9213  2.2240
  857MPD2     C12580   3.711   1.439  13.165  0.1501  0.0263 -0.2390
  857MPD2    C112581   3.836   1.444  13.101  0.4561  0.0334 -0.6013
  857MPD2    C212582   3.924   1.545  13.147 -0.0645  0.6255 -0.3003
  857MPD2    C312583   3.885   1.651  13.231 -0.0132  0.4096  0.4066
  857MPD2    C412584   3.760   1.643  13.283 -0.4524 -0.0134 -1.2250
  857MPD2    C512585   3.680   1.532  13.265 -0.4298 -0.2346 -0.3013
  857MPD2     H12586   4.025   1.541  13.108  0.2694 -0.4080  0.6477
  857MPD2    H112587   3.724   1.710  13.360 -0.0034 -1.1066 -0.0643
  857MPD2    H212588   3.640   1.358  13.152 -0.0661  0.2671 -0.5238
  857MPD2    H312589   3.582   1.516  13.308 -0.0904 -2.4147 -0.3321
  857MPD2     N12590   3.976   1.754  13.259  0.1815  0.1884 -0.3291
  857MPD2    H512591   4.069   1.746  13.220  0.1439  1.9569 -0.8119
  857MPD2    N112592   3.856   1.348  13.004 -1.3692 -0.2548  0.1297
  857MPD2    H712593   3.782   1.282  12.983 -1.7207  0.8090 -2.0341
  858MPD2     C12594   4.315   0.415  16.660  0.0626 -0.2164  0.5894
  858MPD2    C112595   4.411   0.327  16.693  0.0867  0.1089 -0.7370
  858MPD2    C212596   4.466   0.338  16.825  0.2764  0.3056  0.4557
  858MPD2    C312597   4.430   0.437  16.915  0.1168 -0.1941  0.1933
  858MPD2    C412598   4.338   0.531  16.876 -0.2148 -0.3353  0.6726
  858MPD2    C512599   4.290   0.519  16.746 -1.1867 -0.2407 -0.0736
  858MPD2     H12600   4.533   0.258  16.856  0.3357  0.1307 -0.1284
  858MPD2    H112601   4.311   0.613  16.941 -0.1841  0.4644 -0.3173
  858MPD2    H212602   4.256   0.408  16.569  0.4408  0.2580  0.3097
  858MPD2    H312603   4.217   0.590  16.708  0.3740 -0.0382 -2.6711
  858MPD2     N12604   4.495   0.458  17.040 -0.2300 -0.5143  0.5489
  858MPD2    H512605   4.458   0.542  17.085  1.9537  1.4417 -1.2650
  858MPD2    N112606   4.458   0.217  16.613 -1.0238  0.1233  0.2731
  858MPD2    H712607   4.535   0.160  16.646  0.6320  3.6459  2.4281
  859MPD2     C12608   3.057   2.204  15.506 -0.5068  0.8138 -0.1990
  859MPD2    C112609   3.110   2.206  15.377 -0.8990 -0.6773  0.4093
  859MPD2    C212610   3.164   2.085  15.332 -0.0749  0.5608 -0.5508
  859MPD2    C312611   3.140   1.967  15.399  0.5706  0.8849  0.3644
  859MPD2    C412612   3.084   1.969  15.524  1.2310  0.1934  0.7855
  859MPD2    C512613   3.048   2.087  15.579  0.9413 -0.0975 -0.1844
  859MPD2     H12614   3.215   2.101  15.238  0.4309 -1.2468 -0.5875
  859MPD2    H112615   3.062   1.877  15.577 -0.5161  1.3182  2.0128
  859MPD2    H212616   3.025   2.294  15.556 -1.1037 -1.0358  2.7567
  859MPD2    H312617   2.999   2.088  15.676  0.9617 -0.0692 -0.1742
  859MPD2     N12618   3.184   1.838  15.352  0.2248 -0.3644  0.1099
  859MPD2    H512619   3.153   1.757  15.404 -1.0464  1.2131  1.7959
  859MPD2    N112620   3.122   2.324  15.299 -0.2216 -0.6668 -0.5913
  859MPD2    H712621   3.180   2.321  15.215  1.4116 -1.3657  0.5462
  860MPD2     C12622   0.802   2.527  11.616 -0.1717  0.2673  0.2650
  860MPD2    C112623   0.761   2.646  11.660 -0.4209 -0.2127 -0.7228
  860MPD2    C212624   0.654   2.647  11.744  0.0959  0.0091  0.0097
  860MPD2    C312625   0.597   2.534  11.798 -0.2479  0.1123  0.1518
  860MPD2    C412626   0.654   2.415  11.764 -0.1991  0.4734  0.8599
  860MPD2    C512627   0.742   2.413  11.662 -0.3889 -0.3910  0.0374
  860MPD2     H12628   0.628   2.746  11.779 -0.0496  0.4972 -1.4681
  860MPD2    H112629   0.617   2.320  11.802 -1.6255  0.4723 -0.5354
  860MPD2    H212630   0.891   2.511  11.555 -1.0132  0.7032 -1.0689
  860MPD2    H312631   0.771   2.315  11.626  0.8407 -0.7499  2.0062
  860MPD2     N12632   0.495   2.532  11.894  0.3396  0.3228 -0.0383
  860MPD2    H512633   0.447   2.446  11.917  0.6506 -0.5836 -2.7541
  860MPD2    N112634   0.835   2.767  11.642  0.0745  0.2917  0.5304
  860MPD2    H712635   0.797   2.853  11.681 -0.6021  0.8731 -1.4374
  861MPD2     C12636   4.291   0.843  11.159 -0.2120  0.1057  0.0914
  861MPD2    C112637   4.299   0.978  11.199  0.4074  0.3221 -0.0021
  861MPD2    C212638   4.262   1.078  11.113 -0.5894  0.4267 -0.5124
  861MPD2    C312639   4.223   1.052  10.980 -0.2333 -0.2891 -0.2890
  861MPD2    C412640   4.218   0.921  10.943 -0.3452  0.3017 -0.0662
  861MPD2    C512641   4.252   0.813  11.028  0.4497 -0.3143 -0.8962
  861MPD2     H12642   4.266   1.182  11.143  1.2580  0.2785 -0.2505
  861MPD2    H112643   4.177   0.904  10.844 -1.5736 -3.7933  1.1218
  861MPD2    H212644   4.321   0.765  11.228  0.8819 -0.3830 -0.9288
  861MPD2    H312645   4.256   0.710  10.996 -0.7897 -0.8297  0.6068
  861MPD2     N12646   4.168   1.150  10.891  0.4792 -0.0301 -0.8645
  861MPD2    H512647   4.144   1.119  10.797  0.1070 -0.2616 -0.6919
  861MPD2    N112648   4.350   1.003  11.325  0.7054  0.0154 -0.5163
  861MPD2    H712649   4.340   0.920  11.383  1.2395  0.3568  0.0739
  862MPD2     C12650   4.134   1.262  10.189  0.1364 -0.5570 -0.4419
  862MPD2    C112651   4.197   1.223  10.308  0.1678  0.0231  1.6475
  862MPD2    C212652   4.265   1.105  10.310  0.0614  0.0580 -0.3142
  862MPD2    C312653   4.279   1.026  10.198 -0.2753  1.1071 -0.6564
  862MPD2    C412654   4.200   1.064  10.087 -0.2874  0.9241 -0.0001
  862MPD2    C512655   4.131   1.180  10.082 -0.3152 -0.5489  0.0572
  862MPD2     H12656   4.314   1.086  10.405  1.0392 -0.5821 -0.9398
  862MPD2    H112657   4.179   0.988  10.012 -2.0996 -0.2435  1.6688
  862MPD2    H212658   4.089   1.360  10.177  0.2874 -0.5970 -1.2977
  862MPD2    H312659   4.074   1.195   9.991 -2.9566 -2.5003  1.4005
  862MPD2     N12660   4.353   0.903  10.193 -0.2794  0.5112 -0.0792
  862MPD2    H512661   4.354   0.843  10.111 -1.3461 -0.0594  0.3179
  862MPD2    N112662   4.199   1.293  10.430 -0.1157 -0.8389  0.1553
  862MPD2    H712663   4.255   1.250  10.503 -1.0800 -4.2900 -1.1087
  863MPD2     C12664   2.118   4.551  17.013  0.1312 -0.2920 -0.0521
  863MPD2    C112665   2.167   4.441  16.943  0.2454  0.0208  0.5200
  863MPD2    C212666   2.272   4.376  17.000 -0.2751  0.4808  0.0044
  863MPD2    C312667   2.306   4.400  17.135 -0.1552  0.0050  0.0079
  863MPD2    C412668   2.253   4.505  17.201  0.5897 -0.1960  0.0245
  863MPD2    C512669   2.157   4.581  17.141  0.1291 -0.4449  0.3116
  863MPD2     H12670   2.318   4.296  16.945  0.1007 -0.1942  1.3094
  863MPD2    H112671   2.270   4.529  17.305 -1.4915 -0.4538  0.4228
  863MPD2    H212672   2.039   4.614  16.975 -0.3807 -0.4353  0.7772
  863MPD2    H312673   2.118   4.667  17.195  0.3464 -0.0252 -0.2065
  863MPD2     N12674   2.420   4.327  17.183  0.0594 -0.6250  0.2326
  863MPD2    H512675   2.468   4.363  17.265  1.5849 -0.2322 -0.8343
  863MPD2    N112676   2.106   4.401  16.823 -0.0145 -0.4687 -0.2750
  863MPD2    H712677   2.017   4.447  16.806  0.2712 -0.8674 -2.8466
  864MPD2     C12678   3.202   0.697  17.157 -0.3424 -0.1445  0.1429
  864MPD2    C112679   3.247   0.641  17.040  0.5342  0.5359  0.5069
  864MPD2    C212680   3.344   0.706  16.968 -0.2183  1.1562 -0.3857
  864MPD2    C312681   3.379   0.836  17.001 -0.2597 -0.6626  0.0470
  864MPD2    C412682   3.326   0.887  17.118  0.4404 -0.1865 -0.3514
  864MPD2    C512683   3.237   0.818  17.192  0.3986 -0.3893  0.2456
  864MPD2     H12684   3.381   0.664  16.876 -1.7556  3.1353 -1.8991
  864MPD2    H112685   3.360   0.984  17.155  0.0236  0.8940 -2.7775
  864MPD2    H212686   3.125   0.658  17.222 -1.0798 -0.1388 -0.7386
  864MPD2    H312687   3.183   0.854  17.279 -0.7514  1.0586 -1.0608
  864MPD2     N12688   3.472   0.909  16.931  0.2515  0.9921 -0.3128
  864MPD2    H512689   3.476   1.006  16.960  0.7589  1.4652 -1.9677
  864MPD2    N112690   3.175   0.526  16.999 -0.2423  0.1618  0.4674
  864MPD2    H712691   3.119   0.484  17.072  1.3027 -0.2633  1.4265
  865MPD2     C12692   3.840   1.225  16.225 -0.5243  0.3580 -0.6106
  865MPD2    C112693   3.775   1.137  16.304 -0.9694 -0.5255  0.0677
  865MPD2    C212694   3.706   1.175  16.420  0.1766  0.7089  0.3701
  865MPD2    C312695   3.698   1.308  16.452  0.1883 -0.5076  0.0552
  865MPD2    C412696   3.757   1.394  16.367  0.1399 -0.2602  0.2781
  865MPD2    C512697   3.824   1.353  16.253  0.1399 -0.1856  0.0682
  865MPD2     H12698   3.655   1.102  16.482 -0.3362 -0.2822 -1.2196
  865MPD2    H112699   3.763   1.501  16.385 -0.5696 -0.0968 -0.4809
  865MPD2    H212700   3.905   1.195  16.143 -1.4515  1.8755 -1.8911
  865MPD2    H312701   3.873   1.420  16.184  1.7464 -2.0326 -0.5718
  865MPD2     N12702   3.616   1.357  16.553 -0.3146  0.3348  0.2294
  865MPD2    H512703   3.598   1.457  16.543  2.2045  0.6946 -0.8590
  865MPD2    N112704   3.772   1.000  16.257 -0.3778 -0.4989 -0.1064
  865MPD2    H712705   3.828   0.989  16.173  0.7218 -1.0514  0.7039
  866MPD2     C12706   0.054   1.252  11.726 -0.0912  0.1386  0.7527
  866MPD2    C112707   0.115   1.253  11.605  0.4640 -0.0581  0.0974
  866MPD2    C212708   0.080   1.347  11.505  0.9153  0.6259  0.4560
  866MPD2    C312709   4.698   1.433  11.524 -0.2675 -0.4975  0.2924
  866MPD2    C412710   4.649   1.447  11.653  0.0678  0.4083  0.3843
  866MPD2    C512711   4.684   1.352  11.752  0.4834 -0.2721  0.0326
  866MPD2     H12712   0.120   1.333  11.406 -1.1575 -1.6459 -0.0567
  866MPD2    H112713   4.575   1.521  11.683  0.6445  1.4689 -0.8403
  866MPD2    H212714   0.066   1.166  11.792 -0.0233 -0.5039 -0.0953
  866MPD2    H312715   4.634   1.346  11.848 -0.2683 -0.1781 -0.3544
  866MPD2     N12716   4.646   1.519  11.421  0.3020  0.0185 -0.2517
  866MPD2    H512717   4.573   1.588  11.438  0.1628  0.4296 -2.5474
  866MPD2    N112718   0.210   1.149  11.594  0.1760  0.0395  0.0797
  866MPD2    H712719   0.214   1.085  11.672  0.4411 -0.0663 -0.0216
  867MPD2     C12720   1.917   0.834  16.802 -0.2698 -0.1746 -0.1552
  867MPD2    C112721   1.958   0.802  16.935 -0.4134 -0.0881 -0.3104
  867MPD2    C212722   1.972   0.911  17.016  0.7940  0.6391 -0.6467
  867MPD2    C312723   1.948   1.043  16.979  0.0228  0.1888  0.7312
  867MPD2    C412724   1.916   1.072  16.853 -0.1297 -0.2493  0.9364
  867MPD2    C512725   1.898   0.971  16.767 -0.0716 -0.0079  0.1020
  867MPD2     H12726   2.007   0.886  17.116  0.1053  1.5571 -0.1804
  867MPD2    H112727   1.881   1.173  16.833  2.0085  0.5765  1.4049
  867MPD2    H212728   1.914   0.757  16.726  0.3158 -0.8489  0.4991
  867MPD2    H312729   1.876   1.000  16.665  0.4876 -1.0899 -0.3174
  867MPD2     N12730   1.960   1.156  17.068 -0.1897  0.0738 -0.5010
  867MPD2    H512731   1.930   1.245  17.029 -3.2993 -1.2395 -1.1217
  867MPD2    N112732   1.983   0.669  16.970 -0.8410  0.4293  0.0409
  867MPD2    H712733   1.968   0.600  16.897 -2.1415  1.8422 -1.0312
  868MPD2     C12734   3.680   3.936  13.012 -0.3705 -0.3248  0.3832
  868MPD2    C112735   3.772   4.035  13.034 -0.1106 -0.8141  0.5584
  868MPD2    C212736   3.737   4.142  13.122  0.3947  0.1523 -0.4468
  868MPD2    C312737   3.609   4.160  13.171 -0.5719  0.3560  0.1244
  868MPD2    C412738   3.514   4.076  13.122  0.0963 -0.3370  0.5613
  868MPD2    C512739   3.552   3.964  13.055 -0.8740  0.3547  1.2944
  868MPD2     H12740   3.821   4.205  13.150 -0.9706  2.3445 -1.2462
  868MPD2    H112741   3.406   4.088  13.131  0.1446 -0.3494  1.1613
  868MPD2    H212742   3.706   3.847  12.956 -0.1820 -0.8336  1.2812
  868MPD2    H312743   3.473   3.892  13.034  2.5243 -3.0457  0.1432
  868MPD2     N12744   3.584   4.273  13.254 -0.2357  0.0265  0.3050
  868MPD2    H512745   3.666   4.330  13.271  0.1812 -1.0647  1.9778
  868MPD2    N112746   3.898   4.012  12.987  0.5014  0.0296 -0.3912
  868MPD2    H712747   3.910   3.912  12.970  0.3835 -0.2120  0.9986
  869MPD2     C12748   0.558   3.510   2.460 -0.1710 -0.0171  0.0041
  869MPD2    C112749   0.544   3.372   2.459 -0.2555  0.2091  0.3786
  869MPD2    C212750   0.481   3.307   2.352  0.8444 -0.2002 -0.0557
  869MPD2    C312751   0.432   3.387   2.247  0.1375 -0.2065 -0.9421
  869MPD2    C412752   0.430   3.524   2.256  0.1418 -0.1029 -0.9348
  869MPD2    C512753   0.492   3.584   2.364 -0.6515  0.4602  0.0563
  869MPD2     H12754   0.499   3.200   2.345  0.6366 -0.2562  0.2575
  869MPD2    H112755   0.372   3.592   2.194  2.1483 -0.1737 -2.8976
  869MPD2    H212756   0.616   3.563   2.534 -0.8482  0.2876  0.3187
  869MPD2    H312757   0.495   3.693   2.358  1.3468  0.4659  1.0829
  869MPD2     N12758   0.366   3.336   2.130 -0.5030 -0.6107 -0.0189
  869MPD2    H512759   0.324   3.404   2.068  1.1343 -1.0071 -1.5434
  869MPD2    N112760   0.591   3.306   2.577 -0.1354 -0.3864  0.7187
  869MPD2    H712761   0.606   3.357   2.664 -1.4926 -0.5750  1.0717
  870MPD2     C12762   4.071   0.463   1.286  0.3085  0.1118 -0.0030
  870MPD2    C112763   4.202   0.471   1.342  0.1817  0.0876  0.8463
  870MPD2    C212764   4.251   0.594   1.370 -0.7889 -0.3154  0.2238
  870MPD2    C312765   4.171   0.705   1.344 -0.2128  0.9025  0.6503
  870MPD2    C412766   4.048   0.692   1.295  0.0408 -0.2544 -0.5308
  870MPD2    C512767   3.999   0.572   1.257 -0.3162 -0.2843  0.0104
  870MPD2     H12768   4.355   0.611   1.394 -1.0620 -1.3942  2.1418
  870MPD2    H112769   3.981   0.774   1.273  1.9822  1.3517 -0.3967
  870MPD2    H212770   4.019   0.370   1.266 -0.0337 -0.3648  3.0304
  870MPD2    H312771   3.903   0.553   1.211  0.3639  0.8380 -1.8755
  870MPD2     N12772   4.235   0.828   1.361 -0.0561 -0.6050 -0.1253
  870MPD2    H512773   4.334   0.826   1.381 -0.5574 -0.1975  2.4632
  870MPD2    N112774   4.274   0.354   1.363  0.2295  0.2418 -0.0270
  870MPD2    H712775   4.242   0.263   1.331  1.6024 -0.4657  0.6095
  871MPD2     C12776   0.989   0.940  16.259  0.1404 -0.0466  0.1011
  871MPD2    C112777   0.917   0.853  16.338 -0.1522 -0.2590  0.2610
  871MPD2    C212778   0.899   0.724  16.287 -0.9945 -0.0683 -0.6306
  871MPD2    C312779   0.934   0.683  16.161 -0.4275 -0.8332  0.0522
  871MPD2    C412780   0.993   0.770  16.079  0.6910 -0.0845  0.7375
  871MPD2    C512781   1.014   0.900  16.126  0.5099 -0.0602 -0.1437
  871MPD2     H12782   0.858   0.653  16.358 -0.1667 -0.6944 -0.7819
  871MPD2    H112783   1.022   0.755  15.975  0.9786 -0.3394  0.8579
  871MPD2    H212784   1.009   1.040  16.297 -0.9798  0.2026  0.0112
  871MPD2    H312785   1.056   0.975  16.061 -1.4571 -0.0527 -1.4149
  871MPD2     N12786   0.912   0.541  16.135 -0.5922  0.1781  0.4850
  871MPD2    H512787   0.869   0.482  16.206 -1.5534 -2.1313 -2.0280
  871MPD2    N112788   0.867   0.895  16.464  0.3174 -0.2236  0.0371
  871MPD2    H712789   0.888   0.991  16.489 -0.3079  0.4257 -1.9060
  872MPD2     C12790   1.958   3.272  14.064  0.3921 -0.3165 -0.4239
  872MPD2    C112791   1.859   3.228  13.982 -0.1626 -0.7782  0.2725
  872MPD2    C212792   1.729   3.201  14.035  0.2330 -0.0110 -0.6129
  872MPD2    C312793   1.706   3.205  14.176 -0.2141  0.0284 -0.5853
  872MPD2    C412794   1.817   3.242  14.253  0.1173  0.4584 -0.3283
  872MPD2    C512795   1.934   3.283  14.195 -0.7227 -0.4326  0.3299
  872MPD2     H12796   1.649   3.169  13.970  0.6912  1.3971 -1.8856
  872MPD2    H112797   1.802   3.246  14.360 -3.0007 -0.4710 -0.7230
  872MPD2    H212798   2.061   3.288  14.035  0.3004  1.5198  0.2719
  872MPD2    H312799   2.015   3.310  14.261  0.7896 -1.7811 -1.0035
  872MPD2     N12800   1.598   3.149  14.237  0.2150  0.8144 -0.1895
  872MPD2    H512801   1.596   3.142  14.338  1.4677  0.7143 -0.1740
  872MPD2    N112802   1.880   3.207  13.845 -0.2000  0.2006 -0.7412
  872MPD2    H712803   1.797   3.176  13.795 -0.4685 -0.4401  0.0934
  873MPD2     C12804   3.183   2.981   0.594 -0.4228 -0.4442 -0.3716
  873MPD2    C112805   3.268   3.040   0.685 -0.0878  0.0131  0.3983
  873MPD2    C212806   3.397   3.003   0.679 -1.2500 -0.2649 -0.1386
  873MPD2    C312807   3.445   2.920   0.580 -0.2030  0.7549  0.6440
  873MPD2    C412808   3.358   2.869   0.485  0.1879  0.2405 -0.0868
  873MPD2    C512809   3.222   2.890   0.501  0.0408 -0.4507 -0.0622
  873MPD2     H12810   3.466   3.048   0.749  1.3199 -2.3247 -1.3175
  873MPD2    H112811   3.387   2.791   0.415  1.1903 -0.3220  0.9581
  873MPD2    H212812   3.079   3.011   0.594 -1.0465 -2.5708  1.3269
  873MPD2    H312813   3.153   2.846   0.430 -0.4744  0.5598 -0.1863
  873MPD2     N12814   3.576   2.880   0.577 -0.8951 -0.3720  0.1223
  873MPD2    H512815   3.596   2.801   0.515 -0.3008 -0.4536  0.4133
  873MPD2    N112816   3.210   3.129   0.776 -0.3217 -0.2026  0.3325
  873MPD2    H712817   3.114   3.160   0.761 -0.2329  0.2444  0.6623
  874MPD2     C12818   3.675   2.862  15.930  0.5409  0.0901 -0.2681
  874MPD2    C112819   3.665   2.819  16.058 -1.1026 -0.3505  0.1541
  874MPD2    C212820   3.743   2.876  16.159  0.1150  0.5913  0.5892
  874MPD2    C312821   3.814   2.994  16.133 -0.6180  0.1498 -0.4051
  874MPD2    C412822   3.814   3.034  16.000  0.4600  0.1853  0.1290
  874MPD2    C512823   3.744   2.970  15.903  0.0779 -0.2576 -0.0361
  874MPD2     H12824   3.718   2.862  16.264  2.0039  0.6339  1.0575
  874MPD2    H112825   3.865   3.127  15.979  0.3635 -0.2453 -2.0557
  874MPD2    H212826   3.608   2.822  15.854 -1.0258  0.1230  1.0870
  874MPD2    H312827   3.754   3.019  15.807  0.3137 -0.8696 -0.3194
  874MPD2     N12828   3.885   3.061  16.241 -0.9300 -0.2063  0.2188
  874MPD2    H512829   3.883   3.017  16.333 -2.0514 -1.8185 -0.5574
  874MPD2    N112830   3.580   2.705  16.080  0.2214 -0.6083  0.4587
  874MPD2    H712831   3.534   2.671  15.996 -0.3002 -3.0462  1.7599
  875MPD2     C12832   4.116   1.903  14.328 -0.3041  0.3887 -0.3380
  875MPD2    C112833   4.023   1.901  14.431  0.2826 -1.0918 -0.2917
  875MPD2    C212834   4.060   1.971  14.543 -0.1384  0.0206  0.6640
  875MPD2    C312835   4.179   2.037  14.556  0.6159 -0.4755 -0.1717
  875MPD2    C412836   4.272   2.038  14.448 -0.3188  0.6703  0.7766
  875MPD2    C512837   4.235   1.966  14.335 -0.2192 -0.5537  0.0654
  875MPD2     H12838   3.997   1.978  14.631 -3.0406 -2.0758 -1.2394
  875MPD2    H112839   4.372   2.077  14.459  0.1118  0.1193 -1.2066
  875MPD2    H212840   4.105   1.862  14.229  0.1302  0.1716 -0.2971
  875MPD2    H312841   4.307   1.971  14.254 -1.0457 -1.2200 -0.7116
  875MPD2     N12842   4.224   2.102  14.676  0.3390  0.7172  0.1544
  875MPD2    H512843   4.320   2.133  14.686  0.7678 -0.6128  0.0728
  875MPD2    N112844   3.909   1.820  14.433 -0.1592  0.4209 -0.5298
  875MPD2    H712845   3.857   1.820  14.520 -1.0724  1.2454 -1.0796
  876MPD2     C12846   3.103   2.378  15.873  0.1843 -0.6190 -0.5519
  876MPD2    C112847   3.239   2.410  15.865 -0.7978 -0.1234 -0.1047
  876MPD2    C212848   3.332   2.338  15.946 -0.3150 -0.3313 -0.1102
  876MPD2    C312849   3.281   2.240  16.035 -0.7124  0.8898  0.0488
  876MPD2    C412850   3.142   2.213  16.048  0.3260 -0.7617  0.4140
  876MPD2    C512851   3.064   2.283  15.961 -0.2192 -0.4965 -0.0606
  876MPD2     H12852   3.439   2.358  15.949 -0.1644 -1.0954 -0.5483
  876MPD2    H112853   3.099   2.129  16.102 -2.1710  0.5763  0.5027
  876MPD2    H212854   3.026   2.439  15.827  1.3283  0.3758 -1.1479
  876MPD2    H312855   2.956   2.280  15.974 -0.3244 -0.6964 -1.0091
  876MPD2     N12856   3.379   2.175  16.114 -0.0910  0.0227  0.4221
  876MPD2    H512857   3.472   2.187  16.073 -0.6543  3.0539  0.0586
  876MPD2    N112858   3.275   2.526  15.796 -0.6089 -0.1415  0.0545
  876MPD2    H712859   3.198   2.566  15.743  0.3770 -0.3980 -1.5997
  877MPD2     C12860   3.010   3.005  15.264  0.5199  0.5943  0.1811
  877MPD2    C112861   3.150   3.025  15.269  0.0350  0.3058  0.1787
  877MPD2    C212862   3.212   3.112  15.179  0.2875 -0.3909 -0.2012
  877MPD2    C312863   3.130   3.183  15.091 -0.2577  0.2179  0.6806
  877MPD2    C412864   3.002   3.155  15.080  0.2425 -0.6712 -0.2114
  877MPD2    C512865   2.943   3.067  15.160 -0.6274  0.3111  0.4603
  877MPD2     H12866   3.312   3.149  15.197  0.0683 -0.0753  0.3611
  877MPD2    H112867   2.941   3.187  14.997  0.7618 -0.5906 -0.5626
  877MPD2    H212868   2.958   2.930  15.321 -0.2889  0.1431 -1.1563
  877MPD2    H312869   2.845   3.025  15.140 -0.4905 -0.0355  0.5367
  877MPD2     N12870   3.190   3.269  14.993  0.1552  0.1665 -0.1745
  877MPD2    H512871   3.141   3.271  14.904  2.0839 -1.4008 -1.2664
  877MPD2    N112872   3.238   2.979  15.370 -0.6999 -0.5599 -0.7275
  877MPD2    H712873   3.336   3.000  15.353 -0.8261  1.6213  1.3104
  878MPD2     C12874   3.026   3.282  13.725 -0.3791 -0.2003  0.3491
  878MPD2    C112875   3.018   3.160  13.672  0.1085 -0.7680 -0.5207
  878MPD2    C212876   2.967   3.058  13.752  0.4458 -0.1514  0.2468
  878MPD2    C312877   2.916   3.083  13.876 -0.0592  0.4282 -0.7363
  878MPD2    C412878   2.926   3.215  13.926  0.2232  0.1061 -0.3134
  878MPD2    C512879   2.984   3.308  13.846  0.4308 -0.2207  0.5526
  878MPD2     H12880   2.953   2.959  13.709 -0.0265  0.4483 -0.9552
  878MPD2    H112881   2.881   3.239  14.022 -0.6690  2.5540 -1.3331
  878MPD2    H212882   3.072   3.364  13.670 -2.0410  0.2382 -0.3817
  878MPD2    H312883   2.983   3.410  13.882  0.5163  1.0507 -3.1276
  878MPD2     N12884   2.853   2.973  13.940 -0.0789 -0.6236 -0.0523
  878MPD2    H512885   2.860   2.881  13.896  0.3457  0.7282 -2.7896
  878MPD2    N112886   3.077   3.140  13.548  0.1531 -0.3678  0.0119
  878MPD2    H712887   3.105   3.224  13.499 -3.1602  1.5887  1.4441
  879MPD2     C12888   4.001   3.755  16.672  0.1620  0.3947  0.7592
  879MPD2    C112889   3.958   3.687  16.789 -0.0054 -0.4465  0.0147
  879MPD2    C212890   3.829   3.647  16.799  0.3250  0.2639  0.5125
  879MPD2    C312891   3.746   3.654  16.689 -0.3633  0.7144  0.4935
  879MPD2    C412892   3.796   3.716  16.573 -0.5625 -0.0623  0.2289
  879MPD2    C512893   3.919   3.770  16.565 -0.3497 -0.1612  0.0348
  879MPD2     H12894   3.796   3.585  16.881 -1.5662  0.6514  0.0421
  879MPD2    H112895   3.732   3.725  16.485  0.4493 -0.6368 -0.5592
  879MPD2    H212896   4.104   3.787  16.663  0.8240 -2.1607 -0.8147
  879MPD2    H312897   3.960   3.823  16.480 -2.4275  0.3233 -0.6733
  879MPD2     N12898   3.613   3.606  16.686  0.1238 -0.5831 -0.2254
  879MPD2    H512899   3.560   3.616  16.599  0.1760  1.4020 -0.0367
  879MPD2    N112900   4.045   3.654  16.898  0.1041 -0.3150  0.3459
  879MPD2    H712901   4.142   3.678  16.878 -0.0894  0.0873 -0.1401
  880MPD2     C12902   0.189   0.489   0.610 -0.0856 -0.7492  0.0276
  880MPD2    C112903   0.081   0.570   0.595 -0.9172 -0.7237  0.4446
  880MPD2    C212904   4.676   0.525   0.620  0.7826  0.3830  0.2473
  880MPD2    C312905   4.651   0.398   0.647 -0.1470  0.4752  0.6858
  880MPD2    C412906   0.033   0.313   0.658 -0.0125  0.2904 -0.4769
  880MPD2    C512907   0.161   0.359   0.649  0.6447  0.5295 -0.5072
  880MPD2     H12908   4.588   0.584   0.601  0.1918 -1.4042 -2.5022
  880MPD2    H112909   0.022   0.212   0.695  1.7725  1.2297  2.5459
  880MPD2    H212910   0.293   0.519   0.603 -0.1921  0.4319  3.2411
  880MPD2    H312911   0.248   0.298   0.668  0.8115  0.2994 -2.0320
  880MPD2     N12912   4.520   0.360   0.664  0.0179 -0.7786 -0.5361
  880MPD2    H512913   4.443   0.425   0.670 -0.4575 -1.2768 -1.3201
  880MPD2    N112914   0.098   0.697   0.542  0.0052  0.1959  0.4148
  880MPD2    H712915   0.018   0.746   0.503 -2.2406 -3.0522  0.9513
  881MPD2     C12916   0.346   1.578   0.023  0.6766  0.3744 -0.4193
  881MPD2    C112917   0.265   1.473  17.686  0.3825  0.3362  0.5101
  881MPD2    C212918   0.236   1.377   0.078 -0.2697 -0.1873  1.0288
  881MPD2    C312919   0.272   1.398   0.213 -0.4438 -0.0275  0.2312
  881MPD2    C412920   0.334   1.516   0.250 -0.9553 -0.6131  0.0304
  881MPD2    C512921   0.375   1.603   0.154  0.1505  0.0861 -0.1658
  881MPD2     H12922   0.180   1.291   0.044  0.5842 -0.2098 -0.3113
  881MPD2    H112923   0.367   1.526   0.353  1.1701  1.6057 -0.8597
  881MPD2    H212924   0.365   1.664  17.658 -1.9824  1.3284  0.0883
  881MPD2    H312925   0.430   1.690   0.186  1.3549 -1.2423  1.4181
  881MPD2     N12926   0.242   1.302   0.309  0.4789  0.4257 -0.2060
  881MPD2    H512927   0.268   1.321   0.406 -0.7068 -0.6438  0.3187
  881MPD2    N112928   0.254   1.450  17.547  0.4015 -0.4154  0.0184
  881MPD2    H712929   0.302   1.517  17.488 -0.5224 -0.2912 -0.5990
  882MPD2     C12930   3.094   3.572  14.271 -0.1755 -0.0724  0.1026
  882MPD2    C112931   3.065   3.545  14.405 -0.1665  0.7035  0.1337
  882MPD2    C212932   2.940   3.496  14.439  0.6526 -0.1136 -0.1526
  882MPD2    C312933   2.847   3.472  14.340  0.2587  0.4208 -1.3022
  882MPD2    C412934   2.869   3.528  14.213 -0.3439 -0.2865  0.1133
  882MPD2    C512935   2.996   3.573  14.179  0.0781  0.1686  0.0142
  882MPD2     H12936   2.926   3.458  14.539 -2.2042 -1.5027 -1.0694
  882MPD2    H112937   2.790   3.526  14.138  0.3585 -1.5110 -0.5935
  882MPD2    H212938   3.191   3.601  14.234  0.2104  0.2489  1.3913
  882MPD2    H312939   3.041   3.577  14.080 -1.2062  0.6100 -0.5577
  882MPD2     N12940   2.727   3.401  14.377  0.6694 -0.3459  0.2987
  882MPD2    H512941   2.664   3.395  14.298  0.0077 -0.2196  0.8212
  882MPD2    N112942   3.175   3.554  14.492 -0.1939  0.4167 -0.1026
  882MPD2    H712943   3.262   3.591  14.454 -0.4037  0.2921 -0.7057
  883MPD2     C12944   0.360   2.818  16.253  0.1044 -0.2578  0.0409
  883MPD2    C112945   0.346   2.943  16.216 -0.9125 -0.0404  0.0411
  883MPD2    C212946   0.393   3.046  16.293  0.4723 -0.1313 -0.3237
  883MPD2    C312947   0.434   3.028  16.424 -0.5552  0.1082  0.3846
  883MPD2    C412948   0.414   2.899  16.469  0.1924  0.0821 -0.0715
  883MPD2    C512949   0.386   2.796  16.385  0.1656  0.2208 -0.2400
  883MPD2     H12950   0.396   3.147  16.254 -0.6313  0.6119  1.5229
  883MPD2    H112951   0.439   2.877  16.572 -0.0910 -4.3116 -0.9600
  883MPD2    H212952   0.346   2.732  16.188 -2.0744  0.0830  0.0556
  883MPD2    H312953   0.382   2.693  16.421 -1.0284 -0.4606 -2.3302
  883MPD2     N12954   0.502   3.131  16.498 -0.3110 -0.0270 -0.0348
  883MPD2    H512955   0.506   3.219  16.448 -1.0205 -0.2836 -0.5439
  883MPD2    N112956   0.300   2.973  16.086  0.6445 -0.0453  0.3488
  883MPD2    H712957   0.306   3.068  16.052 -3.7932  0.2029  0.2441
  884MPD2     C12958   2.041   3.620  15.432  0.7694 -0.2670  0.0307
  884MPD2    C112959   2.011   3.686  15.315  0.2926  0.5479 -0.6769
  884MPD2    C212960   1.906   3.779  15.319 -0.4310 -0.1192  0.0005
  884MPD2    C312961   1.831   3.800  15.433  0.2257  0.7387  0.4774
  884MPD2    C412962   1.849   3.723  15.541 -0.3011 -0.2575 -0.4374
  884MPD2    C512963   1.958   3.641  15.537 -0.0483  0.3236  0.3027
  884MPD2     H12964   1.877   3.833  15.230  4.6397  0.4306 -1.3246
  884MPD2    H112965   1.796   3.726  15.635 -1.5273  0.0618 -1.1337
  884MPD2    H212966   2.129   3.560  15.451 -1.0270 -3.3368 -1.3072
  884MPD2    H312967   1.979   3.586  15.629 -1.1408  0.8853  0.8834
  884MPD2     N12968   1.738   3.903  15.429  0.8276  0.3789  0.1810
  884MPD2    H512969   1.728   3.950  15.340 -1.2724 -1.2138 -0.4460
  884MPD2    N112970   2.090   3.683  15.197  0.2897 -0.1618  0.5361
  884MPD2    H712971   2.059   3.735  15.116 -0.4234  0.3469  1.1425
  885MPD2     C12972   0.186   3.356   0.294 -0.7100  0.0402 -0.3305
  885MPD2    C112973   0.224   3.474   0.350  0.1328  0.0501 -0.5477
  885MPD2    C212974   0.239   3.593   0.280 -0.3664  0.7394 -0.2639
  885MPD2    C312975   0.199   3.600   0.149  0.2532  0.0331 -0.3236
  885MPD2    C412976   0.144   3.482   0.091  0.0050 -0.5373 -0.8343
  885MPD2    C512977   0.145   3.362   0.159  0.7050  0.2677 -0.1105
  885MPD2     H12978   0.283   3.683   0.321 -1.7250  1.5104 -0.5204
  885MPD2    H112979   0.100   3.489  17.691  0.5416 -3.3041 -1.2838
  885MPD2    H212980   0.183   3.256   0.338 -1.7924 -0.3395 -1.2633
  885MPD2    H312981   0.101   3.280   0.104 -0.8742  1.1409 -0.1738
  885MPD2     N12982   0.219   3.718   0.080 -0.2229 -0.5443  0.9680
  885MPD2    H512983   0.259   3.798   0.129 -2.9736  1.5683 -0.2022
  885MPD2    N112984   0.267   3.450   0.485  0.0253 -0.1033 -0.2465
  885MPD2    H712985   0.275   3.357   0.526  1.6843 -0.0336 -0.4123
  886MPD2     C12986   2.048   2.507  15.933  0.0410 -0.0837 -0.0364
  886MPD2    C112987   2.026   2.464  15.803  0.4465  0.2406 -0.4783
  886MPD2    C212988   1.983   2.557  15.708 -0.7492 -0.3132 -0.1498
  886MPD2    C312989   1.995   2.690  15.728  0.8535 -0.0672 -0.1204
  886MPD2    C412990   2.031   2.733  15.852  0.6526  0.1173  0.5488
  886MPD2    C512991   2.053   2.640  15.960  0.0688  0.7192 -0.0209
  886MPD2     H12992   1.962   2.522  15.608 -0.3024  1.7754 -0.9819
  886MPD2    H112993   2.046   2.838  15.874 -0.0333  0.5525 -1.1320
  886MPD2    H212994   2.079   2.436  16.008 -0.2168 -0.3443 -0.1720
  886MPD2    H312995   2.087   2.678  16.055 -0.6170 -0.2857  0.6234
  886MPD2     N12996   1.979   2.785  15.627 -0.5048 -0.1913 -0.7331
  886MPD2    H512997   2.022   2.876  15.641  0.8692 -0.5098 -2.8943
  886MPD2    N112998   2.044   2.330  15.755  0.5066  0.0220 -0.4593
  886MPD2    H712999   2.011   2.318  15.660  1.4942  0.7661 -0.8991
  887MPD2     C13000   2.488   2.303  15.251 -0.5039  0.3092 -0.8610
  887MPD2    C113001   2.455   2.319  15.381  0.4228 -0.9913 -0.8384
  887MPD2    C213002   2.494   2.434  15.445 -0.2230 -0.4664  0.1391
  887MPD2    C313003   2.571   2.529  15.380  0.0877  0.1705  0.4323
  887MPD2    C413004   2.603   2.514  15.245  0.2365 -0.0893 -0.8234
  887MPD2    C513005   2.564   2.397  15.182  0.1240 -0.0813  0.1992
  887MPD2     H13006   2.472   2.448  15.550 -0.0494  0.2244  0.0837
  887MPD2    H113007   2.655   2.585  15.181 -1.4793  0.5368 -1.5098
  887MPD2    H213008   2.462   2.214  15.195  0.7156 -0.4944 -0.1380
  887MPD2    H313009   2.574   2.387  15.074 -0.5961  0.2906  0.0951
  887MPD2     N13010   2.586   2.646  15.452  0.3091 -0.3928 -0.2102
  887MPD2    H513011   2.545   2.650  15.544  0.1687 -0.9296 -0.2466
  887MPD2    N113012   2.369   2.232  15.451  0.2735  0.4186  0.5383
  887MPD2    H713013   2.342   2.252  15.547 -1.4364  1.2194 -0.0990
  888MPD2     C13014   4.242   2.920  14.655  1.2096 -0.2180  0.5029
  888MPD2    C113015   4.285   2.971  14.781 -0.1207 -0.0857 -0.2752
  888MPD2    C213016   4.332   3.100  14.791 -0.1261  0.5989  0.5811
  888MPD2    C313017   4.360   3.169  14.674  0.1224  0.7738  0.9564
  888MPD2    C413018   4.327   3.114  14.551  0.0499 -0.4303 -0.5936
  888MPD2    C513019   4.267   2.997  14.541  0.3099 -0.4392  0.1044
  888MPD2     H13020   4.346   3.150  14.886 -0.9486  0.0079  1.0180
  888MPD2    H113021   4.344   3.168  14.458 -1.2396  2.9782  1.1419
  888MPD2    H213022   4.204   2.821  14.633  2.0586 -0.2167 -0.9271
  888MPD2    H313023   4.230   2.960  14.446  0.7212  2.3032 -1.1103
  888MPD2     N13024   4.416   3.294  14.692  0.3883 -0.3118 -0.6237
  888MPD2    H513025   4.454   3.321  14.783 -0.1331 -2.7797  0.3324
  888MPD2    N113026   4.274   2.895  14.896 -0.0668 -0.0441  0.8378
  888MPD2    H713027   4.304   2.940  14.981  3.0193  0.7122 -0.6378
  889MPD2     C13028   4.059   2.546  13.118  0.4179 -0.1623  0.4249
  889MPD2    C113029   3.992   2.487  13.225 -0.6941 -0.0629  0.2639
  889MPD2    C213030   3.899   2.564  13.284 -0.1731  0.1749  0.0927
  889MPD2    C313031   3.860   2.688  13.229  0.9405  0.8278  0.6114
  889MPD2    C413032   3.917   2.728  13.113 -0.4902  0.2700  0.0848
  889MPD2    C513033   4.008   2.652  13.052 -0.8167 -0.2808 -0.0898
  889MPD2     H13034   3.833   2.521  13.358 -2.9673  1.2563 -1.7522
  889MPD2    H113035   3.865   2.802  13.054  0.2871 -1.5503 -2.8623
  889MPD2    H213036   4.128   2.482  13.065  0.2683  0.5195 -0.5741
  889MPD2    H313037   4.042   2.673  12.952  0.0715 -0.5583  0.1555
  889MPD2     N13038   3.754   2.748  13.294  0.7609  0.7226 -0.2843
  889MPD2    H513039   3.713   2.694  13.369  0.8644 -1.0050 -1.4713
  889MPD2    N113040   4.044   2.372  13.289 -0.8770  0.1941 -0.2860
  889MPD2    H713041   3.983   2.344  13.365 -1.4330  1.7174 -0.1618
  890MPD2     C13042   2.782   4.529  15.451 -0.1685  0.3561 -0.1769
  890MPD2    C113043   2.892   4.486  15.375  0.0455  1.1262  0.4971
  890MPD2    C213044   2.946   4.365  15.410 -0.0600  0.5545  0.6042
  890MPD2    C313045   2.905   4.295  15.518 -0.1082 -0.2171 -0.2454
  890MPD2    C413046   2.791   4.336  15.584  0.0514  0.0265 -0.2084
  890MPD2    C513047   2.731   4.457  15.554  0.2099  0.2923 -0.6327
  890MPD2     H13048   3.028   4.327  15.351 -3.2238 -0.4868 -3.1101
  890MPD2    H113049   2.742   4.269  15.655  1.2357 -1.9054 -1.2117
  890MPD2    H213050   2.744   4.629  15.430  1.1218  1.1852  1.3875
  890MPD2    H313051   2.634   4.489  15.592  0.1432  1.0761 -1.4687
  890MPD2     N13052   2.975   4.177  15.540 -0.0954 -0.7117  0.4011
  890MPD2    H513053   3.051   4.149  15.479  1.9796  1.1348  2.1226
  890MPD2    N113054   2.955   4.574  15.292 -0.5166  0.1419  0.1229
  890MPD2    H713055   2.915   4.667  15.292 -0.6935  0.0678 -0.2095
  891MPD2     C13056   1.534   2.483  16.852  0.3183  0.0255 -0.4162
  891MPD2    C113057   1.438   2.414  16.926 -0.2230  0.4663  0.2619
  891MPD2    C213058   1.469   2.314  17.020  0.2831 -0.5154 -0.6301
  891MPD2    C313059   1.604   2.278  17.039  0.1181 -0.0598  0.7480
  891MPD2    C413060   1.694   2.356  16.967 -0.0472 -0.4743 -0.1724
  891MPD2    C513061   1.662   2.449  16.874 -0.3450  0.8281 -0.0604
  891MPD2     H13062   1.393   2.259  17.075 -1.4462  2.0641 -0.4119
  891MPD2    H113063   1.800   2.342  16.981  0.4236  1.4335 -1.7850
  891MPD2    H213064   1.507   2.556  16.776  1.0013  0.8029  0.0853
  891MPD2    H313065   1.744   2.503  16.828 -0.2627 -0.2663 -1.2245
  891MPD2     N13066   1.658   2.178  17.135 -0.8044 -0.2187 -0.3553
  891MPD2    H513067   1.594   2.140  17.205  0.3007 -1.2710  0.0836
  891MPD2    N113068   1.300   2.453  16.895  0.7088  0.2708 -0.6782
  891MPD2    H713069   1.287   2.527  16.827 -1.0987 -1.0225 -1.7138
  892MPD2     C13070   2.194   3.231  15.245 -0.6858  0.1495 -0.2959
  892MPD2    C113071   2.128   3.243  15.125  0.3480  0.5315  0.0239
  892MPD2    C213072   2.200   3.217  15.007 -0.4621 -0.2336 -0.2050
  892MPD2    C313073   2.332   3.189  15.005 -0.3184 -0.1502 -0.5582
  892MPD2    C413074   2.401   3.189  15.124  0.2774  0.0658  0.3838
  892MPD2    C513075   2.334   3.210  15.243  0.8753  0.0059 -0.5372
  892MPD2     H13076   2.161   3.249  14.911 -0.9202  1.1084  0.4345
  892MPD2    H113077   2.509   3.178  15.127  0.2931 -0.4198 -2.2658
  892MPD2    H213078   2.144   3.253  15.339  1.7721 -2.4941  1.6519
  892MPD2    H313079   2.386   3.193  15.336  0.4218  0.9991 -0.1079
  892MPD2     N13080   2.403   3.173  14.878 -0.0406  0.5191 -0.0558
  892MPD2    H513081   2.505   3.180  14.873  0.3523 -2.9209  3.3682
  892MPD2    N113082   1.994   3.281  15.112 -0.7599 -0.8367 -0.2064
  892MPD2    H713083   1.950   3.283  15.021 -0.1993 -1.2264 -0.4898
  893MPD2     C13084   0.032   1.877   2.140  0.7678  0.5037  0.3692
  893MPD2    C113085   0.147   1.883   2.064 -0.0755  0.4407 -0.8211
  893MPD2    C213086   0.156   1.790   1.956 -0.2888 -0.3359  1.4020
  893MPD2    C313087   0.058   1.693   1.938  0.0205 -0.4478  0.5420
  893MPD2    C413088   4.671   1.694   2.017  0.7409  0.1667  0.7506
  893MPD2    C513089   4.654   1.786   2.118 -0.9066  0.1877 -0.4650
  893MPD2     H13090   0.238   1.792   1.885 -1.8838 -1.3576 -0.4827
  893MPD2    H113091   4.592   1.624   1.991  0.9507  1.0097 -2.0696
  893MPD2    H213092   0.015   1.953   2.216  2.0916  0.5394  0.6354
  893MPD2    H313093   4.565   1.787   2.180 -1.2882 -1.0523 -0.9870
  893MPD2     N13094   0.062   1.587   1.847  0.1871  0.5920 -0.0969
  893MPD2    H513095   4.707   1.523   1.846  1.3085 -0.7975  0.3286
  893MPD2    N113096   0.242   1.987   2.076  0.3136 -0.6943  0.3241
  893MPD2    H713097   0.225   2.055   2.150 -1.7578 -2.6943  1.7101
  894MPD2     C13098   1.226   4.282   0.658 -0.0697 -0.5577 -0.3610
  894MPD2    C113099   1.278   4.213   0.765  0.1672 -0.2425  0.6474
  894MPD2    C213100   1.414   4.212   0.790  0.0172  0.1902  0.0684
  894MPD2    C313101   1.508   4.274   0.713 -0.4112  0.0627  0.0673
  894MPD2    C413102   1.453   4.362   0.613  0.8955 -0.2730  0.0511
  894MPD2    C513103   1.320   4.354   0.584 -0.0220  0.3401  0.0598
  894MPD2     H13104   1.448   4.158   0.878  1.6945 -2.8091 -2.4111
  894MPD2    H113105   1.514   4.424   0.549 -1.3654  1.5472 -0.3209
  894MPD2    H213106   1.121   4.293   0.633 -0.1606 -0.7598 -0.0624
  894MPD2    H313107   1.292   4.418   0.502  1.5589 -0.4874 -1.1115
  894MPD2     N13108   1.640   4.247   0.741  0.4587  0.3880  0.2999
  894MPD2    H513109   1.642   4.198   0.829  1.3804 -0.1364 -0.0094
  894MPD2    N113110   1.197   4.145   0.859  0.4772 -0.4552  0.1390
  894MPD2    H713111   1.103   4.120   0.829  0.8276  0.2697 -1.5889
  895MPD2     C13112   1.211   2.953  13.833 -0.1120  0.1751  0.4121
  895MPD2    C113113   1.208   2.941  13.692  0.5094  0.0465  0.7085
  895MPD2    C213114   1.328   2.919  13.623 -1.1937 -0.0617 -0.0031
  895MPD2    C313115   1.447   2.921  13.683  0.4439  0.7543 -0.5658
  895MPD2    C413116   1.445   2.934  13.825 -0.1808 -0.2671  0.3443
  895MPD2    C513117   1.326   2.944  13.897 -0.9723 -0.4046 -0.0006
  895MPD2     H13118   1.324   2.925  13.515  1.1081 -4.0079 -0.3205
  895MPD2    H113119   1.538   2.947  13.878  0.0071 -3.1392  0.6962
  895MPD2    H213120   1.116   2.970  13.882 -0.2132 -0.7940  0.5524
  895MPD2    H313121   1.328   2.966  14.003  0.4926 -0.1246 -0.0897
  895MPD2     N13122   1.557   2.905  13.598 -0.5858 -0.4865 -0.3903
  895MPD2    H513123   1.528   2.868  13.508  1.4887  0.0693 -1.3018
  895MPD2    N113124   1.092   2.938  13.614  0.3335 -0.1584 -0.5001
  895MPD2    H713125   1.114   2.927  13.516  0.1713 -0.4282 -0.5059
  896MPD2     C13126   3.359   0.090   1.198  0.2852 -0.2133 -0.2151
  896MPD2    C113127   3.353   4.702   1.114 -0.4797 -0.9917 -0.0160
  896MPD2    C213128   3.227   4.672   1.075 -0.3168 -0.0279  0.0585
  896MPD2    C313129   3.115   0.025   1.097  0.2787  0.7497 -0.0170
  896MPD2    C413130   3.126   0.139   1.176  0.6366  0.4392 -0.2800
  896MPD2    C513131   3.250   0.169   1.226  0.0026 -0.3429 -0.0030
  896MPD2     H13132   3.213   4.584   1.014  1.0610 -0.7488  0.7887
  896MPD2    H113133   3.042   0.203   1.200  1.2407  1.4318 -0.7996
  896MPD2    H213134   3.454   0.120   1.239  0.2483 -0.0660 -0.2398
  896MPD2    H313135   3.266   0.253   1.292 -3.2852 -0.1325  0.5498
  896MPD2     N13136   2.991   4.698   1.055  0.1323  0.1847  0.5858
  896MPD2    H513137   2.991   4.610   1.006 -0.2438  0.1793  0.5910
  896MPD2    N113138   3.474   4.633   1.073  0.1529  0.2504  0.1930
  896MPD2    H713139   3.561   4.673   1.108  1.1744 -1.1118 -0.7918
  897MPD2     C13140   0.754   1.672  10.882  0.4396 -0.5649 -0.4536
  897MPD2    C113141   0.722   1.693  10.753  0.1829  0.6490 -0.1714
  897MPD2    C213142   0.595   1.658  10.699  0.5320 -0.4680  0.0945
  897MPD2    C313143   0.496   1.615  10.782  0.5661 -0.0782 -0.0693
  897MPD2    C413144   0.525   1.597  10.914  0.6881 -0.1301 -0.2961
  897MPD2    C513145   0.648   1.629  10.961 -0.6820  0.7898 -0.4280
  897MPD2     H13146   0.564   1.695  10.602 -0.9116 -2.9867 -0.3896
  897MPD2    H113147   0.445   1.566  10.980  0.8461 -2.7224 -1.3118
  897MPD2    H213148   0.844   1.701  10.935 -1.1513 -0.7527  2.3332
  897MPD2    H313149   0.658   1.624  11.069  0.5391 -0.4618 -0.6005
  897MPD2     N13150   0.361   1.633  10.748 -0.5581 -0.0620  0.6375
  897MPD2    H513151   0.303   1.643  10.831 -3.0478 -1.4483 -0.9461
  897MPD2    N113152   0.820   1.753  10.671 -0.5404  0.3105  0.0669
  897MPD2    H713153   0.908   1.772  10.718 -0.8972  0.1335  0.8017
  898MPD2     C13154   2.078   2.273   0.054  0.3691  0.7490 -0.2001
  898MPD2    C113155   2.191   2.316  17.682  0.8432  0.5482  0.0465
  898MPD2    C213156   2.171   2.426  17.604  0.1709 -0.2129 -1.0978
  898MPD2    C313157   2.052   2.502  17.613  0.3621 -0.1764 -0.3189
  898MPD2    C413158   1.953   2.463   0.004 -0.4870 -0.1258 -0.3610
  898MPD2    C513159   1.961   2.343   0.058  0.1087 -0.1567 -0.0294
  898MPD2     H13160   2.245   2.462  17.533 -0.0132  1.8160 -0.2502
  898MPD2    H113161   1.860   2.519   0.010 -1.1656 -1.2717 -0.3510
  898MPD2    H213162   2.092   2.187   0.118 -1.5678 -0.6363 -1.6301
  898MPD2    H313163   1.889   2.311   0.133 -0.5458  0.3623 -0.4333
  898MPD2     N13164   2.038   2.622  17.536  0.3246 -0.5481 -0.9228
  898MPD2    H513165   2.110   2.637  17.465 -1.0754  0.2815 -2.1574
  898MPD2    N113166   2.320   2.274   0.001  0.1813 -0.1983  0.1444
  898MPD2    H713167   2.389   2.328  17.648  1.6416 -0.5372  1.7343
  899MPD2     C13168   2.977   3.643  17.502 -0.3086 -0.0257  0.2333
  899MPD2    C113169   2.857   3.709  17.473  0.0801 -0.3287  0.3978
  899MPD2    C213170   2.745   3.651  17.533  0.1998 -0.2031 -0.0833
  899MPD2    C313171   2.763   3.543  17.623 -0.0947  0.7107 -0.3452
  899MPD2    C413172   2.880   3.476  17.643  0.3560 -0.1941  0.4091
  899MPD2    C513173   2.984   3.530  17.581  0.0925 -0.4101  0.3884
  899MPD2     H13174   2.656   3.712  17.538  0.7044  0.4894  0.5148
  899MPD2    H113175   2.884   3.399   0.019 -1.8496 -0.5633  0.1616
  899MPD2    H213176   3.072   3.685  17.472 -0.5029 -1.5784 -2.4797
  899MPD2    H313177   3.079   3.484  17.605  1.2716  2.0224  0.4045
  899MPD2     N13178   2.655   3.506   0.011 -0.7287  0.0091  0.7039
  899MPD2    H513179   2.679   3.447   0.090 -2.4697 -1.8806 -0.1746
  899MPD2    N113180   2.847   3.825  17.387  0.4774 -0.4777  0.8419
  899MPD2    H713181   2.928   3.882  17.366  0.6608 -0.8365  0.5708
  900MPD2     C13182   3.180   0.845  12.261 -0.7069 -0.4601  0.2360
  900MPD2    C113183   3.071   0.774  12.314  0.2335 -0.4689 -0.4357
  900MPD2    C213184   2.943   0.801  12.259  0.4269  0.7269 -0.1875
  900MPD2    C313185   2.929   0.892  12.158  0.5369 -0.2615  0.3470
  900MPD2    C413186   3.040   0.947  12.092 -0.7567 -0.4885  0.7549
  900MPD2    C513187   3.166   0.923  12.147  0.6939 -0.4118  0.0340
  900MPD2     H13188   2.858   0.747  12.298 -0.6683  2.1638 -0.5590
  900MPD2    H113189   3.039   1.002  11.998 -0.7460 -1.0391  0.4331
  900MPD2    H213190   3.282   0.831  12.292 -0.6769  1.4949  1.0010
  900MPD2    H313191   3.253   0.960  12.095 -0.6213 -0.3664 -2.1097
  900MPD2     N13192   2.797   0.917  12.111 -0.5157 -0.0546 -0.1172
  900MPD2    H513193   2.724   0.874  12.166  0.3636  0.7490  1.6714
  900MPD2    N113194   3.089   0.685  12.425 -0.3546 -0.1885 -0.2707
  900MPD2    H713195   3.182   0.668  12.462 -0.3811 -2.4638 -1.2117
  901MPD2     C13196   2.781   4.572  13.077 -0.0288  0.1043 -0.1480
  901MPD2    C113197   2.874   4.533  12.988 -0.3784  0.4518  0.1077
  901MPD2    C213198   2.939   4.626  12.909 -0.9492  0.2235 -0.7909
  901MPD2    C313199   2.898   0.032  12.910 -0.5781 -0.3575 -0.2282
  901MPD2    C413200   2.811   0.075  13.013  0.9495  0.1482  0.1403
  901MPD2    C513201   2.747   4.705  13.087  0.0782 -0.3465 -0.5071
  901MPD2     H13202   3.014   4.596  12.837  1.2235  1.3481  0.9954
  901MPD2    H113203   2.794   0.181  13.023 -1.1399 -0.0552 -1.2706
  901MPD2    H213204   2.737   4.502  13.148 -1.3223  0.6759 -0.3830
  901MPD2    H313205   2.682   0.018  13.164  0.2531  0.9181 -0.9812
  901MPD2     N13206   2.954   0.117  12.809 -0.1560 -0.2846 -0.0333
  901MPD2    H513207   3.025   0.074  12.750 -0.5973 -0.9984 -0.0431
  901MPD2    N113208   2.896   4.393  12.978  0.3514  0.0911  0.0172
  901MPD2    H713209   2.839   4.332  13.035 -0.3508  0.5929 -0.1337
  902MPD2     C13210   1.344   2.987  13.000  0.3702  0.0794 -0.9281
  902MPD2    C113211   1.362   3.059  12.888 -0.1493  0.0902  0.1638
  902MPD2    C213212   1.435   3.006  12.780 -0.2671 -0.3618  0.0559
  902MPD2    C313213   1.499   2.888  12.797  0.1444  0.0740  0.2168
  902MPD2    C413214   1.483   2.818  12.913 -0.1751  0.4282 -0.3631
  902MPD2    C513215   1.411   2.866  13.020 -0.1280  0.4185  0.0983
  902MPD2     H13216   1.444   3.069  12.692 -0.3484 -0.2706  0.1133
  902MPD2    H113217   1.519   2.716  12.918 -1.8426 -0.0849  1.3498
  902MPD2    H213218   1.301   3.028  13.090 -0.4473  1.2083 -1.8425
  902MPD2    H313219   1.404   2.809  13.112  0.8093 -0.2429 -0.2411
  902MPD2     N13220   1.583   2.829  12.696  0.3028  0.4271  0.3128
  902MPD2    H513221   1.630   2.742  12.720  0.2987  0.5351  0.7107
  902MPD2    N113222   1.309   3.190  12.891 -0.0961  0.0282 -0.0119
  902MPD2    H713223   1.253   3.212  12.972 -1.3345  0.2908 -0.9296
  903MPD2     C13224   1.839   2.907  11.871  0.1327 -0.8284 -0.1527
  903MPD2    C113225   1.748   2.926  11.967 -0.8868 -0.2967 -0.1018
  903MPD2    C213226   1.623   2.958  11.929  0.1138  0.0148 -0.8697
  903MPD2    C313227   1.579   2.971  11.795  0.3362 -0.4313  0.3817
  903MPD2    C413228   1.678   2.973  11.696  0.4082  0.6622  0.3639
  903MPD2    C513229   1.804   2.943  11.739  0.1713  0.4395 -0.1192
  903MPD2     H13230   1.548   2.961  12.008  0.0015 -1.1036 -0.9262
  903MPD2    H113231   1.657   3.001  11.594  0.5184  3.2381  1.0535
  903MPD2    H213232   1.937   2.867  11.890 -0.5573 -2.8921 -0.9236
  903MPD2    H313233   1.879   2.928  11.662  1.1620  1.9352  0.5698
  903MPD2     N13234   1.442   2.992  11.769  0.0207 -0.5938 -0.4045
  903MPD2    H513235   1.378   2.983  11.847 -0.9621 -1.1375 -1.2815
  903MPD2    N113236   1.756   2.887  12.103 -0.0195  0.3029 -0.2217
  903MPD2    H713237   1.692   2.924  12.172 -0.1079  0.2964 -0.3011
  904MPD2     C13238   1.393   2.359  13.562 -0.0366  0.1859 -0.1014
  904MPD2    C113239   1.411   2.273  13.664  0.4543 -0.0542  0.0324
  904MPD2    C213240   1.506   2.301  13.752 -0.1645 -0.1368 -0.7266
  904MPD2    C313241   1.569   2.420  13.759  0.1143  0.3723 -0.3854
  904MPD2    C413242   1.535   2.513  13.672 -0.1360  0.3454  0.4734
  904MPD2    C513243   1.454   2.481  13.563 -0.4357 -0.8089  0.2312
  904MPD2     H13244   1.534   2.233  13.831 -1.8584  0.7610  0.6627
  904MPD2    H113245   1.582   2.611  13.670 -0.0658  0.2883 -0.6902
  904MPD2    H213246   1.339   2.337  13.470 -2.4607 -0.4029  1.4723
  904MPD2    H313247   1.430   2.547  13.480 -2.8085 -3.5517 -1.2416
  904MPD2     N13248   1.668   2.436  13.859 -0.2069 -0.1011 -0.3222
  904MPD2    H513249   1.687   2.356  13.919  1.6070 -0.8543 -1.9129
  904MPD2    N113250   1.329   2.160  13.684  0.0888 -0.3035 -0.0328
  904MPD2    H713251   1.373   2.092  13.745 -1.6093 -0.4615  1.0146
  905MPD2     C13252   1.293   2.350  13.078  0.1345 -0.5194  0.4442
  905MPD2    C113253   1.260   2.436  13.179  0.6050 -0.8114  0.6527
  905MPD2    C213254   1.356   2.536  13.210  0.3835 -0.0298 -0.3639
  905MPD2    C313255   1.480   2.531  13.152  0.6414  1.0517 -0.0425
  905MPD2    C413256   1.516   2.438  13.058  0.1094 -0.2127 -0.2816
  905MPD2    C513257   1.417   2.352  13.018 -0.1541 -0.0053  0.0578
  905MPD2     H13258   1.333   2.604  13.291  1.2497  0.3437 -0.4314
  905MPD2    H113259   1.606   2.443  12.998  1.2594  0.0584  1.4822
  905MPD2    H213260   1.231   2.263  13.060  0.2896 -0.0338 -2.3407
  905MPD2    H313261   1.436   2.291  12.931 -1.4127  0.4099 -0.4934
  905MPD2     N13262   1.584   2.614  13.183 -0.8424  0.0885 -0.1492
  905MPD2    H513263   1.675   2.592  13.143  0.6553  1.5297  2.5101
  905MPD2    N113264   1.143   2.412  13.254 -0.1231 -0.4181 -0.5432
  905MPD2    H713265   1.088   2.329  13.234 -0.0370 -0.5317 -0.3076
  906MPD2     C13266   3.981   2.170  11.190 -0.2685  1.2478  0.5565
  906MPD2    C113267   3.906   2.078  11.124  0.2515 -0.0926 -0.2857
  906MPD2    C213268   3.814   2.007  11.200  0.4942 -0.3614  0.6142
  906MPD2    C313269   3.787   2.032  11.332  0.0075 -0.2020  0.2169
  906MPD2    C413270   3.864   2.127  11.390  0.2741 -0.2460 -0.0776
  906MPD2    C513271   3.957   2.191  11.322 -0.1684  0.0078  0.1448
  906MPD2     H13272   3.757   1.929  11.151 -1.4402  1.3525  0.1463
  906MPD2    H113273   3.854   2.157  11.494  1.3298  3.1076 -0.9544
  906MPD2    H213274   4.053   2.227  11.133 -0.9416 -0.8440 -2.4084
  906MPD2    H313275   4.011   2.269  11.374  0.3415  1.2444 -2.2439
  906MPD2     N13276   3.685   1.955  11.387  0.7814 -0.0918 -0.7425
  906MPD2    H513277   3.624   1.900  11.327 -0.1382  2.5350 -2.2314
  906MPD2    N113278   3.911   2.049  10.986  0.3737 -0.0996 -0.3739
  906MPD2    H713279   3.855   1.969  10.958  0.3894 -0.1523 -0.2556
  907MPD2     C13280   2.499   1.397  15.435 -0.6226 -0.3862 -0.1931
  907MPD2    C113281   2.549   1.271  15.456  0.3528  0.0686  0.6684
  907MPD2    C213282   2.624   1.247  15.567 -0.8997 -0.0138 -0.0601
  907MPD2    C313283   2.640   1.336  15.667  0.2263 -0.2658  0.0376
  907MPD2    C413284   2.582   1.462  15.640 -0.2166  0.1851 -0.3922
  907MPD2    C513285   2.511   1.492  15.527  0.8556 -0.5816 -0.4409
  907MPD2     H13286   2.651   1.143  15.586 -2.1796 -0.3065  0.1287
  907MPD2    H113287   2.594   1.545  15.708  0.3839  0.5159 -0.8922
  907MPD2    H213288   2.449   1.421  15.342 -1.0535  1.2956  0.4746
  907MPD2    H313289   2.474   1.593  15.517 -0.1960 -1.1774 -2.5399
  907MPD2     N13290   2.710   1.301  15.786 -0.1395  0.5691 -0.0433
  907MPD2    H513291   2.727   1.201  15.790  0.6766  0.6328 -2.0015
  907MPD2    N113292   2.519   1.162  15.370  0.4580 -0.0651 -0.9580
  907MPD2    H713293   2.546   1.069  15.400 -0.2676  0.2005  0.4954
  908MPD2     C13294   1.424   1.573   9.956  0.3286 -0.2335  0.5143
  908MPD2    C113295   1.349   1.503  10.044 -0.4211  0.6214  0.2114
  908MPD2    C213296   1.250   1.570  10.112  0.1155  0.5794 -0.1794
  908MPD2    C313297   1.222   1.699  10.090 -0.6623  0.1899 -0.1327
  908MPD2    C413298   1.299   1.769  10.000 -0.1007  0.1329 -0.8634
  908MPD2    C513299   1.398   1.708   9.931  0.0032 -0.4682  0.3969
  908MPD2     H13300   1.196   1.517  10.191  0.6732  0.9182  0.4260
  908MPD2    H113301   1.297   1.877   9.985  0.2627  0.3613  0.7585
  908MPD2    H213302   1.501   1.527   9.895  0.8376 -0.0999  1.0532
  908MPD2    H313303   1.468   1.756   9.864 -1.2729 -1.3320 -1.5459
  908MPD2     N13304   1.136   1.773  10.176 -0.3909 -0.4650 -0.3601
  908MPD2    H513305   1.094   1.720  10.252  0.3210  1.8737  1.6603
  908MPD2    N113306   1.373   1.364  10.069  0.4191 -0.1092  0.0846
  908MPD2    H713307   1.298   1.314  10.115 -2.8324  2.0101 -2.8975
  909MPD2     C13308   0.726   4.595  12.322  0.5226  0.1415 -0.0967
  909MPD2    C113309   0.725   4.691  12.225 -0.2840 -0.0168  0.3883
  909MPD2    C213310   0.643   0.076  12.249 -0.4583 -0.0282 -0.4465
  909MPD2    C313311   0.558   0.092  12.352 -0.0271  0.3014  0.3085
  909MPD2    C413312   0.558   4.713  12.445  0.0192  0.8999 -0.0882
  909MPD2    C513313   0.637   4.607  12.429 -0.7213 -0.4673  0.1742
  909MPD2     H13314   0.643   0.158  12.177  1.1184 -1.1288 -1.6934
  909MPD2    H113315   0.484   4.699  12.523  0.3117 -1.9218 -0.3134
  909MPD2    H213316   0.779   4.501  12.307  0.1636  0.1288 -1.2380
  909MPD2    H313317   0.630   4.526  12.501 -2.7951  0.1156  0.6025
  909MPD2     N13318   0.466   0.200  12.354 -0.5098  0.3352  0.4068
  909MPD2    H513319   0.468   0.268  12.279 -0.3409  0.3020  0.3805
  909MPD2    N113320   0.813   4.691  12.113  0.2188  0.3666 -0.5804
  909MPD2    H713321   0.818   0.049  12.054 -1.1602  0.5312 -0.4677
  910MPD2     C13322   1.565   1.877  16.150  1.1472  0.4384  0.2820
  910MPD2    C113323   1.653   1.854  16.049  0.2014  0.3548 -0.1532
  910MPD2    C213324   1.606   1.893  15.921  0.3361  0.3551 -0.1269
  910MPD2    C313325   1.483   1.960  15.897  0.4701  0.2104 -0.5353
  910MPD2    C413326   1.398   1.970  16.000  0.4359  0.0935 -0.7762
  910MPD2    C513327   1.443   1.933  16.124  0.1022 -0.1069  0.1444
  910MPD2     H13328   1.673   1.869  15.839  2.6218 -2.5596  2.6171
  910MPD2    H113329   1.305   2.023  15.983  0.4751 -0.5564 -3.0171
  910MPD2    H213330   1.579   1.840  16.251  2.6872  2.3423  0.7532
  910MPD2    H313331   1.377   1.957  16.207 -1.1590 -0.6536 -0.6934
  910MPD2     N13332   1.440   2.023  15.772  0.4642  0.1028  0.1215
  910MPD2    H513333   1.350   2.070  15.771  0.1721 -0.4849 -0.8042
  910MPD2    N113334   1.783   1.798  16.067 -0.2518  0.2630 -0.8120
  910MPD2    H713335   1.831   1.779  15.980  1.4986  1.3866 -0.0816
  911MPD2     C13336   4.297   2.387  16.584  0.4379  0.5129 -0.2760
  911MPD2    C113337   4.385   2.379  16.478  0.4243 -1.0070  0.4162
  911MPD2    C213338   4.369   2.479  16.383  0.6848  0.7555 -0.3859
  911MPD2    C313339   4.264   2.567  16.377 -0.2655 -0.8382 -0.6826
  911MPD2    C413340   4.177   2.567  16.487  0.1841  0.4342 -0.6903
  911MPD2    C513341   4.200   2.488  16.598  0.3256  0.6676 -0.6475
  911MPD2     H13342   4.453   2.493  16.315 -0.8153  3.9250 -1.5767
  911MPD2    H113343   4.094   2.635  16.502  0.6927  1.1349 -1.0907
  911MPD2    H213344   4.301   2.307  16.657 -2.5648 -0.1981 -0.8823
  911MPD2    H313345   4.136   2.491  16.685  2.8139 -0.9795  1.2537
  911MPD2     N13346   4.250   2.645  16.263  0.2903 -0.3745  0.1992
  911MPD2    H513347   4.315   2.639  16.185  0.8814  2.4590  0.4597
  911MPD2    N113348   4.496   2.289  16.474  0.2414  0.3679  0.4681
  911MPD2    H713349   4.522   2.245  16.561  0.2069 -0.4529  0.0667
  912MPD2     C13350   4.104   2.305  15.652 -0.0476  0.2047 -0.2472
  912MPD2    C113351   4.101   2.357  15.782  0.3141 -0.3745 -0.0436
  912MPD2    C213352   4.127   2.277  15.893 -0.0140 -0.9100 -0.4956
  912MPD2    C313353   4.168   2.143  15.872 -0.2228  0.1670  0.7693
  912MPD2    C413354   4.174   2.097  15.745  0.3115  0.5078 -0.2040
  912MPD2    C513355   4.151   2.179  15.636  0.0370  0.3254 -0.2260
  912MPD2     H13356   4.132   2.316  15.994  0.0881  0.5913 -1.0703
  912MPD2    H113357   4.201   1.995  15.723 -0.7065  0.1362  0.2332
  912MPD2    H213358   4.065   2.372  15.576 -1.3547  0.9195  1.0513
  912MPD2    H313359   4.164   2.150  15.532 -1.0534  1.2860 -0.6279
  912MPD2     N13360   4.203   2.062  15.986  0.4710 -0.6541 -0.0002
  912MPD2    H513361   4.194   2.105  16.078 -0.3507  3.7369 -2.1886
  912MPD2    N113362   4.055   2.489  15.789  0.1899  0.2221 -0.4160
  912MPD2    H713363   4.041   2.545  15.705 -0.5095 -1.5876 -1.5024
  913MPD2     C13364   0.072   3.238   9.983  0.2557  0.6518  0.0904
  913MPD2    C113365   0.151   3.238  10.096  0.1677  0.4787  1.0141
  913MPD2    C213366   0.262   3.325  10.106  0.6605  0.3148  0.0580
  913MPD2    C313367   0.280   3.412  10.005  0.1553 -0.1889 -0.6057
  913MPD2    C413368   0.202   3.410   9.893 -0.6234 -0.1976  0.3221
  913MPD2    C513369   0.094   3.329   9.886  0.5534 -0.3770  0.1546
  913MPD2     H13370   0.333   3.316  10.187  1.0332  0.6552 -0.2352
  913MPD2    H113371   0.222   3.480   9.812 -1.8456  1.4604  1.4491
  913MPD2    H213372   4.708   3.175   9.978  0.2414  0.7364 -0.8729
  913MPD2    H313373   0.016   3.341   9.812  0.4800  1.3312  0.5084
  913MPD2     N13374   0.399   3.490   9.997 -0.3555 -0.2727 -0.7444
  913MPD2    H513375   0.434   3.528   9.910 -0.3803 -1.4812 -1.2826
  913MPD2    N113376   0.126   3.128  10.185 -0.3236  0.6165  0.0925
  913MPD2    H713377   0.056   3.056  10.173  1.1550 -0.4974 -1.7854
  914MPD2     C13378   2.587   4.305  12.279  0.3530 -0.7125 -0.3092
  914MPD2    C113379   2.668   4.384  12.366  0.0551  0.4937  0.4222
  914MPD2    C213380   2.726   4.323  12.471  0.4843  0.3057 -0.2732
  914MPD2    C313381   2.710   4.192  12.505  0.0293  0.1274 -0.1417
  914MPD2    C413382   2.632   4.112  12.425  0.4828 -0.0912  0.8565
  914MPD2    C513383   2.580   4.171  12.311 -0.2505  0.0665  0.1316
  914MPD2     H13384   2.773   4.380  12.550  0.8450  1.7828 -1.5492
  914MPD2    H113385   2.611   4.007  12.440  1.9678 -0.2950  1.5797
  914MPD2    H213386   2.545   4.342  12.187  0.3332 -0.6081 -0.2581
  914MPD2    H313387   2.516   4.106  12.252 -0.8759  0.0924  0.7875
  914MPD2     N13388   2.766   4.158  12.628 -0.2385  0.2379 -0.6149
  914MPD2    H513389   2.813   4.234  12.677  4.2449 -1.8051 -1.7533
  914MPD2    N113390   2.674   4.522  12.341  0.4015 -0.5276 -0.3257
  914MPD2    H713391   2.617   4.552  12.263 -3.0761 -3.0929  1.1950
  915MPD2     C13392   0.197   3.388  15.539 -0.2496 -0.1312  0.1269
  915MPD2    C113393   0.299   3.473  15.512 -0.7308  0.2402  0.5076
  915MPD2    C213394   0.355   3.551  15.614 -0.4681  0.3250  0.0695
  915MPD2    C313395   0.301   3.550  15.744 -0.2314 -0.7131 -0.1415
  915MPD2    C413396   0.199   3.458  15.767 -0.2369  0.8430 -0.5981
  915MPD2    C513397   0.144   3.382  15.666 -0.3769  0.5742  0.1603
  915MPD2     H13398   0.433   3.623  15.591  0.0407 -0.7838 -1.7181
  915MPD2    H113399   0.160   3.447  15.867  0.0677 -1.0456 -0.6887
  915MPD2    H213400   0.170   3.318  15.461  0.8235 -1.2519  0.7678
  915MPD2    H313401   0.061   3.320  15.697  0.7517 -0.9210  0.1751
  915MPD2     N13402   0.342   3.641  15.847 -0.0011  0.2261  0.4557
  915MPD2    H513403   0.391   3.723  15.813 -0.0654 -0.6539 -1.8263
  915MPD2    N113404   0.355   3.469  15.385 -0.3594 -0.1577 -0.3570
  915MPD2    H713405   0.298   3.414  15.320 -0.6566  0.1160 -0.3297
  916MPD2     C13406   3.787   1.996  15.768 -0.0413  0.3921  0.4960
  916MPD2    C113407   3.781   1.877  15.833  0.5528  0.2253 -0.3030
  916MPD2    C213408   3.830   1.763  15.783 -0.0881  0.7530  0.0501
  916MPD2    C313409   3.887   1.764  15.654  0.5760 -0.3517  0.4796
  916MPD2    C413410   3.893   1.886  15.588 -0.6423  0.1492  0.4843
  916MPD2    C513411   3.839   1.999  15.644  0.5196  0.2351  0.0074
  916MPD2     H13412   3.835   1.669  15.837 -0.3668  0.6189 -0.1619
  916MPD2    H113413   3.941   1.892  15.491 -0.8595 -0.2901  0.3500
  916MPD2    H213414   3.749   2.084  15.818 -0.1573  0.6159  0.0149
  916MPD2    H313415   3.841   2.092  15.588 -0.6674  1.1842  1.5311
  916MPD2     N13416   3.942   1.645  15.606  0.3141 -0.3519  0.2612
  916MPD2    H513417   3.949   1.561  15.662 -0.1698 -0.7296 -0.2381
  916MPD2    N113418   3.728   1.887  15.958 -0.2870 -0.2554  0.4390
  916MPD2    H713419   3.708   1.980  15.993 -1.2902 -0.2208 -0.2433
  917MPD2     C13420   4.453   4.474  11.064 -0.5126 -0.5531 -0.2623
  917MPD2    C113421   4.501   4.506  11.191  0.4758  0.2031 -0.1781
  917MPD2    C213422   4.623   4.559  11.202  0.0022 -0.0146  0.2949
  917MPD2    C313423   4.694   4.588  11.092 -0.0640 -0.1389  0.7041
  917MPD2    C413424   4.653   4.552  10.967 -0.2104  0.1053  0.1918
  917MPD2    C513425   4.530   4.501  10.953 -0.0358  0.3859  0.3575
  917MPD2     H13426   4.665   4.587  11.298  1.0267  0.5044 -0.2999
  917MPD2    H113427   4.722   4.560  10.884  0.5476 -2.3823  0.5798
  917MPD2    H213428   4.359   4.422  11.053 -0.2881 -0.5237 -2.3483
  917MPD2    H313429   4.492   4.479  10.854 -1.5064 -0.7150  1.1825
  917MPD2     N13430   0.084   4.675  11.100  0.2037  0.0604  0.0301
  917MPD2    H513431   0.130   4.700  11.014  0.1051  1.0262  0.2624
  917MPD2    N113432   4.417   4.482  11.306  0.1559 -0.6644 -0.0416
  917MPD2    H713433   4.335   4.428  11.283  0.5225 -1.3238  0.2055
  918MPD2     C13434   4.428   0.185  12.222 -0.6887 -0.0159  0.3418
  918MPD2    C113435   4.521   0.104  12.165  0.7742  0.2279  0.2042
  918MPD2    C213436   4.479   0.039  12.054  0.2198 -0.4790 -0.5338
  918MPD2    C313437   4.352   0.046  12.003 -0.2102  0.5135 -0.0043
  918MPD2    C413438   4.262   0.131  12.061 -0.0549  0.4442  0.0900
  918MPD2    C513439   4.297   0.196  12.175  0.5339 -0.4683  0.7331
  918MPD2     H13440   4.548   4.692  12.009 -1.2995 -2.6083  0.5162
  918MPD2    H113441   4.164   0.149  12.017 -0.2466  0.4032  0.5035
  918MPD2    H213442   4.448   0.240  12.313 -0.1648 -0.3719  0.4379
  918MPD2    H313443   4.231   0.266  12.225 -1.2391  0.9800 -3.7370
  918MPD2     N13444   4.319   4.695  11.887 -0.0511  0.1177  0.3409
  918MPD2    H513445   4.394   4.637  11.852  1.4599  1.1780  1.8203
  918MPD2    N113446   4.636   0.069  12.226  0.4694 -0.5590  0.0258
  918MPD2    H713447   4.694   0.004  12.175 -0.0154 -0.9176 -0.0735
  919MPD2     C13448   0.172   3.481  11.942 -0.0003 -0.2033 -0.3826
  919MPD2    C113449   0.126   3.389  11.857  0.4056 -0.0252 -0.4177
  919MPD2    C213450   0.127   3.422  11.729 -0.3830 -0.3617  0.2266
  919MPD2    C313451   0.172   3.551  11.679 -0.0406  0.2742 -0.2588
  919MPD2    C413452   0.202   3.649  11.770  0.0311 -0.6841  0.0317
  919MPD2    C513453   0.213   3.606  11.896 -0.1108  0.2895  0.3767
  919MPD2     H13454   0.089   3.347  11.661 -1.9024  0.9710 -0.4113
  919MPD2    H113455   0.225   3.753  11.751 -4.9167 -0.0479 -2.7012
  919MPD2    H213456   0.160   3.481  12.050 -0.0863 -0.9475 -0.3960
  919MPD2    H313457   0.244   3.672  11.976  1.2288  1.0695 -0.7973
  919MPD2     N13458   0.165   3.585  11.544 -0.4593 -0.1224  0.1139
  919MPD2    H513459   0.214   3.669  11.515 -3.2942  2.1632  1.9888
  919MPD2    N113460   0.058   3.269  11.902 -0.5373  0.1221 -0.5329
  919MPD2    H713461   0.021   3.208  11.830 -2.4204  0.6717 -0.0300
  920MPD2     C13462   0.550   3.809  10.609  0.3974 -0.0187 -0.4228
  920MPD2    C113463   0.430   3.746  10.590 -0.0556 -0.3767  0.0176
  920MPD2    C213464   0.356   3.713  10.698 -0.1142  0.5837  0.3835
  920MPD2    C313465   0.393   3.731  10.828 -0.1613 -0.5582 -0.0541
  920MPD2    C413466   0.516   3.792  10.848 -0.4402  0.0132  0.0026
  920MPD2    C513467   0.591   3.825  10.738 -0.8592 -0.0447  0.9247
  920MPD2     H13468   0.267   3.659  10.667  1.2151 -0.4902 -1.5685
  920MPD2    H113469   0.569   3.812  10.940 -0.0592  1.0413 -0.4436
  920MPD2    H213470   0.610   3.843  10.526  0.1760 -0.5552 -0.8067
  920MPD2    H313471   0.684   3.879  10.753  0.4702 -1.8743 -0.6002
  920MPD2     N13472   0.321   3.661  10.925 -0.1444 -0.1065 -0.5229
  920MPD2    H513473   0.247   3.606  10.884 -0.7006 -0.8487  1.5205
  920MPD2    N113474   0.361   3.745  10.470 -0.2185 -0.4455  0.2156
  920MPD2    H713475   0.267   3.706  10.474 -0.0145 -1.0361 -0.8419
  921MPD2     C13476   0.425   2.452  16.969  0.5772 -0.0595 -0.1286
  921MPD2    C113477   0.488   2.359  16.880 -0.3533  0.7756 -0.1849
  921MPD2    C213478   0.404   2.286  16.793  0.1459  0.5309  0.3738
  921MPD2    C313479   0.267   2.286  16.816 -0.4129 -0.3422  1.1811
  921MPD2    C413480   0.209   2.357  16.916  0.2580  0.8067 -0.1954
  921MPD2    C513481   0.288   2.434  16.991 -0.2695 -0.2206 -0.1732
  921MPD2     H13482   0.454   2.222  16.721 -1.5200 -1.4329  0.9614
  921MPD2    H113483   0.101   2.365  16.926  0.4355  0.8150  1.6654
  921MPD2    H213484   0.474   2.526  17.031  1.2703 -1.3679  0.8864
  921MPD2    H313485   0.240   2.480  17.077  0.0299 -0.5961  0.1945
  921MPD2     N13486   0.182   2.210  16.732 -1.1347  0.5468 -0.2964
  921MPD2    H513487   0.084   2.235  16.744 -0.6556  1.0603  2.6504
  921MPD2    N113488   0.628   2.360  16.851 -0.5553 -0.1081  0.0539
  921MPD2    H713489   0.664   2.304  16.775 -0.3882  1.5869 -1.1137
  922MPD2     C13490   1.233   0.286  16.537 -0.2536  0.5653  0.0153
  922MPD2    C113491   1.257   0.273  16.670  0.3998  0.9933 -0.2096
  922MPD2    C213492   1.181   0.182  16.747  0.0167 -0.1080 -0.7238
  922MPD2    C313493   1.066   0.125  16.692 -0.0162 -0.3064 -0.1102
  922MPD2    C413494   1.045   0.146  16.558 -0.2216 -0.2199  0.3342
  922MPD2    C513495   1.130   0.224  16.480 -0.3363  0.1090 -0.3597
  922MPD2     H13496   1.220   0.166  16.846  0.5409  1.5895 -0.6523
  922MPD2    H113497   0.954   0.108  16.513  0.1053 -0.3296 -0.2366
  922MPD2    H213498   1.308   0.342  16.481  0.8770 -0.0268  0.9208
  922MPD2    H313499   1.116   0.217  16.373 -1.5003  0.4531 -0.2241
  922MPD2     N13500   0.974   0.048  16.777  0.1775  0.2712 -0.2259
  922MPD2    H513501   0.897   0.002  16.730 -1.2606  1.2657  1.1394
  922MPD2    N113502   1.364   0.346  16.736  0.5864 -0.2780 -0.4540
  922MPD2    H713503   1.369   0.324  16.835 -0.1337  0.0946 -0.3340
  923MPD2     C13504   3.445   1.070   9.500  0.1301  0.3948  0.5380
  923MPD2    C113505   3.461   1.206   9.508  0.0610 -0.8568  0.7042
  923MPD2    C213506   3.565   1.249   9.586 -0.4595 -0.2614 -0.7008
  923MPD2    C313507   3.637   1.169   9.663  0.6550  0.2726  0.3909
  923MPD2    C413508   3.622   1.028   9.652 -0.1831 -0.0887 -0.5687
  923MPD2    C513509   3.528   0.986   9.562 -0.1759  0.2225 -0.0344
  923MPD2     H13510   3.569   1.355   9.607  2.4395 -0.2267 -1.4217
  923MPD2    H113511   3.677   0.955   9.710 -0.5577 -0.0413 -0.1533
  923MPD2    H213512   3.375   1.024   9.431 -0.6867  0.6088  1.2235
  923MPD2    H313513   3.517   0.879   9.550 -0.0263  0.2692 -0.6014
  923MPD2     N13514   3.726   1.217   9.766 -0.1547  0.5775  0.5673
  923MPD2    H513515   3.773   1.149   9.825  0.5602 -0.0822 -0.7813
  923MPD2    N113516   3.372   1.283   9.434 -0.3486 -0.2277 -0.2086
  923MPD2    H713517   3.288   1.244   9.392  0.1937 -1.4084 -0.1944
  924MPD2     C13518   2.909   0.573  16.350  0.3260  0.0299  0.3018
  924MPD2    C113519   2.814   0.651  16.287  0.3682 -0.1575  0.1347
  924MPD2    C213520   2.851   0.773  16.227  0.3315 -0.3158 -0.3130
  924MPD2    C313521   2.978   0.817  16.236 -0.5657 -0.2906 -0.0724
  924MPD2    C413522   3.071   0.739  16.304  0.0662 -1.2927 -0.6678
  924MPD2    C513523   3.037   0.614  16.358 -0.4768  0.5234  0.4216
  924MPD2     H13524   2.775   0.841  16.189 -0.5086 -0.9912  0.1554
  924MPD2    H113525   3.169   0.783  16.319 -0.9302 -0.0354  2.1459
  924MPD2    H213526   2.879   0.474  16.382  0.4657  0.2176  1.0002
  924MPD2    H313527   3.110   0.550  16.407  0.0474  0.4908 -0.3959
  924MPD2     N13528   3.008   0.947  16.194 -0.7177  0.7400 -0.1556
  924MPD2    H513529   3.081   0.999  16.241 -1.7416  0.4428  1.7932
  924MPD2    N113530   2.671   0.629  16.284  0.5470  0.0053 -1.2887
  924MPD2    H713531   2.613   0.693  16.232 -0.9704  1.1644  1.8414
  925MPD2     C13532   1.507   2.747  14.807  0.3248  0.0576 -0.1859
  925MPD2    C113533   1.406   2.833  14.773  0.0862  0.6631  0.3906
  925MPD2    C213534   1.332   2.887  14.876 -0.0383  0.3735 -0.7087
  925MPD2    C313535   1.355   2.850  15.011 -0.7695  0.6097 -0.0913
  925MPD2    C413536   1.455   2.756  15.042  1.0414 -0.1927 -0.1387
  925MPD2    C513537   1.531   2.705  14.942  0.1760  0.4030 -0.0416
  925MPD2     H13538   1.242   2.938  14.845  0.6912  0.7643 -2.1628
  925MPD2    H113539   1.474   2.734  15.146  0.2153  0.0465  0.0654
  925MPD2    H213540   1.576   2.700  14.738  0.1145 -0.2291 -0.2034
  925MPD2    H313541   1.604   2.632  14.973  0.2742 -0.3170 -1.9781
  925MPD2     N13542   1.286   2.910  15.123 -0.2126  0.0340  0.3865
  925MPD2    H513543   1.299   2.876  15.218 -1.4110 -1.0115  0.1638
  925MPD2    N113544   1.370   2.857  14.643  0.5609 -0.3677  0.2907
  925MPD2    H713545   1.291   2.919  14.626  1.7430  0.6065 -1.5519
  926MPD2     C13546   0.486   1.440  13.244  0.2527 -0.2554 -0.3311
  926MPD2    C113547   0.491   1.582  13.260  0.5292  0.0574  1.0689
  926MPD2    C213548   0.496   1.656  13.145  0.2358 -0.2810 -0.8671
  926MPD2    C313549   0.496   1.597  13.022  0.3560 -0.1806 -0.2624
  926MPD2    C413550   0.473   1.464  13.013  0.4399 -0.3548 -0.2252
  926MPD2    C513551   0.471   1.385  13.122  0.3830 -0.3929  0.0720
  926MPD2     H13552   0.492   1.761  13.170  0.5020 -0.2043 -1.1588
  926MPD2    H113553   0.472   1.427  12.912 -0.3873  1.6471 -0.9371
  926MPD2    H213554   0.486   1.371  13.328  0.1541  0.7704  0.5042
  926MPD2    H313555   0.468   1.277  13.116 -3.2685 -0.2725 -0.5565
  926MPD2     N13556   0.513   1.664  12.899  0.3139  0.0330  0.3620
  926MPD2    H513557   0.518   1.600  12.820  0.3173 -0.5706  0.8537
  926MPD2    N113558   0.481   1.644  13.386  0.6591 -0.5624 -0.4519
  926MPD2    H713559   0.505   1.743  13.385  1.9960 -0.8910 -1.9141
  927MPD2     C13560   4.186   3.326   0.163  0.3319  0.0833 -0.0644
  927MPD2    C113561   4.188   3.382   0.284 -0.3175  0.1329  0.6415
  927MPD2    C213562   4.238   3.316   0.390  0.5148 -0.6889  0.1251
  927MPD2    C313563   4.272   3.188   0.384 -0.2880 -0.3060 -0.1732
  927MPD2    C413564   4.273   3.123   0.261 -0.2014 -0.0189 -0.0488
  927MPD2    C513565   4.228   3.199   0.148 -0.3410  0.0387 -0.6375
  927MPD2     H13566   4.245   3.366   0.486 -2.1375 -0.6417  0.3025
  927MPD2    H113567   4.299   3.019   0.248 -0.3936 -0.0231 -0.3791
  927MPD2    H213568   4.153   3.383   0.077  2.0541 -2.0680 -2.1446
  927MPD2    H313569   4.221   3.146   0.054  0.3686 -2.0640  0.4753
  927MPD2     N13570   4.307   3.124   0.496 -0.0607 -0.1279  0.4796
  927MPD2    H513571   4.318   3.177   0.582 -0.2180  0.0767  0.3724
  927MPD2    N113572   4.158   3.517   0.297 -0.0199  0.2417 -0.0992
  927MPD2    H713573   4.118   3.541   0.207  1.3836  1.2035 -0.4598
  928MPD2     C13574   2.915   2.029   1.355  0.3309  0.3896 -0.3835
  928MPD2    C113575   2.980   2.156   1.344  0.1812  0.0278 -0.2859
  928MPD2    C213576   3.007   2.201   1.221  0.0513  0.4407 -0.4011
  928MPD2    C313577   2.997   2.122   1.104 -0.0416 -0.3930 -0.1544
  928MPD2    C413578   2.945   1.998   1.118  0.0064  0.4738 -0.3171
  928MPD2    C513579   2.897   1.954   1.241 -0.4169  0.2342 -0.4080
  928MPD2     H13580   3.046   2.301   1.216 -1.0767  0.8737 -0.4548
  928MPD2    H113581   2.941   1.935   1.030  0.1726 -2.4159  1.7518
  928MPD2    H213582   2.870   1.992   1.446 -0.1909 -0.9973 -1.1972
  928MPD2    H313583   2.859   1.853   1.250  0.6381 -0.1358 -0.1028
  928MPD2     N13584   3.030   2.169   0.974 -0.1334 -0.3622 -0.0653
  928MPD2    H513585   2.987   2.115   0.900  0.6056 -1.0927  0.0287
  928MPD2    N113586   2.997   2.240   1.454 -0.2943 -0.1116  0.5923
  928MPD2    H713587   3.053   2.324   1.440 -1.7341  0.6929 -0.2476
  929MPD2     C13588   3.389   1.974  10.775  0.0524  0.5790 -0.7512
  929MPD2    C113589   3.272   1.928  10.718  0.8217  0.4683 -0.3267
  929MPD2    C213590   3.272   1.907  10.580 -0.7316  0.1821 -0.3899
  929MPD2    C313591   3.375   1.954  10.502 -0.5289  0.5859  0.2326
  929MPD2    C413592   3.488   2.009  10.563  0.4371  0.2843  0.1065
  929MPD2    C513593   3.493   2.017  10.697 -0.3685  0.8011  0.1942
  929MPD2     H13594   3.177   1.874  10.538 -2.0497  0.9486  2.0132
  929MPD2    H113595   3.582   2.034  10.516  0.4066  0.6989  0.2634
  929MPD2    H213596   3.396   1.972  10.883  0.9692  0.6997 -0.8078
  929MPD2    H313597   3.584   2.053  10.741 -0.3414  2.5868 -1.3103
  929MPD2     N13598   3.362   1.966  10.364  0.2106 -0.1855 -1.2071
  929MPD2    H513599   3.428   2.027  10.317  2.0566 -1.1493  0.1167
  929MPD2    N113600   3.165   1.891  10.804 -0.0827  0.1006 -0.1979
  929MPD2    H713601   3.183   1.898  10.904 -1.1744 -0.8730  0.0518
  930MPD2     C13602   4.044   4.492  13.988  1.0795 -0.0093  0.4169
  930MPD2    C113603   4.177   4.457  13.992  0.6537 -0.3585 -0.2991
  930MPD2    C213604   4.217   4.345  13.923 -0.1058 -0.0837 -0.0754
  930MPD2    C313605   4.122   4.273  13.839  0.9222 -0.3506  1.1438
  930MPD2    C413606   3.991   4.301  13.853  0.6165  0.0636 -0.2460
  930MPD2    C513607   3.958   4.418  13.908 -0.1745 -0.3267  0.1224
  930MPD2     H13608   4.321   4.314  13.927  0.1583  1.1652  2.7580
  930MPD2    H113609   3.912   4.250  13.797 -1.1296  1.8120  0.6097
  930MPD2    H213610   4.014   4.590  14.022  0.1293  0.1875 -0.9986
  930MPD2    H313611   3.857   4.455  13.896 -0.0473 -0.7822 -2.3863
  930MPD2     N13612   4.159   4.191  13.731 -0.6031  0.5576  0.0767
  930MPD2    H513613   4.087   4.173  13.661 -0.7122 -0.5023  0.4596
  930MPD2    N113614   4.263   4.544  14.059  0.4930 -0.0643  0.6658
  930MPD2    H713615   4.219   4.631  14.086  0.1230  0.3204 -1.1630
  931MPD2     C13616   4.476   3.956   0.793 -0.0252  0.5686  0.3264
  931MPD2    C113617   4.343   3.934   0.810 -0.4763 -0.0728 -0.1987
  931MPD2    C213618   4.281   3.892   0.927 -1.0720  0.3570 -0.3760
  931MPD2    C313619   4.361   3.867   1.039 -0.5336 -0.0028 -0.3877
  931MPD2    C413620   4.495   3.881   1.024 -0.1549 -0.3101 -0.4542
  931MPD2    C513621   4.554   3.928   0.901 -1.1778  0.3804 -0.1549
  931MPD2     H13622   4.175   3.907   0.942 -1.1784  1.3444 -2.1689
  931MPD2    H113623   4.555   3.862   1.112  0.5918 -0.3311 -0.9663
  931MPD2    H213624   4.521   3.986   0.700  0.3703 -0.7310  0.1037
  931MPD2    H313625   4.662   3.926   0.896 -1.3075 -0.9974 -2.4943
  931MPD2     N13626   4.311   3.824   1.158 -0.2958 -0.1891 -0.6890
  931MPD2    H513627   4.363   3.839   1.244 -2.7546  0.9292  0.6109
  931MPD2    N113628   4.273   3.943   0.693 -0.0228  0.0443  0.4989
  931MPD2    H713629   4.322   3.967   0.607 -0.0923 -1.3860  0.0721
  932MPD2     C13630   2.363   2.252  11.080 -0.2743  0.5974  0.5753
  932MPD2    C113631   2.270   2.324  11.147  0.1406  0.2820  0.2785
  932MPD2    C213632   2.200   2.261  11.250  0.1299  0.2207 -0.3018
  932MPD2    C313633   2.234   2.136  11.299  0.3749 -0.4942 -0.0500
  932MPD2    C413634   2.335   2.072  11.234  0.0688 -0.0899 -0.0283
  932MPD2    C513635   2.394   2.127  11.120  0.6055 -0.6377  0.3742
  932MPD2     H13636   2.120   2.313  11.299 -1.1160 -1.3316 -0.6734
  932MPD2    H113637   2.363   1.972  11.263 -1.5629  0.0515  2.0436
  932MPD2    H213638   2.419   2.295  10.998  0.2269 -1.3887 -0.1465
  932MPD2    H313639   2.474   2.073  11.072  0.4967 -1.1083  0.7266
  932MPD2     N13640   2.181   2.076  11.415  0.3674 -0.4275  0.5336
  932MPD2    H513641   2.216   1.981  11.426 -0.0391 -0.6775 -0.3825
  932MPD2    N113642   2.237   2.461  11.120  0.0584 -0.1159 -0.2351
  932MPD2    H713643   2.162   2.503  11.174  1.6530  0.0547  1.8433
  933MPD2     C13644   2.816   2.808   2.141 -0.6358 -0.4604 -0.1575
  933MPD2    C113645   2.760   2.734   2.036  0.9302 -0.6022  0.4005
  933MPD2    C213646   2.629   2.758   1.999 -0.1382 -0.0201  0.5393
  933MPD2    C313647   2.544   2.838   2.072 -0.2547 -0.0489 -0.3992
  933MPD2    C413648   2.602   2.915   2.171  0.4054  0.3276  0.0842
  933MPD2    C513649   2.735   2.904   2.194 -0.3857  0.8729  0.1498
  933MPD2     H13650   2.586   2.699   1.919 -1.1864  0.8275  0.4842
  933MPD2    H113651   2.543   2.985   2.229 -0.9767 -0.8408  0.0908
  933MPD2    H213652   2.914   2.789   2.184  0.1577 -0.5552 -1.9982
  933MPD2    H313653   2.760   2.964   2.281  2.5077 -0.1858  0.0491
  933MPD2     N13654   2.412   2.839   2.037 -0.6246 -0.0362  0.1549
  933MPD2    H513655   2.372   2.775   1.969  0.2140 -0.9991  0.5553
  933MPD2    N113656   2.838   2.635   1.974  0.4425 -0.2182 -0.1747
  933MPD2    H713657   2.930   2.629   2.017 -0.1089  0.7833  1.1590
  934MPD2     C13658   2.753   0.287   1.859  0.3456 -0.0779  0.0624
  934MPD2    C113659   2.843   0.238   1.764 -0.6243  0.1375  0.9647
  934MPD2    C213660   2.840   0.109   1.730 -0.0014 -0.1110  0.0515
  934MPD2    C313661   2.728   0.028   1.762  0.2573 -0.2676  0.4323
  934MPD2    C413662   2.629   0.080   1.843 -0.4304  0.6092  0.4975
  934MPD2    C513663   2.643   0.209   1.889 -0.3186  0.6336  0.1346
  934MPD2     H13664   2.912   0.068   1.660  0.9825  0.1548  0.9151
  934MPD2    H113665   2.553   0.020   1.891 -0.8478  1.3326  0.7254
  934MPD2    H213666   2.763   0.385   1.903 -1.0387 -0.2694  0.7901
  934MPD2    H313667   2.574   0.243   1.965  0.0790 -0.0112  0.7772
  934MPD2     N13668   2.706   4.629   1.704  0.3954 -0.1518  0.0120
  934MPD2    H513669   2.611   4.594   1.700  0.7279 -0.8631 -1.4583
  934MPD2    N113670   2.961   0.309   1.715 -0.7887 -0.2828  0.6819
  934MPD2    H713671   3.031   0.257   1.664 -0.2108  0.4096  0.7727
  935MPD2     C13672   3.362   3.961   1.361 -0.3248  0.9292 -0.1466
  935MPD2    C113673   3.244   3.941   1.286  0.1735 -0.2266  0.2387
  935MPD2    C213674   3.123   3.984   1.334 -0.8623  0.1853  0.4582
  935MPD2    C313675   3.121   4.071   1.442 -0.0666  0.2230  0.5024
  935MPD2    C413676   3.231   4.086   1.518 -0.1779 -0.0671  0.4496
  935MPD2    C513677   3.347   4.027   1.481 -0.4016  0.2498 -0.1693
  935MPD2     H13678   3.030   3.957   1.287 -0.6160 -0.4424  0.3245
  935MPD2    H113679   3.228   4.161   1.596  0.1667 -1.3980  1.7491
  935MPD2    H213680   3.454   3.907   1.341 -1.9533 -1.7788 -0.3699
  935MPD2    H313681   3.439   4.043   1.535 -1.0737 -0.2628  1.1421
  935MPD2     N13682   3.002   4.133   1.500  0.3512 -0.3165  0.7622
  935MPD2    H513683   3.013   4.191   1.582 -0.7299  0.1342  0.5898
  935MPD2    N113684   3.244   3.858   1.170  1.0142 -0.5267  0.0583
  935MPD2    H713685   3.151   3.851   1.129  0.6064  0.3641  0.8108
  936MPD2     C13686   2.692   1.317  12.784 -0.6836 -0.0012 -0.3889
  936MPD2    C113687   2.637   1.434  12.844  0.2042  0.1733 -0.4339
  936MPD2    C213688   2.606   1.551  12.772 -0.3293 -0.2213  0.5181
  936MPD2    C313689   2.633   1.553  12.639  0.2633  0.6973 -0.0737
  936MPD2    C413690   2.682   1.443  12.573  0.2443 -0.3454  0.1045
  936MPD2    C513691   2.711   1.327  12.649 -0.7857 -0.0639 -0.7943
  936MPD2     H13692   2.558   1.633  12.823 -2.7956 -1.1913 -0.2267
  936MPD2    H113693   2.703   1.439  12.467  1.2236 -0.4209  0.3021
  936MPD2    H213694   2.706   1.222  12.833 -1.1539  1.1225  1.9112
  936MPD2    H313695   2.753   1.242  12.597  0.6761  0.8506 -1.1083
  936MPD2     N13696   2.602   1.681  12.578  0.5243 -0.1108  1.0296
  936MPD2    H513697   2.557   1.750  12.638 -0.9005 -0.4457  0.3541
  936MPD2    N113698   2.615   1.444  12.986  0.0193  0.6942 -0.2532
  936MPD2    H713699   2.564   1.527  13.015 -1.1525 -0.1597  0.0930
  937MPD2     C13700   0.114   2.545  11.773 -0.1644 -0.1671  0.1957
  937MPD2    C113701   0.107   2.674  11.723 -0.4758 -0.9907  0.1885
  937MPD2    C213702   0.204   2.704  11.624 -0.3506  0.2519  0.5996
  937MPD2    C313703   0.300   2.611  11.571  0.1942  0.2067  0.1632
  937MPD2    C413704   0.300   2.482  11.627 -0.1766 -0.1953  0.0676
  937MPD2    C513705   0.207   2.459  11.724  0.5594  0.4393  0.3219
  937MPD2     H13706   0.216   2.802  11.580 -3.3048  0.6390  0.6834
  937MPD2    H113707   0.367   2.400  11.606  0.0216 -0.5559  2.1271
  937MPD2    H213708   0.048   2.510  11.851 -0.3823  1.7111  0.8540
  937MPD2    H313709   0.212   2.359  11.765  0.6243  0.5493  0.5814
  937MPD2     N13710   0.388   2.649  11.464 -0.4515  0.3863  0.3895
  937MPD2    H513711   0.382   2.744  11.428 -2.1398  0.5899  1.1996
  937MPD2    N113712   0.043   2.776  11.797  0.4064  0.1227  0.1551
  937MPD2    H713713   0.047   2.871  11.760 -2.6081  0.1433 -0.0819
  938MPD2     C13714   1.983   3.225   0.767 -1.0559  0.9302  0.1111
  938MPD2    C113715   2.018   3.331   0.841 -0.5159  0.6402 -1.1236
  938MPD2    C213716   2.015   3.321   0.985 -0.2969 -0.4954  0.2324
  938MPD2    C313717   1.959   3.216   1.046  0.3863 -1.1182  0.4130
  938MPD2    C413718   1.915   3.108   0.968 -0.5304 -0.2453 -0.3556
  938MPD2    C513719   1.935   3.115   0.828  0.3812  0.9067  0.4210
  938MPD2     H13720   2.017   3.415   1.040 -3.7561  0.9150 -2.0244
  938MPD2    H113721   1.886   3.009   0.999  1.1434 -0.4114  0.6858
  938MPD2    H213722   1.996   3.217   0.660 -0.4196 -2.2230  0.4321
  938MPD2    H313723   1.899   3.031   0.768  0.5955 -0.9044  2.8381
  938MPD2     N13724   1.948   3.197   1.183  0.7372 -0.0549  0.1109
  938MPD2    H513725   1.895   3.115   1.209  0.7950  0.0430  0.5472
  938MPD2    N113726   2.039   3.457   0.779 -0.3952  0.2304 -0.3858
  938MPD2    H713727   2.084   3.528   0.836 -0.2142 -1.7000  1.8435
  939MPD2     C13728   3.428   4.362   0.522  0.6276 -1.0371 -0.0862
  939MPD2    C113729   3.443   4.493   0.517 -0.7341  0.4487  0.1886
  939MPD2    C213730   3.543   4.550   0.438 -0.5087  0.2009  0.0240
  939MPD2    C313731   3.633   4.466   0.368 -0.5802  0.1649  0.7448
  939MPD2    C413732   3.617   4.325   0.379 -0.2297 -0.0815  0.9157
  939MPD2    C513733   3.516   4.279   0.455  0.2487 -0.2386  0.4761
  939MPD2     H13734   3.565   4.655   0.422  1.1010 -0.1444  0.0547
  939MPD2    H113735   3.690   4.255   0.338  0.9188  0.7604  1.5192
  939MPD2    H213736   3.357   4.311   0.585 -0.0790  0.9288  0.7163
  939MPD2    H313737   3.493   4.173   0.458 -0.0117 -0.1209  2.1829
  939MPD2     N13738   3.741   4.536   0.305  0.0815 -0.2180 -0.6265
  939MPD2    H513739   3.739   4.637   0.294  0.8230  0.1216  2.2853
  939MPD2    N113740   3.344   4.571   0.581 -0.9215  0.9822  0.0675
  939MPD2    H713741   3.266   4.521   0.621 -2.1032  2.9812  0.2560
  940MPD2     C13742   3.182   1.680  13.698  0.1770 -0.1458 -0.1649
  940MPD2    C113743   3.065   1.628  13.649 -0.0777 -0.5824  1.3699
  940MPD2    C213744   3.011   1.671  13.532 -0.5607  0.6257  0.0131
  940MPD2    C313745   3.069   1.780  13.458  0.1814 -0.1941  0.2813
  940MPD2    C413746   3.182   1.837  13.511 -0.0506  0.4456  0.2091
  940MPD2    C513747   3.241   1.783  13.631  0.0344 -0.1711  0.5486
  940MPD2     H13748   2.915   1.629  13.503 -0.3971  0.3530 -0.1351
  940MPD2    H113749   3.228   1.925  13.467 -2.3778  3.0747  2.9880
  940MPD2    H213750   3.228   1.640  13.787 -1.3835  0.3209  0.8570
  940MPD2    H313751   3.331   1.833  13.663 -0.0621 -0.0490  0.6281
  940MPD2     N13752   3.030   1.816  13.331 -0.2621  0.1609  0.2975
  940MPD2    H513753   3.079   1.895  13.291 -1.5206  1.2040  0.8200
  940MPD2    N113754   2.993   1.525  13.718  0.1062  0.3898  0.0608
  940MPD2    H713755   2.901   1.500  13.683 -0.5931  4.4053 -0.9188
  941MPD2     C13756   2.797   4.298   9.008 -0.1817  0.1811 -0.6272
  941MPD2    C113757   2.839   4.232   9.123 -0.8022  0.4256  0.4541
  941MPD2    C213758   2.798   4.100   9.143  0.4460 -0.2504  0.3769
  941MPD2    C313759   2.730   4.029   9.053  1.2151 -0.1280 -0.0013
  941MPD2    C413760   2.691   4.098   8.939 -0.1169  0.2495 -0.1819
  941MPD2    C513761   2.735   4.220   8.918 -0.4411  0.3523  0.8322
  941MPD2     H13762   2.811   4.049   9.238 -1.2571  0.4202  0.9711
  941MPD2    H113763   2.627   4.059   8.861  0.5205  1.8381 -1.4932
  941MPD2    H213764   2.825   4.397   8.975  1.0150  0.4121  1.0412
  941MPD2    H313765   2.721   4.268   8.821 -0.5128  1.2776  1.3012
  941MPD2     N13766   2.693   3.889   9.064  0.0434  0.4289  0.2419
  941MPD2    H513767   2.634   3.859   8.987  0.6695 -0.0550 -0.0534
  941MPD2    N113768   2.929   4.293   9.213 -0.2337 -0.0638  0.2862
  941MPD2    H713769   2.970   4.241   9.290 -0.3380  0.0277  0.4036
  942MPD2     C13770   2.157   1.693   9.836  0.4451  0.3159  0.0708
  942MPD2    C113771   2.230   1.580   9.805 -0.3337 -0.1615  0.2791
  942MPD2    C213772   2.350   1.593   9.748  0.4968 -0.5755  0.5221
  942MPD2    C313773   2.396   1.712   9.705  0.1803  0.3081 -0.9575
  942MPD2    C413774   2.317   1.825   9.718  0.0053  0.2084  0.6594
  942MPD2    C513775   2.196   1.818   9.789  0.8362  0.0989  0.9608
  942MPD2     H13776   2.405   1.500   9.735  0.0482 -1.0698  2.0967
  942MPD2    H113777   2.357   1.920   9.687  1.3625  0.0769  2.0378
  942MPD2    H213778   2.073   1.682   9.904  0.7065  0.5775  0.4406
  942MPD2    H313779   2.137   1.909   9.797 -0.7115 -0.6464 -2.1617
  942MPD2     N13780   2.535   1.724   9.673  0.2344 -0.1439 -0.2456
  942MPD2    H513781   2.559   1.819   9.648  3.8386 -0.9565  0.2178
  942MPD2    N113782   2.183   1.453   9.822  0.0702  0.1234  0.1343
  942MPD2    H713783   2.251   1.377   9.823  0.5202  0.5641  1.5720
  943MPD2     C13784   2.168   3.904  10.228  0.1030 -0.5831  0.2270
  943MPD2    C113785   2.043   3.855  10.200  0.0353 -0.3415  0.3138
  943MPD2    C213786   2.012   3.815  10.068 -0.8196 -0.0524  0.2157
  943MPD2    C313787   2.117   3.839   9.975 -0.1705 -0.0441 -0.3314
  943MPD2    C413788   2.244   3.878  10.005 -0.1578 -0.4654 -0.6294
  943MPD2    C513789   2.267   3.913  10.134  0.1723 -0.3000  0.4706
  943MPD2     H13790   1.916   3.782  10.032 -0.5509  0.6063 -1.0987
  943MPD2    H113791   2.317   3.898   9.926  0.6734  2.5745  0.9262
  943MPD2    H213792   2.199   3.922  10.330 -1.6944  0.4277  0.5999
  943MPD2    H313793   2.368   3.949  10.154 -0.4521  0.8767  1.4866
  943MPD2     N13794   2.098   3.812   9.837 -0.3162 -0.2292 -0.3565
  943MPD2    H513795   2.174   3.838   9.776  0.7583  0.9435  1.5064
  943MPD2    N113796   1.951   3.842  10.307 -0.0469  0.1563 -0.1583
  943MPD2    H713797   1.979   3.864  10.402 -1.1921  1.4494 -0.1208
  944MPD2     C13798   0.502   3.335  11.554 -0.1062  0.1720 -0.4555
  944MPD2    C113799   0.529   3.393  11.435  0.3625  0.2381  0.6216
  944MPD2    C213800   0.556   3.534  11.432 -0.2867  0.4375  0.2562
  944MPD2    C313801   0.547   3.608  11.549 -0.0081  0.8166  0.1217
  944MPD2    C413802   0.519   3.544  11.669  0.8863  0.1411  0.4208
  944MPD2    C513803   0.487   3.410  11.669  0.7676  0.1327  0.2129
  944MPD2     H13804   0.581   3.598  11.348  0.0872  2.2237  1.7310
  944MPD2    H113805   0.510   3.583  11.770  1.3923  2.5086 -0.4587
  944MPD2    H213806   0.461   3.235  11.563 -0.1226  0.1652 -0.6085
  944MPD2    H313807   0.477   3.364  11.767  1.0500  0.0835  0.2164
  944MPD2     N13808   0.584   3.744  11.542 -0.1920  0.0211  0.4349
  944MPD2    H513809   0.606   3.782  11.451 -2.5884 -1.5370 -0.8144
  944MPD2    N113810   0.520   3.317  11.314  0.2403  0.7341  0.9766
  944MPD2    H713811   0.507   3.217  11.327  0.5484  0.7309  1.2406
    1TCq1    O113812   3.057   0.274  14.062 -0.2503 -0.7451 -1.0219
    1TCq1    C113813   3.108   0.287  14.190  0.4720 -0.3290  0.1553
    1TCq1    O213814   3.043   0.268  14.294  0.0497 -0.0195  0.8276
    1TCq1    C213815   3.246   0.332  14.195  0.4697  0.9972 -0.6584
    1TCq1    C313816   3.334   0.291  14.097  0.2931 -0.0028 -0.5132
    1TCq1    C413817   3.466   0.316  14.121 -0.0414 -0.6023 -0.0695
    1TCq1    C513818   3.513   0.383  14.231 -0.4086  0.8860 -0.4840
    1TCq1    C613819   3.426   0.427  14.325  0.1796  0.3294  0.4187
    1TCq1    C713820   3.290   0.397  14.313  0.6607  0.1974 -0.3405
    1TCq1    C813821   3.489   0.499  14.431 -0.4574  0.2643  0.6056
    1TCq1    O413822   3.605   0.466  14.443  0.3100 -0.1144  0.5867
    1TCq1    C913823   3.567   0.291  14.019 -0.5096 -0.3332 -0.0606
    1TCq1    O513824   3.689   0.316  14.051  0.4510  0.1230 -0.0791
    1TCq1    O613825   3.527   0.242  13.908  0.4023 -0.0136 -0.1886
    1TCq1    H113826   3.126   0.286  13.994  0.2449  0.2172 -0.3415
    1TCq1    H213827   3.305   0.238  14.008 -1.1491  1.0082 -0.6405
    1TCq1    H313828   3.621   0.400  14.234 -0.3658  0.3842  1.2555
    1TCq1    H413829   3.224   0.433  14.391  1.7506 -1.1903  1.2286
    2MPD2     C13830   3.518   0.940  14.703  0.1948  0.0525  0.0936
    2MPD2    C113831   3.396   0.933  14.649  0.4211 -0.1092  0.0483
    2MPD2    C213832   3.373   0.823  14.567  1.0531 -0.0707  0.7301
    2MPD2    C313833   3.460   0.712  14.552  0.3867  0.2081  0.3885
    2MPD2    C413834   3.585   0.728  14.615 -0.0430 -0.2266  0.2547
    2MPD2    C513835   3.605   0.841  14.683  0.7454 -0.0262 -0.2789
    2MPD2     H13836   3.274   0.821  14.522  1.0722  0.0462  0.6832
    2MPD2    H113837   3.664   0.656  14.595  0.2057  0.3648 -0.9180
    2MPD2    H213838   3.550   1.027  14.758 -1.5876  0.1734  0.9647
    2MPD2    H313839   3.709   0.851  14.714  0.2544  0.2642  1.2570
    2MPD2     N13840   3.414   0.609  14.473  0.2239 -0.3638  0.7272
    2MPD2    H513841   3.325   0.632  14.429 -0.2261  1.7532  2.7441
    2MPD2    N113842   3.312   1.048  14.667 -0.1250 -0.1365 -0.3416
    2MPD2    H713843   3.359   1.125  14.713 -1.1597 -0.4525  1.2667
    3TMC2    C113844   3.170   1.220  14.599  0.7541  0.2154  0.7244
    3TMC2    C213845   3.273   1.305  14.648  0.0793  0.7976 -0.6667
    3TMC2    C313846   3.262   1.439  14.608 -0.0275 -0.0541  0.3463
    3TMC2    C413847   3.081   1.270  14.508 -0.3245 -0.2651 -0.0187
    3TMC2    C513848   3.088   1.402  14.467  0.1903 -0.2579 -0.1335
    3TMC2    C613849   3.170   1.492  14.526 -0.5387 -0.0822  0.6137
    3TMC2     C13850   3.194   1.079  14.600 -0.7131 -0.5078  1.1235
    3TMC2     O13851   3.118   1.009  14.537 -0.2253  0.2527  0.2014
    3TMC2     H13852   3.346   1.271  14.720 -1.0487 -1.9318 -0.7843
    3TMC2    H113853   3.014   1.208  14.451 -0.4661  0.8991 -1.1310
    3TMC2    H213854   3.164   1.600  14.513 -4.7426 -0.4940 -0.8487
    3TMC2    C713855   2.973   1.447  14.382 -0.2618 -0.1565  0.1144
    3TMC2    C813856   3.361   1.532  14.637 -0.4787 -0.5786  1.0145
    3TMC2    O113857   2.869   1.383  14.371 -0.1252 -0.3313  0.0349
    3TMC2    O213858   3.346   1.650  14.655  0.1305 -0.0053 -0.4919
    3TMC2    O513859   3.487   1.485  14.633 -0.0265 -0.6206 -0.1128
    3TMC2    H513860   3.496   1.394  14.598 -0.4390 -1.2345  1.3336
    4MPD2     C13861   2.708   2.467  13.390 -0.0501  0.0692  0.2870
    4MPD2    C113862   2.666   2.361  13.469  0.1613  0.0352  0.1302
    4MPD2    C213863   2.761   2.301  13.553  0.4848  0.0147  0.6021
    4MPD2    C313864   2.894   2.333  13.542 -0.1444 -0.3187 -0.5162
    4MPD2    C413865   2.939   2.436  13.468 -0.4419 -0.4339  1.1112
    4MPD2    C513866   2.841   2.502  13.395 -0.0420 -0.5353 -0.5842
    4MPD2     H13867   2.733   2.228  13.628 -0.8196  0.4682  0.5568
    4MPD2    H113868   3.043   2.460  13.452 -0.9540  1.9596  1.2474
    4MPD2    H213869   2.651   2.536  13.329 -1.6741 -1.7017 -0.1667
    4MPD2    H313870   2.872   2.585  13.332 -0.5136  0.2335  0.2016
    4MPD2     N13871   2.987   2.257  13.606 -0.0170 -0.0845 -0.2869
    4MPD2    H513872   2.958   2.166  13.640 -0.5071  0.2292  0.1283
    4MPD2    N113873   2.531   2.318  13.457  0.8508 -0.6084  0.6344
    4MPD2    H713874   2.476   2.373  13.392 -0.4692 -0.3094  1.9877
    5TCq2    C113875   3.114   2.299  13.641 -0.6452 -0.0323 -0.2517
    5TCq2    O213876   3.181   2.390  13.604 -0.1962 -0.2178  0.1348
    5TCq2    C213877   3.194   2.182  13.700 -0.2943 -0.6475 -0.7528
    5TCq2    C313878   3.327   2.175  13.676  0.4155  0.7239  0.8498
    5TCq2    C413879   3.402   2.082  13.747 -0.0194 -0.0189  0.1519
    5TCq2    C513880   3.346   2.001  13.845  0.0439  0.1803 -0.1036
    5TCq2    C613881   3.211   2.009  13.873 -0.1598 -0.0413 -0.1890
    5TCq2    C713882   3.136   2.103  13.797 -0.8334  0.0696  0.0441
    5TCq2    C813883   3.156   1.906  13.964 -0.5127 -0.0189  0.0254
    5TCq2    O413884   3.224   1.805  13.974 -0.5440 -0.2759  0.7645
    5TCq2    C913885   3.541   2.071  13.712 -0.5850 -0.1816 -0.0037
    5TCq2    O513886   3.605   1.985  13.777  0.1175 -0.1416 -0.0123
    5TCq2    O613887   3.571   2.098  13.594  0.0461 -0.5085 -0.3044
    5TCq2    H213888   3.370   2.247  13.608  1.7555 -1.2994 -0.4606
    5TCq2    H313889   3.408   1.930  13.899 -0.8428  0.6135  1.4723
    5TCq2    H413890   3.030   2.103  13.818 -1.3144 -0.0267 -2.4687
    6MPD1     C13891   2.266   2.406  11.744  0.1826 -0.1606  0.5669
    6MPD1    C113892   2.194   2.500  11.811 -0.2283 -0.0891 -0.2025
    6MPD1    C213893   2.179   2.481  11.946 -0.3386  0.5773  0.0961
    6MPD1    C313894   2.240   2.378  12.011  0.0128  0.5120  0.2693
    6MPD1    C413895   2.308   2.287  11.937 -0.0326 -0.5018  0.0018
    6MPD1    C513896   2.311   2.293  11.803 -0.7759  0.6211  0.3790
    6MPD1     H13897   2.117   2.545  12.007 -0.5792  0.8660 -0.4479
    6MPD1    H113898   2.368   2.216  11.994  1.4229 -0.1493 -1.0813
    6MPD1    H213899   2.286   2.411  11.637 -0.3623 -2.0380  0.3780
    6MPD1    H313900   2.365   2.221  11.742 -1.7220 -0.9641  1.3914
    6MPD1     N13901   2.249   2.369  12.155  0.0907  0.3927 -0.4088
    6MPD1    H513902   2.308   2.294  12.191  0.7925  1.7984  1.3627
    6MPD1    N113903   2.127   2.602  11.750 -0.0941  0.0168  1.1162
    6MPD1    H613904   2.178   2.633  11.667  0.2753 -1.4007  0.8060
    6MPD1    H713905   2.123   2.693  11.796 -1.9838  0.0578  0.8760
    7MPD2     C13906   2.175   2.764  12.967 -0.2123 -0.5976 -0.3278
    7MPD2    C113907   2.181   2.626  12.945 -0.4495 -0.3668 -0.4432
    7MPD2    C213908   2.158   2.547  13.056  0.5447 -0.0873 -0.4290
    7MPD2    C313909   2.121   2.591  13.180  1.0092 -0.3419 -0.0303
    7MPD2    C413910   2.102   2.723  13.201 -0.3916  0.2369  0.0394
    7MPD2    C513911   2.139   2.806  13.093 -0.1218 -0.0353  0.9615
    7MPD2     H13912   2.172   2.441  13.043 -0.1997 -0.3630  0.9945
    7MPD2    H113913   2.069   2.766  13.295 -0.3049  0.6894 -0.1354
    7MPD2    H213914   2.186   2.836  12.886  2.3529 -0.2511  0.3156
    7MPD2    H313915   2.128   2.913  13.103  1.1162  0.1430  0.4661
    7MPD2     N13916   2.109   2.500  13.289 -0.0141 -0.1080 -0.1680
    7MPD2    H513917   2.128   2.541  13.380  2.4546  0.9481 -1.1429
    7MPD2    N113918   2.210   2.555  12.825 -0.1808  0.0086 -0.0485
    7MPD2    H713919   2.182   2.457  12.826 -1.7734  0.4655 -1.8277
    8TMC3    C113920   2.144   2.282  13.381  0.1634 -0.0081 -0.1098
    8TMC3    C213921   2.276   2.300  13.422  0.2762  0.5695 -0.0142
    8TMC3    C313922   2.344   2.188  13.466 -0.0901  0.2886 -0.4148
    8TMC3    C413923   2.083   2.157  13.370  0.6023 -0.3897  0.0053
    8TMC3    C513924   2.162   2.049  13.402 -0.4426  0.4196 -0.3762
    8TMC3    C613925   2.282   2.066  13.467  0.0591  0.2782 -0.1900
    8TMC3     C13926   2.099   2.362  13.267  0.2816 -0.3167  0.5075
    8TMC3     O13927   2.051   2.297  13.178 -0.0610 -0.8794  0.0173
    8TMC3     H13928   2.325   2.395  13.407  0.3772  0.5263  0.0463
    8TMC3    H113929   1.982   2.151  13.331  0.8021 -2.9387 -0.1227
    8TMC3    H213930   2.347   1.980  13.480  0.1951  0.2669 -0.9477
    8TMC3    C713931   2.176   1.957  13.291  0.1349 -0.1853  0.5389
    8TMC3    C813932   2.480   2.205  13.507  0.4208  0.7975 -0.6269
    8TMC3    O113933   2.223   1.843  13.298  0.4644  0.3065 -0.4843
    8TMC3    O213934   2.535   2.122  13.576 -0.6153 -0.3229 -0.5005
    9TMC3    C113935   2.224   2.429  12.386  0.1799 -0.4178  0.2966
    9TMC3    C213936   2.229   2.295  12.417 -0.3354  0.1158  0.4252
    9TMC3    C313937   2.236   2.270  12.550 -0.4715 -0.4695 -1.0008
    9TMC3    C413938   2.230   2.527  12.481  0.3243 -0.2048  0.4952
    9TMC3    C513939   2.250   2.496  12.606  0.1913  0.3020  0.5714
    9TMC3    C613940   2.261   2.364  12.648 -0.0219 -0.3777  0.4020
    9TMC3     C13941   2.200   2.461  12.248 -0.1020  0.3499  0.6536
    9TMC3     O13942   2.160   2.574  12.224  0.5006 -0.2271 -0.1453
    9TMC3     H13943   2.225   2.210  12.349  0.9866 -0.1902  0.7227
    9TMC3    H113944   2.225   2.628  12.441  1.3138 -0.1106  0.6116
    9TMC3    H213945   2.293   2.339  12.748 -4.2771 -1.4345  1.5319
    9TMC3    C713946   2.240   2.606  12.703 -0.4243 -1.3485  0.2125
    9TMC3    C813947   2.195   2.137  12.593 -0.1015 -0.1784 -0.2152
    9TMC3    O113948   2.220   2.720  12.663 -0.2986  0.0497  0.2806
    9TMC3    O213949   2.213   2.038  12.527 -0.0123 -0.6249 -0.6585
   10MPD2     C13950   2.134   1.847  13.009  0.2294 -0.3015 -0.4983
   10MPD2    C113951   2.144   1.978  13.045  0.4375 -0.0847  0.3775
   10MPD2    C213952   2.130   2.076  12.944  0.0799 -0.1432  0.3599
   10MPD2    C313953   2.128   2.044  12.809  0.0066  0.1885 -0.0101
   10MPD2    C413954   2.140   1.908  12.775 -0.3523  0.2339  0.6374
   10MPD2    C513955   2.145   1.814  12.877 -0.4259  0.1430  0.4363
   10MPD2     H13956   2.116   2.181  12.967  0.0783  0.2826 -1.6166
   10MPD2    H113957   2.144   1.875  12.672 -2.1592  0.9054  0.3456
   10MPD2    H213958   2.127   1.764  13.079 -1.5748  1.2879  1.2124
   10MPD2    H313959   2.144   1.710  12.845 -1.7306 -0.0552  1.1145
   10MPD2     N13960   2.147   2.150  12.719 -0.6785 -0.7531 -0.2795
   10MPD2    H513961   2.120   2.238  12.762 -0.3157 -1.3734  1.2232
   10MPD2    N113962   2.134   2.024  13.180  0.1677  0.2175  0.2489
   10MPD2    H713963   2.115   2.123  13.193  0.5604  1.0748 -5.3223
   11MPD2     C13964   2.818   1.682  14.273 -0.2112 -0.4902 -0.6530
   11MPD2    C113965   2.951   1.650  14.245 -0.2726 -0.8155  0.0441
   11MPD2    C213966   3.014   1.736  14.163 -0.2273  0.0266  0.0945
   11MPD2    C313967   2.956   1.846  14.097  0.7370 -0.1475  0.1968
   11MPD2    C413968   2.833   1.876  14.132 -0.1075 -0.5366  0.3451
   11MPD2    C513969   2.770   1.802  14.218  0.4841  0.3542  0.2646
   11MPD2     H13970   3.118   1.713  14.148 -0.2038 -0.8358  1.6401
   11MPD2    H113971   2.775   1.952  14.080 -0.5746  0.5882  2.5078
   11MPD2    H213972   2.754   1.629  14.342  2.0876  0.9425  2.5886
   11MPD2    H313973   2.668   1.838  14.226  1.1291  1.8094  1.7248
   11MPD2     N13974   3.025   1.926  14.004  0.0169 -0.1470 -0.5587
   11MPD2    H513975   2.970   2.004  13.968 -1.1361  0.6691  3.0531
   11MPD2    N113976   3.027   1.545  14.297  0.1446  0.0367 -0.4404
   11MPD2    H713977   3.128   1.552  14.285 -0.0969  0.2861 -2.3647
    1MPD1     C13978   0.351   2.352   0.095 -0.1413 -0.0063 -0.2531
    1MPD1    C113979   0.461   2.320   0.171 -1.1749  0.4970 -0.2321
    1MPD1    C213980   0.585   2.368   0.125 -0.0524 -0.2474  0.7371
    1MPD1    C313981   0.592   2.446   0.015 -0.0469 -0.4523  0.0567
    1MPD1    C413982   0.479   2.500  17.653  0.1017 -0.1284  0.2639
    1MPD1    C513983   0.363   2.447  17.692 -0.6787  0.3881  0.0954
    1MPD1     H13984   0.676   2.327   0.167  2.5493  2.5535 -2.1767
    1MPD1    H113985   0.487   2.565  17.567  0.6053  0.7780  0.9877
    1MPD1    H213986   0.251   2.327   0.128 -0.6544 -1.6688 -3.0162
    1MPD1    H313987   0.271   2.452  17.635  0.5868 -0.0856 -1.9949
    1MPD1     N13988   0.717   2.488  17.661 -0.1430  0.4047  0.2269
    1MPD1    H513989   0.713   2.532  17.570 -0.5113 -0.2557 -0.0819
    1MPD1    N113990   0.455   2.223   0.268  0.3428 -0.3428  0.5693
    1MPD1    H613991   0.363   2.233   0.312  1.4425  1.1653  2.5237
    1MPD1    H713992   0.524   2.231   0.343  1.0351 -1.7861  0.0734
    2MPD1     C13993   1.657   2.672   0.322  1.0400 -0.2241 -0.4731
    2MPD1    C113994   1.541   2.671   0.383  0.2974 -0.0272 -0.3407
    2MPD1    C213995   1.426   2.633   0.312  0.3178 -0.4176  0.6019
    2MPD1    C313996   1.433   2.614   0.171  0.0522 -0.8541 -0.1118
    2MPD1    C413997   1.560   2.621   0.112 -0.1545 -0.3713 -0.6617
    2MPD1    C513998   1.670   2.650   0.187 -0.4987  0.0711  0.7337
    2MPD1     H13999   1.328   2.643   0.357  0.8441  0.6036  1.4986
    2MPD1    H114000   1.574   2.611   0.005 -3.2428  0.6265 -1.1605
    2MPD1    H214001   1.747   2.708   0.370 -0.1463 -0.6970  2.0826
    2MPD1    H314002   1.766   2.677   0.145 -0.0064 -1.6840  0.7492
    2MPD1     N14003   1.313   2.607   0.097  0.1380  0.1889  0.3575
    2MPD1    H514004   1.227   2.602   0.150  0.2896 -0.0469  0.5778
    2MPD1    N114005   1.520   2.702   0.521  0.0550 -0.0606 -0.0068
    2MPD1    H614006   1.583   2.770   0.561 -1.7367  1.9364 -0.6149
    2MPD1    H714007   1.425   2.723   0.551  0.4076  1.2665  0.1663
    3TMC3    C114008   1.180   2.574  17.600  0.1788  0.3241  0.3850
    3TMC3    C214009   1.156   2.635  17.478  0.6166 -0.0954 -0.4131
    3TMC3    C314010   1.024   2.644  17.439 -0.0791  0.1633 -0.2931
    3TMC3    C414011   1.079   2.510  17.674  0.9152  0.2282 -1.2767
    3TMC3    C514012   0.951   2.532  17.638  0.2890  0.5800 -0.1500
    3TMC3    C614013   0.924   2.603  17.522 -0.1653  0.3826 -0.2418
    3TMC3     C14014   1.317   2.606  17.657  0.0256 -0.3324  0.1248
    3TMC3     O14015   1.395   2.647  17.577  0.3330  0.0405 -0.1186
    3TMC3     H14016   1.235   2.688  17.426  0.5223 -0.8986 -1.3788
    3TMC3    H114017   1.103   2.454   0.065 -0.4847 -2.1538 -2.3771
    3TMC3    H214018   0.822   2.612  17.486 -0.4058 -1.5987 -0.0124
    3TMC3    C714019   0.844   2.478   0.028 -0.0217  0.1485  0.4661
    3TMC3    C814020   0.996   2.672  17.300  0.5399 -0.4877 -0.3118
    3TMC3    O114021   0.872   2.440   0.139 -0.3241 -0.0869 -0.2942
    3TMC3    O214022   0.881   2.659  17.269 -0.1713  0.5580 -0.4368
    4MPD1     C14023   1.130   2.800  16.817 -0.2180 -0.2557 -0.0236
    4MPD1    C114024   1.246   2.769  16.888 -0.0991  0.0415  0.2495
    4MPD1    C214025   1.234   2.754  17.021 -0.2505 -0.4110  0.5160
    4MPD1    C314026   1.108   2.733  17.087  0.4496  0.5083  0.4796
    4MPD1    C414027   0.994   2.758  17.014  0.2088 -0.2180 -0.5071
    4MPD1    C514028   1.006   2.800  16.884 -0.0541  1.5295  0.0920
    4MPD1     H14029   1.324   2.744  17.082  1.7189 -1.8983 -2.6196
    4MPD1    H114030   0.895   2.755  17.059  0.7527  1.9829  0.8501
    4MPD1    H214031   1.132   2.856  16.724 -1.9168 -1.6931 -0.9223
    4MPD1    H314032   0.921   2.835  16.827 -0.7485  0.3305  0.3858
    4MPD1     N14033   1.106   2.700  17.224  0.4468  0.0550  0.2252
    4MPD1    H514034   1.198   2.711  17.266  1.0995 -0.7368 -1.0206
    4MPD1    N114035   1.371   2.787  16.825 -0.2996 -0.1676  0.5782
    4MPD1    H614036   1.365   2.762  16.726  1.6368  1.9985 -0.0914
    4MPD1    H714037   1.445   2.732  16.869 -0.1084 -0.9121 -0.6883
    1TCq1    O114038   2.593   2.579  12.668  0.5280  0.4144 -0.5447
    1TCq1    C114039   2.609   2.452  12.625 -0.4447 -0.1280  0.0326
    1TCq1    O214040   2.567   2.359  12.693 -0.5183  0.4041  0.1967
    1TCq1    C214041   2.639   2.451  12.485  0.0877  0.3341 -0.4414
    1TCq1    C314042   2.583   2.344  12.423  0.5735  0.5082  0.3142
    1TCq1    C414043   2.607   2.336  12.288  0.5938 -0.3322 -0.2829
    1TCq1    C514044   2.709   2.406  12.228 -0.1183  0.0798  0.1715
    1TCq1    C614045   2.773   2.498  12.304 -0.0241 -0.3672  0.4763
    1TCq1    C714046   2.731   2.539  12.430 -0.2131  0.1642  0.4543
    1TCq1    C814047   2.887   2.568  12.249 -0.1317  0.5090 -0.0421
    1TCq1    O414048   2.905   2.675  12.300  0.0088 -0.0653 -0.8029
    1TCq1    C914049   2.560   2.230  12.211  0.3680 -0.1268  0.3024
    1TCq1    O514050   2.457   2.173  12.258 -0.1089  0.3818  0.0684
    1TCq1    O614051   2.612   2.206  12.100  0.0013 -0.1080  0.5159
    1TCq1    H114052   2.624   2.652  12.610  1.5416 -0.5183 -1.1665
    1TCq1    H214053   2.503   2.288  12.470  1.3516  1.0416  2.2832
    1TCq1    H314054   2.738   2.385  12.126  1.6556  1.8196  0.3178
    1TCq1    H414055   2.784   2.616  12.484 -1.3058  0.0745  1.6532
    2MPD1     C14056   3.171   2.676  11.841 -0.7725 -0.0737  1.2966
    2MPD1    C114057   3.139   2.544  11.836 -0.3683 -0.5062  0.2602
    2MPD1    C214058   3.064   2.494  11.941 -0.4706  0.2526  0.2026
    2MPD1    C314059   3.030   2.561  12.048  0.3011  0.8306 -0.2102
    2MPD1    C414060   3.075   2.693  12.051  0.2709  0.0917  0.3761
    2MPD1    C514061   3.146   2.757  11.951  0.4154  0.4200 -0.2160
    2MPD1     H14062   3.020   2.395  11.932 -1.4294  0.7177 -0.1982
    2MPD1    H114063   3.044   2.761  12.129 -0.0411 -0.8358  1.0566
    2MPD1    H214064   3.212   2.729  11.756 -0.2399 -0.2692  1.4330
    2MPD1    H314065   3.171   2.861  11.963  0.1925  0.4692 -0.1854
    2MPD1     N14066   2.936   2.505  12.140  0.8752  0.5206 -0.5394
    2MPD1    H514067   2.907   2.409  12.125 -0.4655  0.7445  0.6740
    2MPD1    N114068   3.150   2.480  11.714  0.1689 -0.5804  0.1850
    2MPD1    H614069   3.231   2.510  11.661 -0.3477 -1.2826 -1.0015
    2MPD1    H714070   3.150   2.378  11.723 -1.7044 -0.6586 -0.7879
    1TCq1    O114071   2.664   2.658   1.519  0.9675  0.7861 -0.1771
    1TCq1    C114072   2.623   2.539   1.478 -0.3610  0.2997  0.4222
    1TCq1    O214073   2.681   2.470   1.395  0.4672  0.7696  0.1389
    1TCq1    C214074   2.491   2.517   1.528 -0.6168 -0.2909  1.1161
    1TCq1    C314075   2.401   2.466   1.437 -0.0271  0.7300 -0.4548
    1TCq1    C414076   2.277   2.438   1.479  0.4938 -0.0437  0.1187
    1TCq1    C514077   2.231   2.478   1.600  0.6414  0.1655 -0.8549
    1TCq1    C614078   2.321   2.536   1.685  0.2643  0.6602 -0.4666
    1TCq1    C714079   2.449   2.567   1.652  0.4167  0.0218  0.0661
    1TCq1    C814080   2.286   2.575   1.823 -0.3703 -0.0321  0.4138
    1TCq1    O414081   2.377   2.614   1.898 -0.3790  0.4324 -0.5295
    1TCq1    C914082   2.189   2.384   1.380  0.7312 -0.0068 -0.1038
    1TCq1    O514083   2.074   2.346   1.411 -0.5286 -0.0105 -0.5671
    1TCq1    O614084   2.247   2.360   1.267 -0.1495  0.4230 -0.4617
    1TCq1    H114085   2.610   2.718   1.575  2.9825  1.8267  0.6742
    1TCq1    H214086   2.442   2.434   1.342  1.0412  2.7645 -0.6697
    1TCq1    H314087   2.130   2.444   1.614  0.6648  1.0243  1.3572
    1TCq1    H414088   2.514   2.613   1.726 -0.9112  0.4844  0.9523
    2MPD1     C14089   1.942   2.551   2.203  0.0645 -0.7201 -0.1309
    2MPD1    C114090   1.877   2.550   2.085 -0.4092 -0.2682 -0.2938
    2MPD1    C214091   1.955   2.553   1.972 -0.3731  0.2102 -0.1018
    2MPD1    C314092   2.090   2.578   1.970 -0.3894  0.3758  0.5998
    2MPD1    C414093   2.155   2.582   2.088 -0.5614  0.0784 -0.4149
    2MPD1    C514094   2.081   2.559   2.205 -0.5493 -0.1286 -0.4353
    2MPD1     H14095   1.894   2.546   1.882 -2.0154  1.0652  0.9495
    2MPD1    H114096   2.262   2.596   2.096  0.2032 -5.3392 -0.9627
    2MPD1    H214097   1.888   2.538   2.296 -0.8425 -1.3733 -0.7497
    2MPD1    H314098   2.130   2.542   2.300 -0.9524  0.5506 -0.1042
    2MPD1     N14099   2.148   2.573   1.841 -0.0613  0.0799 -0.0542
    2MPD1    H514100   2.095   2.560   1.756 -1.8021 -1.6882  1.3004
    2MPD1    N114101   1.739   2.513   2.069 -0.0524 -0.0410  0.3221
    2MPD1    H614102   1.678   2.527   2.149 -0.2078  0.5609  0.1000
    2MPD1    H714103   1.686   2.554   1.993 -1.4737 -1.5427  0.5186
    1MPD1     C14104   3.835   2.254  12.259  0.2333 -0.1195  0.3623
    1MPD1    C114105   3.928   2.270  12.162 -0.0585  0.4211 -0.5302
    1MPD1    C214106   3.953   2.402  12.126  0.9938 -1.2655 -0.3345
    1MPD1    C314107   3.885   2.517  12.160  0.3093 -0.2142  0.0429
    1MPD1    C414108   3.785   2.494  12.254  0.1473  0.0057  0.2006
    1MPD1    C514109   3.764   2.364  12.298  0.2678  0.1644  0.4216
    1MPD1     H14110   4.047   2.408  12.073  1.9094 -2.2895  1.1496
    1MPD1    H114111   3.722   2.570  12.299  0.3605  0.0716  0.3888
    1MPD1    H214112   3.824   2.163  12.317 -1.5900 -0.7886 -1.0162
    1MPD1    H314113   3.678   2.352  12.364  1.4743 -0.2106  1.9406
    1MPD1     N14114   3.934   2.646  12.118 -0.3120  0.3377 -0.5274
    1MPD1    H514115   4.013   2.643  12.054  0.7026 -0.4438  0.7583
    1MPD1    N114116   4.020   2.174  12.121 -0.0743 -0.0683 -0.3336
    1MPD1    H614117   4.053   2.180  12.025  0.3768  0.5271 -0.1402
    1MPD1    H714118   3.988   2.077  12.119 -0.3627 -0.0260  2.1724
    2MPD1     C14119   3.707   3.590  11.122  0.3892  0.0931  0.4045
    2MPD1    C114120   3.598   3.538  11.063  0.0169  0.7250  0.4184
    2MPD1    C214121   3.607   3.434  10.971 -0.4064 -0.2690  0.0185
    2MPD1    C314122   3.728   3.379  10.936  0.0812 -1.0683  0.0767
    2MPD1    C414123   3.838   3.443  10.984  0.1552  0.1529 -0.3317
    2MPD1    C514124   3.828   3.553  11.065  0.0919 -0.1979 -0.2331
    2MPD1     H14125   3.518   3.382  10.938 -1.6599  1.9378 -0.0812
    2MPD1    H114126   3.934   3.394  10.970 -0.7724 -0.5225 -4.5818
    2MPD1    H214127   3.699   3.672  11.193 -0.2117 -1.2171  1.8682
    2MPD1    H314128   3.916   3.601  11.106 -0.1929  1.7901 -1.9870
    2MPD1     N14129   3.746   3.274  10.843 -1.0381  0.2618  0.2546
    2MPD1    H514130   3.841   3.252  10.814 -1.3227 -0.1976 -0.3370
    2MPD1    N114131   3.471   3.568  11.115  0.0474 -0.5641 -0.0112
    2MPD1    H614132   3.474   3.663  11.152 -1.4888 -1.0590  1.3768
    2MPD1    H714133   3.399   3.551  11.046  0.9140 -2.1125 -0.5239
    3MPD1     C14134   3.758   2.451  11.212 -0.2223  0.2571 -0.2998
    3MPD1    C114135   3.755   2.582  11.258 -0.5552  0.2840 -0.4990
    3MPD1    C214136   3.754   2.685  11.164 -0.0763 -0.2910  0.1909
    3MPD1    C314137   3.794   2.659  11.033  0.6148  0.4181 -0.3811
    3MPD1    C414138   3.815   2.528  10.997  0.3411 -0.2736  0.4375
    3MPD1    C514139   3.782   2.424  11.079  0.3045  0.3220 -0.2190
    3MPD1     H14140   3.736   2.790  11.187 -2.2437 -0.4649 -0.7913
    3MPD1    H114141   3.845   2.503  10.896 -1.1195  0.0221 -0.0727
    3MPD1    H214142   3.746   2.378  11.292 -0.8122 -1.3198 -1.8202
    3MPD1    H314143   3.815   2.327  11.043  0.6213 -0.0254  1.0149
    3MPD1     N14144   3.786   2.759  10.939 -0.1929  0.1410 -0.6228
    3MPD1    H514145   3.748   2.850  10.965 -1.9945 -0.3833 -1.4418
    3MPD1    N114146   3.711   2.609  11.389  0.6016  0.8885 -0.1679
    3MPD1    H614147   3.747   2.695  11.430  0.5233  1.0109 -0.3616
    3MPD1    H714148   3.733   2.537  11.458 -0.4204  0.6925 -0.0384
    4MPD2     C14149   3.758   3.148  11.567 -0.2163  0.0189  0.3082
    4MPD2    C114150   3.845   3.216  11.648 -0.3187  0.6246 -0.5865
    4MPD2    C214151   3.941   3.285  11.592  0.2461  0.3104  0.0164
    4MPD2    C314152   3.962   3.306  11.457  0.4308 -0.6629 -0.0011
    4MPD2    C414153   3.878   3.233  11.373  0.9563 -0.0824  0.5774
    4MPD2    C514154   3.779   3.163  11.434 -0.1704  0.0962  0.6654
    4MPD2     H14155   4.008   3.333  11.663  0.8434  0.4297 -0.6247
    4MPD2    H114156   3.886   3.229  11.265  1.0707 -0.9175  0.6179
    4MPD2    H214157   3.678   3.083  11.602 -0.8521  0.3789 -0.4953
    4MPD2    H314158   3.715   3.112  11.363 -0.0728 -0.2183  0.8013
    4MPD2     N14159   4.071   3.386  11.413 -0.2778 -0.7009 -0.1739
    4MPD2    H514160   4.087   3.390  11.313  0.1764  1.5630 -0.0146
    4MPD2    N114161   3.836   3.216  11.786 -0.7480  0.7887  0.3919
    4MPD2    H714162   3.909   3.269  11.832 -0.5392 -0.2936  1.3197
    5TMC3    C114163   3.855   3.084  11.980  0.5679 -0.2257 -0.4755
    5TMC3    C214164   3.813   2.969  12.038 -0.0429 -0.6000 -0.5762
    5TMC3    C314165   3.906   2.867  12.059  0.2642  0.3360 -0.3798
    5TMC3    C414166   3.985   3.104  11.956  0.2576 -0.0671 -0.9940
    5TMC3    C514167   4.074   3.002  11.985  0.3214 -0.3661 -0.3117
    5TMC3    C614168   4.042   2.888  12.043  0.7889  0.2298 -0.4637
    5TMC3     C14169   3.766   3.125  11.864  0.5525 -0.2164  0.8392
    5TMC3     O14170   3.665   3.060  11.840 -0.4060 -0.0357  0.6681
    5TMC3     H14171   3.710   2.936  12.037 -0.5146  0.7332  2.8267
    5TMC3    H114172   4.026   3.195  11.914  4.0984 -0.8776  0.9609
    5TMC3    H214173   4.124   2.824  12.074  1.4002  1.2014 -0.0752
    5TMC3    C714174   4.207   3.023  11.924  0.1499  0.2839 -0.1801
    5TMC3    C814175   3.867   2.762  12.148 -0.1735  0.2865  0.6911
    5TMC3    O114176   4.245   3.139  11.929  0.1571  0.7369 -0.1585
    5TMC3    O214177   3.759   2.780  12.205 -0.2631 -0.1175 -0.4022
    6TMC3    C114178   3.718   3.083  10.737  0.0169  0.3390 -0.6603
    6TMC3    C214179   3.717   2.953  10.782 -0.0179 -0.6499  0.8484
    6TMC3    C314180   3.822   2.879  10.739 -0.3588  0.2838 -0.4854
    6TMC3    C414181   3.812   3.128  10.652 -1.0662 -0.3477 -0.2906
    6TMC3    C514182   3.918   3.055  10.617  0.1311 -0.3525  0.1903
    6TMC3    C614183   3.922   2.925  10.653 -0.2020 -0.3322 -0.0403
    6TMC3     C14184   3.656   3.175  10.817  0.1991  0.2678 -0.6066
    6TMC3     O14185   3.550   3.145  10.868 -0.3456 -0.0901 -0.3319
    6TMC3     H14186   3.647   2.928  10.861 -2.8967  2.0976 -0.7881
    6TMC3    H114187   3.803   3.224  10.603 -2.5918  0.2493  1.1424
    6TMC3    H214188   4.007   2.861  10.630  0.9599  1.1025  0.3083
    6TMC3    C714189   4.036   3.128  10.657 -0.8105  0.4256 -0.3311
    6TMC3    C814190   3.850   2.755  10.813 -0.0477  0.6824  0.6248
    6TMC3    O114191   3.999   3.218  10.724  0.3097 -0.7830 -0.5065
    6TMC3    O214192   3.942   2.686  10.774 -0.4063  0.0547  0.5487
    7MPD2     C14193   4.524   2.879  11.539 -0.4826  0.5462  0.1735
    7MPD2    C114194   4.478   3.002  11.580  0.0337 -0.0670 -0.3641
    7MPD2    C214195   4.405   3.009  11.696  0.3475 -0.3997  0.4514
    7MPD2    C314196   4.354   2.899  11.762 -1.2296  0.4506 -0.9695
    7MPD2    C414197   4.396   2.774  11.712  0.7391 -0.0664  0.7763
    7MPD2    C514198   4.483   2.770  11.604  0.0404  0.2614 -0.3006
    7MPD2     H14199   4.373   3.109  11.722 -0.8344 -0.2521 -1.5100
    7MPD2    H114200   4.370   2.681  11.761 -1.1400 -0.5144 -1.0455
    7MPD2    H214201   4.590   2.858  11.455  1.2609  0.5914  1.5285
    7MPD2    H314202   4.513   2.676  11.559  1.1448  1.8200 -2.8296
    7MPD2     N14203   4.250   2.910  11.859 -0.2645 -0.2434 -0.3582
    7MPD2    H514204   4.202   2.823  11.878  1.1512 -1.3251 -1.7167
    7MPD2    N114205   4.517   3.109  11.498 -0.3281 -0.7724  0.3367
    7MPD2    H714206   4.539   3.077  11.404  5.1436  2.3126  0.6166
    8TMC3    C114207   4.465   3.334  11.434  0.7278 -0.2271  0.9019
    8TMC3    C214208   4.436   3.284  11.307 -0.7464  0.5730  0.2878
    8TMC3    C314209   4.339   3.344  11.228  0.1625 -0.3383 -0.5481
    8TMC3    C414210   4.385   3.432  11.490 -0.3692  0.9652 -0.5835
    8TMC3    C514211   4.280   3.486  11.417 -0.2998  0.0237 -0.4753
    8TMC3    C614212   4.267   3.447  11.284  0.6521  0.5730  0.1313
    8TMC3     C14213   4.512   3.241  11.538  0.1613  0.4134  0.7342
    8TMC3     O14214   4.509   3.274  11.656 -0.3593  0.1385 -0.0193
    8TMC3     H14215   4.496   3.206  11.261  2.1041  2.6700  0.4106
    8TMC3    H114216   4.385   3.452  11.597 -0.9910  2.0517 -0.7818
    8TMC3    H214217   4.189   3.488  11.222  0.4338 -3.1778 -2.0786
    8TMC3    C714218   4.154   3.465  11.488 -0.3259 -0.2419 -0.1674
    8TMC3    C814219   4.298   3.287  11.103  0.2215  0.5268 -0.1158
    8TMC3    O114220   4.150   3.495  11.607 -0.0664 -0.6063  0.2219
    8TMC3    O214221   4.180   3.292  11.072  0.1989  0.0976  0.4751
    9MPD2     C14222   4.491   3.057  10.894  0.4478  1.1356 -0.6985
    9MPD2    C114223   4.385   3.139  10.919  0.8851  0.4341 -0.0459
    9MPD2    C214224   4.268   3.143  10.838  0.8680  0.4619  0.2576
    9MPD2    C314225   4.260   3.062  10.732 -0.5819 -0.0172  0.4034
    9MPD2    C414226   4.373   2.977  10.697 -0.6490  0.7839 -0.6141
    9MPD2    C514227   4.479   2.979  10.785  0.2949  0.0046 -0.4852
    9MPD2     H14228   4.190   3.216  10.860 -0.5889 -0.9061 -0.3605
    9MPD2    H114229   4.386   2.931  10.600 -0.3487  0.3506 -0.3670
    9MPD2    H214230   4.588   3.060  10.941 -0.3936 -1.0952  1.1989
    9MPD2    H314231   4.572   2.937  10.748  0.8063  1.1501 -0.5262
    9MPD2     N14232   4.145   3.054  10.654  0.6641 -0.2033 -0.5034
    9MPD2    H514233   4.152   2.991  10.574 -1.7688 -2.1250  0.7916
    9MPD2    N114234   4.395   3.212  11.040 -0.1120 -0.1828 -0.3241
    9MPD2    H714235   4.490   3.195  11.073 -0.3777 -1.2330 -0.1116
    1MPD1     C14236   3.380   0.950  16.116 -0.6014  0.0473 -0.1125
    1MPD1    C114237   3.306   0.924  16.004 -0.1492 -0.2539  0.0988
    1MPD1    C214238   3.346   0.989  15.890 -0.5348 -0.4926 -0.2309
    1MPD1    C314239   3.449   1.082  15.896 -0.8990 -0.8032  0.0330
    1MPD1    C414240   3.501   1.116  16.016 -0.3202 -0.2928  0.2820
    1MPD1    C514241   3.465   1.056  16.132 -0.5968 -0.4433  0.2526
    1MPD1     H14242   3.294   0.970  15.797  0.5491 -0.9281 -0.7569
    1MPD1    H114243   3.586   1.184  16.018 -1.1446  0.7158  0.6573
    1MPD1    H214244   3.356   0.894  16.206 -0.2612  1.1787  0.6836
    1MPD1    H314245   3.514   1.073  16.228  1.4918 -0.7579 -0.7657
    1MPD1     N14246   3.492   1.155  15.784  0.0743 -0.3897 -0.0870
    1MPD1    H514247   3.563   1.227  15.795 -0.3187 -0.2037  1.2050
    1MPD1    N114248   3.223   0.809  15.998 -0.1904 -0.3935  0.0156
    1MPD1    H614249   3.180   0.800  16.090  1.9798 -1.6820  0.8941
    1MPD1    H714250   3.153   0.813  15.924  1.2269 -1.7999 -1.3977
    2MPD1     C14251   3.365   1.992  15.739 -0.2526 -0.4483 -0.1379
    2MPD1    C114252   3.325   1.884  15.818  0.3029  0.5819  0.6160
    2MPD1    C214253   3.386   1.764  15.787 -0.3951 -0.2339 -0.2686
    2MPD1    C314254   3.476   1.739  15.679  0.4370  0.0401  0.4920
    2MPD1    C414255   3.508   1.850  15.605  0.7823  0.5928 -0.9084
    2MPD1    C514256   3.446   1.967  15.632  0.2193 -0.0159  0.6879
    2MPD1     H14257   3.354   1.675  15.839 -0.0371  1.4218  2.7852
    2MPD1    H114258   3.579   1.837  15.524  0.9293 -0.4824 -0.6050
    2MPD1    H214259   3.326   2.090  15.767 -2.5422 -1.0625 -1.1348
    2MPD1    H314260   3.470   2.052  15.570  0.0116 -0.8502 -0.5371
    2MPD1     N14261   3.516   1.607  15.649 -0.6219 -1.1117  0.6134
    2MPD1    H514262   3.511   1.540  15.726 -1.9170  0.3998  1.8645
    2MPD1    N114263   3.224   1.884  15.912 -0.7237 -0.0340  0.1237
    2MPD1    H614264   3.237   1.804  15.972  3.2886  0.9852  0.6277
    2MPD1    H714265   3.215   1.973  15.961 -1.0885 -0.1425  0.2545
    3TCq2    C114266   3.575   1.575  15.531 -0.7122  0.4648  1.1255
    3TCq2    O214267   3.581   1.638  15.428 -0.1219 -0.2150  0.5037
    3TCq2    C214268   3.591   1.431  15.509  0.8534  0.4085 -0.1827
    3TCq2    C314269   3.605   1.389  15.381 -0.5934  0.0581  0.2723
    3TCq2    C414270   3.595   1.257  15.346 -0.1996  0.1049 -0.4239
    3TCq2    C514271   3.569   1.167  15.443 -1.1551 -0.5107  0.1983
    3TCq2    C614272   3.540   1.209  15.566 -0.1394 -0.2504  0.2872
    3TCq2    C714273   3.538   1.340  15.604  0.1421 -0.1710 -0.3443
    3TCq2    C814274   3.469   1.119  15.654  0.1773  0.2423 -0.6784
    3TCq2    O414275   3.407   1.025  15.604  0.3775 -0.2029 -0.5810
    3TCq2    C914276   3.605   1.223  15.203 -0.0186 -0.4623 -0.7436
    3TCq2    O514277   3.592   1.100  15.182  0.3023  0.4831 -0.0245
    3TCq2    O614278   3.635   1.314  15.117 -0.3697 -0.0209  0.8833
    3TCq2    H214279   3.615   1.461  15.301 -0.6930 -2.5488 -2.0771
    3TCq2    H314280   3.555   1.063  15.413  4.7580 -1.0910 -0.4166
    3TCq2    H414281   3.488   1.369  15.695  0.6272  0.1498 -0.1825
    1TCq1    O114282   1.379   0.816  12.437 -0.5645  0.1033 -0.6552
    1TCq1    C114283   1.471   0.723  12.466 -0.7863 -0.2861  0.3624
    1TCq1    O214284   1.545   0.672  12.383 -0.1363  0.4482 -0.0822
    1TCq1    C214285   1.499   0.751  12.604 -0.0566  0.3700  0.7710
    1TCq1    C314286   1.418   0.700  12.700  0.5637 -0.4630  0.2572
    1TCq1    C414287   1.446   0.721  12.837  0.0361 -0.0153  0.9036
    1TCq1    C514288   1.552   0.796  12.876  1.1009 -0.3642  0.5061
    1TCq1    C614289   1.643   0.823  12.773  0.2514 -0.8165 -0.0363
    1TCq1    C714290   1.615   0.814  12.642  1.0014  0.1273 -0.4071
    1TCq1    C814291   1.761   0.897  12.817 -0.3338  0.0055  0.9992
    1TCq1    O414292   1.839   0.940  12.731  0.1111  0.1385  0.4194
    1TCq1    C914293   1.358   0.671  12.939  0.2369  0.0590  0.1982
    1TCq1    O514294   1.254   0.609  12.900 -0.5752 -0.9972 -0.1490
    1TCq1    O614295   1.403   0.677  13.057 -0.6384 -0.0841  0.1642
    1TCq1    H114296   1.330   0.848  12.517 -0.9555  1.6437 -1.4981
    1TCq1    H214297   1.331   0.642  12.672  1.6419 -1.2084 -1.5334
    1TCq1    H314298   1.568   0.805  12.983  1.8637  0.0177  0.3630
    1TCq1    H414299   1.677   0.854  12.562  1.9188 -1.8844 -0.7049
    2MPD2     C14300   2.000   1.015  12.948  0.1409 -0.6266  0.1500
    2MPD2    C114301   1.902   0.935  13.010 -0.0397  0.6250  0.3482
    2MPD2    C214302   1.921   0.901  13.141 -0.6297  0.5154  0.6899
    2MPD2    C314303   2.039   0.915  13.205 -0.2182  1.0542 -0.5100
    2MPD2    C414304   2.139   0.982  13.141  0.5881 -0.0825 -0.3834
    2MPD2    C514305   2.116   1.043  13.021  0.3163 -0.7894  0.4751
    2MPD2     H14306   1.833   0.848  13.176 -0.8205  1.6221  1.8903
    2MPD2    H114307   2.231   0.992  13.198  0.9136  0.7050 -1.0452
    2MPD2    H214308   1.981   1.073  12.858 -2.0350  1.6183  2.0568
    2MPD2    H314309   2.199   1.097  12.977 -0.3535 -0.0905  0.0941
    2MPD2     N14310   2.069   0.848  13.328  0.5607 -0.4211 -0.0256
    2MPD2    H514311   2.164   0.836  13.361  0.6791 -0.5698 -0.4251
    2MPD2    N114312   1.781   0.897  12.951  0.6366  0.4260  0.1528
    2MPD2    H714313   1.711   0.853  13.010  0.8073 -0.0741 -0.0190
    3TCq1    O114314   1.897   0.606  13.974  0.5330 -0.2078  0.0330
    3TCq1    C114315   1.881   0.702  13.880  0.5963 -0.1323  0.6177
    3TCq1    O214316   1.827   0.813  13.895 -0.2561  0.2637  0.0370
    3TCq1    C214317   1.962   0.665  13.760  0.5076 -0.2086 -0.2506
    3TCq1    C314318   2.084   0.611  13.778 -0.1674 -0.3474 -0.1908
    3TCq1    C414319   2.179   0.617  13.673 -0.0623  0.0556  0.6907
    3TCq1    C514320   2.147   0.683  13.556 -0.0948  0.2234  0.5617
    3TCq1    C614321   2.024   0.733  13.541 -0.6899 -0.2354 -0.1714
    3TCq1    C714322   1.926   0.722  13.641  0.4151  0.1707  0.1133
    3TCq1    C814323   1.974   0.790  13.411 -0.7494 -0.1177  0.5964
    3TCq1    O414324   1.850   0.799  13.399  0.0219 -0.0714 -0.3379
    3TCq1    C914325   2.311   0.560  13.686  0.1848 -0.8495 -0.4330
    3TCq1    O514326   2.390   0.594  13.593 -0.2884 -0.4572 -0.5284
    3TCq1    O614327   2.331   0.510  13.799  0.4584  0.3461  0.0926
    3TCq1    H114328   1.914   0.518  13.935  1.3273 -0.0869  0.0964
    3TCq1    H214329   2.119   0.581  13.876  3.1447 -0.3395 -1.3654
    3TCq1    H314330   2.216   0.707  13.475 -0.9083 -1.8085 -0.7388
    3TCq1    H414331   1.824   0.758  13.635  0.3319  0.3518  2.7030
    1MPD2     C14332   1.060   1.409  15.321 -0.7319 -0.2099 -0.1624
    1MPD2    C114333   1.037   1.340  15.199  0.4364 -0.0298  0.1678
    1MPD2    C214334   1.141   1.293  15.131  0.3581 -0.3712  0.0941
    1MPD2    C314335   1.269   1.276  15.189 -0.1809 -0.0168  0.1611
    1MPD2    C414336   1.287   1.337  15.311 -0.0891  0.1790 -1.0414
    1MPD2    C514337   1.186   1.405  15.372 -0.0323 -0.3386 -0.8058
    1MPD2     H14338   1.115   1.257  15.032 -2.1451  0.0723  0.5845
    1MPD2    H114339   1.389   1.343  15.349 -1.4160 -0.8132  2.6553
    1MPD2    H214340   0.986   1.469  15.373 -0.9661 -2.9875  2.6675
    1MPD2    H314341   1.204   1.468  15.458  2.2934  0.2301 -1.7012
    1MPD2     N14342   1.373   1.198  15.140 -0.3849  0.1792  0.0052
    1MPD2    H514343   1.465   1.196  15.183 -0.1409  0.6222 -0.4847
    1MPD2    N114344   0.907   1.348  15.143 -0.8467  0.3095  0.0154
    1MPD2    H714345   0.841   1.411  15.187 -2.7327  0.0355 -2.4427
    2TMC3    C114346   0.723   1.242  15.023  1.0615 -0.8498  0.1651
    2TMC3    C214347   0.695   1.123  14.966 -0.1715 -0.2742 -0.0220
    2TMC3    C314348   0.626   1.122  14.844  0.6654 -0.0926 -0.1103
    2TMC3    C414349   0.670   1.357  14.977  0.7496  0.3247  0.4754
    2TMC3    C514350   0.600   1.341  14.858  0.1006  0.2927  0.1599
    2TMC3    C614351   0.564   1.231  14.797 -0.5209 -0.3827  0.6601
    2TMC3     C14352   0.867   1.253  15.049  0.1221 -0.2867  0.0435
    2TMC3     O14353   0.924   1.158  15.001  0.9097  0.1129 -0.5050
    2TMC3     H14354   0.736   1.035  15.014  0.6859  0.8813  1.3663
    2TMC3    H114355   0.702   1.452  15.017 -0.6448  1.1747 -0.4136
    2TMC3    H214356   0.544   1.242  14.691 -1.3055 -2.3198  0.6133
    2TMC3    C714357   0.546   1.463  14.804 -0.0849  0.4356 -0.4979
    2TMC3    C814358   0.689   1.025  14.751 -0.1821 -0.5521  0.5673
    2TMC3    O114359   0.432   1.456  14.765  0.3202 -0.5554 -0.5158
    2TMC3    O214360   0.636   0.995  14.642 -0.4186  0.1876 -0.5120
    3TCq1    O114361   1.170   2.084  15.239 -0.2190  0.0021  0.1051
    3TCq1    C114362   1.115   2.179  15.159 -0.0738  0.1031 -0.4657
    3TCq1    O214363   1.145   2.180  15.037 -0.6783  0.2030 -0.2937
    3TCq1    C214364   0.982   2.185  15.191  0.2824 -0.5190 -0.5683
    3TCq1    C314365   0.954   2.242  15.310 -1.3198  0.8361 -0.4479
    3TCq1    C414366   0.824   2.276  15.323 -0.4271 -0.4725 -0.2399
    3TCq1    C514367   0.730   2.272  15.224  0.0047 -0.1432  0.2146
    3TCq1    C614368   0.765   2.217  15.103  0.7242  0.6346  0.1461
    3TCq1    C714369   0.891   2.175  15.088 -1.2150 -0.0633  0.3138
    3TCq1    C814370   0.665   2.155  15.018 -0.1343  0.3779  0.4274
    3TCq1    O414371   0.564   2.219  15.004  0.2679 -0.7189  0.0996
    3TCq1    C914372   0.787   2.318  15.450  0.4573  0.3219  0.6707
    3TCq1    O514373   0.884   2.344  15.519 -0.2118  0.0313 -0.3361
    3TCq1    O614374   0.668   2.317  15.488 -0.1446 -0.4973  0.1712
    3TCq1    H114375   1.107   2.048  15.305 -2.5590 -0.0765 -2.1966
    3TCq1    H214376   1.028   2.278  15.381 -1.4382  1.8862 -0.8481
    3TCq1    H314377   0.632   2.310  15.249 -0.1949 -0.4355 -0.1171
    3TCq1    H414378   0.918   2.131  14.993  2.2517  1.7139  0.4696
    4MPD2     C14379   0.504   1.974  14.841  0.8687 -0.6205  0.8701
    4MPD2    C114380   0.617   1.929  14.905 -1.1094  0.3620  0.5340
    4MPD2    C214381   0.655   1.797  14.904 -0.5913  0.7596  0.1394
    4MPD2    C314382   0.580   1.706  14.844 -0.0205  0.1159  0.4851
    4MPD2    C414383   0.469   1.748  14.782  0.0391 -0.4951 -0.1923
    4MPD2    C514384   0.430   1.877  14.771 -1.1186  0.5831 -0.6615
    4MPD2     H14385   0.742   1.768  14.962  0.0816 -0.1764 -1.3297
    4MPD2    H114386   0.410   1.687  14.715 -1.8668  1.0416  0.0883
    4MPD2    H214387   0.479   2.079  14.841 -0.5465 -0.9556  1.5411
    4MPD2    H314388   0.348   1.911  14.710 -0.4011  1.6110 -1.0482
    4MPD2     N14389   0.619   1.576  14.837  0.7982 -0.5441 -0.5950
    4MPD2    H514390   0.714   1.569  14.873  0.8842  0.2747 -0.6646
    4MPD2    N114391   0.701   2.026  14.976 -0.9002  0.0052  0.0341
    4MPD2    H714392   0.790   1.990  15.011 -0.7420  1.2449  0.9301
    5TMC2    C114393   1.512   0.909  14.799  0.5293  0.1042 -0.2675
    5TMC2    C214394   1.579   0.823  14.884  0.0374 -0.5952  0.2876
    5TMC2    C314395   1.605   0.870  15.006 -0.5504 -0.0109 -0.4453
    5TMC2    C414396   1.468   1.032  14.836  0.1353 -0.1028 -0.0853
    5TMC2    C514397   1.479   1.067  14.968  0.8247 -0.5940 -0.4827
    5TMC2    C614398   1.548   0.989  15.056  0.7520  0.0531  0.0237
    5TMC2     C14399   1.405   0.829  14.739  0.2970  0.0941 -0.1257
    5TMC2     O14400   1.424   0.713  14.714  0.6493 -0.1907 -0.3524
    5TMC2     H14401   1.622   0.732  14.844  0.4004 -0.7767  1.0969
    5TMC2    H114402   1.436   1.100  14.758 -2.3744  0.4009  1.3646
    5TMC2    H214403   1.549   1.019  15.160 -0.2558  0.2385 -0.0223
    5TMC2    C714404   1.361   1.134  15.019 -0.4700 -0.6577 -0.0510
    5TMC2    C814405   1.721   0.816  15.085  0.1986 -0.0992  0.4584
    5TMC2    O114406   1.275   1.142  14.930  0.1779 -0.4943 -0.2261
    5TMC2    O214407   1.734   0.867  15.198  0.7940  0.7155 -0.6008
    5TMC2    O514408   1.828   0.779  15.004 -0.1951  0.2901 -0.0628
    5TMC2    H514409   1.798   0.724  14.928  0.0164  2.0207 -1.3875
    6MPD2     C14410   0.879   0.792  14.688  1.0064 -0.1540  0.4248
    6MPD2    C114411   0.913   0.911  14.750 -0.4648 -0.6984  0.3578
    6MPD2    C214412   1.043   0.940  14.776 -0.2034 -0.3533 -0.3928
    6MPD2    C314413   1.154   0.859  14.732  0.0887 -0.3073  0.0615
    6MPD2    C414414   1.115   0.741  14.673  0.4834  0.5109  0.6111
    6MPD2    C514415   0.983   0.709  14.655  0.0483 -0.3805 -0.7636
    6MPD2     H14416   1.061   1.040  14.814  3.1769 -1.0807 -0.0417
    6MPD2    H114417   1.194   0.675  14.640 -1.1845 -0.6301 -1.0407
    6MPD2    H214418   0.779   0.761  14.658  0.3071  0.6791  1.9062
    6MPD2    H314419   0.965   0.624  14.590  0.0762  0.3992 -1.7956
    6MPD2     N14420   1.287   0.900  14.750 -0.2995  0.5445 -0.1858
    6MPD2    H514421   1.290   0.996  14.782 -3.5633  0.4305  0.4768
    6MPD2    N114422   0.823   1.010  14.791  0.5522 -0.1687 -0.0215
    6MPD2    H714423   0.853   1.057  14.876  0.6908 -0.4888  0.1037
  945NH4     N114424   3.575   1.502  13.584  0.0358 -0.1738 -0.0328
  945NH4     H214425   3.522   1.441  13.519  0.8470 -0.1262 -0.7438
  945NH4     H314426   3.535   1.495  13.680  1.4581  1.6653  0.6985
  945NH4     H414427   3.582   1.599  13.549 -0.4022 -0.0992  0.0908
  945NH4     H514428   3.674   1.468  13.591 -0.3864 -1.1083  1.3781
  946SOD     NA14429   1.449   4.629   1.800 -0.4557  0.6664  0.1269
  947SOD     NA14430   0.613   0.828   9.408  0.5766 -0.2324  0.0496
  948SOD     NA14431   2.348   4.508  11.003  0.2313 -0.8847 -0.4128
  949SOD     NA14432   2.446   2.759   0.373 -0.0214 -0.2148  0.2757
  950SOD     NA14433   2.556   3.637  17.147  0.0841  0.0086 -0.5202
  951SOD     NA14434   0.585   1.256   3.210 -0.4382 -0.4946  0.0084
  952SOD     NA14435   1.714   4.609  11.995 -0.2189  0.1965 -0.1982
  953SOD     NA14436   2.311   1.789  12.141 -0.0011  0.2948 -0.0477
  954SOD     NA14437   1.658   3.741   9.997  0.7049 -0.4665  0.5004
  955SOD     NA14438   3.968   3.614   8.152 -0.5318 -0.0805 -0.1233
  956SOD     NA14439   3.543   0.107  13.282 -0.2796  0.2803 -0.2698
  957SOD     NA14440   3.134   3.634  12.061  0.4623 -0.1073  0.1973
  958SOD     NA14441   0.989   2.519  15.582 -0.0553 -0.2073 -0.1876
  959SOD     NA14442   0.444   0.417  11.693 -0.0159  0.0467 -0.0866
  960SOD     NA14443   2.761   2.088  15.338 -0.0126 -0.1454  0.1294
  961SOD     NA14444   1.654   2.402   0.888  0.4904 -0.0673 -0.1524
  962SOD     NA14445   0.672   0.376  13.621  0.0614  0.1278  0.0870
  963SOD     NA14446   0.128   1.287   5.763  0.4256  0.2375  0.2909
  964SOD     NA14447   0.029   0.104  12.916  0.6204 -0.3905  0.2890
  965SOD     NA14448   4.278   2.212  13.975  0.2687 -0.0404  0.3343
  966SOD     NA14449   1.279   2.586   3.199 -0.0297 -0.2482  0.2249
  967SOD     NA14450   2.552   1.781  11.915 -0.0082  0.1000  0.3988
  968SOD     NA14451   1.850   2.006  10.939  0.0507 -0.1853 -0.1035
  969SOD     NA14452   1.320   4.038  12.943  0.4446 -0.2852  0.7978
  970SOD     NA14453   1.432   4.049  10.881 -0.4782 -0.4642  0.2367
  971SOD     NA14454   1.892   0.759  11.700 -0.2390 -0.4284 -0.1224
  972SOD     NA14455   4.503   1.311  13.982  0.3608  0.4985  0.0280
  973SOD     NA14456   1.079   1.716  12.767 -0.1988  0.1095 -0.1034
  974SOD     NA14457   2.651   0.580   1.367 -0.1463  0.3293  0.7555
  975SOD     NA14458   2.001   1.652   1.607 -0.2292 -0.5352  0.1936
  976SOD     NA14459   2.862   3.518  14.790 -0.1366  0.1956 -0.6868
  977SOD     NA14460   0.022   1.233  15.094 -0.1161  0.1356  0.3929
  978SOD     NA14461   3.245   1.047  11.646  0.2898 -0.6738  0.1339
  979SOD     NA14462   1.337   0.813   0.789  0.0580 -0.1732 -0.2326
  980SOD     NA14463   2.607   0.501  14.517 -0.3219 -0.5301  0.0814
  981SOD     NA14464   4.565   0.757   2.990 -0.1233  0.0390 -0.0756
  982SOD     NA14465   3.760   3.108   8.805 -0.4152  0.4392  0.3083
  983SOD     NA14466   1.665   1.570   0.205 -0.2540  0.4413 -0.2291
  984SOD     NA14467   0.515   0.473   8.208 -0.1420  0.3017 -0.0001
  985SOD     NA14468   1.669   4.227  10.875  1.1411  0.1342  0.4124
  986SOD     NA14469   1.444   0.795  15.486 -0.1433  0.6022 -0.4441
  987SOD     NA14470   1.141   2.436   9.298 -0.3170 -0.1968 -0.2032
  988SOD     NA14471   3.658   3.918   1.037  0.0627  0.0024  0.4859
  989SOD     NA14472   2.874   2.286  10.091 -0.0638 -0.1702 -0.1500
  990SOD     NA14473   3.578   4.160  17.438  0.1049  0.4331 -0.5541
  991SOD     NA14474   1.325   3.304  16.358  0.5672 -0.0704 -0.2158
  992SOD     NA14475   3.557   4.606  12.873  0.1004 -0.6852  0.7833
  993SOD     NA14476   2.578   0.231  14.029  0.2892 -0.7066 -0.0207
  994SOD     NA14477   3.078   1.149  15.466 -0.0191 -0.1053  0.2970
  995SOD     NA14478   1.945   1.258   8.883 -0.5859  0.1795  0.0980
  996SOD     NA14479   2.230   3.418  13.848  0.7505  0.0725 -0.3745
  997SOD     NA14480   1.969   4.205  10.655  0.1868  0.1620  0.7055
  998SOD     NA14481   4.569   0.707  13.333  0.1493 -0.3210  0.6046
  999SOD     NA14482   2.805   2.737   2.727  0.6753 -0.2676 -0.1580
 1000SOD     NA14483   0.617   1.497  11.454  0.3865  0.2246 -0.4650
 1001SOD     NA14484   0.264   1.208  14.413 -0.2574 -0.2242 -0.1902
 1002SOD     NA14485   3.914   1.427   8.007  0.3299 -0.2672 -0.0032
 1003SOD     NA14486   3.967   3.804   0.904  0.1803  0.0169  0.2835
 1004SOD     NA14487   3.709   1.295  14.917  0.0836 -0.2906  0.5095
 1005SOD     NA14488   3.269   0.905  15.080  0.3927 -0.3427 -0.0963
 1006SOD     NA14489   0.285   4.509  13.873  0.2817 -0.6644 -0.2428
 1007SOD     NA14490   1.950   3.680  17.079 -0.5811  0.5832  0.1046
 1008SOD     NA14491   3.777   0.441   0.100 -0.6681 -0.4289  0.7003
 1009SOD     NA14492   3.564   1.660  10.821  0.0064  0.1646  0.1450
 1010SOD     NA14493   3.294   4.014   9.628 -0.3654 -0.3464 -0.0826
 1011SOL     OW14494   0.507   0.732   5.284 -0.5836 -0.2509  0.0475
 1011SOL    HW114495   0.440   0.712   5.218 -0.5892 -0.9440  0.2659
 1011SOL    HW214496   0.583   0.741   5.227 -0.4526  3.1621  0.7486
 1012SOL     OW14497   1.289   4.007   8.512  0.6656  0.2288  0.0671
 1012SOL    HW114498   1.253   3.966   8.590 -0.1346  0.4444 -0.1909
 1012SOL    HW214499   1.362   3.946   8.504 -0.3646 -0.8851 -0.9592
 1013SOL     OW14500   1.778   0.302   4.786  0.1817  0.0569  0.1909
 1013SOL    HW114501   1.750   0.237   4.850  2.6730 -0.5882  0.6307
 1013SOL    HW214502   1.838   0.252   4.730 -0.7278  0.8231 -1.4822
 1014SOL     OW14503   0.876   0.323   7.566 -0.4382  0.1657  0.2069
 1014SOL    HW114504   0.839   0.242   7.600 -0.7686  0.3038  0.1796
 1014SOL    HW214505   0.840   0.332   7.478  1.3360 -0.8163 -0.6152
 1015SOL     OW14506   0.548   4.480  12.883  0.6508 -0.0683  0.4198
 1015SOL    HW114507   0.592   4.438  12.810  0.6010 -0.3524  0.5534
 1015SOL    HW214508   0.523   4.564  12.844  0.0461  0.2519  1.4812
 1016SOL     OW14509   1.263   2.785  12.005  0.2872  0.0983  0.0687
 1016SOL    HW114510   1.226   2.855  12.059  1.3857  1.2316 -0.6325
 1016SOL    HW214511   1.189   2.724  12.007 -1.0259  1.6694 -0.2302
 1017SOL     OW14512   4.371   3.064  16.339 -0.1864 -0.0156  0.1415
 1017SOL    HW114513   4.409   3.141  16.380 -0.6716 -0.2100  0.9577
 1017SOL    HW214514   4.351   3.100  16.253 -0.2103  1.6014  0.8195
 1018SOL     OW14515   4.007   0.419   5.006 -0.4984 -1.2466 -0.2009
 1018SOL    HW114516   4.000   0.340   5.060  1.5009 -0.1760  1.6296
 1018SOL    HW214517   3.926   0.463   5.035  0.2909 -0.9044  1.5201
 1019SOL     OW14518   4.463   3.837   8.165 -0.0194 -0.1076  0.0677
 1019SOL    HW114519   4.467   3.932   8.156 -2.0703  0.1523  1.8721
 1019SOL    HW214520   4.529   3.824   8.233  0.1993  0.9895  0.0660
 1020SOL     OW14521   0.004   2.792  10.859 -0.0423 -0.6910 -0.3918
 1020SOL    HW114522   4.653   2.794  10.918  0.4327 -0.0794  0.1850
 1020SOL    HW214523   0.062   2.853  10.904  0.6326 -2.3792  1.0477
 1021SOL     OW14524   3.479   1.117   0.015 -0.6915  0.0795 -0.2505
 1021SOL    HW114525   3.388   1.122  17.684 -0.4841 -2.1054 -1.2597
 1021SOL    HW214526   3.477   1.048   0.081 -1.6018  0.1514 -0.2060
 1022SOL     OW14527   1.483   1.648   4.221  0.2017 -0.4518 -0.0486
 1022SOL    HW114528   1.492   1.657   4.316 -0.2892  1.8475 -0.2254
 1022SOL    HW214529   1.506   1.739   4.201  0.1521  0.0515  2.1854
 1023SOL     OW14530   2.527   4.124   5.472 -0.6603  0.5677  0.3128
 1023SOL    HW114531   2.537   4.219   5.470  1.0039  0.3726 -0.7967
 1023SOL    HW214532   2.432   4.120   5.480 -0.6811  1.2096  0.4123
 1024SOL     OW14533   0.727   3.968   0.682 -0.0831 -0.0163  0.3345
 1024SOL    HW114534   0.641   3.930   0.665 -0.5943  0.6842  1.4125
 1024SOL    HW214535   0.788   3.894   0.686  0.2089  0.1539 -0.8160
 1025SOL     OW14536   0.396   1.186   2.083 -0.0048 -0.3164  0.0458
 1025SOL    HW114537   0.425   1.276   2.099  1.7572 -0.8032 -0.4117
 1025SOL    HW214538   0.440   1.174   1.999 -0.6312  1.0587 -0.4809
 1026SOL     OW14539   0.408   1.264   5.164  0.4442  0.2198 -0.3843
 1026SOL    HW114540   0.433   1.337   5.220  2.9831  0.6022 -2.0315
 1026SOL    HW214541   0.397   1.190   5.224 -2.0739  0.5367 -0.4494
 1027SOL     OW14542   3.359   2.759   8.986  0.0184 -0.2874 -0.6237
 1027SOL    HW114543   3.315   2.794   9.064  0.6253  0.7287 -0.7325
 1027SOL    HW214544   3.289   2.759   8.921 -0.9432 -0.5475  0.4186
 1028SOL     OW14545   3.646   3.231   5.585  0.0642  0.0200  0.0662
 1028SOL    HW114546   3.599   3.303   5.543 -3.4040 -1.9017  0.6549
 1028SOL    HW214547   3.606   3.159   5.535 -2.6112  0.4073  1.6557
 1029SOL     OW14548   0.271   1.102   3.883 -0.0932  0.0038 -0.3088
 1029SOL    HW114549   0.200   1.052   3.923 -0.1085 -1.3025 -1.9582
 1029SOL    HW214550   0.320   1.037   3.833  0.2379  1.4125 -1.7783
 1030SOL     OW14551   4.125   2.429   3.125  0.2903 -0.0574  0.1877
 1030SOL    HW114552   4.110   2.335   3.133  0.1940 -0.1064 -0.5871
 1030SOL    HW214553   4.164   2.456   3.209  0.6540 -0.4238  0.1367
 1031SOL     OW14554   4.557   0.887   9.310  0.2490 -0.1402 -0.3902
 1031SOL    HW114555   4.473   0.860   9.274  0.3289  1.1798 -1.5603
 1031SOL    HW214556   4.586   0.957   9.251 -2.0405  0.9233 -0.2384
 1032SOL     OW14557   2.126   3.467   5.685 -0.3002  0.1858 -0.1744
 1032SOL    HW114558   2.193   3.406   5.716 -0.1955  0.3956  0.0135
 1032SOL    HW214559   2.145   3.556   5.717  0.5108  0.3053 -0.9641
 1033SOL     OW14560   2.905   4.197   4.811  0.3984 -0.4564 -0.1761
 1033SOL    HW114561   2.897   4.271   4.750  1.6400  0.8441  1.2138
 1033SOL    HW214562   2.987   4.228   4.849  0.9996 -1.4917 -0.6380
 1034SOL     OW14563   2.730   3.418  10.945  0.3861 -0.3150 -0.2526
 1034SOL    HW114564   2.650   3.431  10.996  0.8121  1.7689 -0.1448
 1034SOL    HW214565   2.788   3.390  11.015 -0.0193  2.1239  1.0426
 1035SOL     OW14566   3.865   3.155   3.930 -0.4957 -0.2346  0.2581
 1035SOL    HW114567   3.836   3.064   3.932  1.7070 -0.9315 -0.0292
 1035SOL    HW214568   3.809   3.197   3.995  0.0052 -1.3052  1.3808
 1036SOL     OW14569   1.222   4.620  13.142  0.1231  0.2432  0.3638
 1036SOL    HW114570   1.222   4.700  13.195 -0.8893 -0.6743  1.7531
 1036SOL    HW214571   1.295   4.634  13.081 -1.3595  1.5718 -1.0682
 1037SOL     OW14572   3.976   4.679  14.301  0.1468 -0.0775 -0.1237
 1037SOL    HW114573   4.033   4.708  14.230  1.3264  0.5271  1.0768
 1037SOL    HW214574   3.918   0.031  14.298  0.1980 -0.1300 -3.1289
 1038SOL     OW14575   1.956   3.941   8.140  0.1665  0.1316  0.3402
 1038SOL    HW114576   2.006   4.022   8.127  0.7070 -0.0564  1.2590
 1038SOL    HW214577   1.893   3.961   8.209  1.2014 -0.2950  1.3886
 1039SOL     OW14578   3.928   4.595   7.419 -0.4089  0.7871 -0.4773
 1039SOL    HW114579   3.939   4.610   7.325  1.1013  2.1630 -0.0722
 1039SOL    HW214580   3.914   4.687   7.441  0.4369  1.0569 -1.0493
 1040SOL     OW14581   2.534   0.554   8.477  0.5103  0.0451  0.5200
 1040SOL    HW114582   2.574   0.512   8.553 -2.0341 -0.6994  1.4475
 1040SOL    HW214583   2.524   0.487   8.410 -1.0755  1.4587 -0.6899
 1041SOL     OW14584   2.130   1.368   8.949  0.5357 -0.1320  0.0047
 1041SOL    HW114585   2.173   1.351   9.033 -1.1800 -1.7187  0.5666
 1041SOL    HW214586   2.198   1.356   8.883  0.1040 -4.6583  0.3704
 1042SOL     OW14587   1.186   2.515   5.418 -0.4056  0.3124 -0.7240
 1042SOL    HW114588   1.114   2.577   5.427 -0.3756  0.0707  1.1078
 1042SOL    HW214589   1.145   2.429   5.424 -1.1553  0.7098 -0.1391
 1043SOL     OW14590   1.409   2.795  10.629 -0.0185 -0.1666 -0.0127
 1043SOL    HW114591   1.478   2.850  10.592  1.4663 -0.4461  2.4092
 1043SOL    HW214592   1.375   2.759  10.546  0.3493 -0.0237 -0.2251
 1044SOL     OW14593   2.055   2.955   7.630 -0.0552  0.2178  0.0202
 1044SOL    HW114594   2.148   2.940   7.644  0.5809  1.6420 -2.7892
 1044SOL    HW214595   2.035   2.914   7.545  0.0808  1.6161 -0.6777
 1045SOL     OW14596   0.407   0.949   9.336  0.4946 -0.4441 -0.4899
 1045SOL    HW114597   0.342   0.926   9.269  1.0042 -1.0419 -0.7775
 1045SOL    HW214598   0.347   1.000   9.390  0.4741  0.7076 -1.6038
 1046SOL     OW14599   1.991   2.260   4.695  0.5267 -0.2699 -0.2086
 1046SOL    HW114600   1.956   2.173   4.713  1.8732 -0.3187  2.3124
 1046SOL    HW214601   1.908   2.307   4.687  0.7431  0.0201 -0.7298
 1047SOL     OW14602   2.221   3.361   4.931  0.8314 -0.1470  0.0339
 1047SOL    HW114603   2.145   3.407   4.897  0.4897  1.1289  2.5470
 1047SOL    HW214604   2.289   3.390   4.871 -0.6811  1.4421 -0.9090
 1048SOL     OW14605   0.868   3.965   6.829  0.4217 -0.2204 -0.4775
 1048SOL    HW114606   0.870   4.058   6.854  0.6800 -1.0683  2.6593
 1048SOL    HW214607   0.787   3.935   6.870  0.1438  2.1419  0.6994
 1049SOL     OW14608   1.089   1.715  10.725  0.4242  0.7125 -0.4001
 1049SOL    HW114609   1.130   1.630  10.706 -1.1999 -0.5991  2.0718
 1049SOL    HW214610   1.164   1.772  10.709  0.2086  1.0485 -0.2052
 1050SOL     OW14611   2.019   0.302   1.524  0.1357 -0.0228 -0.0693
 1050SOL    HW114612   2.019   0.383   1.473 -1.6772 -1.5095 -2.4497
 1050SOL    HW214613   1.964   0.244   1.470 -0.1282  1.5462 -1.4931
 1051SOL     OW14614   0.124   0.926  14.676 -0.1298 -0.2247 -0.8809
 1051SOL    HW114615   0.195   0.937  14.613 -0.4682 -0.0221 -1.2250
 1051SOL    HW214616   0.177   0.950  14.753  0.7360  2.2164 -2.2232
 1052SOL     OW14617   2.586   0.800   4.639  0.1386 -0.6943  0.9365
 1052SOL    HW114618   2.563   0.876   4.693  0.7049 -1.2770  1.9864
 1052SOL    HW214619   2.589   0.730   4.703  2.3018  0.1848  1.7600
 1053SOL     OW14620   0.150   4.277   1.144  0.2119 -0.0276  0.4680
 1053SOL    HW114621   0.139   4.189   1.107  0.0869 -0.5968  1.8779
 1053SOL    HW214622   0.123   4.272   1.235  1.5896  1.5015  0.9400
 1054SOL     OW14623   0.956   4.402   5.768 -0.7699  0.1039 -0.1616
 1054SOL    HW114624   1.033   4.407   5.825  2.1328 -3.6305 -3.6916
 1054SOL    HW214625   0.933   4.309   5.765  3.0443 -0.8228 -1.0680
 1055SOL     OW14626   1.540   3.875   9.084  0.5917  0.1899  0.3370
 1055SOL    HW114627   1.617   3.843   9.130  0.3535 -0.9144 -0.0272
 1055SOL    HW214628   1.548   3.970   9.083 -0.6547  0.3166  1.3974
 1056SOL     OW14629   3.076   0.203  11.581  0.0196  0.5134 -0.3285
 1056SOL    HW114630   3.170   0.218  11.573 -0.0829  1.8576  1.0622
 1056SOL    HW214631   3.034   0.287  11.597  0.8416  0.6319  1.2164
 1057SOL     OW14632   0.635   0.964   8.300  0.7311 -0.2546  0.0073
 1057SOL    HW114633   0.646   0.979   8.394  3.5233 -1.6694 -0.0790
 1057SOL    HW214634   0.540   0.955   8.302  0.7705 -0.3970  1.5067
 1058SOL     OW14635   3.961   0.548  16.820  0.3934  0.3869  0.4559
 1058SOL    HW114636   3.968   0.455  16.804  3.7404  0.3910  1.8295
 1058SOL    HW214637   3.927   0.546  16.910  2.6454 -1.1243  1.2689
 1059SOL     OW14638   0.020   3.313  14.337  0.3213 -0.2978  0.6634
 1059SOL    HW114639   0.045   3.395  14.292  1.0508  0.0237  1.6522
 1059SOL    HW214640   4.661   3.326  14.382  0.5210 -0.7163  1.1461
 1060SOL     OW14641   0.290   1.319   5.926  0.3741  0.2207  0.8109
 1060SOL    HW114642   0.316   1.389   5.986 -2.5683  0.7301  1.5026
 1060SOL    HW214643   0.374   1.280   5.904 -0.2717  0.5679 -2.4105
 1061SOL     OW14644   3.350   2.913  14.808  0.3961 -0.1296 -0.1666
 1061SOL    HW114645   3.393   2.974  14.748 -0.0354  2.2798  1.9808
 1061SOL    HW214646   3.360   2.831  14.759 -3.2563 -1.2374  0.9547
 1062SOL     OW14647   0.050   0.249   3.712 -0.0747  0.2110 -0.2364
 1062SOL    HW114648   0.001   0.250   3.631  0.0782 -0.4292 -0.3399
 1062SOL    HW214649   4.710   0.295   3.766  0.7078 -0.1265  1.0122
 1063SOL     OW14650   0.840   4.195   9.995 -0.1742 -0.2181  0.1795
 1063SOL    HW114651   0.783   4.219  10.067  0.0461  0.7606  0.0209
 1063SOL    HW214652   0.926   4.209  10.034 -0.8064  2.7334  0.4998
 1064SOL     OW14653   4.412   4.424   5.458  0.1301  0.2335  0.6589
 1064SOL    HW114654   4.483   4.369   5.491  0.5067  0.1500 -0.3007
 1064SOL    HW214655   4.440   4.510   5.490  1.2000 -0.0304  0.4586
 1065SOL     OW14656   3.350   2.655   8.209 -0.2126 -0.1666 -0.6062
 1065SOL    HW114657   3.298   2.709   8.150 -0.2754  0.0756 -0.3289
 1065SOL    HW214658   3.297   2.628   8.284  0.4978 -0.5066 -0.2240
 1066SOL     OW14659   0.472   2.989   6.107  0.4885  0.0359  0.1461
 1066SOL    HW114660   0.433   2.921   6.161 -0.3516 -0.4955 -1.1427
 1066SOL    HW214661   0.560   2.986   6.145 -0.3762  2.4255  2.4045
 1067SOL     OW14662   2.301   1.464   7.883  0.4283 -0.0506 -0.6275
 1067SOL    HW114663   2.330   1.420   7.803 -0.2424 -2.8137  0.6840
 1067SOL    HW214664   2.233   1.403   7.911 -0.8295  2.5207  1.9419
 1068SOL     OW14665   2.566   3.073   5.570  0.4636  1.0501 -0.0982
 1068SOL    HW114666   2.570   3.060   5.664  0.3092 -1.9156 -0.4964
 1068SOL    HW214667   2.497   3.139   5.560  1.1090  1.2977 -2.9194
 1069SOL     OW14668   4.548   1.235  17.039 -0.7413  0.3562  0.2424
 1069SOL    HW114669   4.638   1.207  17.053  0.1164  3.1017  0.1910
 1069SOL    HW214670   4.500   1.212  17.118  1.7001  1.0237  1.9075
 1070SOL     OW14671   1.058   3.117   6.858 -0.0925 -0.0604 -0.4549
 1070SOL    HW114672   1.052   3.094   6.765 -1.4213 -0.5230 -0.2576
 1070SOL    HW214673   1.003   3.196   6.859 -0.7466 -0.4902 -1.8686
 1071SOL     OW14674   0.846   0.129  14.506  0.1002  0.0980 -0.4590
 1071SOL    HW114675   0.942   0.132  14.505  0.1261 -0.6109  0.1695
 1071SOL    HW214676   0.831   0.207  14.452 -0.2100  0.4135  0.0780
 1072SOL     OW14677   2.814   3.415  17.303 -0.1188  0.2863 -0.3401
 1072SOL    HW114678   2.888   3.437  17.360 -1.4712  0.6036  1.2762
 1072SOL    HW214679   2.823   3.471  17.226  0.9167 -1.0461 -1.1923
 1073SOL     OW14680   3.877   4.628   6.067 -0.1485  0.3601  0.5460
 1073SOL    HW114681   3.960   4.591   6.099  0.2324  2.9483  2.5164
 1073SOL    HW214682   3.904   4.718   6.050 -1.7753  0.6760 -0.3319
 1074SOL     OW14683   2.470   0.718   1.994 -0.1196 -0.7652  0.0340
 1074SOL    HW114684   2.457   0.635   1.948 -1.4161  1.5690 -3.8966
 1074SOL    HW214685   2.565   0.726   1.982 -0.3430  0.5047 -0.9744
 1075SOL     OW14686   4.695   3.530   6.089 -0.3654 -0.2295 -0.3134
 1075SOL    HW114687   4.630   3.556   6.024  0.1784  0.6802 -0.4999
 1075SOL    HW214688   0.047   3.513   6.033 -1.5904 -0.6725 -1.8264
 1076SOL     OW14689   3.410   0.029   5.966  0.7969 -0.0246  0.0999
 1076SOL    HW114690   3.436   0.058   6.053 -1.1708 -1.0720  1.0326
 1076SOL    HW214691   3.488   4.709   5.930  0.1134 -0.7590 -0.4644
 1077SOL     OW14692   3.455   4.150   2.890 -0.7096 -0.1444 -0.1695
 1077SOL    HW114693   3.473   4.241   2.864  0.5568 -0.7034 -1.2313
 1077SOL    HW214694   3.375   4.162   2.940  0.0537 -0.3912  1.0932
 1078SOL     OW14695   3.782   3.420  15.217  0.4677 -0.4596 -0.6691
 1078SOL    HW114696   3.789   3.515  15.228  0.4490 -0.1641 -3.1074
 1078SOL    HW214697   3.794   3.409  15.122  0.4192 -0.2258 -0.7028
 1079SOL     OW14698   1.391   3.161   7.295 -0.0961 -0.0742 -0.4774
 1079SOL    HW114699   1.312   3.118   7.328 -1.0900  1.1614 -1.2438
 1079SOL    HW214700   1.425   3.201   7.375  0.1458  0.7738 -0.9970
 1080SOL     OW14701   2.121   0.634   3.489  0.3280 -0.3238 -0.5016
 1080SOL    HW114702   2.102   0.646   3.583  1.4453 -1.8471 -0.0931
 1080SOL    HW214703   2.063   0.559   3.479  0.4169 -0.5966  1.0220
 1081SOL     OW14704   1.863   3.077   7.370 -0.0452  0.3217 -0.1193
 1081SOL    HW114705   1.819   3.052   7.451  1.3516 -0.6898  0.3233
 1081SOL    HW214706   1.793   3.055   7.307  1.6366 -1.0863 -1.4943
 1082SOL     OW14707   4.389   3.530   6.207 -0.3879 -0.3023  0.0138
 1082SOL    HW114708   4.431   3.444   6.196  0.9289  0.1026  2.0053
 1082SOL    HW214709   4.412   3.575   6.125 -2.7115 -2.0028 -1.5949
 1083SOL     OW14710   0.892   0.153   4.554 -0.4403 -0.0858 -0.1797
 1083SOL    HW114711   0.857   0.151   4.643  1.5163 -0.8701  0.5801
 1083SOL    HW214712   0.952   0.228   4.561 -0.2833 -0.2475  0.2030
 1084SOL     OW14713   2.906   0.627   5.869 -0.2930 -0.0940  0.0988
 1084SOL    HW114714   2.987   0.586   5.840 -0.7422 -2.3909  2.1668
 1084SOL    HW214715   2.881   0.574   5.945  0.4733  1.5744  1.5237
 1085SOL     OW14716   2.041   2.706  14.923 -0.3988  0.9421  0.1458
 1085SOL    HW114717   2.066   2.654  14.847 -0.4875  0.2479  0.5883
 1085SOL    HW214718   2.088   2.661  14.993 -2.1597  0.8011  1.2432
 1086SOL     OW14719   4.515   3.458   5.098  0.4137  0.5917  0.5012
 1086SOL    HW114720   4.495   3.416   5.181 -2.7289  0.0863 -0.5234
 1086SOL    HW214721   4.590   3.408   5.064 -0.2776  1.0233 -1.6858
 1087SOL     OW14722   3.830   4.268   5.199  1.3157  0.3939  0.0437
 1087SOL    HW114723   3.828   4.332   5.128 -1.2106 -0.2283 -0.4418
 1087SOL    HW214724   3.920   4.234   5.196  0.4933 -1.9585  2.6753
 1088SOL     OW14725   2.161   3.345   2.538 -0.1637  0.0963  0.2377
 1088SOL    HW114726   2.122   3.391   2.463 -0.3350  0.3550  0.4863
 1088SOL    HW214727   2.225   3.284   2.501 -0.1959  0.6154 -0.6714
 1089SOL     OW14728   3.251   1.764   3.589 -0.4647 -0.3566  0.2014
 1089SOL    HW114729   3.181   1.703   3.611 -2.8605  2.9506  1.6375
 1089SOL    HW214730   3.295   1.704   3.527  0.0368 -0.6678  0.8530
 1090SOL     OW14731   3.604   2.122  11.012 -1.0951  0.3135  0.4376
 1090SOL    HW114732   3.562   2.038  11.031 -1.0128  0.4802  1.3666
 1090SOL    HW214733   3.682   2.126  11.067  0.2798 -0.8012 -1.4512
 1091SOL     OW14734   0.334   0.783   4.252 -0.7081  0.2706  0.1540
 1091SOL    HW114735   0.358   0.698   4.287  1.0724  0.9647  0.6265
 1091SOL    HW214736   0.378   0.803   4.169 -1.4513 -0.0588 -0.3112
 1092SOL     OW14737   0.525   0.241  14.966 -0.3531 -0.3925 -0.2188
 1092SOL    HW114738   0.582   0.192  14.907 -0.2024  1.9454 -1.9987
 1092SOL    HW214739   0.537   0.329  14.931  2.3726 -0.9618 -0.6588
 1093SOL     OW14740   1.833   4.209   5.284 -0.2824  0.0757  0.0667
 1093SOL    HW114741   1.820   4.270   5.356  1.9952 -1.4131  1.7186
 1093SOL    HW214742   1.815   4.122   5.320  0.0340  0.2522  0.6532
 1094SOL     OW14743   3.101   1.552  10.044 -0.1902 -0.0315  0.7632
 1094SOL    HW114744   3.172   1.509   9.996 -1.1295 -0.2801 -0.3994
 1094SOL    HW214745   3.028   1.519   9.992  1.2969 -3.3805  0.7821
 1095SOL     OW14746   2.165   0.120   5.623 -0.7997 -0.5068  0.0540
 1095SOL    HW114747   2.087   0.161   5.660 -0.1765  0.5959  0.1281
 1095SOL    HW214748   2.228   0.189   5.640 -0.5488 -0.2049 -2.1020
 1096SOL     OW14749   2.346   4.262   2.939  0.2767  0.5773 -0.1108
 1096SOL    HW114750   2.310   4.212   2.865 -0.9142  3.5220 -1.5374
 1096SOL    HW214751   2.439   4.242   2.940  0.2618  0.4881 -0.4902
 1097SOL     OW14752   0.286   2.308   9.255  0.2700 -0.4113  0.4656
 1097SOL    HW114753   0.364   2.298   9.309  1.7453  2.7959 -1.0720
 1097SOL    HW214754   0.238   2.227   9.276  0.2127 -0.3387  0.6148
 1098SOL     OW14755   1.656   2.146   4.949 -0.6525 -0.0469  0.4859
 1098SOL    HW114756   1.606   2.069   4.924 -1.7594  0.5449  0.9187
 1098SOL    HW214757   1.726   2.108   5.002  1.9777  1.2524 -2.0261
 1099SOL     OW14758   1.515   3.770  11.692 -0.0667 -0.7446 -0.2737
 1099SOL    HW114759   1.437   3.782  11.637 -0.2490  0.2614  0.1997
 1099SOL    HW214760   1.574   3.844  11.675 -0.5648 -0.5454 -1.1549
 1100SOL     OW14761   1.050   0.462   7.762  0.2824 -0.2406 -0.3505
 1100SOL    HW114762   0.990   0.390   7.743 -1.1339  1.0801 -0.8297
 1100SOL    HW214763   1.108   0.417   7.824  1.3859  0.5044 -0.8366
 1101SOL     OW14764   3.104   0.929   5.759  0.0752  0.0142  0.0251
 1101SOL    HW114765   3.106   0.846   5.711 -3.3440 -0.8724  1.4201
 1101SOL    HW214766   3.196   0.940   5.785  0.7620 -1.5888 -1.6672
 1102SOL     OW14767   2.459   3.259   3.598  0.4527  0.8188  0.2787
 1102SOL    HW114768   2.399   3.330   3.576 -0.4716  0.0505  0.3391
 1102SOL    HW214769   2.511   3.259   3.518 -0.2841  2.5920 -0.1890
 1103SOL     OW14770   1.070   4.041  10.854 -0.2093  0.3867  0.3706
 1103SOL    HW114771   1.110   4.089  10.927  1.0457 -0.1196  0.0154
 1103SOL    HW214772   0.999   3.988  10.889 -0.7164  0.8850  0.0918
 1104SOL     OW14773   4.536   1.581  17.222  0.1526  0.4690 -0.3473
 1104SOL    HW114774   4.572   1.607  17.306  0.0875  0.1166 -0.2118
 1104SOL    HW214775   4.457   1.532  17.245  0.2522 -0.3267 -1.6746
 1105SOL     OW14776   2.258   1.761  17.647  0.7248  0.0217  0.1702
 1105SOL    HW114777   2.202   1.712  17.587  0.0413  1.3091 -0.2642
 1105SOL    HW214778   2.189   1.786   0.009 -1.3508 -1.0950 -1.6973
 1106SOL     OW14779   0.676   2.296   7.952 -0.0906 -0.2949 -0.6457
 1106SOL    HW114780   0.758   2.339   7.978 -1.4803  1.9699  0.0181
 1106SOL    HW214781   0.674   2.331   7.862 -0.4607 -0.0842 -0.5551
 1107SOL     OW14782   4.223   3.595   6.416  0.1413  0.0711 -0.1704
 1107SOL    HW114783   4.286   3.529   6.445  1.3182  0.7703 -1.1618
 1107SOL    HW214784   4.245   3.596   6.323 -1.8444  3.4528 -0.6206
 1108SOL     OW14785   0.581   0.099   6.662 -0.1169 -0.1668  0.6194
 1108SOL    HW114786   0.675   0.095   6.643 -0.6333 -0.5033 -1.8310
 1108SOL    HW214787   0.580   0.149   6.744  0.5444 -0.3703  0.7498
 1109SOL     OW14788   4.209   4.622   4.106 -0.1761 -0.0831 -0.0497
 1109SOL    HW114789   4.117   4.617   4.081 -0.3309 -0.0290  0.5025
 1109SOL    HW214790   4.207   4.671   4.189 -1.5138  2.0260 -1.3234
 1110SOL     OW14791   0.119   1.947   0.713 -0.0992 -0.5175 -0.4683
 1110SOL    HW114792   0.202   1.985   0.684 -0.3205  0.5396  0.3115
 1110SOL    HW214793   0.144   1.907   0.796  2.8319 -0.4824 -1.3117
 1111SOL     OW14794   3.937   3.303   2.888 -0.0147  0.0956 -0.9448
 1111SOL    HW114795   4.025   3.291   2.925  0.4071 -0.6739 -2.1945
 1111SOL    HW214796   3.928   3.394   2.861 -1.6862 -0.2968 -1.7372
 1112SOL     OW14797   2.614   2.840  17.641 -0.0293 -0.7775  0.1544
 1112SOL    HW114798   2.696   2.794  17.661 -0.1236 -1.1661 -0.3486
 1112SOL    HW214799   2.645   2.931  17.640 -0.1814 -0.7300 -0.1334
 1113SOL     OW14800   3.260   4.517   3.413 -0.1978  0.0832  0.5298
 1113SOL    HW114801   3.273   4.516   3.318 -0.0641  0.5412  0.5443
 1113SOL    HW214802   3.305   4.435   3.434  0.2153  0.6497  1.8346
 1114SOL     OW14803   1.865   0.063  16.098 -0.9331 -0.6253  0.2788
 1114SOL    HW114804   1.902   0.145  16.133  0.4678 -1.0333 -0.2543
 1114SOL    HW214805   1.799   0.042  16.164 -0.0438 -0.2627  1.2781
 1115SOL     OW14806   1.698   3.320   8.551  0.6123  0.1947  0.3702
 1115SOL    HW114807   1.757   3.263   8.502 -0.4746  0.3852 -1.1700
 1115SOL    HW214808   1.641   3.252   8.589 -1.2359 -0.5988 -3.7195
 1116SOL     OW14809   3.435   1.565   0.700 -0.1312  0.2379 -0.0304
 1116SOL    HW114810   3.439   1.559   0.605 -1.4112 -0.3923 -0.0439
 1116SOL    HW214811   3.411   1.657   0.712 -1.4570 -0.4390  2.4860
 1117SOL     OW14812   0.823   1.004   4.343 -0.0489 -0.2060  0.2774
 1117SOL    HW114813   0.740   1.001   4.391 -0.0540 -0.9897  0.2185
 1117SOL    HW214814   0.820   1.082   4.288 -2.1473 -0.9365 -0.6383
 1118SOL     OW14815   2.399   0.609  17.316 -0.9644  0.1778  0.4074
 1118SOL    HW114816   2.468   0.552  17.282  0.4233  0.5506  2.5987
 1118SOL    HW214817   2.404   0.661  17.236  0.6980  0.3068  0.5798
 1119SOL     OW14818   4.627   0.234  13.193  0.1757  0.2612 -0.1669
 1119SOL    HW114819   4.604   0.154  13.145 -0.2615 -0.2046  0.8130
 1119SOL    HW214820   4.678   0.204  13.269  1.3753  1.2347 -0.5954
 1120SOL     OW14821   2.305   4.559  14.830  0.8841 -0.6248 -0.5566
 1120SOL    HW114822   2.271   4.470  14.825  1.4116 -0.9596  1.7545
 1120SOL    HW214823   2.288   4.575  14.923 -0.2691  2.8385 -1.3610
 1121SOL     OW14824   1.308   4.416   2.230  0.3270  0.0730  0.0520
 1121SOL    HW114825   1.375   4.354   2.259 -0.3403  0.8346  3.1316
 1121SOL    HW214826   1.322   4.489   2.290  0.6679 -0.0084  0.0722
 1122SOL     OW14827   1.197   0.933  12.601 -0.1948  0.0621  0.0785
 1122SOL    HW114828   1.199   1.004  12.664  2.9674  0.6531 -0.7181
 1122SOL    HW214829   1.136   0.874  12.646  0.5030 -0.5334  0.2561
 1123SOL     OW14830   2.222   3.563  16.282 -0.2434  0.0104 -0.0655
 1123SOL    HW114831   2.143   3.580  16.231 -0.6760 -2.6942 -0.3123
 1123SOL    HW214832   2.205   3.590  16.373 -2.1823 -1.0301 -0.1240
 1124SOL     OW14833   2.462   2.934   0.507 -0.3312  0.3026 -0.1510
 1124SOL    HW114834   2.503   3.020   0.508  4.4363 -1.9765  0.8574
 1124SOL    HW214835   2.401   2.939   0.580  0.2155 -3.7617  0.5724
 1125SOL     OW14836   2.520   1.888   2.245 -0.1916 -0.3862  0.0485
 1125SOL    HW114837   2.442   1.931   2.209 -1.5747 -3.8281 -0.9928
 1125SOL    HW214838   2.511   1.883   2.340  0.6241  2.2937  0.2735
 1126SOL     OW14839   1.076   0.327   5.297  0.0907  0.0471 -0.3682
 1126SOL    HW114840   0.981   0.319   5.302  0.0403  0.5464 -0.4956
 1126SOL    HW214841   1.095   0.360   5.385 -2.7299 -1.1024  0.6795
 1127SOL     OW14842   2.572   3.567  16.722  0.0794 -0.8601  0.1490
 1127SOL    HW114843   2.597   3.502  16.657  1.1162  0.2456 -0.5419
 1127SOL    HW214844   2.600   3.653  16.692 -0.8816 -0.1068  1.3803
 1128SOL     OW14845   1.239   1.071   5.454  0.1167  0.5243  0.1120
 1128SOL    HW114846   1.223   1.093   5.546 -0.1855  0.3398  0.1019
 1128SOL    HW214847   1.295   1.145   5.429 -0.3746  1.0505  0.5683
 1129SOL     OW14848   0.269   3.466   9.583 -0.2064  0.3097 -0.4018
 1129SOL    HW114849   0.316   3.463   9.500 -0.3976  1.5596 -0.5409
 1129SOL    HW214850   0.347   3.482   9.635 -1.3790 -2.9302  2.3834
 1130SOL     OW14851   4.617   2.769   6.144  0.4994  0.2084  0.5023
 1130SOL    HW114852   4.640   2.862   6.155  0.6507  0.2505 -0.1094
 1130SOL    HW214853   4.677   2.736   6.210  1.4850 -0.3483 -0.6583
 1131SOL     OW14854   1.322   0.057   4.060  0.0996 -0.1367 -0.4720
 1131SOL    HW114855   1.238   0.042   4.018  0.4325  0.6090 -1.3978
 1131SOL    HW214856   1.294   0.096   4.143 -0.3883 -1.5800  0.0390
 1132SOL     OW14857   2.749   1.006  15.784  0.5569 -0.4245  0.1378
 1132SOL    HW114858   2.790   0.984  15.868  0.0913 -2.3259 -0.1321
 1132SOL    HW214859   2.661   0.968  15.782  0.4558 -0.1173 -1.3764
 1133SOL     OW14860   1.232   1.181  16.423  0.4528 -0.0676  0.0013
 1133SOL    HW114861   1.287   1.110  16.389 -0.3862  0.5523 -2.6939
 1133SOL    HW214862   1.264   1.258  16.375 -2.3544  2.2958  1.9803
 1134SOL     OW14863   4.602   0.540   2.924  0.0747 -0.2912  0.2520
 1134SOL    HW114864   4.601   0.506   3.013 -2.1353 -0.6572  0.0809
 1134SOL    HW214865   4.574   0.461   2.877  0.1706  0.4937 -1.1445
 1135SOL     OW14866   2.906   2.030  16.640  0.0624 -0.5170  0.2676
 1135SOL    HW114867   2.965   1.987  16.701  1.7493  2.2791  0.6425
 1135SOL    HW214868   2.846   2.065  16.707  1.8232  1.3652  0.8760
 1136SOL     OW14869   1.319   3.826   7.242  0.5003  0.7090 -0.7559
 1136SOL    HW114870   1.387   3.758   7.241 -0.8878 -0.6873  0.1812
 1136SOL    HW214871   1.246   3.775   7.276  0.3793  2.0518  1.0096
 1137SOL     OW14872   1.413   0.601   2.959  0.3843 -0.4969 -0.3959
 1137SOL    HW114873   1.437   0.531   2.898 -2.6678 -1.3292 -0.6531
 1137SOL    HW214874   1.496   0.644   2.979  0.7229  0.3449 -3.5400
 1138SOL     OW14875   1.235   0.138   4.324  0.8051 -0.7226  0.2902
 1138SOL    HW114876   1.242   0.044   4.340 -3.6294 -0.9879  0.5405
 1138SOL    HW214877   1.297   0.173   4.388  0.4340  0.4544 -0.0071
 1139SOL     OW14878   4.391   1.066   6.684  0.0549  0.0922 -0.8502
 1139SOL    HW114879   4.455   1.119   6.636  0.8263 -0.8234 -0.8500
 1139SOL    HW214880   4.401   0.990   6.627  0.2565  0.6453 -1.5482
 1140SOL     OW14881   3.902   2.002   7.228 -0.2599 -0.4464  0.2322
 1140SOL    HW114882   3.898   2.016   7.322  2.0742  0.4313  0.1858
 1140SOL    HW214883   3.906   2.094   7.202  2.8872 -0.3473  1.1259
 1141SOL     OW14884   1.899   3.249   7.864 -0.3492 -0.4106  0.3362
 1141SOL    HW114885   1.875   3.229   7.955 -1.9282  0.7179  0.1778
 1141SOL    HW214886   1.882   3.169   7.814 -2.9864  1.0999 -1.1929
 1142SOL     OW14887   3.822   0.255   8.479 -0.3675  0.2947  0.2999
 1142SOL    HW114888   3.730   0.227   8.476 -0.4429  0.5356  0.3549
 1142SOL    HW214889   3.811   0.345   8.511  0.3078  0.0637  1.1854
 1143SOL     OW14890   3.267   0.033   5.150  0.2892  0.1660 -0.1144
 1143SOL    HW114891   3.240   0.000   5.065  3.4326  0.6261 -1.2862
 1143SOL    HW214892   3.191   0.081   5.185  0.2087  0.0016 -0.0647
 1144SOL     OW14893   4.598   0.115   8.775  0.3232  0.0029 -0.1222
 1144SOL    HW114894   4.585   0.029   8.735 -1.3391 -0.3271  1.1245
 1144SOL    HW214895   4.688   0.115   8.805  0.5969 -1.9252 -0.9477
 1145SOL     OW14896   3.484   4.124  14.970  0.0915 -0.1140 -0.7183
 1145SOL    HW114897   3.554   4.064  14.993 -1.0933 -0.5792  1.6316
 1145SOL    HW214898   3.450   4.106  14.882 -0.6874 -0.3225 -0.3760
 1146SOL     OW14899   0.051   2.865   2.112  0.6950 -0.1732 -0.0205
 1146SOL    HW114900   0.112   2.799   2.143  1.7179  0.9932  0.4553
 1146SOL    HW214901   4.691   2.824   2.133  0.0025  1.5949  0.6317
 1147SOL     OW14902   1.046   0.537  15.394  0.6587  1.2237 -0.2473
 1147SOL    HW114903   1.107   0.468  15.367  0.0787  0.2174  0.9814
 1147SOL    HW214904   0.998   0.540  15.311 -0.6258 -1.1789  0.3914
 1148SOL     OW14905   3.466   1.007   0.596 -0.2138 -0.2066 -0.4528
 1148SOL    HW114906   3.535   0.941   0.587 -0.1731 -0.1387 -0.6362
 1148SOL    HW214907   3.421   0.972   0.673  0.6280 -2.4675 -0.9874
 1149SOL     OW14908   4.181   3.067   2.169  0.7480  0.5674 -0.4812
 1149SOL    HW114909   4.231   3.114   2.103  1.0955  1.5638  0.4943
 1149SOL    HW214910   4.127   3.142   2.195  1.9645  1.3543 -0.2388
 1150SOL     OW14911   3.758   3.576   4.630 -0.1104 -0.0672 -0.0713
 1150SOL    HW114912   3.720   3.524   4.700  0.3903  0.5579  0.6661
 1150SOL    HW214913   3.683   3.594   4.572 -0.3338  1.9700  0.8491
 1151SOL     OW14914   4.588   1.239   7.207  0.4818 -0.6664 -0.1426
 1151SOL    HW114915   4.528   1.309   7.183  1.0515 -0.3218 -0.5485
 1151SOL    HW214916   4.575   1.165   7.148 -1.0687 -0.8083  0.3808
 1152SOL     OW14917   2.734   4.195  16.878  0.1783 -1.0985  0.2411
 1152SOL    HW114918   2.801   4.262  16.865  0.7928 -1.6567  0.5039
 1152SOL    HW214919   2.670   4.235  16.820  0.7106 -1.7172 -0.7773
 1153SOL     OW14920   2.790   1.195   4.140  0.1538  0.5757 -0.1587
 1153SOL    HW114921   2.881   1.167   4.142  0.1385  0.4392 -1.3089
 1153SOL    HW214922   2.785   1.219   4.047 -0.4885  2.2563  0.2961
 1154SOL     OW14923   2.556   4.085  11.857  0.1211 -0.1350  0.0545
 1154SOL    HW114924   2.470   4.085  11.816 -0.2710 -0.8530  0.8939
 1154SOL    HW214925   2.610   4.093  11.778  0.1074 -0.7237 -0.0136
 1155SOL     OW14926   1.172   1.599  11.478  0.6511  0.8141 -0.5196
 1155SOL    HW114927   1.104   1.654  11.439  0.5691  1.3795  0.4166
 1155SOL    HW214928   1.186   1.542  11.402 -0.5123  1.2083 -1.0283
 1156SOL     OW14929   1.958   3.542   6.044  0.1520  0.6270 -0.1323
 1156SOL    HW114930   1.895   3.614   6.048 -0.7092 -0.0973 -0.7432
 1156SOL    HW214931   2.034   3.585   6.084 -0.0772  2.4365 -1.5935
 1157SOL     OW14932   2.641   2.813  12.575  0.0376  0.0534  0.2148
 1157SOL    HW114933   2.579   2.885  12.575  0.6636  0.5923  0.9443
 1157SOL    HW214934   2.715   2.854  12.530 -2.6263  2.7086 -1.7979
 1158SOL     OW14935   2.473   3.532   8.604  0.3090 -0.3743  0.6131
 1158SOL    HW114936   2.499   3.513   8.694  1.1525 -1.0801  0.2175
 1158SOL    HW214937   2.547   3.511   8.547 -0.4348 -0.1085 -0.4500
 1159SOL     OW14938   0.057   3.900   5.157  0.1747 -0.3464  0.2252
 1159SOL    HW114939   0.147   3.930   5.165  0.1006  0.4381 -2.0938
 1159SOL    HW214940   0.016   3.980   5.125  3.6683  0.5400 -2.0671
 1160SOL     OW14941   2.057   2.342   1.093 -0.3772 -0.3129 -0.3707
 1160SOL    HW114942   1.996   2.378   1.158  0.1096  0.9563 -0.6331
 1160SOL    HW214943   2.140   2.343   1.140 -0.6467  2.5016  0.0237
 1161SOL     OW14944   3.875   2.223  14.106  0.0717  0.0309 -0.2771
 1161SOL    HW114945   3.960   2.246  14.067 -1.0601  1.2238 -2.0146
 1161SOL    HW214946   3.812   2.266  14.048 -1.2770 -2.3628 -0.5630
 1162SOL     OW14947   3.372   1.494   5.645 -0.2939  0.1951  0.2070
 1162SOL    HW114948   3.370   1.401   5.625  1.3901  0.5346 -1.4869
 1162SOL    HW214949   3.383   1.534   5.559  3.0888  1.2106  1.1114
 1163SOL     OW14950   4.712   2.080  12.381 -0.2187  0.2393 -0.5001
 1163SOL    HW114951   4.642   2.122  12.432 -1.6174 -0.3080 -1.9631
 1163SOL    HW214952   0.036   2.033  12.448 -2.1870  0.8227  1.3178
 1164SOL     OW14953   2.484   2.440   7.798 -0.1215 -0.4770  0.5789
 1164SOL    HW114954   2.514   2.363   7.847 -0.8735 -0.9099  0.3605
 1164SOL    HW214955   2.436   2.485   7.867 -0.0729  0.3382  0.0780
 1165SOL     OW14956   0.926   2.565   6.221 -0.8311  0.6806 -0.4926
 1165SOL    HW114957   1.003   2.590   6.171  0.2811  1.6544  1.7299
 1165SOL    HW214958   0.853   2.615   6.183 -1.0058  0.3963 -0.5360
 1166SOL     OW14959   1.443   2.191   9.303  0.6164 -0.1247  0.2567
 1166SOL    HW114960   1.443   2.107   9.350  2.5730 -0.9033 -1.1107
 1166SOL    HW214961   1.355   2.219   9.329  1.7061  0.5727  3.2262
 1167SOL     OW14962   2.510   1.667  12.159  0.0759 -0.4680 -0.0544
 1167SOL    HW114963   2.476   1.579  12.171 -1.2317 -0.1947 -1.6962
 1167SOL    HW214964   2.589   1.680  12.211 -0.3062  1.0409  0.1658
 1168SOL     OW14965   2.295   3.837   2.945  0.2246  0.4120  0.2940
 1168SOL    HW114966   2.364   3.806   2.886 -1.0108 -1.7115 -0.0370
 1168SOL    HW214967   2.348   3.865   3.019 -1.2311 -0.6383  1.7153
 1169SOL     OW14968   3.166   1.106  16.392 -0.1572 -0.2928  0.2026
 1169SOL    HW114969   3.226   1.041  16.428 -1.5184 -0.5209  2.0454
 1169SOL    HW214970   3.220   1.184  16.379 -1.2188  0.7842  2.3533
 1170SOL     OW14971   1.232   3.713  15.981 -0.7678  0.1675  0.4871
 1170SOL    HW114972   1.145   3.751  15.995 -0.6758  2.0231 -3.9921
 1170SOL    HW214973   1.263   3.697  16.070 -2.2389  2.8233  1.4874
 1171SOL     OW14974   1.532   4.628   1.196 -0.4255  0.1716  0.3005
 1171SOL    HW114975   1.500   4.564   1.134  0.5622 -2.0174  2.0477
 1171SOL    HW214976   1.610   4.588   1.236 -1.3467 -0.1028  1.8093
 1172SOL     OW14977   4.513   2.099   3.027 -0.0146  0.0338  0.2283
 1172SOL    HW114978   4.558   2.183   3.014 -3.2513  1.6785 -0.5158
 1172SOL    HW214979   4.587   2.045   3.056 -0.1383 -0.1446  0.2107
 1173SOL     OW14980   1.637   0.576  13.134 -0.1214 -0.2607 -0.1042
 1173SOL    HW114981   1.634   0.593  13.228 -0.9338 -0.0873 -0.1641
 1173SOL    HW214982   1.557   0.607  13.092  0.1994  1.6419  0.7049
 1174SOL     OW14983   0.738   4.044  11.119 -0.3130 -0.5687 -0.4770
 1174SOL    HW114984   0.672   4.061  11.052 -1.6301  1.0073  1.2240
 1174SOL    HW214985   0.789   4.124  11.124 -3.3061  1.3661 -1.0233
 1175SOL     OW14986   4.162   3.909   9.028  0.4305 -0.4225 -0.5545
 1175SOL    HW114987   4.085   3.960   9.001  0.5214  0.9793  1.8604
 1175SOL    HW214988   4.223   3.981   9.041 -0.4540  0.3804 -0.8557
 1176SOL     OW14989   1.155   4.645   0.133  0.3052 -0.2047  0.1374
 1176SOL    HW114990   1.239   4.629   0.175  0.8500 -0.8428 -1.2108
 1176SOL    HW214991   1.190   4.711   0.074 -0.3390  0.8710  0.9423
 1177SOL     OW14992   3.885   1.037   1.130  0.4655 -0.4006  0.4342
 1177SOL    HW114993   3.949   1.028   1.201  0.8831 -0.4948  0.0497
 1177SOL    HW214994   3.819   1.104   1.149 -1.5813 -2.3187  0.0415
 1178SOL     OW14995   1.587   0.828   9.242 -0.1729  0.4935 -0.0783
 1178SOL    HW114996   1.586   0.784   9.157 -2.1231 -1.8694  1.1799
 1178SOL    HW214997   1.609   0.751   9.295  1.7602 -0.6623 -2.5212
 1179SOL     OW14998   3.401   1.717  12.776  0.2493  0.1469 -0.1426
 1179SOL    HW114999   3.438   1.800  12.805  1.9324 -0.8277  0.5037
 1179SOL    HW215000   3.394   1.708  12.681  0.5840 -1.6126  0.0073
 1180SOL     OW15001   4.578   2.431  14.276 -0.5923 -0.3624  0.2734
 1180SOL    HW115002   4.627   2.506  14.310 -3.3416  1.7586 -0.3595
 1180SOL    HW215003   4.566   2.380  14.356 -0.1305  0.3767  0.8164
 1181SOL     OW15004   1.449   1.004   4.352 -0.0328  0.2965 -0.0922
 1181SOL    HW115005   1.405   1.079   4.391 -1.5949  0.3530 -1.9375
 1181SOL    HW215006   1.374   0.981   4.297  0.4365  0.5925 -0.8561
 1182SOL     OW15007   4.129   3.212   8.077 -0.1324  0.4524  0.5908
 1182SOL    HW115008   4.106   3.126   8.042  0.5020  0.6036 -0.2081
 1182SOL    HW215009   4.192   3.185   8.144 -0.0670  0.2740  0.4583
 1183SOL     OW15010   1.281   3.775   6.589  0.7560  0.5017 -0.1562
 1183SOL    HW115011   1.263   3.689   6.551  1.4234  1.2643 -2.1951
 1183SOL    HW215012   1.194   3.798   6.623  0.4040 -1.4930  0.2622
 1184SOL     OW15013   1.361   3.148   3.449  0.0026  0.5389  0.3246
 1184SOL    HW115014   1.383   3.177   3.538  0.2613  1.0445  0.0921
 1184SOL    HW215015   1.380   3.220   3.390  0.6497  0.2043  0.1217
 1185SOL     OW15016   0.379   1.945   5.091  0.1882  0.2788 -0.0806
 1185SOL    HW115017   0.303   1.900   5.055  0.7051 -0.7837  0.1550
 1185SOL    HW215018   0.338   2.013   5.144  3.1344  1.7256  0.3516
 1186SOL     OW15019   0.129   1.286  13.616 -0.3950 -0.4093  0.3539
 1186SOL    HW115020   0.082   1.368  13.630  0.7133  0.2765  0.0944
 1186SOL    HW215021   0.127   1.282  13.521  3.1412  1.6611  0.1840
 1187SOL     OW15022   3.030   1.287   1.697 -0.5700 -0.2559 -0.3959
 1187SOL    HW115023   3.040   1.302   1.791 -0.7527 -1.3788 -0.2075
 1187SOL    HW215024   2.968   1.357   1.677  0.0518  1.3085  3.1542
 1188SOL     OW15025   4.063   1.358   6.623 -0.1201 -0.2825  0.4929
 1188SOL    HW115026   4.041   1.442   6.662 -0.2797  0.1695 -0.5616
 1188SOL    HW215027   4.105   1.311   6.695  0.6126 -0.4026 -0.0070
 1189SOL     OW15028   3.012   3.868   2.056  0.3902 -0.5222 -0.4389
 1189SOL    HW115029   3.074   3.794   2.049  1.0317 -0.1960  1.5218
 1189SOL    HW215030   3.076   3.936   2.077  0.1565 -0.2920 -0.4781
 1190SOL     OW15031   2.854   4.630   6.588 -0.5420  0.5854 -0.5206
 1190SOL    HW115032   2.860   4.538   6.561  1.1223  0.0519  1.6419
 1190SOL    HW215033   2.866   4.683   6.510 -0.3609 -0.4617 -1.2094
 1191SOL     OW15034   1.909   2.123   0.678 -0.6630 -0.7394  0.0821
 1191SOL    HW115035   1.956   2.187   0.731  0.1531 -1.9966  0.8786
 1191SOL    HW215036   1.872   2.175   0.606  1.6443 -1.6421 -1.7492
 1192SOL     OW15037   0.193   4.688   9.545  0.4077  0.2536 -0.0745
 1192SOL    HW115038   0.099   4.676   9.532  0.5635 -0.5282 -0.4410
 1192SOL    HW215039   0.212   4.611   9.598  1.6692  0.2938 -0.4754
 1193SOL     OW15040   3.318   4.217   3.471 -0.7573 -0.2894 -0.0578
 1193SOL    HW115041   3.374   4.241   3.545 -1.2367 -0.2742  0.3057
 1193SOL    HW215042   3.242   4.190   3.523 -1.7897  0.5276 -1.1598
 1194SOL     OW15043   4.371   3.392   6.859 -0.3206  0.1374  0.5115
 1194SOL    HW115044   4.376   3.345   6.942  2.3684 -0.6123 -0.0876
 1194SOL    HW215045   4.461   3.421   6.846  0.6125 -1.9552  2.4390
 1195SOL     OW15046   2.777   2.363   2.999 -0.5916 -0.2981  0.0520
 1195SOL    HW115047   2.802   2.275   2.968 -4.0541 -1.0581 -0.5493
 1195SOL    HW215048   2.682   2.367   2.993 -0.5570 -0.5045 -0.7744
 1196SOL     OW15049   0.256   0.526   4.331 -0.6067  0.2277  0.3602
 1196SOL    HW115050   0.345   0.493   4.316  0.0542  1.5694  1.4139
 1196SOL    HW215051   0.208   0.445   4.313  1.3889 -0.7970 -0.3708
 1197SOL     OW15052   2.865   2.666  10.420  0.1237 -0.7035  0.1798
 1197SOL    HW115053   2.914   2.747  10.431 -1.2186  0.1686 -0.2762
 1197SOL    HW215054   2.901   2.617  10.493  0.2728 -1.0511 -0.1275
 1198SOL     OW15055   3.089   3.147  11.403 -0.1564 -0.3093  0.1548
 1198SOL    HW115056   3.053   3.095  11.331 -0.8551  0.5815 -0.1283
 1198SOL    HW215057   3.087   3.232  11.359  0.0576  0.3707  1.4396
 1199SOL     OW15058   3.062   0.291   5.922  0.1623  0.4228 -0.0431
 1199SOL    HW115059   3.107   0.372   5.897 -0.2914 -0.5301 -3.9421
 1199SOL    HW215060   3.123   0.227   5.885  0.0280 -0.3303  1.0513
 1200SOL     OW15061   3.054   0.862   4.052  0.0331  0.1860  0.4997
 1200SOL    HW115062   2.981   0.836   3.997  0.2386  0.3636  0.1405
 1200SOL    HW215063   3.035   0.802   4.125  0.9367 -0.0755  0.5241
 1201SOL     OW15064   1.822   2.041   9.354 -0.5483  0.8910  0.0036
 1201SOL    HW115065   1.913   2.062   9.332 -0.2445  0.8598  1.2401
 1201SOL    HW215066   1.784   2.122   9.318  0.3730  1.1462 -0.4002
 1202SOL     OW15067   1.931   4.431   6.010 -0.1999 -0.0127  0.0253
 1202SOL    HW115068   1.915   4.507   6.066 -1.9747  0.1340 -0.6710
 1202SOL    HW215069   1.988   4.472   5.945 -2.9171  1.1815 -1.6209
 1203SOL     OW15070   4.198   3.253   4.082  0.0362  0.3251  0.0410
 1203SOL    HW115071   4.127   3.220   4.138 -0.2109  0.6356 -0.0920
 1203SOL    HW215072   4.235   3.325   4.134  1.6768 -0.2018 -0.4222
 1204SOL     OW15073   2.682   3.888   7.275  0.0949  0.7259 -0.4828
 1204SOL    HW115074   2.637   3.803   7.276 -0.4921  1.0808  2.3975
 1204SOL    HW215075   2.774   3.865   7.265 -0.4398 -2.3320  1.4572
 1205SOL     OW15076   0.805   1.424   8.666  0.4227 -0.0454 -0.0947
 1205SOL    HW115077   0.839   1.487   8.728 -0.0607  2.0881 -2.0131
 1205SOL    HW215078   0.875   1.430   8.601  0.5474  0.0380  0.0475
 1206SOL     OW15079   1.753   1.634   5.130 -0.0414  0.2334  0.6189
 1206SOL    HW115080   1.793   1.653   5.045  0.5330  0.9719  1.0580
 1206SOL    HW215081   1.807   1.692   5.183  3.0084 -2.1260  0.1011
 1207SOL     OW15082   3.825   2.063   4.102  0.3492  0.1643 -0.2471
 1207SOL    HW115083   3.887   1.995   4.127 -0.9706 -0.6285  0.8984
 1207SOL    HW215084   3.823   2.060   4.007 -0.2857  0.0519 -0.2317
 1208SOL     OW15085   1.752   0.627   7.625  0.5897 -0.4018 -1.1202
 1208SOL    HW115086   1.754   0.645   7.531  2.2217  3.7385 -0.2924
 1208SOL    HW215087   1.827   0.676   7.660 -1.2737  0.6953  1.3562
 1209SOL     OW15088   1.651   2.876   4.038 -0.1273 -0.0851 -0.6363
 1209SOL    HW115089   1.574   2.863   3.984  0.5282 -1.7893 -1.1712
 1209SOL    HW215090   1.674   2.784   4.048 -0.9139 -0.0930  1.0763
 1210SOL     OW15091   0.607   4.523   8.165  0.1758  0.6106  0.2034
 1210SOL    HW115092   0.539   4.466   8.130  2.1027 -1.2505 -0.5058
 1210SOL    HW215093   0.545   4.583   8.206  1.1062  1.4778  0.3584
 1211SOL     OW15094   2.632   3.650   7.520 -0.0242 -0.7227 -0.8176
 1211SOL    HW115095   2.621   3.560   7.550  0.2842 -1.0925 -1.8008
 1211SOL    HW215096   2.578   3.644   7.441 -1.0906  0.2523 -0.1500
 1212SOL     OW15097   1.291   0.517   2.435 -0.9534 -0.2310  0.0150
 1212SOL    HW115098   1.248   0.530   2.351  1.7495  2.1334 -1.0056
 1212SOL    HW215099   1.313   0.606   2.463  4.0939 -0.9783 -1.4924
 1213SOL     OW15100   2.168   2.503   0.655  0.4408 -0.0789  0.1583
 1213SOL    HW115101   2.228   2.547   0.714  0.3967  2.5285 -1.7330
 1213SOL    HW215102   2.171   2.410   0.675 -1.7866  0.0694  1.2114
 1214SOL     OW15103   2.409   4.558   2.891 -0.1691 -0.2866 -0.2682
 1214SOL    HW115104   2.320   4.593   2.892 -1.1603 -2.7445 -1.5182
 1214SOL    HW215105   2.393   4.470   2.924  0.2568 -0.8766 -1.6225
 1215SOL     OW15106   2.792   2.429   4.286  0.0925 -0.9391  0.6438
 1215SOL    HW115107   2.885   2.408   4.280  0.5727  1.1319  0.7143
 1215SOL    HW215108   2.799   2.507   4.341 -5.0428  0.4633 -0.6736
 1216SOL     OW15109   3.394   0.445   2.629  0.0448  0.4439  0.4427
 1216SOL    HW115110   3.351   0.449   2.544  1.7399 -0.8832 -0.4691
 1216SOL    HW215111   3.337   0.379   2.669  1.3395 -1.5404 -0.9451
 1217SOL     OW15112   2.663   2.979   6.789 -0.2479 -0.3235  0.4547
 1217SOL    HW115113   2.574   3.005   6.766  0.6223 -0.4077 -3.0284
 1217SOL    HW215114   2.659   2.883   6.798 -0.0631 -0.2971  0.8461
 1218SOL     OW15115   2.386   2.901   0.196 -0.3054  0.7290  0.5428
 1218SOL    HW115116   2.306   2.877   0.150  0.2927  1.0698 -0.6806
 1218SOL    HW215117   2.418   2.976   0.147 -0.0046  0.2973  0.0820
 1219SOL     OW15118   0.203   2.579   8.095 -0.0745 -0.2295 -0.3073
 1219SOL    HW115119   0.293   2.587   8.127  0.6445  0.9877 -2.6750
 1219SOL    HW215120   0.201   2.632   8.015  2.8297  2.0382  1.1172
 1220SOL     OW15121   4.404   4.085   6.111 -0.3329  0.3712  0.1519
 1220SOL    HW115122   4.312   4.061   6.123 -0.0241 -0.3296  1.1802
 1220SOL    HW215123   4.429   4.110   6.200 -2.5988  0.0282  0.8879
 1221SOL     OW15124   2.827   3.258   0.588 -0.1805 -0.0169  0.1458
 1221SOL    HW115125   2.805   3.272   0.680  1.3381  0.5783  0.4142
 1221SOL    HW215126   2.910   3.305   0.583 -1.1039  1.5359 -0.9668
 1222SOL     OW15127   4.624   1.438   2.359  0.7044 -0.2616 -0.3483
 1222SOL    HW115128   4.667   1.514   2.400 -2.2785  0.6319  1.0999
 1222SOL    HW215129   4.704   1.387   2.346  1.2118  0.4923 -0.2169
 1223SOL     OW15130   2.454   2.872   5.837 -0.3882 -0.2380  0.4316
 1223SOL    HW115131   2.513   2.943   5.862 -0.5991 -0.0326  0.3425
 1223SOL    HW215132   2.403   2.862   5.917 -1.1204  2.4311  0.2913
 1224SOL     OW15133   4.467   3.889   9.538 -0.6891 -1.0718 -0.1212
 1224SOL    HW115134   4.508   3.848   9.462 -2.1895 -2.7573  0.0011
 1224SOL    HW215135   4.413   3.826   9.585 -1.3456  0.0210  0.5915
 1225SOL     OW15136   2.158   1.564   5.476 -0.4078  0.1252 -0.2854
 1225SOL    HW115137   2.145   1.471   5.458 -1.0779  0.1366  0.1731
 1225SOL    HW215138   2.089   1.588   5.536  0.2316  1.6563 -0.1710
 1226SOL     OW15139   3.885   3.301   0.388  0.7648 -0.5945  0.0300
 1226SOL    HW115140   3.963   3.349   0.361  1.1423  0.1104  2.3643
 1226SOL    HW215141   3.815   3.363   0.369 -0.2192 -1.4145  0.9736
 1227SOL     OW15142   0.947   3.464  12.987  0.3616  0.2665 -0.6484
 1227SOL    HW115143   0.873   3.471  13.047 -0.1404  0.1100 -1.2451
 1227SOL    HW215144   0.894   3.442  12.911 -1.0144  1.0774  0.0632
 1228SOL     OW15145   2.367   0.441   2.664 -0.6768 -0.3264  0.2089
 1228SOL    HW115146   2.356   0.346   2.669 -1.6349 -0.3414 -2.2161
 1228SOL    HW215147   2.289   0.464   2.715 -1.0610 -1.8570  0.3082
 1229SOL     OW15148   1.865   3.502   4.343 -0.0083 -0.3067 -0.1353
 1229SOL    HW115149   1.922   3.483   4.418  0.5171 -1.6195 -0.8589
 1229SOL    HW215150   1.779   3.474   4.376 -0.0182 -0.1716 -0.0497
 1230SOL     OW15151   1.365   2.699   5.242 -0.5514  0.1817 -0.1573
 1230SOL    HW115152   1.302   2.637   5.279 -0.3804 -0.0834 -0.3060
 1230SOL    HW215153   1.444   2.646   5.226 -0.4612  0.5891 -1.1057
 1231SOL     OW15154   2.471   1.566   0.166 -0.1158  0.0164  0.4962
 1231SOL    HW115155   2.452   1.528   0.252 -0.4699 -1.3451 -0.1906
 1231SOL    HW215156   2.400   1.630   0.172  0.1906  0.4287 -0.3454
 1232SOL     OW15157   1.668   2.111  13.963 -0.5025  0.8703  0.1138
 1232SOL    HW115158   1.640   2.048  14.030 -0.3845 -0.8387 -1.4463
 1232SOL    HW215159   1.679   2.058  13.884  0.1037 -1.7375  1.9363
 1233SOL     OW15160   1.454   1.059   6.892  0.0038  0.0580 -0.2530
 1233SOL    HW115161   1.471   1.001   6.966  0.8963 -2.6995 -2.6354
 1233SOL    HW215162   1.495   1.010   6.821 -0.8290 -0.0688 -0.6432
 1234SOL     OW15163   0.123   1.633  14.250  0.0336  0.5822 -0.5242
 1234SOL    HW115164   0.130   1.727  14.232  1.8251  0.9254  1.9834
 1234SOL    HW215165   0.215   1.610  14.238 -0.4710 -2.3628  1.4516
 1235SOL     OW15166   0.992   4.491   9.595 -0.1717 -0.5782  0.3961
 1235SOL    HW115167   0.985   4.570   9.649 -0.3102  0.3712 -1.0133
 1235SOL    HW215168   1.083   4.501   9.569  0.0221  1.5160  1.8695
 1236SOL     OW15169   3.853   0.729   3.233  0.1586  0.9068 -0.0390
 1236SOL    HW115170   3.839   0.635   3.242  2.9806  0.6630  1.7205
 1236SOL    HW215171   3.796   0.737   3.156 -0.0256 -2.6576 -0.2869
 1237SOL     OW15172   0.098   3.274   4.757  0.2291 -0.1276 -0.2147
 1237SOL    HW115173   0.097   3.301   4.665  1.5784  0.3870 -0.0785
 1237SOL    HW215174   0.151   3.195   4.746 -1.6107 -1.4272  0.1959
 1238SOL     OW15175   3.526   2.236   5.772 -0.0919  0.4022 -0.1225
 1238SOL    HW115176   3.510   2.276   5.858  0.0912 -1.6577  0.8672
 1238SOL    HW215177   3.452   2.280   5.730  0.1068  0.9105  0.0607
 1239SOL     OW15178   1.998   1.879   2.588  0.1352  0.0080  0.0957
 1239SOL    HW115179   2.006   1.909   2.498 -1.5353  1.4918  0.4470
 1239SOL    HW215180   2.063   1.809   2.592  3.0455  2.8113  1.9326
 1240SOL     OW15181   1.974   1.459   0.577  0.2484  0.0193 -0.2627
 1240SOL    HW115182   2.025   1.393   0.623 -2.4645 -2.0519 -0.1888
 1240SOL    HW215183   1.902   1.485   0.634  0.7574 -1.7173  1.1667
 1241SOL     OW15184   2.859   0.442  17.231 -0.9413 -0.3399  0.3672
 1241SOL    HW115185   2.843   0.356  17.192 -0.2709 -0.9872  1.5218
 1241SOL    HW215186   2.875   0.421  17.323 -2.4897 -0.5790  0.5862
 1242SOL     OW15187   4.682   2.387   4.595  0.0842  0.1198 -0.4197
 1242SOL    HW115188   4.601   2.431   4.619  0.7623  0.8986  0.4529
 1242SOL    HW215189   4.669   2.366   4.503  3.2452 -1.4233 -0.5351
 1243SOL     OW15190   2.940   1.227   8.665  0.1977  0.0388 -0.0746
 1243SOL    HW115191   2.947   1.268   8.579  0.6036  1.6955  0.7487
 1243SOL    HW215192   2.847   1.232   8.688  0.0555 -1.9386 -0.1422
 1244SOL     OW15193   0.896   4.321   4.440 -0.0361 -0.0736  0.6667
 1244SOL    HW115194   0.903   4.410   4.473 -2.0552  0.9019 -1.5770
 1244SOL    HW215195   0.944   4.276   4.509  1.6725 -0.4374 -0.7589
 1245SOL     OW15196   1.186   2.685   4.446  0.3911  0.6653 -0.0856
 1245SOL    HW115197   1.264   2.637   4.419  0.4498  1.7366 -1.8217
 1245SOL    HW215198   1.210   2.705   4.536  2.5443  2.3559 -1.0556
 1246SOL     OW15199   0.985   4.182   9.494  0.2462  0.0832 -0.5511
 1246SOL    HW115200   0.967   4.158   9.585 -0.9685  0.6707 -0.6425
 1246SOL    HW215201   1.006   4.274   9.512 -0.5464  0.4332 -1.4307
 1247SOL     OW15202   2.636   1.482   4.233  0.2234 -0.1711 -0.0384
 1247SOL    HW115203   2.679   1.477   4.147  1.3096  3.5289  0.2607
 1247SOL    HW215204   2.557   1.429   4.226 -0.4431  1.0930 -2.2616
 1248SOL     OW15205   0.160   4.228   2.485  0.0848  0.3138 -0.0954
 1248SOL    HW115206   0.086   4.288   2.481  1.0364  1.6276  2.2343
 1248SOL    HW215207   0.200   4.253   2.402  0.3847  1.6809  0.4634
 1249SOL     OW15208   2.820   0.886   8.221  0.0588 -0.5057  0.1849
 1249SOL    HW115209   2.824   0.964   8.166 -0.6561 -0.6061 -0.0132
 1249SOL    HW215210   2.829   0.825   8.149  0.8995 -1.8924  1.4677
 1250SOL     OW15211   1.286   1.043   2.179  0.1870  0.2631  0.2214
 1250SOL    HW115212   1.266   1.091   2.098  0.5924 -0.3808 -0.2585
 1250SOL    HW215213   1.199   1.012   2.201 -0.1401  0.4376 -0.8111
 1251SOL     OW15214   1.702   2.982   7.547  0.5664  0.3190  0.1353
 1251SOL    HW115215   1.633   2.917   7.559  0.1753  0.9575  1.3526
 1251SOL    HW215216   1.660   3.057   7.589  0.9928  0.4010  0.4245
 1252SOL     OW15217   1.724   4.518   7.102  0.1952  0.6234  0.2816
 1252SOL    HW115218   1.804   4.569   7.121 -0.8408  2.6088 -0.7254
 1252SOL    HW215219   1.758   4.433   7.129  0.2720  0.4238 -0.4587
 1253SOL     OW15220   4.653   2.019   5.748  0.4284 -0.5172  0.2648
 1253SOL    HW115221   4.675   2.035   5.840 -0.6383 -0.9540  0.5921
 1253SOL    HW215222   4.681   1.928   5.737  0.3828 -0.2432 -2.1186
 1254SOL     OW15223   1.528   1.341   3.260  0.6205 -0.3126  0.0345
 1254SOL    HW115224   1.438   1.363   3.234  0.4548 -0.4637  0.4642
 1254SOL    HW215225   1.557   1.425   3.294 -1.5607  1.4275 -2.4547
 1255SOL     OW15226   1.323   1.024   2.531 -0.0620 -0.5717 -0.1238
 1255SOL    HW115227   1.412   1.021   2.496 -0.6113 -0.3063 -1.5434
 1255SOL    HW215228   1.337   1.025   2.625  3.3519  0.9751 -0.6202
 1256SOL     OW15229   0.800   2.550   0.837 -0.0154  0.0105  0.0736
 1256SOL    HW115230   0.762   2.607   0.771  0.5005 -0.6679 -0.8129
 1256SOL    HW215231   0.717   2.515   0.871 -0.4648  1.6502  0.6401
 1257SOL     OW15232   4.524   2.559   4.206  0.7164 -0.5944  0.3425
 1257SOL    HW115233   4.506   2.548   4.112 -0.1209 -1.6609  0.6297
 1257SOL    HW215234   4.439   2.599   4.225  1.3852  0.1315  1.8159
 1258SOL     OW15235   2.252   2.497   9.953 -0.1795  0.6205 -0.2444
 1258SOL    HW115236   2.322   2.556   9.925  0.7087  0.3425  1.3526
 1258SOL    HW215237   2.250   2.512  10.048 -1.3045 -1.3151  0.0263
 1259SOL     OW15238   1.647   1.045   8.980  0.1146  0.8030  0.1547
 1259SOL    HW115239   1.732   1.085   8.998  0.3091 -0.3182  1.7629
 1259SOL    HW215240   1.597   1.121   8.950 -1.3953 -0.1152  0.3501
 1260SOL     OW15241   1.381   4.303   3.164 -0.4017  0.3764  0.5659
 1260SOL    HW115242   1.326   4.345   3.098  0.2867 -1.9336 -1.4912
 1260SOL    HW215243   1.451   4.271   3.107 -1.2997 -2.2207  0.9051
 1261SOL     OW15244   1.639   2.746  14.109  0.4829 -0.1150  0.3220
 1261SOL    HW115245   1.563   2.692  14.090  0.1179 -0.0548  1.6334
 1261SOL    HW215246   1.653   2.764  14.015 -0.1110 -2.5862 -0.2341
 1262SOL     OW15247   1.777   0.254  12.194  0.3093  0.9294 -0.7025
 1262SOL    HW115248   1.762   0.338  12.237  0.5943  0.9835 -0.7112
 1262SOL    HW215249   1.868   0.224  12.200 -0.2118 -0.4136  0.5309
 1263SOL     OW15250   0.738   1.942   4.762 -0.2186  0.4125 -0.4362
 1263SOL    HW115251   0.707   1.950   4.852  2.2671 -2.4132  0.6513
 1263SOL    HW215252   0.829   1.913   4.770 -0.4637  0.0430  1.0285
 1264SOL     OW15253   3.342   0.641  16.571  0.4486  0.6369 -0.2576
 1264SOL    HW115254   3.422   0.604  16.534  0.1231 -1.7242  1.4514
 1264SOL    HW215255   3.315   0.586  16.644  3.8723  0.6726  1.0725
 1265SOL     OW15256   3.392   0.777   5.255 -0.3057  0.1976 -0.1048
 1265SOL    HW115257   3.354   0.745   5.173 -1.9240 -0.1370  0.7884
 1265SOL    HW215258   3.437   0.855   5.223 -1.3356  0.2033 -1.5405
 1266SOL     OW15259   0.505   1.193   5.815  0.7547 -0.0179  0.1276
 1266SOL    HW115260   0.578   1.248   5.787  0.5414  1.5953  2.7606
 1266SOL    HW215261   0.536   1.121   5.870 -0.5956 -0.7306 -0.0248
 1267SOL     OW15262   3.119   1.956   6.516  0.0475  0.2511 -0.0314
 1267SOL    HW115263   3.147   2.007   6.592  1.1173  0.3913 -0.5282
 1267SOL    HW215264   3.198   1.910   6.488  0.6973  0.8974  0.7444
 1268SOL     OW15265   4.220   2.172   5.442 -0.0795  0.5427 -0.4052
 1268SOL    HW115266   4.235   2.257   5.402 -2.4833  0.5124 -1.3740
 1268SOL    HW215267   4.134   2.145   5.410  0.0918 -2.4878  1.6574
 1269SOL     OW15268   0.677   2.369   9.468 -0.4206  0.6822  0.5286
 1269SOL    HW115269   0.649   2.460   9.465 -1.2940  0.3686 -0.6654
 1269SOL    HW215270   0.772   2.377   9.472 -0.2466 -1.0328 -0.2754
 1270SOL     OW15271   1.915   4.352   2.216  0.3644 -0.3144  0.6643
 1270SOL    HW115272   1.832   4.386   2.248  0.9699  3.3607 -1.6762
 1270SOL    HW215273   1.899   4.258   2.222 -0.7992 -0.0129  2.4369
 1271SOL     OW15274   0.848   2.231   4.850 -0.3338  0.3419  0.1428
 1271SOL    HW115275   0.869   2.230   4.757 -3.0500  2.1026 -0.5063
 1271SOL    HW215276   0.895   2.150   4.869  0.3700  0.6430 -0.3349
 1272SOL     OW15277   3.426   2.425   5.588 -0.0594 -0.3939  0.0584
 1272SOL    HW115278   3.382   2.479   5.522 -0.2168  2.2029  2.2841
 1272SOL    HW215279   3.458   2.347   5.544  0.4134  2.2156 -4.2127
 1273SOL     OW15280   3.341   2.205   1.171 -0.0584 -0.6345  0.7161
 1273SOL    HW115281   3.332   2.136   1.105  0.4715 -0.4811  0.4769
 1273SOL    HW215282   3.272   2.269   1.159 -0.0495 -1.2530 -2.6041
 1274SOL     OW15283   0.192   2.990   6.360  0.5987  0.2607  0.3604
 1274SOL    HW115284   0.159   3.018   6.274 -1.0532 -2.0402  0.2543
 1274SOL    HW215285   0.186   2.895   6.351 -0.7086  0.0177  4.2297
 1275SOL     OW15286   4.511   2.047   5.126 -0.0229 -0.0887  0.3049
 1275SOL    HW115287   4.605   2.064   5.124  0.6964 -3.8114  1.8822
 1275SOL    HW215288   4.480   2.116   5.068  1.5435 -1.6051 -2.3336
 1276SOL     OW15289   2.061   2.910   5.834  0.4193  0.2295  0.2329
 1276SOL    HW115290   1.965   2.913   5.829  0.5032  1.1981 -0.7463
 1276SOL    HW215291   2.056   2.874   5.922  3.1245  1.0826  0.7152
 1277SOL     OW15292   2.547   2.862   1.646  0.6208  0.0531  0.5870
 1277SOL    HW115293   2.458   2.878   1.614  0.4204 -1.7238  0.2439
 1277SOL    HW215294   2.585   2.946   1.671 -0.2046  0.3585  0.8279
 1278SOL     OW15295   0.549   1.151   7.394 -0.3717 -0.1260 -0.2861
 1278SOL    HW115296   0.508   1.188   7.317 -1.9735  0.1667  0.7141
 1278SOL    HW215297   0.474   1.152   7.454 -1.2733 -0.5976 -1.4074
 1279SOL     OW15298   1.638   1.230   4.594 -0.1077  0.1859 -0.6032
 1279SOL    HW115299   1.706   1.181   4.548  1.3307  1.3864  0.2288
 1279SOL    HW215300   1.686   1.245   4.675 -1.1142 -0.3339  0.0854
 1280SOL     OW15301   2.192   2.556  15.406 -0.5009  0.4710  0.8301
 1280SOL    HW115302   2.234   2.630  15.362 -3.2446  1.2802 -0.4295
 1280SOL    HW215303   2.222   2.580  15.494  0.6120 -0.7285  0.7843
 1281SOL     OW15304   2.809   4.075   5.869  0.4004 -0.2973  0.8180
 1281SOL    HW115305   2.783   4.098   5.779  0.3315 -0.9737  0.6662
 1281SOL    HW215306   2.887   4.023   5.850  0.6412  0.0768  0.7756
 1282SOL     OW15307   2.468   0.111  13.474 -0.3767  0.3989 -0.6396
 1282SOL    HW115308   2.407   0.185  13.466 -4.6120 -3.1828 -1.4292
 1282SOL    HW215309   2.507   0.106  13.387 -1.2774 -0.1675 -1.0117
 1283SOL     OW15310   3.339   4.293   3.209  0.3680  0.0917  0.1972
 1283SOL    HW115311   3.408   4.229   3.195 -0.9033 -0.6789 -2.5347
 1283SOL    HW215312   3.308   4.258   3.293 -0.5385  0.2380 -0.0740
 1284SOL     OW15313   2.833   0.433   8.000 -0.0570 -0.3072  0.2127
 1284SOL    HW115314   2.912   0.387   8.028  0.6002 -0.9188 -2.7341
 1284SOL    HW215315   2.803   0.367   7.938  0.5979  1.1960 -1.6799
 1285SOL     OW15316   4.079   4.523   6.240  0.3343  0.2466  0.4963
 1285SOL    HW115317   4.115   4.537   6.327 -0.3212  1.4009  0.5733
 1285SOL    HW215318   4.147   4.567   6.188 -0.1789  0.6235  0.1453
 1286SOL     OW15319   1.519   1.024   1.750  0.0476 -0.1878 -0.1415
 1286SOL    HW115320   1.446   1.002   1.807  0.5768 -0.1055  0.5742
 1286SOL    HW215321   1.528   0.945   1.696  1.9503 -0.9665  1.3302
 1287SOL     OW15322   4.093   1.867   4.578  0.2539  0.4748  0.0422
 1287SOL    HW115323   4.160   1.932   4.560  1.1749 -0.1006  1.3093
 1287SOL    HW215324   4.036   1.911   4.641  0.4533 -0.8535  1.1658
 1288SOL     OW15325   2.807   2.610  13.708 -0.3436  0.1789 -0.0130
 1288SOL    HW115326   2.826   2.659  13.627 -4.0693 -0.7463 -1.4473
 1288SOL    HW215327   2.712   2.624  13.710 -0.3621 -0.2630  1.5960
 1289SOL     OW15328   0.209   4.440  11.392 -0.2891  0.2357 -0.7062
 1289SOL    HW115329   0.131   4.385  11.396 -0.0750 -0.0250 -0.1716
 1289SOL    HW215330   0.170   4.527  11.381  0.6221  0.6713 -0.5076
 1290SOL     OW15331   4.081   1.168   9.751 -0.1274 -0.0260  0.1053
 1290SOL    HW115332   4.127   1.101   9.700  1.3088 -0.6794  2.2467
 1290SOL    HW215333   4.117   1.248   9.712 -1.2064 -0.5332 -1.9308
 1291SOL     OW15334   0.442   4.402  12.583  0.3964  0.0456 -0.2364
 1291SOL    HW115335   0.460   4.345  12.507 -1.4139  1.1584 -1.4909
 1291SOL    HW215336   0.530   4.417  12.617 -0.3148 -1.6894  2.3979
 1292SOL     OW15337   0.967   0.298   9.411 -0.1544  0.7854 -0.4207
 1292SOL    HW115338   0.932   0.209   9.414  0.4011  0.5583 -0.6980
 1292SOL    HW215339   0.899   0.353   9.372 -0.5685  0.3293 -0.3344
 1293SOL     OW15340   2.322   3.520  14.629  0.2199 -0.7415 -0.1612
 1293SOL    HW115341   2.227   3.510  14.628  0.0808  0.3973  1.2276
 1293SOL    HW215342   2.342   3.511  14.536  1.2381 -0.0203 -0.0253
 1294SOL     OW15343   4.277   3.153   5.428  0.0321  0.3463  0.0472
 1294SOL    HW115344   4.245   3.064   5.416 -0.2019  0.4282  0.0620
 1294SOL    HW215345   4.209   3.203   5.384 -0.0427 -0.2949 -0.5501
 1295SOL     OW15346   1.554   4.450  15.710  0.1923  0.1835 -0.3604
 1295SOL    HW115347   1.538   4.365  15.749  0.3668  0.5600  0.5267
 1295SOL    HW215348   1.581   4.424  15.622  0.9937  0.8039 -0.3032
 1296SOL     OW15349   0.923   4.115   9.748 -0.6319  0.0253 -0.2328
 1296SOL    HW115350   0.875   4.156   9.820 -1.1699  0.1114 -0.6352
 1296SOL    HW215351   0.883   4.028   9.751 -0.3744 -0.0712  0.2415
 1297SOL     OW15352   2.963   1.177  12.702 -0.3556 -0.3770  0.1180
 1297SOL    HW115353   2.973   1.203  12.793 -1.7765  0.1671  0.1154
 1297SOL    HW215354   2.998   1.258  12.664  1.3251 -2.2321 -2.2453
 1298SOL     OW15355   4.631   3.228   8.217 -0.4133  0.5737 -0.4339
 1298SOL    HW115356   4.627   3.150   8.162 -0.2136 -0.5188  1.1263
 1298SOL    HW215357   0.000   3.239   8.204  0.4999 -3.2867  2.9097
 1299SOL     OW15358   1.476   2.724   7.275  0.4584 -0.4379  0.1551
 1299SOL    HW115359   1.483   2.629   7.278  0.2853 -0.4851 -1.1470
 1299SOL    HW215360   1.487   2.741   7.369 -2.3945 -0.4004  0.4790
 1300SOL     OW15361   1.194   2.060  12.007 -0.0854  0.1634 -0.3540
 1300SOL    HW115362   1.176   2.067  11.913 -1.2080 -1.3766 -0.2555
 1300SOL    HW215363   1.248   2.137  12.027 -0.4190 -0.1428  1.6606
 1301SOL     OW15364   2.228   1.005   5.787 -0.1978 -0.2691 -0.0854
 1301SOL    HW115365   2.170   1.059   5.734  0.4561  1.1673  0.6718
 1301SOL    HW215366   2.180   0.926   5.815 -1.6122  0.9894  1.0270
 1302SOL     OW15367   2.054   0.667   6.893 -0.3089 -0.5152  0.5123
 1302SOL    HW115368   2.072   0.596   6.831  1.1662  1.5084 -1.4020
 1302SOL    HW215369   2.093   0.744   6.850  1.8093 -1.7889  0.1627
 1303SOL     OW15370   4.405   2.828  13.812  0.5185  0.4633 -0.7589
 1303SOL    HW115371   4.452   2.901  13.851 -1.0734  0.5229  1.0215
 1303SOL    HW215372   4.321   2.870  13.794  0.7872  1.2313 -0.1880
 1304SOL     OW15373   4.002   3.956   3.447 -0.1725 -0.2113 -0.1478
 1304SOL    HW115374   3.982   3.911   3.364  2.5890 -1.7374  0.0090
 1304SOL    HW215375   4.080   3.904   3.464  0.1195 -0.3539 -1.9097
 1305SOL     OW15376   3.676   4.127  12.749  0.2065 -0.2787 -0.2455
 1305SOL    HW115377   3.697   4.093  12.836 -0.0701 -3.0626 -1.2733
 1305SOL    HW215378   3.762   4.128  12.708  0.2222 -2.8730 -0.2637
 1306SOL     OW15379   4.590   2.757   5.658 -0.2789  0.4603  0.3727
 1306SOL    HW115380   4.656   2.693   5.635 -2.5724 -2.7035  2.6163
 1306SOL    HW215381   4.575   2.740   5.751 -3.3992 -0.6960 -0.3412
 1307SOL     OW15382   1.584   3.585   5.896 -0.4809  0.6429  0.1194
 1307SOL    HW115383   1.545   3.669   5.871  0.7744  0.4212 -2.4893
 1307SOL    HW215384   1.646   3.608   5.965 -0.1625 -1.6019  0.5769
 1308SOL     OW15385   2.859   0.241   6.712 -0.1082  0.2551  0.2316
 1308SOL    HW115386   2.889   0.173   6.651 -3.8816 -2.9337  1.9477
 1308SOL    HW215387   2.766   0.244   6.692 -0.6061 -0.6230  2.4248
 1309SOL     OW15388   4.658   2.107   6.037 -0.1210 -0.2654  0.5425
 1309SOL    HW115389   4.584   2.165   6.018 -0.8821 -0.9506  1.3825
 1309SOL    HW215390   0.009   2.157   6.007 -1.2125  1.7767  1.1829
 1310SOL     OW15391   1.905   1.943   6.737 -0.1455 -0.1359  0.1301
 1310SOL    HW115392   1.908   2.035   6.710  1.2054 -0.3500 -0.4659
 1310SOL    HW215393   1.998   1.939   6.760 -0.3667  1.0103  1.2315
 1311SOL     OW15394   1.597   0.034   1.635 -0.1890  0.2130 -0.0146
 1311SOL    HW115395   1.587   0.129   1.636  1.1250  0.3478  0.6847
 1311SOL    HW215396   1.686   0.022   1.604 -0.2739  0.3869 -0.3305
 1312SOL     OW15397   1.572   3.628  16.396 -0.2232  0.1729  0.4068
 1312SOL    HW115398   1.510   3.701  16.399 -0.4750 -0.0622  1.1173
 1312SOL    HW215399   1.651   3.678  16.417  1.6032 -2.8023  0.6137
 1313SOL     OW15400   0.737   2.466   8.244  0.2839 -0.3213  0.2411
 1313SOL    HW115401   0.742   2.537   8.308 -0.0434 -0.0578 -0.0193
 1313SOL    HW215402   0.829   2.459   8.222  0.0323  1.8958 -1.5945
 1314SOL     OW15403   4.313   0.845   9.222  0.4339 -0.5621  0.8981
 1314SOL    HW115404   4.329   0.794   9.142  1.2595 -0.3486  0.9284
 1314SOL    HW215405   4.237   0.793   9.245  0.2993 -0.9395 -0.3500
 1315SOL     OW15406   1.646   2.672   6.491 -0.1069 -0.7487  0.1512
 1315SOL    HW115407   1.701   2.750   6.497 -0.6581 -0.4278  0.9459
 1315SOL    HW215408   1.560   2.713   6.489  0.0838 -0.3200  0.6127
 1316SOL     OW15409   2.876   3.861   9.765 -0.3294  0.3138  0.2146
 1316SOL    HW115410   2.803   3.870   9.703  0.1910 -1.2921 -0.6223
 1316SOL    HW215411   2.837   3.879   9.851  1.1070  0.0951  0.9047
 1317SOL     OW15412   3.859   2.046   2.526 -0.7205 -0.6382 -0.0954
 1317SOL    HW115413   3.780   2.053   2.471 -1.3476  1.8487  1.1416
 1317SOL    HW215414   3.915   2.106   2.477 -0.8638  0.0977  0.6498
 1318SOL     OW15415   3.819   0.196  17.251  0.5893 -0.1978  0.2469
 1318SOL    HW115416   3.826   0.278  17.300  2.3082 -0.3595  0.2777
 1318SOL    HW215417   3.746   0.154  17.299 -1.7533  1.2545 -2.0667
 1319SOL     OW15418   3.283   4.631  16.256  0.3989 -0.5509 -0.6982
 1319SOL    HW115419   3.306   4.539  16.272  1.0214 -0.5052 -1.3220
 1319SOL    HW215420   3.300   4.634  16.162  1.6315  0.0820 -0.4529
 1320SOL     OW15421   0.947   0.706   1.763  0.2598  0.9766 -0.0050
 1320SOL    HW115422   1.003   0.646   1.813  1.6567  0.7840 -1.8155
 1320SOL    HW215423   1.008   0.778   1.751 -1.6063  2.3254 -1.3902
 1321SOL     OW15424   1.764   4.224   3.946  0.3442 -0.2655 -0.1640
 1321SOL    HW115425   1.751   4.316   3.923  0.4305 -0.5924 -1.5382
 1321SOL    HW215426   1.702   4.222   4.018 -0.8987  1.3993 -1.1875
 1322SOL     OW15427   1.867   2.531   9.195 -0.0250  0.2334  0.1776
 1322SOL    HW115428   1.868   2.579   9.278 -0.4636 -0.7444  0.7538
 1322SOL    HW215429   1.863   2.605   9.135  1.9858  1.4087  1.4979
 1323SOL     OW15430   3.199   3.660   7.877 -0.0689 -0.0625 -0.3291
 1323SOL    HW115431   3.215   3.735   7.820 -1.3242 -1.3627 -2.3930
 1323SOL    HW215432   3.107   3.642   7.856 -1.2663  4.8681  0.7586
 1324SOL     OW15433   0.319   4.406  10.475  0.2659 -0.0499 -0.1073
 1324SOL    HW115434   0.384   4.339  10.454 -0.1536 -0.0566 -1.3728
 1324SOL    HW215435   0.247   4.367  10.426 -0.9817 -1.2577  2.6958
 1325SOL     OW15436   1.380   3.213   9.401  0.1296  0.5401 -0.1101
 1325SOL    HW115437   1.302   3.226   9.455 -0.3137 -2.1224 -0.0989
 1325SOL    HW215438   1.333   3.175   9.327 -0.8261 -1.9532  1.7686
 1326SOL     OW15439   2.979   3.030  12.227 -0.2268 -0.2152 -0.2533
 1326SOL    HW115440   2.980   3.030  12.132 -1.5770 -0.0498 -0.2714
 1326SOL    HW215441   3.056   3.082  12.249 -0.6706 -0.0688  1.0048
 1327SOL     OW15442   2.265   3.028   6.373  0.1117  0.2240 -0.1230
 1327SOL    HW115443   2.305   3.107   6.409 -0.4520 -0.6576  2.4024
 1327SOL    HW215444   2.344   2.993   6.331 -0.1231  0.6598 -0.9375
 1328SOL     OW15445   3.149   0.549  12.056  0.0402  0.3410 -0.1398
 1328SOL    HW115446   3.105   0.482  12.108  0.3879  1.6804  1.8758
 1328SOL    HW215447   3.206   0.587  12.123  0.1597  0.6335 -0.4061
 1329SOL     OW15448   2.942   4.368  16.865  0.0930  0.1920  0.1035
 1329SOL    HW115449   2.941   4.385  16.959  0.0501 -2.2699  0.5290
 1329SOL    HW215450   2.993   4.442  16.831  2.3677 -1.1713  0.5398
 1330SOL     OW15451   1.751   2.856   9.938 -0.5485 -0.2460 -0.3974
 1330SOL    HW115452   1.691   2.888   9.870 -1.7912  1.0579  1.3348
 1330SOL    HW215453   1.816   2.926   9.941 -0.3120 -0.5180  0.7855
 1331SOL     OW15454   2.997   0.909  12.619  0.3620  0.4467 -0.0236
 1331SOL    HW115455   3.090   0.918  12.597  0.1385 -1.6692 -1.8543
 1331SOL    HW215456   2.988   1.002  12.640  2.6552  0.9908 -1.4216
 1332SOL     OW15457   2.499   2.089   4.124 -0.1678 -0.3296 -0.0702
 1332SOL    HW115458   2.413   2.127   4.139  1.0005  1.3202  2.4910
 1332SOL    HW215459   2.544   2.132   4.197  0.9256 -0.7309 -0.5006
 1333SOL     OW15460   2.292   2.599  14.319 -0.1264  0.2943  0.1647
 1333SOL    HW115461   2.296   2.635  14.230  1.1848  0.3873  0.2728
 1333SOL    HW215462   2.198   2.585  14.334 -0.1729 -1.1506 -1.4675
 1334SOL     OW15463   4.554   2.656   2.100  0.1941  0.2628 -0.0504
 1334SOL    HW115464   4.497   2.611   2.038 -2.1073  1.7938  0.9165
 1334SOL    HW215465   4.486   2.697   2.153 -0.2431  1.4931 -1.5753
 1335SOL     OW15466   2.538   2.078  16.981  0.2007  0.5956 -0.6063
 1335SOL    HW115467   2.443   2.080  16.982  0.1513 -2.0035 -3.4082
 1335SOL    HW215468   2.569   2.002  17.031 -0.2742 -0.2189 -1.5578
 1336SOL     OW15469   0.644   4.612   8.728 -0.1871  0.2648 -0.0138
 1336SOL    HW115470   0.699   4.600   8.805 -0.1072  2.3002  0.2392
 1336SOL    HW215471   0.651   4.525   8.688 -0.5058 -0.0337  0.5723
 1337SOL     OW15472   3.863   4.021   3.668  0.3770  0.0625 -0.0511
 1337SOL    HW115473   3.889   3.973   3.589  1.8082 -0.0273  0.4632
 1337SOL    HW215474   3.895   4.106   3.637 -0.3542  0.7643  1.1301
 1338SOL     OW15475   3.996   3.729   9.788  0.0915  0.2728 -0.3828
 1338SOL    HW115476   3.986   3.785   9.865 -3.2204  0.3905 -0.9264
 1338SOL    HW215477   4.076   3.765   9.749  0.0669 -1.1485 -1.7384
 1339SOL     OW15478   3.151   0.381   3.803 -0.0539  0.5217 -0.2147
 1339SOL    HW115479   3.130   0.358   3.713  1.4886 -0.9822 -0.1751
 1339SOL    HW215480   3.133   0.293   3.836 -1.2617  2.1364  3.4718
 1340SOL     OW15481   3.277   1.713   6.866 -0.3190 -0.1838  0.1245
 1340SOL    HW115482   3.188   1.724   6.899  0.2339  1.3734  1.1395
 1340SOL    HW215483   3.259   1.677   6.779 -3.6066 -1.9835  1.5747
 1341SOL     OW15484   2.374   3.252   6.503  0.3703 -0.4004  0.7558
 1341SOL    HW115485   2.453   3.279   6.550  0.7831  0.0992 -0.2084
 1341SOL    HW215486   2.329   3.225   6.583  0.3634  0.5189  1.0622
 1342SOL     OW15487   1.340   1.380   8.279 -0.1059  0.0532  0.1246
 1342SOL    HW115488   1.411   1.422   8.231 -1.0584  3.1650  1.4121
 1342SOL    HW215489   1.259   1.402   8.231  1.2170 -0.5743 -2.4113
 1343SOL     OW15490   2.595   3.953  13.141  0.6174 -0.3078 -0.7252
 1343SOL    HW115491   2.528   3.958  13.210  0.1847 -1.1640 -1.0814
 1343SOL    HW215492   2.545   3.972  13.062 -1.2488  0.0330  0.5354
 1344SOL     OW15493   3.555   3.484   4.005 -0.4544  0.3424  0.2781
 1344SOL    HW115494   3.540   3.447   3.918  1.2226 -0.8523  0.5058
 1344SOL    HW215495   3.488   3.431   4.047  0.4297 -0.7541  0.2881
 1345SOL     OW15496   3.886   4.037   8.929 -0.0329 -0.2516  0.4540
 1345SOL    HW115497   3.877   4.124   8.966  2.2856 -0.0930  0.5900
 1345SOL    HW215498   3.805   3.991   8.952  0.7890 -2.5490 -1.1834
 1346SOL     OW15499   0.427   0.565   8.989  0.0303  0.4052  1.0154
 1346SOL    HW115500   0.494   0.535   8.928  1.2204  1.9646  1.5552
 1346SOL    HW215501   0.458   0.520   9.068 -0.9003 -2.8908 -0.5171
 1347SOL     OW15502   2.043   2.970   0.509 -0.1952  0.1697 -0.2792
 1347SOL    HW115503   1.983   3.023   0.458 -0.3749  1.6418  1.4568
 1347SOL    HW215504   2.116   3.031   0.508  0.2594 -0.3294  1.4305
 1348SOL     OW15505   1.712   1.370   2.574  0.0764  0.2169  0.3548
 1348SOL    HW115506   1.748   1.459   2.573 -1.1801  0.7042 -1.6586
 1348SOL    HW215507   1.619   1.390   2.567  0.0216 -0.0678  0.2786
 1349SOL     OW15508   3.929   1.047   4.681 -0.0264 -0.2541 -0.2879
 1349SOL    HW115509   3.902   0.955   4.683 -0.7769 -0.0177 -0.0074
 1349SOL    HW215510   3.905   1.074   4.592 -0.5477  0.0394 -0.0575
 1350SOL     OW15511   4.172   2.422   3.613  0.1593  0.2849  0.1893
 1350SOL    HW115512   4.186   2.330   3.637 -3.4690 -0.2911  0.1507
 1350SOL    HW215513   4.083   2.419   3.578  0.5488  1.2781 -0.8591
 1351SOL     OW15514   0.196   1.387  13.967 -0.8566 -0.3516  0.4740
 1351SOL    HW115515   0.248   1.397  13.887 -1.1667 -3.1631 -0.0820
 1351SOL    HW215516   0.254   1.333  14.021 -1.6747 -1.8028 -0.1025
 1352SOL     OW15517   0.206   1.269   4.958 -0.1991  0.0421  0.2548
 1352SOL    HW115518   0.278   1.290   5.016  0.2793 -0.4736 -0.1558
 1352SOL    HW215519   0.237   1.197   4.903 -0.1295 -0.2674  0.7015
 1353SOL     OW15520   1.223   0.740   8.423 -0.3159  0.6952 -0.2368
 1353SOL    HW115521   1.243   0.833   8.432 -1.5571  0.9783 -0.3598
 1353SOL    HW215522   1.307   0.705   8.395  0.2482  1.8429  0.0585
 1354SOL     OW15523   0.168   4.321   4.196 -0.6314  0.2881  0.0854
 1354SOL    HW115524   0.155   4.385   4.126 -3.8334  0.4727  0.8893
 1354SOL    HW215525   0.191   4.251   4.135 -1.4164  0.0979  0.0126
 1355SOL     OW15526   3.105   1.880   0.829 -0.4718  0.2441 -0.7473
 1355SOL    HW115527   3.039   1.818   0.798 -0.3531 -1.1785  1.8153
 1355SOL    HW215528   3.169   1.812   0.850  1.4434  1.8506 -1.3322
 1356SOL     OW15529   1.937   3.168   4.983  0.0487 -0.3009 -0.2874
 1356SOL    HW115530   1.922   3.111   5.058  1.0086  0.9660  0.8782
 1356SOL    HW215531   2.033   3.174   4.985 -0.0257  0.6838  0.4307
 1357SOL     OW15532   4.522   1.667  14.472  0.3318 -0.1881  0.6654
 1357SOL    HW115533   4.540   1.632  14.384 -0.1586 -0.7575  0.7977
 1357SOL    HW215534   4.427   1.669  14.468  0.2424 -1.0529  2.6421
 1358SOL     OW15535   0.324   0.637   8.698 -0.1512 -0.5660 -0.3174
 1358SOL    HW115536   0.392   0.571   8.688  0.2208  0.2467 -3.3934
 1358SOL    HW215537   0.320   0.650   8.792  1.6758 -0.2009 -0.2908
 1359SOL     OW15538   1.264   2.362   3.213 -0.2573  0.2524  0.2171
 1359SOL    HW115539   1.264   2.307   3.134  2.9767 -0.1267  0.4829
 1359SOL    HW215540   1.293   2.306   3.285  1.4383 -0.9976 -1.4562
 1360SOL     OW15541   1.383   1.929   9.710  0.5666 -0.2706  0.2805
 1360SOL    HW115542   1.455   1.976   9.752  0.9550 -0.0865 -0.6020
 1360SOL    HW215543   1.309   1.973   9.753  0.0490 -0.7485 -0.1112
 1361SOL     OW15544   3.479   3.100   2.687 -0.4478  0.2565 -0.6631
 1361SOL    HW115545   3.554   3.071   2.636  0.3082  1.4222 -0.2249
 1361SOL    HW215546   3.522   3.178   2.723 -1.9006  1.0240 -0.5686
 1362SOL     OW15547   4.588   3.049  15.325 -0.1753  0.0557 -0.0153
 1362SOL    HW115548   4.574   3.074  15.416 -0.7640  0.8411 -0.3179
 1362SOL    HW215549   4.654   2.981  15.335  1.4574  1.5371 -0.7391
 1363SOL     OW15550   1.763   1.364   6.097 -0.2205  0.1856 -0.1695
 1363SOL    HW115551   1.762   1.428   6.025  0.5965 -0.9216 -1.1647
 1363SOL    HW215552   1.854   1.337   6.102 -0.4736 -0.4393  0.9370
 1364SOL     OW15553   4.394   3.680   6.717 -0.2567  0.4277 -0.7560
 1364SOL    HW115554   4.454   3.631   6.774  1.3462 -0.1713 -2.9698
 1364SOL    HW215555   4.341   3.616   6.670  0.5904 -0.2589 -0.7844
 1365SOL     OW15556   2.295   4.133   4.761 -0.2187 -0.7385  0.7561
 1365SOL    HW115557   2.265   4.096   4.844  0.5958 -0.9287  0.9649
 1365SOL    HW215558   2.220   4.184   4.730  0.2384 -1.0835 -0.9574
 1366SOL     OW15559   4.236   4.298   8.227  0.5140 -0.0072 -0.3351
 1366SOL    HW115560   4.263   4.388   8.210  1.1401 -0.1106  0.1088
 1366SOL    HW215561   4.149   4.313   8.265  1.2433  2.0728  0.5112
 1367SOL     OW15562   1.779   0.604   7.356  0.2906  0.2584 -0.3600
 1367SOL    HW115563   1.748   0.671   7.294  0.1569  1.5182  1.0494
 1367SOL    HW215564   1.872   0.627   7.357  0.1631  0.7475  1.1310
 1368SOL     OW15565   2.596   0.663  15.732 -0.0635  0.0189 -0.0232
 1368SOL    HW115566   2.606   0.587  15.675 -2.9506 -2.4836  2.8083
 1368SOL    HW215567   2.600   0.739  15.675 -0.5100 -0.2618 -0.4245
 1369SOL     OW15568   2.467   2.201  16.753 -0.3040  0.0008  0.2327
 1369SOL    HW115569   2.489   2.177  16.843  0.3630 -0.5964 -0.0803
 1369SOL    HW215570   2.381   2.161  16.742 -0.1697  0.3083 -1.8789
 1370SOL     OW15571   2.656   1.050   5.534  0.5681  0.3015 -0.1955
 1370SOL    HW115572   2.606   0.987   5.586  0.1016  0.8033 -0.0386
 1370SOL    HW215573   2.680   1.002   5.455 -1.1071 -0.8566 -0.0049
 1371SOL     OW15574   1.173   2.936   8.673 -0.5675  0.0507 -0.3298
 1371SOL    HW115575   1.164   3.011   8.615 -0.6251 -0.1539 -0.5868
 1371SOL    HW215576   1.209   2.871   8.613 -1.5186 -1.5782  0.8502
 1372SOL     OW15577   4.406   0.720   5.313  0.0866  0.6019  0.2750
 1372SOL    HW115578   4.343   0.742   5.243  0.4977 -1.0025 -0.6009
 1372SOL    HW215579   4.476   0.784   5.298  0.0847  1.0939  2.4209
 1373SOL     OW15580   1.001   0.128   0.321  0.0720 -0.2912  0.4068
 1373SOL    HW115581   0.942   0.053   0.320  0.2233 -0.4349  2.5260
 1373SOL    HW215582   1.083   0.081   0.339 -0.5183 -0.6915  2.0285
 1374SOL     OW15583   0.093   2.396   1.094 -0.1364  0.5975 -0.4934
 1374SOL    HW115584   0.033   2.349   1.152  0.9296 -1.2892 -0.9003
 1374SOL    HW215585   0.082   2.487   1.121 -1.7809  0.7217 -1.5997
 1375SOL     OW15586   1.960   3.116   2.312 -0.0413 -0.2124 -0.3113
 1375SOL    HW115587   1.883   3.174   2.315 -0.5108 -0.8081 -1.0280
 1375SOL    HW215588   2.013   3.172   2.256  3.3682 -1.4527  1.7192
 1376SOL     OW15589   2.825   0.010   5.126 -0.1892  0.0350  0.6144
 1376SOL    HW115590   2.840   4.658   5.071 -0.5170  0.8033 -0.5441
 1376SOL    HW215591   2.883   0.076   5.088  1.8939 -2.7798 -1.1407
 1377SOL     OW15592   2.474   3.676   4.877 -0.3526  0.4904  0.3600
 1377SOL    HW115593   2.462   3.747   4.815  2.0275  0.2670 -0.3581
 1377SOL    HW215594   2.423   3.602   4.845 -0.5511  0.8332 -0.1034
 1378SOL     OW15595   0.964   0.446  15.652  0.4592 -0.3104 -0.4287
 1378SOL    HW115596   0.997   0.495  15.577  0.7625  0.5931  0.2920
 1378SOL    HW215597   0.988   0.501  15.727  2.2141  1.3807 -2.2281
 1379SOL     OW15598   2.949   2.655   4.636 -0.0558  0.4892 -0.2521
 1379SOL    HW115599   2.957   2.654   4.540  0.7788 -0.5146 -0.1744
 1379SOL    HW215600   2.899   2.735   4.649 -2.2074 -1.0368  0.7675
 1380SOL     OW15601   0.661   2.853  10.872 -0.8098  0.2284 -0.2368
 1380SOL    HW115602   0.648   2.848  10.777 -1.4313 -0.4081 -0.1215
 1380SOL    HW215603   0.570   2.855  10.900 -1.0003 -0.8286 -0.7950
 1381SOL     OW15604   4.206   2.237  12.320  0.5865 -0.3650 -0.0630
 1381SOL    HW115605   4.185   2.308  12.381  0.8327  0.3254 -0.7838
 1381SOL    HW215606   4.125   2.233  12.270  0.3650  0.1841  0.2629
 1382SOL     OW15607   0.488   3.254   4.467 -0.0504 -0.4074 -0.2327
 1382SOL    HW115608   0.504   3.312   4.542 -0.3797 -1.6413  0.7890
 1382SOL    HW215609   0.565   3.260   4.411 -0.0292  0.0350 -0.1568
 1383SOL     OW15610   2.324   0.309   6.194 -0.3532  0.5308  0.1515
 1383SOL    HW115611   2.411   0.345   6.208 -1.0014  0.9667  2.9400
 1383SOL    HW215612   2.264   0.383   6.207 -0.5530  0.4705 -0.4201
 1384SOL     OW15613   4.397   3.897  10.798 -0.0281 -0.4471 -0.5830
 1384SOL    HW115614   4.336   3.845  10.850 -0.1225 -0.4122 -0.6600
 1384SOL    HW215615   4.435   3.828  10.743 -1.1940 -1.1906 -0.4354
 1385SOL     OW15616   3.266   0.000   0.287 -0.4897  0.1904  0.7833
 1385SOL    HW115617   3.338   0.003   0.224  0.0222  1.0963  1.4040
 1385SOL    HW215618   3.316   4.711   0.367  0.2897  0.7311  0.3864
 1386SOL     OW15619   2.451   0.656  13.343 -0.3572 -0.3393 -0.0936
 1386SOL    HW115620   2.402   0.584  13.304  0.1620 -0.8533  0.2135
 1386SOL    HW215621   2.427   0.650  13.435 -2.1722  3.3446 -0.2983
 1387SOL     OW15622   3.453   4.610   2.101  0.6196 -0.1886 -0.6416
 1387SOL    HW115623   3.536   4.615   2.054  0.3311  1.4522 -0.9803
 1387SOL    HW215624   3.439   4.517   2.115  0.4186  0.3473  2.7412
 1388SOL     OW15625   3.185   1.692   0.369  0.0636  0.3623 -0.8278
 1388SOL    HW115626   3.112   1.733   0.415  0.4315  1.0956 -0.9029
 1388SOL    HW215627   3.220   1.644   0.444  0.0512  1.3667 -0.1740
 1389SOL     OW15628   2.744   1.997   5.999 -0.1865 -0.1599  0.7716
 1389SOL    HW115629   2.698   1.988   5.915  2.5037 -3.3907 -0.3637
 1389SOL    HW215630   2.685   2.053   6.049 -1.5121 -0.7427 -0.1270
 1390SOL     OW15631   2.140   3.122   6.026  0.2906 -0.2266  0.0751
 1390SOL    HW115632   2.117   3.071   5.948 -1.2523  2.2307 -1.0839
 1390SOL    HW215633   2.229   3.098   6.050  1.1274  0.6528 -2.1933
 1391SOL     OW15634   2.295   1.045   3.392 -0.4433  0.5040  0.1200
 1391SOL    HW115635   2.207   1.008   3.392  2.0626 -5.5877 -0.7302
 1391SOL    HW215636   2.269   1.136   3.401  1.0992  0.5781  3.6593
 1392SOL     OW15637   3.046   3.807  15.383  0.4066  0.0740  0.0225
 1392SOL    HW115638   3.085   3.719  15.378 -4.2504 -2.0142  0.5202
 1392SOL    HW215639   3.098   3.857  15.321  0.0551 -0.6924 -0.8975
 1393SOL     OW15640   3.880   2.645   3.880 -0.4575  0.1554 -0.0934
 1393SOL    HW115641   3.972   2.647   3.905 -0.1986 -1.0550 -0.9586
 1393SOL    HW215642   3.843   2.597   3.954 -1.8207  0.9663 -0.2485
 1394SOL     OW15643   0.934   4.501   3.043  0.3192 -0.1464  0.2549
 1394SOL    HW115644   0.913   4.408   3.033  0.3707  0.1386 -2.4996
 1394SOL    HW215645   0.872   4.546   2.986  1.8643  1.2499 -0.3513
 1395SOL     OW15646   4.715   4.243   7.963  0.1615 -0.0788 -0.0173
 1395SOL    HW115647   0.047   4.259   7.888 -1.4916 -0.4072 -1.3102
 1395SOL    HW215648   4.724   4.148   7.949 -0.1781  0.0564 -1.1164
 1396SOL     OW15649   2.603   2.692   6.799 -0.2873  0.0279 -0.0457
 1396SOL    HW115650   2.591   2.604   6.762  2.0382 -0.1431 -0.4048
 1396SOL    HW215651   2.513   2.699   6.832  0.0191 -1.1212  1.0450
 1397SOL     OW15652   1.438   4.298   6.852  0.1223  0.4557  0.5855
 1397SOL    HW115653   1.512   4.239   6.833 -0.9750 -1.3775  2.0517
 1397SOL    HW215654   1.376   4.237   6.813  0.6047  1.5311 -1.8808
 1398SOL     OW15655   1.720   2.894   4.747 -0.1048 -0.0743 -0.2970
 1398SOL    HW115656   1.806   2.908   4.787 -0.1578 -0.0734 -0.1811
 1398SOL    HW215657   1.736   2.910   4.655  0.1846 -1.8722 -0.5655
 1399SOL     OW15658   1.795   1.440   4.185  0.2868  0.2452 -0.3715
 1399SOL    HW115659   1.720   1.446   4.243  1.2907  0.5273  0.8949
 1399SOL    HW215660   1.861   1.452   4.253  0.1414  0.1926 -0.2207
 1400SOL     OW15661   1.576   1.351   0.818 -0.5338 -0.0142  0.1984
 1400SOL    HW115662   1.601   1.436   0.781 -1.3890  0.2284  0.1844
 1400SOL    HW215663   1.507   1.378   0.879  0.2094 -0.4847  1.2449
 1401SOL     OW15664   1.389   1.466   6.050  0.7032  0.2498 -0.2037
 1401SOL    HW115665   1.300   1.478   6.085  0.8570 -1.3518  0.7080
 1401SOL    HW215666   1.395   1.520   5.971  0.8764  0.8448  0.2207
 1402SOL     OW15667   1.851   1.984   0.301  0.0804  0.5640 -0.1213
 1402SOL    HW115668   1.897   1.936   0.369  0.9796  0.1158 -1.0495
 1402SOL    HW215669   1.918   2.052   0.292 -1.4507  2.1537  0.2860
 1403SOL     OW15670   2.288   3.139   2.414 -0.3262  0.3500 -0.3284
 1403SOL    HW115671   2.359   3.082   2.444  0.4780  2.3835  1.6703
 1403SOL    HW215672   2.283   3.117   2.321 -2.6641  2.5158 -0.6966
 1404SOL     OW15673   4.662   1.457  14.064 -0.3916 -0.3027  0.7705
 1404SOL    HW115674   4.658   1.548  14.094 -1.0291  0.3029 -1.1269
 1404SOL    HW215675   0.029   1.454  14.035 -0.5227  2.2315  0.0263
 1405SOL     OW15676   3.309   3.156   2.214  0.3127  0.4159 -0.1161
 1405SOL    HW115677   3.311   3.187   2.124  0.4306  3.3565  0.9201
 1405SOL    HW215678   3.348   3.231   2.258  0.2466  0.4638 -0.1409
 1406SOL     OW15679   2.312   2.026  10.821  0.1571  0.2443  0.0782
 1406SOL    HW115680   2.334   1.947  10.870  0.9850 -1.3731 -2.8802
 1406SOL    HW215681   2.403   2.048  10.800 -0.1406  2.0942  0.7256
 1407SOL     OW15682   4.366   1.458   2.800 -0.1917 -0.2954  0.2329
 1407SOL    HW115683   4.410   1.538   2.771  0.6522 -1.4032 -1.5146
 1407SOL    HW215684   4.288   1.503   2.833  1.0327  1.4623  0.7053
 1408SOL     OW15685   0.131   2.991   7.715 -0.0255 -0.3333 -0.0874
 1408SOL    HW115686   0.222   3.018   7.722 -0.0447  0.3406 -2.5108
 1408SOL    HW215687   0.125   3.007   7.621 -0.6054  1.0482  0.1800
 1409SOL     OW15688   2.019   3.852   4.759  0.3113 -0.2863  0.2924
 1409SOL    HW115689   1.984   3.809   4.837  0.7689 -1.6831 -0.2732
 1409SOL    HW215690   2.084   3.904   4.806  2.2724  0.6353 -3.4883
 1410SOL     OW15691   4.676   2.174   1.544  0.7774 -0.0937 -1.1668
 1410SOL    HW115692   4.683   2.238   1.615 -0.6036  3.1326 -3.9705
 1410SOL    HW215693   4.583   2.167   1.525  0.8273 -0.7494 -1.1688
 1411SOL     OW15694   2.451   2.315   8.925  0.1178 -0.2109  0.0603
 1411SOL    HW115695   2.505   2.293   8.849  1.3519 -2.1361  1.4923
 1411SOL    HW215696   2.493   2.270   8.999  0.6421 -1.7624 -1.1763
 1412SOL     OW15697   3.736   0.614   9.639  0.0781 -0.7875  0.0733
 1412SOL    HW115698   3.654   0.592   9.594  0.6283  0.7334 -1.6639
 1412SOL    HW215699   3.801   0.588   9.573  0.0816  0.0519 -0.2481
 1413SOL     OW15700   2.176   0.153   1.710 -0.1165 -0.9450  0.0569
 1413SOL    HW115701   2.137   0.218   1.651 -0.9717 -1.3382  0.1885
 1413SOL    HW215702   2.172   0.212   1.785  0.1761 -1.1027  0.1998
 1414SOL     OW15703   4.381   0.166   3.068  1.0188 -0.4808 -0.1533
 1414SOL    HW115704   4.291   0.191   3.048  0.1467 -0.5925  3.5837
 1414SOL    HW215705   4.370   0.165   3.163 -0.5908 -2.6556 -0.3705
 1415SOL     OW15706   2.838   0.137   5.660 -0.0653 -0.0647  0.4026
 1415SOL    HW115707   2.778   0.195   5.707 -0.3158  0.5162 -0.6171
 1415SOL    HW215708   2.915   0.189   5.636 -0.7569  0.8524  0.1665
 1416SOL     OW15709   3.501   3.001   5.486 -0.1149 -0.3799  0.1141
 1416SOL    HW115710   3.513   2.984   5.392  2.2898 -0.0701  0.3733
 1416SOL    HW215711   3.419   3.048   5.471 -0.3924 -1.3381 -1.4373
 1417SOL     OW15712   1.670   0.974  13.479  0.1567  0.9439 -0.1634
 1417SOL    HW115713   1.727   0.926  13.419  0.9292  1.7282 -0.0717
 1417SOL    HW215714   1.620   0.911  13.530 -0.1269 -0.6099 -2.3738
 1418SOL     OW15715   3.587   2.625  16.663  0.2498  0.0726  0.0680
 1418SOL    HW115716   3.529   2.554  16.636 -0.7842  0.5469  0.9827
 1418SOL    HW215717   3.658   2.628  16.600  0.9912  0.1382  0.8995
 1419SOL     OW15718   3.600   1.629   5.790 -0.1828  0.0953  0.0786
 1419SOL    HW115719   3.690   1.613   5.763 -0.2154 -0.1748  0.1301
 1419SOL    HW215720   3.555   1.551   5.759 -0.8752  0.0812  1.0967
 1420SOL     OW15721   2.424   2.820   4.325  0.2179  0.2850 -0.2993
 1420SOL    HW115722   2.438   2.894   4.383 -0.8404 -2.2296  3.1223
 1420SOL    HW215723   2.329   2.814   4.313  0.2914  1.4766 -1.6040
 1421SOL     OW15724   1.236   0.154   9.635  0.1335  0.1278 -0.8380
 1421SOL    HW115725   1.199   0.118   9.715  3.0862  2.0302  1.3847
 1421SOL    HW215726   1.314   0.102   9.615 -1.1801 -1.6877 -1.2311
 1422SOL     OW15727   3.925   4.700   8.085  0.1967  0.1188  0.1753
 1422SOL    HW115728   3.916   4.682   7.991 -0.7499 -3.0255  0.8513
 1422SOL    HW215729   3.831   4.704   8.104  0.2574 -0.4858  0.6250
 1423SOL     OW15730   1.328   1.215   0.328 -0.3699  0.1278 -0.2023
 1423SOL    HW115731   1.294   1.125   0.325  0.1774 -0.0434 -1.4816
 1423SOL    HW215732   1.343   1.234   0.235 -0.0124 -1.9290 -0.5713
 1424SOL     OW15733   1.992   0.826   3.239 -0.2995 -0.5850 -0.6804
 1424SOL    HW115734   1.943   0.757   3.284 -2.2451  0.7171 -0.8039
 1424SOL    HW215735   2.006   0.892   3.307 -2.1673 -0.1640 -0.7005
 1425SOL     OW15736   4.672   0.748  14.918 -0.3359  0.3245 -0.4008
 1425SOL    HW115737   4.723   0.672  14.888  0.4963  0.3467  0.9413
 1425SOL    HW215738   4.632   0.773  14.835  2.0752  0.2526 -1.6052
 1426SOL     OW15739   1.307   1.879   5.833 -0.7388 -0.1308 -0.1432
 1426SOL    HW115740   1.219   1.905   5.807 -0.2673  0.8434 -0.8063
 1426SOL    HW215741   1.350   1.959   5.864 -1.9885  0.3626  0.2956
 1427SOL     OW15742   4.186   4.618   9.868 -0.2902  0.3243  0.3690
 1427SOL    HW115743   4.268   4.660   9.841 -0.1889  1.4148  2.4106
 1427SOL    HW215744   4.149   4.669   9.940 -1.5650  1.7711 -1.2787
 1428SOL     OW15745   1.021   3.996  10.299 -0.6399 -0.2907  0.2706
 1428SOL    HW115746   1.019   3.912  10.254 -0.3256  0.0476 -0.3806
 1428SOL    HW215747   0.928   4.019  10.302  0.0472  2.7727 -1.0201
 1429SOL     OW15748   0.610   4.389   6.029  0.6449  0.0473  0.4111
 1429SOL    HW115749   0.589   4.345   6.111  2.4986 -3.6628 -1.1031
 1429SOL    HW215750   0.706   4.386   6.037  0.6053  0.3477  0.9877
 1430SOL     OW15751   4.481   0.522  17.604  0.5165 -0.1690 -0.2230
 1430SOL    HW115752   4.412   0.471  17.646  0.3252  1.0551  0.9483
 1430SOL    HW215753   4.550   0.516  17.671 -0.4521  1.2873  0.9016
 1431SOL     OW15754   2.072   3.889   5.357  0.2331  0.2155  0.1140
 1431SOL    HW115755   2.015   3.836   5.413  0.9910 -0.4833  0.2192
 1431SOL    HW215756   2.085   3.858   5.268  0.3967  0.9965 -0.1350
 1432SOL     OW15757   0.132   1.318  14.244  0.1862 -0.3793  0.1313
 1432SOL    HW115758   0.145   1.413  14.248  1.3456 -0.4475 -2.3312
 1432SOL    HW215759   0.068   1.307  14.174  2.0714 -3.4885 -1.0776
 1433SOL     OW15760   4.168   0.930   4.825 -0.1854 -0.3733  0.0478
 1433SOL    HW115761   4.072   0.937   4.824 -0.1521  0.1062  0.0906
 1433SOL    HW215762   4.193   1.006   4.772  0.7199 -1.5175 -1.1621
 1434SOL     OW15763   4.511   4.157  10.818  0.1745  0.3302 -0.2047
 1434SOL    HW115764   4.505   4.138  10.912  0.5789  1.7884  0.1170
 1434SOL    HW215765   4.475   4.076  10.781 -0.1198  0.8216 -1.0063
 1435SOL     OW15766   3.529   0.838   2.707 -0.6270  0.0027 -0.1107
 1435SOL    HW115767   3.569   0.918   2.674 -1.1193 -0.5356 -2.0002
 1435SOL    HW215768   3.602   0.800   2.756 -0.2170 -0.0716 -0.7814
 1436SOL     OW15769   1.437   4.332   7.221 -0.4565  0.6559  0.1863
 1436SOL    HW115770   1.420   4.252   7.171 -1.9256 -0.7483  2.8864
 1436SOL    HW215771   1.348   4.352   7.252 -0.1402  0.5543  1.1862
 1437SOL     OW15772   4.692   1.668   2.912 -0.1977 -0.3713 -0.1634
 1437SOL    HW115773   0.011   1.595   2.869 -0.1733  0.2568 -1.2124
 1437SOL    HW215774   4.724   1.746   2.867 -1.2512 -0.9546 -1.8960
 1438SOL     OW15775   1.755   3.233   4.793 -0.2511  0.0863 -0.2126
 1438SOL    HW115776   1.819   3.184   4.845 -1.0988 -0.2461  0.5242
 1438SOL    HW215777   1.744   3.314   4.843 -1.2168 -0.5052  0.5335
 1439SOL     OW15778   0.007   1.995   5.495 -0.4065 -0.7326  0.1900
 1439SOL    HW115779   4.722   1.997   5.590 -2.5288 -1.8512  0.0042
 1439SOL    HW215780   4.648   2.034   5.471 -1.1077 -2.0141  0.5179
 1440SOL     OW15781   2.527   1.533   1.261  0.2217 -0.0498  0.4560
 1440SOL    HW115782   2.574   1.482   1.195 -2.4421  1.7802 -2.7927
 1440SOL    HW215783   2.511   1.616   1.217 -1.0196 -0.4005  0.2294
 1441SOL     OW15784   3.608   2.562   4.405 -0.4400 -0.3779  0.0941
 1441SOL    HW115785   3.523   2.576   4.445 -1.6300 -2.0809 -1.8338
 1441SOL    HW215786   3.628   2.651   4.376 -1.8070 -0.2601 -0.4465
 1442SOL     OW15787   1.245   0.918  11.195  0.1120 -0.0101 -0.3519
 1442SOL    HW115788   1.193   0.889  11.120 -1.1622 -1.1313  0.9770
 1442SOL    HW215789   1.240   1.013  11.186  0.8048  0.2564  2.1050
 1443SOL     OW15790   0.255   3.697   7.103  0.0663  0.2401  0.4027
 1443SOL    HW115791   0.339   3.711   7.146  0.4624 -2.8067  0.6306
 1443SOL    HW215792   0.202   3.774   7.122 -2.2735 -1.6562  1.4428
 1444SOL     OW15793   4.079   3.288   4.969  0.3455  0.6081 -0.0166
 1444SOL    HW115794   4.019   3.324   4.903 -0.1813 -0.2925 -0.0262
 1444SOL    HW215795   4.074   3.199   4.935 -0.2574  0.8901 -0.6741
 1445SOL     OW15796   1.614   1.895   5.718  0.0197  0.0519 -0.0419
 1445SOL    HW115797   1.657   1.979   5.737  1.4533 -0.8167  0.6048
 1445SOL    HW215798   1.520   1.901   5.734 -0.2721 -1.5806 -1.1548
 1446SOL     OW15799   2.776   2.889   4.803 -0.1793 -0.1176  0.5445
 1446SOL    HW115800   2.730   2.897   4.719 -1.0380 -0.5889  0.9729
 1446SOL    HW215801   2.772   2.978   4.838 -1.1485  0.4926 -1.0864
 1447SOL     OW15802   3.797   0.928   7.120 -0.6412  0.0571  0.5510
 1447SOL    HW115803   3.756   0.976   7.193  2.3961  1.4197  1.4194
 1447SOL    HW215804   3.726   0.867   7.106 -0.9737  0.6334 -0.2255
 1448SOL     OW15805   0.679   3.690   4.665 -0.0080 -0.2287 -0.0314
 1448SOL    HW115806   0.608   3.692   4.729 -0.7050 -1.5153 -0.7866
 1448SOL    HW215807   0.639   3.641   4.594  1.5143  1.5218 -2.1232
 1449SOL     OW15808   0.402   1.212  15.209 -0.3074 -0.3476  0.4840
 1449SOL    HW115809   0.321   1.188  15.253 -1.2369  0.7017 -0.6865
 1449SOL    HW215810   0.425   1.296  15.248  1.4923 -0.2238 -0.8502
 1450SOL     OW15811   3.668   0.613   0.003  0.4915 -0.7253 -0.6702
 1450SOL    HW115812   3.643   0.634  17.612 -1.0864 -0.0217 -0.0595
 1450SOL    HW215813   3.714   0.692   0.029  0.6129 -0.0861 -2.7778
 1451SOL     OW15814   4.556   3.231   0.055 -0.7781 -0.5036 -0.7506
 1451SOL    HW115815   4.565   3.317   0.097 -1.0378 -0.5800 -0.5439
 1451SOL    HW215816   4.570   3.176   0.132  0.9277 -0.5992 -1.1261
 1452SOL     OW15817   2.525   0.695  15.977  0.0031  0.1112  0.1578
 1452SOL    HW115818   2.540   0.694  15.883 -1.7213 -1.5486 -0.1073
 1452SOL    HW215819   2.439   0.653  15.972  0.1184 -0.0389 -0.5725
 1453SOL     OW15820   0.640   4.364  16.601 -0.0101  0.4639 -0.0203
 1453SOL    HW115821   0.561   4.407  16.567 -0.8633  0.5652  2.0745
 1453SOL    HW215822   0.608   4.356  16.691 -0.3363 -1.1648 -0.2820
 1454SOL     OW15823   0.967   3.578   9.689 -0.0373 -0.0024  0.2562
 1454SOL    HW115824   0.972   3.527   9.769 -1.2131 -0.0809  0.2754
 1454SOL    HW215825   1.018   3.659   9.700  3.9428 -2.2661 -1.6268
 1455SOL     OW15826   4.653   4.174  13.762  0.2503 -0.8756  0.0417
 1455SOL    HW115827   4.562   4.159  13.790  0.5787  2.8476  3.0145
 1455SOL    HW215828   4.696   4.089  13.775 -2.1212 -1.6435  2.9068
 1456SOL     OW15829   4.247   3.562   3.073 -0.4043 -0.1796  0.3830
 1456SOL    HW115830   4.268   3.607   2.991 -0.1179  2.1352  1.7509
 1456SOL    HW215831   4.298   3.481   3.063  1.8818  1.4520 -1.2602
 1457SOL     OW15832   0.343   2.070  15.809  0.2880 -0.2432 -0.1232
 1457SOL    HW115833   0.291   2.010  15.757  0.8197 -1.1313  0.3551
 1457SOL    HW215834   0.281   2.142  15.821  1.5419  1.0794 -1.6076
 1458SOL     OW15835   0.211   2.067  11.655  0.1830  0.0842 -0.0776
 1458SOL    HW115836   0.153   2.130  11.697  0.2077  1.3493 -1.9574
 1458SOL    HW215837   0.243   2.109  11.575 -0.1207 -2.6481 -1.6060
 1459SOL     OW15838   1.712   3.076   9.290 -0.1143  0.2542 -0.0554
 1459SOL    HW115839   1.787   3.065   9.232 -0.0136 -0.5804  0.2438
 1459SOL    HW215840   1.688   3.168   9.274 -0.9104  0.0558  0.0081
 1460SOL     OW15841   3.904   3.433   7.168 -0.1058  0.0068 -0.5320
 1460SOL    HW115842   3.958   3.510   7.183 -0.5245  0.3639 -0.8803
 1460SOL    HW215843   3.884   3.448   7.076  0.2534  0.2807 -0.5655
 1461SOL     OW15844   4.152   0.654   9.586 -0.1311  0.3233  0.2432
 1461SOL    HW115845   4.159   0.674   9.493 -1.5096 -0.7419 -0.0977
 1461SOL    HW215846   4.232   0.675   9.634 -1.3908 -0.1795  2.5644
 1462SOL     OW15847   0.252   0.815   2.734  0.3449 -0.5273 -0.2389
 1462SOL    HW115848   0.223   0.739   2.683 -0.1609 -0.9426  0.6620
 1462SOL    HW215849   0.314   0.859   2.676 -0.1237  1.6338  0.8878
 1463SOL     OW15850   0.758   1.618   3.176  0.1950 -0.1514 -0.3114
 1463SOL    HW115851   0.785   1.632   3.085 -1.1062  0.2649 -0.6369
 1463SOL    HW215852   0.667   1.645   3.169  0.2334  0.1160  0.2376
 1464SOL     OW15853   1.393   0.540   3.825  0.4622  0.0539 -0.0954
 1464SOL    HW115854   1.473   0.531   3.773 -1.5298 -0.1155 -3.0811
 1464SOL    HW215855   1.430   0.534   3.913  0.1860 -0.2255  0.0036
 1465SOL     OW15856   0.060   3.428   2.279  0.4500 -0.5277  0.2831
 1465SOL    HW115857   0.070   3.349   2.332 -1.1689 -1.5900 -0.9701
 1465SOL    HW215858   0.065   3.494   2.348 -0.7469 -0.4673  0.3160
 1466SOL     OW15859   2.463   1.639   8.973  0.1842 -0.9772 -0.3823
 1466SOL    HW115860   2.478   1.548   8.997  0.7966 -0.8926 -0.4224
 1466SOL    HW215861   2.396   1.650   9.040 -1.2108  0.8848 -2.0944
 1467SOL     OW15862   2.872   1.569   5.680 -0.4601  0.1645 -0.3475
 1467SOL    HW115863   2.893   1.491   5.629  1.0587  1.3785 -1.5531
 1467SOL    HW215864   2.949   1.576   5.736 -0.0562 -0.6832 -0.8008
 1468SOL     OW15865   2.998   2.968   9.111 -0.4279  0.1705 -0.7045
 1468SOL    HW115866   2.983   2.877   9.136 -3.1528  0.3831 -1.6118
 1468SOL    HW215867   3.084   2.989   9.147 -0.1367 -0.9258 -0.7418
 1469SOL     OW15868   3.255   0.346  13.430 -0.7515 -0.8512  0.1539
 1469SOL    HW115869   3.188   0.383  13.372 -1.3315  0.3394  1.5723
 1469SOL    HW215870   3.208   0.283  13.485 -1.4747  1.5917  2.3674
 1470SOL     OW15871   3.797   0.673   3.750  0.1428 -0.1796  0.2319
 1470SOL    HW115872   3.869   0.736   3.747 -1.0191  1.1692  0.8979
 1470SOL    HW215873   3.749   0.699   3.828  0.2227  0.6156  0.0149
 1471SOL     OW15874   0.662   4.357   8.627 -0.5421  0.2792 -0.0352
 1471SOL    HW115875   0.602   4.283   8.616 -0.8881  0.7571 -1.3248
 1471SOL    HW215876   0.713   4.364   8.547 -0.1539 -2.3729 -0.0169
 1472SOL     OW15877   1.315   1.318   3.556 -0.1154  0.2506 -0.5241
 1472SOL    HW115878   1.264   1.288   3.481  0.6338 -1.8829 -0.1865
 1472SOL    HW215879   1.285   1.408   3.564  0.8031  0.4918  0.1265
 1473SOL     OW15880   1.016   3.442   6.613  0.1620 -0.2457 -0.3447
 1473SOL    HW115881   1.093   3.442   6.669 -0.7448 -0.2874  0.8946
 1473SOL    HW215882   0.951   3.498   6.656 -0.6620  1.1562 -3.3733
 1474SOL     OW15883   1.768   2.352  13.241 -0.3004 -0.0078  0.5265
 1474SOL    HW115884   1.730   2.275  13.284 -0.8491  1.1094  2.0166
 1474SOL    HW215885   1.822   2.303  13.178 -0.7757 -1.8972  1.5910
 1475SOL     OW15886   3.889   1.064   8.411  0.5482 -0.7365  0.0503
 1475SOL    HW115887   3.927   1.149   8.391 -2.1376  0.1807 -1.1968
 1475SOL    HW215888   3.967   1.011   8.428  0.9002 -0.1068  0.3909
 1476SOL     OW15889   4.562   0.514   6.575 -0.6042  0.3324  0.1292
 1476SOL    HW115890   4.575   0.597   6.621  0.3561 -0.0193  0.5046
 1476SOL    HW215891   4.635   0.511   6.513  1.0178 -0.0485  2.0367
 1477SOL     OW15892   2.081   3.456   8.620 -1.0616  0.0772  0.0389
 1477SOL    HW115893   2.100   3.446   8.713 -0.2969 -1.2783 -0.2579
 1477SOL    HW215894   2.061   3.550   8.627  0.1400  0.3326  0.0537
 1478SOL     OW15895   1.835   4.373  10.823  0.4347  0.2180  1.0647
 1478SOL    HW115896   1.836   4.460  10.783 -1.3827  0.7608  2.1983
 1478SOL    HW215897   1.889   4.384  10.901  3.3543  0.9832 -1.0763
 1479SOL     OW15898   3.573   3.687  17.386  0.2438  0.0230  0.0033
 1479SOL    HW115899   3.656   3.733  17.376  1.4066 -1.6077  2.3479
 1479SOL    HW215900   3.598   3.599  17.412 -2.4073 -0.3534  1.2378
 1480SOL     OW15901   3.899   1.518  16.696 -0.0717  0.2592 -0.6828
 1480SOL    HW115902   3.977   1.462  16.697 -0.9507 -0.9479  0.3144
 1480SOL    HW215903   3.862   1.493  16.781 -1.7484  1.5560 -1.0299
 1481SOL     OW15904   3.130   0.388   0.496 -0.3805 -0.0292 -0.1698
 1481SOL    HW115905   3.145   0.294   0.483  1.9887  0.2531  0.6232
 1481SOL    HW215906   3.039   0.381   0.527 -0.4553  1.1527 -0.1402
 1482SOL     OW15907   1.374   4.571   8.920  0.5818 -0.3380 -1.0023
 1482SOL    HW115908   1.340   4.654   8.885  0.5246 -0.1962 -0.6073
 1482SOL    HW215909   1.463   4.588   8.889  1.4036  0.2669  1.7715
 1483SOL     OW15910   0.488   3.234  17.271 -0.3163  0.2506  0.3668
 1483SOL    HW115911   0.559   3.232  17.208 -0.6339 -1.8780  0.0840
 1483SOL    HW215912   0.412   3.234  17.213  1.3547 -0.5336 -1.8303
 1484SOL     OW15913   2.468   4.442  13.066  0.1483 -0.3509  0.1959
 1484SOL    HW115914   2.387   4.441  13.117 -0.2612  4.8042 -0.3907
 1484SOL    HW215915   2.472   4.537  13.053  2.4162 -0.6369 -1.2139
 1485SOL     OW15916   4.431   1.870   6.825  0.3224 -0.1148  0.5876
 1485SOL    HW115917   4.515   1.868   6.779 -0.3545 -1.3082 -0.6106
 1485SOL    HW215918   4.382   1.809   6.770  0.4047  0.8686 -0.6069
 1486SOL     OW15919   2.363   3.117   1.401  0.2641 -0.0958  0.0423
 1486SOL    HW115920   2.348   3.129   1.307 -0.9298 -3.1014 -0.1445
 1486SOL    HW215921   2.384   3.024   1.394 -2.4350 -0.7898  1.0479
 1487SOL     OW15922   3.157   3.989   9.407 -0.1430 -0.0701  0.4741
 1487SOL    HW115923   3.186   4.074   9.441  1.8028 -1.4886  2.4028
 1487SOL    HW215924   3.066   3.994   9.439  0.4256 -1.1205  2.2936
 1488SOL     OW15925   3.357   0.781   8.020 -1.0498  0.0908  0.7993
 1488SOL    HW115926   3.290   0.834   8.064 -0.7484  0.3387  0.9547
 1488SOL    HW215927   3.328   0.810   7.934 -1.5071 -0.3513  0.7971
 1489SOL     OW15928   0.706   4.585   9.558 -0.3733 -0.0188  0.2892
 1489SOL    HW115929   0.776   4.534   9.518 -1.6816 -3.1487  1.9992
 1489SOL    HW215930   0.643   4.605   9.489  0.2323  2.7721  0.5424
 1490SOL     OW15931   3.291   3.269   1.954 -0.2552  0.2717 -0.2237
 1490SOL    HW115932   3.358   3.337   1.957  0.9242 -0.7550 -3.2396
 1490SOL    HW215933   3.288   3.246   1.861  0.3547 -1.3665  0.1604
 1491SOL     OW15934   3.480   4.717   5.581  0.0535  0.0012  0.0500
 1491SOL    HW115935   3.409   4.681   5.528  0.8198 -1.7745  0.2405
 1491SOL    HW215936   3.476   4.654   5.653  0.7388  0.2664  0.3283
 1492SOL     OW15937   1.477   2.743  11.454 -0.2348  0.0595  0.3709
 1492SOL    HW115938   1.572   2.742  11.444 -0.1999 -0.1422  0.7580
 1492SOL    HW215939   1.471   2.829  11.495 -0.1165  0.6627 -0.8640
 1493SOL     OW15940   4.347   2.041   5.853  0.3406  0.0632 -0.3914
 1493SOL    HW115941   4.411   2.097   5.809  2.2531 -1.9013 -0.1011
 1493SOL    HW215942   4.301   2.114   5.893 -0.3802 -1.1362  0.9676
 1494SOL     OW15943   3.339   4.534   7.879  0.2675 -0.2218 -0.0262
 1494SOL    HW115944   3.358   4.445   7.909 -1.2905 -0.3070  0.6830
 1494SOL    HW215945   3.372   4.533   7.789 -0.9570  2.4581 -0.5032
 1495SOL     OW15946   0.997   3.111   7.749 -0.0419  0.1722  0.1039
 1495SOL    HW115947   1.052   3.179   7.787 -0.4246  0.4176  0.2140
 1495SOL    HW215948   0.943   3.165   7.691  0.2244 -0.8208 -1.0815
 1496SOL     OW15949   1.361   3.480   7.966  0.0840 -0.3886  0.5404
 1496SOL    HW115950   1.314   3.488   8.050 -0.0803 -0.2884  0.4398
 1496SOL    HW215951   1.410   3.562   7.962 -0.9667  0.1415 -1.3240
 1497SOL     OW15952   1.635   0.646  16.459  0.0603 -0.4991  0.0259
 1497SOL    HW115953   1.619   0.738  16.482 -0.5926 -1.0605  1.7725
 1497SOL    HW215954   1.564   0.604  16.507  1.9766 -2.1830  1.3923
 1498SOL     OW15955   3.413   4.587   3.194 -0.2085  0.9065  0.2835
 1498SOL    HW115956   3.412   4.505   3.145 -0.9128  2.4956 -2.3941
 1498SOL    HW215957   3.494   4.629   3.163 -0.9518  1.2775 -1.1718
 1499SOL     OW15958   4.376   0.256   3.337 -0.6660 -0.3702  0.5939
 1499SOL    HW115959   4.438   0.280   3.406  1.0479 -1.3416 -0.6345
 1499SOL    HW215960   4.298   0.304   3.366 -0.3272 -0.4919  1.7236
 1500SOL     OW15961   3.681   1.984   3.838 -0.3660 -0.7638 -0.2317
 1500SOL    HW115962   3.615   2.002   3.904 -1.2328  0.8706 -1.5490
 1500SOL    HW215963   3.637   1.913   3.790  0.1192 -1.5463  0.4740
 1501SOL     OW15964   2.027   0.856   4.817  0.4527 -0.0261  0.2645
 1501SOL    HW115965   1.947   0.823   4.777  1.2720 -1.5386 -0.1268
 1501SOL    HW215966   2.093   0.804   4.770  0.9007  0.7124  0.0630
 1502SOL     OW15967   0.653   0.007   9.262 -0.3753  0.4555  0.1938
 1502SOL    HW115968   0.747   4.717   9.258 -0.1657  1.4701  1.7694
 1502SOL    HW215969   0.641   0.037   9.172 -0.4304  0.0867  0.0768
 1503SOL     OW15970   1.175   4.342   2.703  0.4963  0.2179 -0.0552
 1503SOL    HW115971   1.136   4.395   2.634  1.1925  0.3937 -0.3115
 1503SOL    HW215972   1.228   4.281   2.651 -0.1224 -0.1923 -0.2053
 1504SOL     OW15973   0.631   3.767   7.442  0.2029  0.9344  0.7399
 1504SOL    HW115974   0.694   3.780   7.513  0.8821 -2.4414  0.7314
 1504SOL    HW215975   0.584   3.850   7.441  0.2423  0.9425 -1.0988
 1505SOL     OW15976   3.794   4.145   7.777 -0.0964  0.0385 -0.7367
 1505SOL    HW115977   3.777   4.055   7.804 -0.4218 -0.5865 -3.0285
 1505SOL    HW215978   3.778   4.136   7.683  0.9214  2.0060 -1.1063
 1506SOL     OW15979   0.240   2.789   4.159 -0.1669 -0.1207  0.9174
 1506SOL    HW115980   0.199   2.809   4.243 -1.0957  0.9606  0.2121
 1506SOL    HW215981   0.320   2.746   4.189  0.1373  0.6461  1.2124
 1507SOL     OW15982   3.838   2.280   7.155 -0.4346 -0.1964 -0.1775
 1507SOL    HW115983   3.822   2.320   7.240 -0.9000 -0.6943 -0.0296
 1507SOL    HW215984   3.837   2.352   7.091  2.8750 -0.3729 -0.4264
 1508SOL     OW15985   3.110   2.692  16.921  0.2608 -0.3175  0.6345
 1508SOL    HW115986   3.073   2.616  16.877 -0.9559  0.5528  0.1348
 1508SOL    HW215987   3.183   2.716  16.863 -0.5975  0.4463 -0.1377
 1509SOL     OW15988   2.663   3.897   2.603 -0.9690  0.0402 -0.0786
 1509SOL    HW115989   2.688   3.988   2.586 -0.4789 -0.0918 -0.0528
 1509SOL    HW215990   2.659   3.849   2.520 -0.1822 -0.8896  0.4358
 1510SOL     OW15991   2.899   1.973   3.728  0.2310 -0.4620  0.2598
 1510SOL    HW115992   2.835   2.041   3.708  2.0074  1.1817  0.1500
 1510SOL    HW215993   2.958   1.993   3.655  3.1527 -0.4883  2.6184
 1511SOL     OW15994   2.888   3.771   0.155  0.8414 -0.3856  0.4490
 1511SOL    HW115995   2.919   3.824   0.228  0.8783 -1.4279  1.1972
 1511SOL    HW215996   2.926   3.687   0.181  3.1987  1.0864  1.6508
 1512SOL     OW15997   2.554   3.975   8.285 -0.4239  0.2547  0.4216
 1512SOL    HW115998   2.630   4.027   8.308 -1.2102  1.5394  0.0905
 1512SOL    HW215999   2.530   4.033   8.212 -0.7532 -1.1734 -0.6172
 1513SOL     OW16000   0.297   2.544  13.701  0.0391 -0.0494  0.4630
 1513SOL    HW116001   0.318   2.623  13.651 -1.8428  0.7618  0.9455
 1513SOL    HW216002   0.328   2.473  13.645 -0.3072  0.4786 -0.4009
 1514SOL     OW16003   2.903   1.983   4.945 -0.1515 -0.6275  0.2265
 1514SOL    HW116004   2.944   1.897   4.940 -1.3351 -1.1269 -1.0715
 1514SOL    HW216005   2.816   1.954   4.917 -0.9257  0.7971  1.1700
 1515SOL     OW16006   1.872   1.614  13.222 -0.3202 -0.3436  0.0112
 1515SOL    HW116007   1.873   1.532  13.272  1.4193  1.2876  2.6394
 1515SOL    HW216008   1.963   1.618  13.192 -0.8177  1.0631 -1.3370
 1516SOL     OW16009   0.346   3.375   3.752 -0.2189 -0.2112  0.2362
 1516SOL    HW116010   0.415   3.326   3.796  0.9504  1.4272  0.2469
 1516SOL    HW216011   0.392   3.458   3.738 -0.7722  0.4422  2.2814
 1517SOL     OW16012   3.113   4.298  12.169  0.4978  0.2684 -0.4503
 1517SOL    HW116013   3.106   4.323  12.261  0.1428  0.2413 -0.4703
 1517SOL    HW216014   3.026   4.316  12.135 -0.0643 -1.3294  0.1317
 1518SOL     OW16015   3.692   2.522   2.750 -0.4408  0.2309  0.0130
 1518SOL    HW116016   3.698   2.550   2.841 -1.9348  0.2562  0.0902
 1518SOL    HW216017   3.613   2.570   2.725  0.0027  0.6173 -0.6572
 1519SOL     OW16018   3.380   1.770   4.836  0.2158  0.1630  0.0332
 1519SOL    HW116019   3.364   1.730   4.751 -1.5320  0.2407  0.3322
 1519SOL    HW216020   3.289   1.788   4.860  0.4588  1.6230 -0.1185
 1520SOL     OW16021   0.449   1.257   4.016  0.6793 -0.0669  0.1733
 1520SOL    HW116022   0.394   1.193   3.971 -0.2916  0.9677 -0.1192
 1520SOL    HW216023   0.393   1.263   4.094  0.5723 -2.3186  0.2698
 1521SOL     OW16024   4.272   3.932   8.694  0.0974 -0.1759  0.2129
 1521SOL    HW116025   4.350   3.923   8.750  0.3626  3.0085  0.3409
 1521SOL    HW216026   4.264   3.844   8.656  1.3636  0.1672 -0.8582
 1522SOL     OW16027   3.554   0.141  14.824 -0.2786  0.3835 -0.2092
 1522SOL    HW116028   3.619   0.084  14.783  0.7930  2.0193 -0.7990
 1522SOL    HW216029   3.592   0.226  14.799  0.7656  0.3177  1.1364
 1523SOL     OW16030   2.759   0.643   7.745  0.2560  0.7065 -0.2870
 1523SOL    HW116031   2.783   0.553   7.766  0.2331  0.5599 -0.9022
 1523SOL    HW216032   2.667   0.638   7.718  0.8538 -1.8570 -1.8640
 1524SOL     OW16033   1.186   4.240   1.515  0.4568  0.0442  0.2002
 1524SOL    HW116034   1.278   4.261   1.533  1.1601 -3.2304  0.3929
 1524SOL    HW216035   1.169   4.302   1.444  0.9938 -2.1099 -1.8078
 1525SOL     OW16036   0.490   3.348  14.410  0.1819  0.0658 -0.1746
 1525SOL    HW116037   0.420   3.390  14.360 -0.2402  1.6106  1.7057
 1525SOL    HW216038   0.438   3.269  14.428 -0.9042  0.6172 -0.9209
 1526SOL     OW16039   0.442   1.557   2.716  0.1961  0.1110 -0.3273
 1526SOL    HW116040   0.517   1.615   2.706 -0.0159  0.8716  2.5065
 1526SOL    HW216041   0.479   1.470   2.734 -0.5115 -0.9559 -4.1132
 1527SOL     OW16042   1.181   1.874  11.624  0.3316 -0.1164 -0.0564
 1527SOL    HW116043   1.098   1.847  11.585 -1.6097  1.7652  2.8018
 1527SOL    HW216044   1.226   1.901  11.544 -0.2250 -1.5083 -0.8467
 1528SOL     OW16045   1.161   2.612   8.865  0.0690 -0.1364 -0.5085
 1528SOL    HW116046   1.161   2.683   8.802 -0.2348  0.2136 -0.1108
 1528SOL    HW216047   1.219   2.542   8.834 -0.4207 -0.5765 -0.4477
 1529SOL     OW16048   4.661   0.731  13.712 -0.5017 -0.3220 -0.2061
 1529SOL    HW116049   4.679   0.652  13.661  0.3546 -0.7566  0.7760
 1529SOL    HW216050   4.614   0.771  13.638  0.2855 -0.3258 -0.7034
 1530SOL     OW16051   3.093   2.211   4.371  0.1745  0.2863 -0.2677
 1530SOL    HW116052   3.150   2.137   4.396 -2.2446 -1.3604  0.3962
 1530SOL    HW216053   3.152   2.250   4.307  0.1231 -0.1117 -0.5618
 1531SOL     OW16054   2.784   2.100   2.264 -0.1836  0.1506 -1.0204
 1531SOL    HW116055   2.788   2.195   2.249 -0.2167 -0.1260 -2.6867
 1531SOL    HW216056   2.689   2.091   2.257 -0.5652 -0.3770  4.2626
 1532SOL     OW16057   3.836   1.012  15.265  0.7898  0.4077  0.0744
 1532SOL    HW116058   3.750   1.038  15.232 -0.3958 -0.4671  2.4546
 1532SOL    HW216059   3.902   1.064  15.219 -0.6324  1.6592 -0.5162
 1533SOL     OW16060   2.898   3.436  10.006 -0.1867 -0.0950 -0.5692
 1533SOL    HW116061   2.904   3.500  10.077 -0.9986 -0.6250 -0.0132
 1533SOL    HW216062   2.886   3.497   9.933 -1.0015 -0.9352 -1.1296
 1534SOL     OW16063   0.620   0.489   7.652  0.1573  0.5835 -0.5125
 1534SOL    HW116064   0.605   0.412   7.707  0.2317 -0.5757 -2.1141
 1534SOL    HW216065   0.692   0.532   7.700  2.1431 -2.5481 -0.6906
 1535SOL     OW16066   3.828   1.655   3.160  0.4440  0.3547  0.2604
 1535SOL    HW116067   3.796   1.654   3.070  0.9901  1.5455  0.0548
 1535SOL    HW216068   3.792   1.573   3.194 -0.5566  0.1741 -1.2340
 1536SOL     OW16069   3.505   2.120   6.369  0.2897  0.0053  0.5972
 1536SOL    HW116070   3.527   2.091   6.280 -2.1975 -3.1335  1.0041
 1536SOL    HW216071   3.417   2.155   6.353  0.0026 -0.4605  1.1928
 1537SOL     OW16072   3.926   0.569   8.758  0.3623 -0.2599  0.0351
 1537SOL    HW116073   3.846   0.602   8.717 -0.6600 -2.3857  0.3373
 1537SOL    HW216074   3.962   0.521   8.683  1.0778  0.2263  0.0662
 1538SOL     OW16075   2.216   0.734   4.663  0.1691 -0.2632  0.3877
 1538SOL    HW116076   2.219   0.656   4.607 -0.1667 -0.7318  1.0323
 1538SOL    HW216077   2.282   0.791   4.622 -0.0664  1.2227  2.1066
 1539SOL     OW16078   1.980   4.467   7.608 -0.1017  0.4747 -0.0438
 1539SOL    HW116079   1.910   4.450   7.671 -0.8810 -1.1835 -1.3580
 1539SOL    HW216080   2.059   4.468   7.661  0.3028  0.0114 -0.6446
 1540SOL     OW16081   0.928   1.276   1.771 -0.0737 -0.1421 -0.3831
 1540SOL    HW116082   0.925   1.185   1.743  1.3399 -0.0125 -0.9327
 1540SOL    HW216083   0.837   1.287   1.799 -0.5765 -0.0098 -2.0911
 1541SOL     OW16084   4.110   1.978   8.378 -0.2580 -0.9741  0.0324
 1541SOL    HW116085   4.179   2.037   8.348 -1.1366 -0.1071 -0.2804
 1541SOL    HW216086   4.143   1.894   8.345  1.4927 -0.7652  1.2439
 1542SOL     OW16087   3.790   2.464   4.057 -0.6416 -0.0304 -0.1306
 1542SOL    HW116088   3.712   2.435   4.105  0.5431  0.0636  1.8922
 1542SOL    HW216089   3.855   2.438   4.123 -0.4863  1.9779  0.5049
 1543SOL     OW16090   3.594   2.984   9.343 -0.1657 -0.1280 -0.3417
 1543SOL    HW116091   3.637   2.908   9.305 -0.0084 -0.0455 -0.3255
 1543SOL    HW216092   3.609   3.047   9.273  2.0501  1.6131  1.6872
 1544SOL     OW16093   0.056   3.782   2.691 -0.2349  0.2258  0.2033
 1544SOL    HW116094   4.705   3.758   2.745 -1.3424 -0.7907 -1.8104
 1544SOL    HW216095   0.061   3.878   2.696  2.6383  0.0879 -0.0211
 1545SOL     OW16096   2.637   3.692  13.082 -0.1989 -0.3457 -0.5649
 1545SOL    HW116097   2.559   3.679  13.027  0.8580  0.5914 -2.2927
 1545SOL    HW216098   2.630   3.787  13.090 -2.2796 -0.4511 -1.1007
 1546SOL     OW16099   4.561   0.690   4.803  0.1943 -0.8578 -0.0540
 1546SOL    HW116100   4.473   0.659   4.822 -0.5947 -0.0004 -2.3572
 1546SOL    HW216101   4.566   0.686   4.707 -1.0584 -0.6621 -0.1212
 1547SOL     OW16102   0.578   3.662   3.017  0.3075 -0.1782 -0.2980
 1547SOL    HW116103   0.664   3.686   2.983  0.6717  0.5747  1.1666
 1547SOL    HW216104   0.529   3.737   2.984  0.8818 -0.5458 -2.0348
 1548SOL     OW16105   1.881   0.433   1.022  0.2251 -0.2245 -0.2099
 1548SOL    HW116106   1.797   0.427   0.976 -0.2443 -1.5057  0.8379
 1548SOL    HW216107   1.897   0.527   1.017 -0.5020 -0.1432 -0.9844
 1549SOL     OW16108   4.420   1.128  15.867  0.1061  0.5973 -0.0825
 1549SOL    HW116109   4.365   1.064  15.822  2.6570 -0.9846 -0.8741
 1549SOL    HW216110   4.357   1.196  15.892  0.3584  1.7368 -2.6203
 1550SOL     OW16111   0.464   0.467  13.574 -0.4389 -0.9351 -0.5476
 1550SOL    HW116112   0.437   0.510  13.493  1.2147  0.1571 -0.5417
 1550SOL    HW216113   0.403   0.513  13.631  1.3362  0.9801 -0.1855
 1551SOL     OW16114   1.682   0.865   3.311 -0.6159 -0.1495  0.4933
 1551SOL    HW116115   1.663   0.842   3.220  0.0329 -0.5937  0.4721
 1551SOL    HW216116   1.611   0.924   3.336 -1.3240 -0.9826  0.4435
 1552SOL     OW16117   0.371   0.715   3.735  0.3059  0.4466 -0.0408
 1552SOL    HW116118   0.281   0.728   3.706  0.6064 -1.5713 -1.8460
 1552SOL    HW216119   0.364   0.641   3.796  0.6730 -0.1833 -0.7670
 1553SOL     OW16120   4.036   4.562  14.687 -0.1725  0.0252  0.0132
 1553SOL    HW116121   3.951   4.540  14.649 -0.4420  0.0965  0.5686
 1553SOL    HW216122   4.025   4.510  14.766 -1.8253 -0.5066 -0.5559
 1554SOL     OW16123   4.587   3.887   1.997  0.5825  0.1362 -0.4553
 1554SOL    HW116124   4.661   3.829   2.015 -0.0968  0.0637  2.0138
 1554SOL    HW216125   4.629   3.967   1.964 -0.0969 -0.0850 -1.8957
 1555SOL     OW16126   4.055   0.638   4.229 -0.2466 -0.3423  0.1236
 1555SOL    HW116127   4.051   0.669   4.320  1.1116 -2.3998  0.8931
 1555SOL    HW216128   4.013   0.553   4.241 -0.6869 -0.1033  0.2815
 1556SOL     OW16129   0.001   3.259   1.450 -0.5866 -0.1672 -0.4457
 1556SOL    HW116130   4.714   3.271   1.544  0.7676  0.5076 -0.3690
 1556SOL    HW216131   4.692   3.343   1.419 -0.6297 -0.6104 -1.6114
 1557SOL     OW16132   2.009   0.798   7.596  0.5358 -0.3201  0.3968
 1557SOL    HW116133   2.089   0.756   7.629 -0.3499 -2.8443 -0.6364
 1557SOL    HW216134   2.013   0.872   7.656  0.7191  0.0110 -0.0197
 1558SOL     OW16135   3.705   2.792   9.193  0.3789 -0.2516  0.1921
 1558SOL    HW116136   3.649   2.736   9.247 -0.2787 -0.2039 -0.4423
 1558SOL    HW216137   3.750   2.722   9.146  1.6597 -1.1328  2.6934
 1559SOL     OW16138   2.023   3.662   4.182 -0.3603  0.3747 -0.2166
 1559SOL    HW116139   2.111   3.674   4.217  0.2426 -0.0349 -1.5942
 1559SOL    HW216140   1.975   3.623   4.255 -0.4833 -0.0313 -0.5153
 1560SOL     OW16141   2.109   4.234  10.848 -0.2515  0.0573  0.0333
 1560SOL    HW116142   2.073   4.282  10.923 -2.0360 -0.1206 -0.7001
 1560SOL    HW216143   2.203   4.248  10.856 -0.5861  1.3478  1.7982
 1561SOL     OW16144   1.859   3.716   6.601 -0.0071 -0.1741 -0.1039
 1561SOL    HW116145   1.823   3.693   6.515  0.6210 -0.7021 -0.2269
 1561SOL    HW216146   1.830   3.638   6.648 -0.0197  0.4889  0.9770
 1562SOL     OW16147   1.275   3.278   6.714 -0.5956 -0.6185 -0.3705
 1562SOL    HW116148   1.302   3.216   6.781 -1.6023  2.0581  2.4716
 1562SOL    HW216149   1.248   3.353   6.767 -1.2184  0.5964 -2.3963
 1563SOL     OW16150   0.304   3.487   7.466 -0.1833 -0.5664 -0.3670
 1563SOL    HW116151   0.222   3.492   7.417 -0.5615  2.2566  0.5435
 1563SOL    HW216152   0.283   3.460   7.556  1.8159  2.3037  0.9377
 1564SOL     OW16153   4.248   2.456   4.158 -0.1078  0.8060  0.1957
 1564SOL    HW116154   4.313   2.461   4.088  0.3735  1.4325  0.6910
 1564SOL    HW216155   4.188   2.513   4.111  0.2401  0.3655 -0.7921
 1565SOL     OW16156   1.832   4.563   9.371 -0.0226 -0.5831  0.7525
 1565SOL    HW116157   1.885   4.605   9.438 -0.6156  0.7600  0.3688
 1565SOL    HW216158   1.813   4.481   9.416 -1.1596 -1.0510 -0.5704
 1566SOL     OW16159   0.818   3.232   3.442  0.4144  0.3339  0.1313
 1566SOL    HW116160   0.813   3.286   3.521  2.6238  0.0202  0.5070
 1566SOL    HW216161   0.747   3.260   3.385 -0.0293  2.9635  2.0043
 1567SOL     OW16162   1.998   0.793   1.665 -0.3432  0.2846  0.1618
 1567SOL    HW116163   2.047   0.736   1.725 -2.8231 -1.1630  0.8500
 1567SOL    HW216164   1.908   0.761   1.672 -0.2537  0.1041  0.5271
 1568SOL     OW16165   2.911   4.064  15.035  0.3834 -0.0986  0.0374
 1568SOL    HW116166   2.870   4.088  15.118 -3.7495 -0.3112 -1.9280
 1568SOL    HW216167   2.945   3.975  15.044  0.8337  0.2070  1.3237
 1569SOL     OW16168   2.534   3.356   3.076  0.7584  0.2536 -0.0847
 1569SOL    HW116169   2.446   3.389   3.056  0.9992  0.1957 -1.2026
 1569SOL    HW216170   2.570   3.335   2.990 -0.1184  0.3259 -0.4742
 1570SOL     OW16171   4.681   3.259  11.100  0.1625  0.0815  0.3145
 1570SOL    HW116172   0.025   3.200  11.133 -2.1331 -1.0912  2.9027
 1570SOL    HW216173   4.717   3.294  11.018 -0.4222  1.8136  0.8111
 1571SOL     OW16174   0.219   3.911   2.389  0.1080 -0.7844  0.1213
 1571SOL    HW116175   0.183   3.975   2.451  0.1363  0.2561 -0.9514
 1571SOL    HW216176   0.231   3.959   2.307 -0.3641  0.0895  0.5551
 1572SOL     OW16177   1.369   0.141   3.115 -0.7019  0.4607  0.7384
 1572SOL    HW116178   1.308   0.168   3.183 -1.7120  2.4620 -0.9778
 1572SOL    HW216179   1.335   0.190   3.040 -0.7635 -0.2940  0.2727
 1573SOL     OW16180   4.655   1.389   6.162 -0.1780 -0.0095 -0.2819
 1573SOL    HW116181   4.566   1.394   6.195 -0.7986 -1.5567 -1.6814
 1573SOL    HW216182   4.661   1.483   6.149 -0.2432  0.1152  0.6485
 1574SOL     OW16183   0.978   1.859   9.084  0.1304 -0.5569  0.1213
 1574SOL    HW116184   0.927   1.864   9.003  0.2566 -1.7016 -0.0262
 1574SOL    HW216185   0.933   1.787   9.129  0.5292 -1.1495 -0.4158
 1575SOL     OW16186   1.055   1.409   1.556 -0.1453  0.2206 -0.0980
 1575SOL    HW116187   1.007   1.366   1.626 -0.0427 -2.4096 -1.6220
 1575SOL    HW216188   1.064   1.324   1.512 -1.3120  0.1005 -0.1062
 1576SOL     OW16189   0.085   0.255   2.824 -0.3677  0.6995  1.0750
 1576SOL    HW116190   0.093   0.346   2.853 -1.5656  1.4175 -0.8437
 1576SOL    HW216191   0.003   0.246   2.871 -0.3375 -1.4599  0.7368
 1577SOL     OW16192   0.021   1.644   3.422 -0.2963 -0.3865 -0.4014
 1577SOL    HW116193   4.690   1.660   3.345 -0.3560 -1.0323 -0.4932
 1577SOL    HW216194   0.044   1.553   3.400 -2.9634 -1.0443 -0.5780
 1578SOL     OW16195   0.446   0.433  15.785 -0.0191 -0.1638 -0.1854
 1578SOL    HW116196   0.508   0.496  15.820 -0.7299  0.9847 -1.0117
 1578SOL    HW216197   0.504   0.378  15.733 -0.1223  0.6056 -1.1086
 1579SOL     OW16198   0.774   3.560   1.244 -0.1603  0.3064 -0.7351
 1579SOL    HW116199   0.792   3.600   1.329 -0.7443 -4.0126  1.4326
 1579SOL    HW216200   0.681   3.572   1.227 -0.0218 -0.3761 -1.9652
 1580SOL     OW16201   3.596   4.196  15.457  0.2433 -0.5436  0.1063
 1580SOL    HW116202   3.576   4.183  15.549 -2.9200 -1.5132 -0.7162
 1580SOL    HW216203   3.591   4.291  15.446  0.2217 -0.4710  0.7838
 1581SOL     OW16204   4.176   2.551  12.688  0.1837  0.1332 -0.2773
 1581SOL    HW116205   4.178   2.482  12.753 -1.7105 -0.2186 -0.5949
 1581SOL    HW216206   4.098   2.531  12.636 -0.7173 -1.3129  1.6546
 1582SOL     OW16207   0.733   0.595  13.667 -0.3917 -0.3281 -0.1969
 1582SOL    HW116208   0.762   0.670  13.615 -3.3808 -0.4641 -2.0288
 1582SOL    HW216209   0.799   0.608  13.735  0.7934 -3.6141 -0.7261
 1583SOL     OW16210   1.860   4.059   9.750  0.2349  0.0167  0.4450
 1583SOL    HW116211   1.927   4.051   9.817  0.3219  0.5914  0.4281
 1583SOL    HW216212   1.794   4.006   9.796  0.4420  0.6381  1.4635
 1584SOL     OW16213   3.676   3.849   3.776 -0.0478 -0.1695 -0.1923
 1584SOL    HW116214   3.727   3.919   3.735  1.4936 -0.6740  0.8428
 1584SOL    HW216215   3.642   3.806   3.697  2.0680  0.8356 -1.6643
 1585SOL     OW16216   3.713   4.383  11.252 -0.7284  0.1026  0.1462
 1585SOL    HW116217   3.770   4.405  11.178 -0.2430 -1.1164  0.1497
 1585SOL    HW216218   3.771   4.397  11.328  1.2655  0.5267 -1.4520
 1586SOL     OW16219   3.064   0.512   6.734 -0.1270  0.4770 -0.9867
 1586SOL    HW116220   3.041   0.430   6.689  0.6008  0.2167 -0.8862
 1586SOL    HW216221   2.979   0.555   6.731 -0.3442 -0.0183 -2.3398
 1587SOL     OW16222   2.597   3.028  16.957  0.0766  0.0798 -0.1307
 1587SOL    HW116223   2.677   3.076  16.982  0.4619 -0.6696  0.0790
 1587SOL    HW216224   2.546   3.106  16.936 -0.3406 -0.1323  0.1099
 1588SOL     OW16225   1.109   0.673   8.676  0.2404 -0.2026  0.4619
 1588SOL    HW116226   1.062   0.754   8.697  3.9840  2.1451 -0.3064
 1588SOL    HW216227   1.160   0.700   8.600  1.1251  0.6338  1.3545
 1589SOL     OW16228   2.091   2.199   2.140  0.6892 -0.4983 -0.3035
 1589SOL    HW116229   2.014   2.206   2.084  0.6335  1.1008 -0.0371
 1589SOL    HW216230   2.122   2.289   2.132 -1.4137  0.0661 -1.9463
 1590SOL     OW16231   1.632   4.059   8.095 -0.1851 -0.4189 -0.0080
 1590SOL    HW116232   1.629   4.118   8.170  0.3169 -0.0373 -0.2898
 1590SOL    HW216233   1.620   4.126   8.027  1.4028  0.8658  0.9884
 1591SOL     OW16234   1.356   4.494   0.234 -0.3621 -0.6487  0.0874
 1591SOL    HW116235   1.444   4.477   0.268 -0.9060 -0.8405  1.4056
 1591SOL    HW216236   1.310   4.411   0.244  0.5794 -0.9299  2.0386
 1592SOL     OW16237   3.648   1.688   7.809  0.6260  0.2189 -0.1843
 1592SOL    HW116238   3.572   1.721   7.856  0.3108  0.5161 -0.8903
 1592SOL    HW216239   3.654   1.755   7.740  1.8975 -0.6878 -0.9562
 1593SOL     OW16240   1.815   0.553   5.183 -0.0729  0.4890  0.7349
 1593SOL    HW116241   1.888   0.604   5.146 -0.6365  0.6719 -0.1346
 1593SOL    HW216242   1.769   0.535   5.102  1.1055 -0.4779  0.2882
 1594SOL     OW16243   4.042   4.686   8.912  0.5326 -0.5174 -0.1777
 1594SOL    HW116244   4.054   4.704   9.006  0.0680  2.3569 -0.6807
 1594SOL    HW216245   4.133   4.690   8.882  1.2284 -0.9016  1.8579
 1595SOL     OW16246   0.073   3.022  11.629  0.0763 -0.0711 -0.1855
 1595SOL    HW116247   0.096   3.071  11.550 -0.3648 -2.5799 -1.8438
 1595SOL    HW216248   4.703   3.010  11.619 -0.1182  1.5809 -0.3609
 1596SOL     OW16249   1.898   1.114   9.074 -0.3434 -0.1792 -0.1908
 1596SOL    HW116250   1.898   1.022   9.099 -1.7311 -0.4816 -1.3401
 1596SOL    HW216251   1.892   1.157   9.159 -0.1363 -0.4439 -0.0411
 1597SOL     OW16252   4.615   0.131   9.452 -0.4961  0.0865  0.9134
 1597SOL    HW116253   4.624   0.043   9.489 -0.3947  0.1313  0.9928
 1597SOL    HW216254   4.676   0.183   9.504  0.4745 -1.1298  1.0098
 1598SOL     OW16255   3.728   2.965   4.233  0.0137 -0.2390  0.4256
 1598SOL    HW116256   3.664   2.910   4.277  1.6193 -1.4409  1.2663
 1598SOL    HW216257   3.709   3.047   4.279  1.1162 -1.1968  2.5896
 1599SOL     OW16258   1.965   4.316   1.592  0.8730 -0.4094 -0.3433
 1599SOL    HW116259   2.024   4.305   1.667  1.1777  0.9787 -0.3716
 1599SOL    HW216260   1.889   4.270   1.629  0.0723 -0.4150 -2.0090
 1600SOL     OW16261   1.706   4.189  12.687 -0.2390 -0.0468 -0.4238
 1600SOL    HW116262   1.786   4.171  12.639  0.8494 -2.3234  2.2646
 1600SOL    HW216263   1.723   4.282  12.705  0.5654 -0.2132 -0.3184
 1601SOL     OW16264   0.534   1.609   1.821 -0.2343  0.1858 -0.4302
 1601SOL    HW116265   0.444   1.624   1.791 -0.0940  1.5660 -0.1461
 1601SOL    HW216266   0.593   1.630   1.748 -1.0049  0.1375 -1.0719
 1602SOL     OW16267   0.525   3.258  15.939 -0.7959  0.2409 -0.0109
 1602SOL    HW116268   0.590   3.188  15.944 -1.8215 -0.6112  1.2593
 1602SOL    HW216269   0.561   3.291  15.857 -0.1502  0.5465  0.3928
 1603SOL     OW16270   0.050   1.506   4.869 -0.2815 -0.5424 -0.8338
 1603SOL    HW116271   0.052   1.415   4.898  1.1463 -0.5397 -0.9290
 1603SOL    HW216272   4.681   1.527   4.867 -0.3347 -0.6125  1.6607
 1604SOL     OW16273   2.064   4.095   5.161 -0.3509  0.2605  0.2658
 1604SOL    HW116274   2.016   4.176   5.182  1.5063  1.8725 -1.7546
 1604SOL    HW216275   2.040   4.044   5.238  1.1552 -0.7618  0.0501
 1605SOL     OW16276   1.905   0.495   8.499  0.5192  0.5678  0.9274
 1605SOL    HW116277   1.838   0.475   8.564  0.3366 -1.1506  0.2148
 1605SOL    HW216278   1.864   0.564   8.446 -0.1650  0.3964  1.2315
 1606SOL     OW16279   2.064   4.446  14.888  0.3923  0.1692 -0.0002
 1606SOL    HW116280   1.983   4.448  14.940  0.7297  0.9782  0.4901
 1606SOL    HW216281   2.044   4.493  14.807 -3.7841  0.9764  1.5017
 1607SOL     OW16282   0.184   1.934   0.383  0.5586  0.7855  0.4452
 1607SOL    HW116283   0.186   1.944   0.478  0.2715  0.3538  0.4968
 1607SOL    HW216284   0.188   2.025   0.354 -0.7406  0.8415  0.4416
 1608SOL     OW16285   3.843   4.113   0.755 -0.0876  0.2992 -0.1190
 1608SOL    HW116286   3.793   4.095   0.834  0.5558  0.4067  0.3153
 1608SOL    HW216287   3.930   4.076   0.770  0.3368  1.4505  0.3203
 1609SOL     OW16288   0.736   0.967   3.009  0.3768 -0.0201 -0.4192
 1609SOL    HW116289   0.671   1.033   3.035 -0.4304 -0.4607 -1.3460
 1609SOL    HW216290   0.820   0.993   3.048 -0.8937  1.9900  0.9843
 1610SOL     OW16291   1.643   1.417   5.269  0.9418  0.1195  0.1183
 1610SOL    HW116292   1.718   1.379   5.315  0.3558 -0.8124  0.3060
 1610SOL    HW216293   1.679   1.497   5.230  0.1552  1.8370  2.8923
 1611SOL     OW16294   3.718   1.883  12.167  0.1862  0.1895  0.2639
 1611SOL    HW116295   3.724   1.938  12.090 -0.3964 -2.3555 -1.5983
 1611SOL    HW216296   3.634   1.917  12.199 -1.3345 -1.4946 -1.9074
 1612SOL     OW16297   2.151   2.954   3.570  0.1995  0.2267  0.3860
 1612SOL    HW116298   2.156   3.044   3.601 -0.8431  0.8815 -1.3718
 1612SOL    HW216299   2.217   2.971   3.503  1.5863 -3.6277  0.7429
 1613SOL     OW16300   1.976   0.854   5.869  0.5737 -0.0623 -0.0857
 1613SOL    HW116301   1.894   0.885   5.908  0.8544 -1.2730  1.4857
 1613SOL    HW216302   1.937   0.813   5.792  1.0305  0.4729 -0.5996
 1614SOL     OW16303   0.860   3.631   3.501  0.0690  0.3875  0.0326
 1614SOL    HW116304   0.799   3.616   3.428 -1.5764  2.1961  1.0429
 1614SOL    HW216305   0.920   3.690   3.454  0.1353  0.6294  0.4242
 1615SOL     OW16306   0.884   2.521   4.983  0.3577  0.6865  0.1264
 1615SOL    HW116307   0.827   2.526   5.060  0.1607  0.7543 -0.0220
 1615SOL    HW216308   0.838   2.458   4.927 -0.6557  0.6711  0.9630
 1616SOL     OW16309   3.933   4.016  14.973  0.5232  0.4677 -0.0700
 1616SOL    HW116310   3.915   4.100  14.929  0.8940 -0.3068 -1.7034
 1616SOL    HW216311   3.913   3.947  14.910  0.4675 -0.0174  0.4880
 1617SOL     OW16312   1.677   0.810  17.267  0.8608  0.3707 -0.7235
 1617SOL    HW116313   1.655   0.717  17.263 -0.6401  0.6939 -0.0647
 1617SOL    HW216314   1.753   0.807  17.324  0.3024 -2.0368 -0.0829
 1618SOL     OW16315   1.658   0.207   3.449  0.5241  0.2779  0.2345
 1618SOL    HW116316   1.565   0.189   3.440  1.1201 -2.1352 -1.0126
 1618SOL    HW216317   1.651   0.285   3.505 -0.7002 -0.9450  1.7576
 1619SOL     OW16318   1.614   3.840   8.253 -0.2684 -0.1641  0.2956
 1619SOL    HW116319   1.703   3.840   8.286 -0.2166  1.0595  0.1731
 1619SOL    HW216320   1.629   3.919   8.201  0.8382  1.0813  2.5253
 1620SOL     OW16321   2.660   0.079  14.227  0.3503  0.1749 -0.9481
 1620SOL    HW116322   2.645   4.722  14.276  3.6222  1.1875  1.7598
 1620SOL    HW216323   2.713   0.131  14.288 -1.3026  2.5849 -1.5482
 1621SOL     OW16324   1.644   1.350   0.060  0.6912  0.2938  0.1436
 1621SOL    HW116325   1.682   1.268   0.029  0.7669  0.8498 -1.2118
 1621SOL    HW216326   1.553   1.328   0.079  0.6100  0.0096 -0.6055
 1622SOL     OW16327   4.162   2.339   6.992 -0.0654  0.2138  0.4839
 1622SOL    HW116328   4.230   2.275   6.969 -0.5357  0.0624 -0.4865
 1622SOL    HW216329   4.090   2.278   7.003  2.4454 -2.8375  0.0677
 1623SOL     OW16330   1.777   4.694   0.307 -0.2874 -0.5207 -0.6305
 1623SOL    HW116331   1.853   4.720   0.358  0.6553  0.7168 -2.6789
 1623SOL    HW216332   1.776   4.599   0.320 -2.7328 -0.5039 -0.5564
 1624SOL     OW16333   1.765   1.429  14.994 -0.3451  0.2370 -0.0145
 1624SOL    HW116334   1.827   1.465  15.057 -1.3569 -0.5026  1.3904
 1624SOL    HW216335   1.780   1.336  15.010  0.5597  0.5684  1.0553
 1625SOL     OW16336   4.507   4.085  17.008  0.1129  0.4604  0.1891
 1625SOL    HW116337   4.478   4.166  17.048  2.1041  0.2670  1.9959
 1625SOL    HW216338   4.462   4.022  17.065 -1.6626  2.3805  0.8812
 1626SOL     OW16339   3.503   0.635   0.797  0.1738  0.3636  0.4834
 1626SOL    HW116340   3.491   0.726   0.825  1.2389  0.7879 -0.4320
 1626SOL    HW216341   3.419   0.621   0.754  0.1743  1.2149  0.2090
 1627SOL     OW16342   4.607   1.474   9.420  0.3051 -0.1351 -0.8635
 1627SOL    HW116343   4.518   1.508   9.411  1.3555  1.8805 -3.6137
 1627SOL    HW216344   4.593   1.382   9.397 -0.2716 -0.3751  0.4604
 1628SOL     OW16345   2.749   2.661   3.181  0.4180 -0.6191 -0.1114
 1628SOL    HW116346   2.837   2.690   3.201  0.8973 -0.5343 -2.2743
 1628SOL    HW216347   2.734   2.580   3.230  3.4786 -0.2694  1.3381
 1629SOL     OW16348   4.250   0.978   5.390 -0.1368 -0.3021 -0.1072
 1629SOL    HW116349   4.241   0.914   5.320  0.3903  0.5306 -0.9306
 1629SOL    HW216350   4.278   1.057   5.344 -1.6708  1.0798  1.3187
 1630SOL     OW16351   0.441   2.982   7.951 -0.0641 -0.2262 -0.3307
 1630SOL    HW116352   0.490   2.907   7.984  0.1329 -0.7268 -1.7932
 1630SOL    HW216353   0.395   2.937   7.881 -0.0226  0.0659 -0.5464
 1631SOL     OW16354   1.588   3.794   3.528 -0.6556 -0.1221  0.4529
 1631SOL    HW116355   1.576   3.699   3.517  0.7392 -0.2328 -0.1548
 1631SOL    HW216356   1.551   3.817   3.443 -0.9177  1.5368  1.0201
 1632SOL     OW16357   4.435   2.346  14.053 -0.5839 -0.5788  0.3463
 1632SOL    HW116358   4.404   2.434  14.033  0.2908 -0.2047  0.6375
 1632SOL    HW216359   4.479   2.363  14.136 -2.2736 -0.9873  1.3394
 1633SOL     OW16360   3.221   0.517   2.885 -0.0180  0.2306  0.0510
 1633SOL    HW116361   3.176   0.591   2.844  1.4691  1.0519 -0.0624
 1633SOL    HW216362   3.151   0.453   2.896 -0.8335  0.8804 -1.3392
 1634SOL     OW16363   3.456   3.986   3.930  0.2675  0.0911 -0.7116
 1634SOL    HW116364   3.475   4.077   3.906 -0.2428  0.0443 -1.2993
 1634SOL    HW216365   3.519   3.935   3.879 -0.0012 -1.1282  0.1629
 1635SOL     OW16366   3.869   1.925  12.640  0.6774  0.0396 -0.0298
 1635SOL    HW116367   3.947   1.873  12.620  0.8865  0.9018 -1.4420
 1635SOL    HW216368   3.892   2.017  12.633  0.6524  0.0844  0.5031
 1636SOL     OW16369   2.892   3.119   2.997 -0.4533  0.1473  0.2228
 1636SOL    HW116370   2.984   3.100   2.977 -0.2068  0.0855  1.4082
 1636SOL    HW216371   2.889   3.183   3.069  2.1652 -0.8707  1.2625
 1637SOL     OW16372   0.814   1.120  10.561  0.0043  0.3769  0.0312
 1637SOL    HW116373   0.796   1.027  10.571 -1.7645  0.6475 -0.6249
 1637SOL    HW216374   0.807   1.130  10.466 -0.1960  1.8957  0.1989
 1638SOL     OW16375   1.132   3.795   9.785  0.4341  0.0103 -0.4124
 1638SOL    HW116376   1.171   3.881   9.801  0.0514  0.0697  0.2214
 1638SOL    HW216377   1.155   3.748   9.866 -0.3796 -1.2836 -0.9326
 1639SOL     OW16378   2.318   1.385   0.645  0.5509 -0.7297  0.2517
 1639SOL    HW116379   2.352   1.417   0.729 -0.5149  1.1152 -0.0158
 1639SOL    HW216380   2.253   1.321   0.674 -1.4444  0.1895 -2.1993
 1640SOL     OW16381   0.160   0.038   5.839  0.2548 -0.6963 -0.3271
 1640SOL    HW116382   0.129   4.685   5.886 -3.8269 -0.3846 -2.5302
 1640SOL    HW216383   0.088   0.071   5.786 -0.1802  0.6776  1.1240
 1641SOL     OW16384   2.621   4.091   6.785 -0.1769 -0.9887  0.4349
 1641SOL    HW116385   2.625   4.086   6.880  1.7367  1.7072  0.5028
 1641SOL    HW216386   2.540   4.139   6.769 -0.8850 -2.5238 -0.6151
 1642SOL     OW16387   0.651   2.409   3.378 -0.0814  0.0598  0.0486
 1642SOL    HW116388   0.592   2.403   3.453 -0.4491  0.9524 -0.1755
 1642SOL    HW216389   0.650   2.503   3.363  1.0280  0.2254  1.0179
 1643SOL     OW16390   1.680   4.064  13.795 -0.2039 -0.0279  0.3792
 1643SOL    HW116391   1.756   4.016  13.763 -1.1690 -1.0252 -0.4216
 1643SOL    HW216392   1.651   4.015  13.872 -1.6346  2.4951  1.4395
 1644SOL     OW16393   3.444   4.511   5.784  0.0308  0.3743 -0.0922
 1644SOL    HW116394   3.485   4.520   5.871 -0.5291  1.6337  0.0454
 1644SOL    HW216395   3.352   4.503   5.809  0.0059  0.3655 -0.1879
 1645SOL     OW16396   0.123   4.461   9.708  0.5671 -0.3090  0.0507
 1645SOL    HW116397   0.184   4.452   9.781  0.8428 -2.1985 -0.4058
 1645SOL    HW216398   0.117   4.368   9.685  0.9114 -0.0786 -0.9870
 1646SOL     OW16399   1.258   3.930   5.734 -0.3070 -0.3834 -0.2555
 1646SOL    HW116400   1.251   3.901   5.825 -0.2220 -0.5305 -0.2960
 1646SOL    HW216401   1.207   4.009   5.717  1.1639  0.7115  0.4208
 1647SOL     OW16402   2.161   4.370   2.411  0.5208 -0.1107 -0.2935
 1647SOL    HW116403   2.103   4.414   2.348  0.8730 -2.6074 -2.3265
 1647SOL    HW216404   2.241   4.360   2.360  0.1487 -1.8036 -0.5431
 1648SOL     OW16405   2.287   3.395   8.452  0.3286  0.0654  0.0932
 1648SOL    HW116406   2.202   3.417   8.489  0.3345  0.6724 -0.2501
 1648SOL    HW216407   2.334   3.418   8.532  0.8676  0.9261 -0.4751
 1649SOL     OW16408   4.469   4.295   1.670 -0.1971 -0.1608 -0.0758
 1649SOL    HW116409   4.423   4.253   1.597 -2.1027 -0.6820  1.4337
 1649SOL    HW216410   4.428   4.381   1.675 -0.0017 -0.0258 -0.7728
 1650SOL     OW16411   3.350   2.381   2.539  0.0508 -0.2911 -0.0154
 1650SOL    HW116412   3.380   2.291   2.530 -0.7243 -0.6886  1.3581
 1650SOL    HW216413   3.395   2.424   2.466  0.1203  0.2006  0.3154
 1651SOL     OW16414   4.184   0.042   4.351  0.2329  0.2595  0.2774
 1651SOL    HW116415   4.143   0.101   4.413  0.5669 -1.0347  1.7389
 1651SOL    HW216416   4.275   0.035   4.380 -0.1963 -2.3796  1.0500
 1652SOL     OW16417   0.652   1.327   6.685 -0.8435 -0.1933  0.1367
 1652SOL    HW116418   0.598   1.254   6.654 -0.3078  0.1143 -1.4935
 1652SOL    HW216419   0.604   1.406   6.662  1.3391  1.1144  0.0847
 1653SOL     OW16420   3.918   0.738  14.746  0.7790  0.3625  0.7575
 1653SOL    HW116421   3.946   0.700  14.663  1.4399 -2.3368  2.2040
 1653SOL    HW216422   3.885   0.661  14.793  1.5409 -0.7711 -0.5819
 1654SOL     OW16423   2.537   0.282   7.110  0.3360  0.2397  0.0158
 1654SOL    HW116424   2.618   0.320   7.078 -0.3012 -1.0437 -3.0516
 1654SOL    HW216425   2.519   0.225   7.036  0.0408 -1.1767  1.1627
 1655SOL     OW16426   3.562   0.933  10.359 -0.4331  0.0025  0.1167
 1655SOL    HW116427   3.606   0.891  10.433 -0.1745 -0.1329 -0.1128
 1655SOL    HW216428   3.629   0.939  10.290 -1.5928  0.6222 -0.9714
 1656SOL     OW16429   0.923   1.584  16.802 -0.0436 -0.0615  0.0746
 1656SOL    HW116430   0.923   1.680  16.803 -0.1910 -0.1126  3.3197
 1656SOL    HW216431   0.933   1.551  16.712 -2.1505  1.0181 -0.5467
 1657SOL     OW16432   1.954   1.662  15.508  0.0215 -0.2414 -0.4388
 1657SOL    HW116433   1.936   1.570  15.490  1.0841 -0.4675 -0.3793
 1657SOL    HW216434   2.033   1.671  15.454  0.4820  2.9572  0.7214
 1658SOL     OW16435   1.670   0.790   6.705  0.2043 -0.0248  0.0216
 1658SOL    HW116436   1.630   0.764   6.622  0.4193  1.6346 -0.6128
 1658SOL    HW216437   1.760   0.798   6.674  0.7425  0.9284  1.8204
 1659SOL     OW16438   4.582   1.572   6.986  0.0335  0.2384 -0.7715
 1659SOL    HW116439   4.490   1.553   6.966 -0.1674  0.0890  0.2669
 1659SOL    HW216440   4.625   1.512   6.925 -0.5278 -2.3517  1.3656
 1660SOL     OW16441   1.947   1.588   5.655 -0.6856 -0.0628 -0.7130
 1660SOL    HW116442   1.918   1.529   5.725  1.7720 -2.6382 -1.8986
 1660SOL    HW216443   1.862   1.629   5.637 -0.3410  0.8885 -0.1523
 1661SOL     OW16444   1.232   1.749   3.262 -0.2959 -0.4818  0.2960
 1661SOL    HW116445   1.201   1.800   3.187  0.3503 -2.7286 -1.4986
 1661SOL    HW216446   1.179   1.785   3.333  0.7209  1.7804 -0.0886
 1662SOL     OW16447   2.492   1.950  12.075  0.3783 -0.0398 -0.3464
 1662SOL    HW116448   2.558   2.016  12.051 -0.5341  0.8079 -0.5059
 1662SOL    HW216449   2.434   2.005  12.126  0.0001 -1.0127  0.2646
 1663SOL     OW16450   3.318   2.295   3.144  0.2182  0.7212  0.0185
 1663SOL    HW116451   3.271   2.240   3.207  0.7334  1.3131  0.9178
 1663SOL    HW216452   3.396   2.240   3.132  0.1036  0.4908  0.3337
 1664SOL     OW16453   4.289   3.704   8.409  0.4843 -0.2313  0.3771
 1664SOL    HW116454   4.315   3.688   8.318  2.1085 -0.4001  0.8789
 1664SOL    HW216455   4.194   3.695   8.402  0.3694  0.6657  0.9487
 1665SOL     OW16456   1.122   4.183   5.332  0.0399  0.4805  0.2299
 1665SOL    HW116457   1.183   4.172   5.259  0.6994 -1.7807  1.1066
 1665SOL    HW216458   1.035   4.168   5.294  0.9541  0.7507 -1.9871
 1666SOL     OW16459   0.064   2.514   4.270 -0.0807  0.1402 -0.5414
 1666SOL    HW116460   4.719   2.569   4.234 -0.1376  1.9719  2.3948
 1666SOL    HW216461   0.096   2.565   4.344 -0.2952  0.1104 -0.4292
 1667SOL     OW16462   0.734   0.743   5.125 -0.3905 -0.3930  0.5912
 1667SOL    HW116463   0.736   0.828   5.080  1.0711 -0.4412  0.5780
 1667SOL    HW216464   0.823   0.717   5.104 -0.5803 -0.0245 -0.6590
 1668SOL     OW16465   2.964   4.214  10.067  0.3168 -0.0774 -0.4870
 1668SOL    HW116466   2.945   4.308  10.062 -2.0490 -0.5654 -0.6911
 1668SOL    HW216467   3.040   4.207  10.009  1.1188 -1.2945  0.7417
 1669SOL     OW16468   2.379   1.610   4.251 -0.6390 -0.2394  0.3355
 1669SOL    HW116469   2.363   1.703   4.266 -1.3007 -0.2501 -0.2606
 1669SOL    HW216470   2.471   1.603   4.226 -0.7414 -0.0175 -0.1124
 1670SOL     OW16471   2.368   4.234   6.740 -0.0067  0.2476  0.4996
 1670SOL    HW116472   2.344   4.310   6.686 -2.2858 -0.6878  0.2036
 1670SOL    HW216473   2.354   4.167   6.673 -0.3509  0.8675 -0.0519
 1671SOL     OW16474   2.768   1.247   7.277 -0.1134 -0.2026 -0.0965
 1671SOL    HW116475   2.776   1.260   7.182 -0.7604  1.3345  0.0547
 1671SOL    HW216476   2.745   1.155   7.278 -1.6495  0.1825  0.3478
 1672SOL     OW16477   3.579   2.641  16.964  0.7815 -0.3876  0.0842
 1672SOL    HW116478   3.616   2.665  16.879  2.1772 -0.2672  0.7324
 1672SOL    HW216479   3.519   2.568  16.948  0.4308 -0.2694  0.8507
 1673SOL     OW16480   4.698   3.681   5.296  0.3743  0.4555 -0.3931
 1673SOL    HW116481   4.701   3.702   5.389 -0.3121 -2.0151  0.1919
 1673SOL    HW216482   0.004   3.761   5.253  0.5652 -0.4403 -1.9312
 1674SOL     OW16483   4.275   2.901   9.426  0.4516  1.0148  0.3688
 1674SOL    HW116484   4.197   2.878   9.376  0.2314  2.0194  0.2335
 1674SOL    HW216485   4.311   2.813   9.433 -3.5637 -0.5908  0.7615
 1675SOL     OW16486   0.589   1.990   4.085  0.5310 -0.0610  0.7539
 1675SOL    HW116487   0.609   2.083   4.092  3.0390 -0.5794  0.6932
 1675SOL    HW216488   0.672   1.959   4.049  0.0526 -1.0395  0.4833
 1676SOL     OW16489   2.619   3.571   6.452  0.1703 -0.1440 -0.5492
 1676SOL    HW116490   2.688   3.556   6.388  0.1587  1.2207 -0.8835
 1676SOL    HW216491   2.662   3.593   6.535 -1.6096 -1.2328  0.6725
 1677SOL     OW16492   3.408   3.334  11.254 -0.0286  0.0706  0.2673
 1677SOL    HW116493   3.456   3.410  11.220 -2.1770  0.8805 -0.9929
 1677SOL    HW216494   3.444   3.260  11.206  1.6581  2.6232 -2.4432
 1678SOL     OW16495   3.785   4.496  14.280 -0.1063  0.7533 -0.5955
 1678SOL    HW116496   3.787   4.470  14.372 -2.9247 -1.8006 -1.2943
 1678SOL    HW216497   3.862   4.553  14.274  0.6393 -0.3578 -1.4224
 1679SOL     OW16498   4.439   4.384   6.415  0.4456 -0.0167  0.3451
 1679SOL    HW116499   4.388   4.308   6.443 -0.3664  0.9630  1.5489
 1679SOL    HW216500   4.443   4.440   6.492  1.4383 -1.3117  1.2286
 1680SOL     OW16501   4.484   1.552   7.993  0.0821  0.0745  0.5305
 1680SOL    HW116502   4.438   1.528   8.073 -1.0132  0.1968 -0.0664
 1680SOL    HW216503   4.562   1.590   8.033  0.0090  1.4615 -0.6461
 1681SOL     OW16504   4.675   4.265   6.419 -0.7141  0.0516  0.1121
 1681SOL    HW116505   4.719   4.292   6.339  1.3590  1.1409  1.6261
 1681SOL    HW216506   4.599   4.323   6.412  0.8684  2.0722 -0.1477
 1682SOL     OW16507   3.890   3.564   2.810  0.0437  0.0009 -0.2517
 1682SOL    HW116508   3.871   3.589   2.720  1.0630  0.3427 -0.3787
 1682SOL    HW216509   3.839   3.633   2.854  0.7709  1.9382 -2.4539
 1683SOL     OW16510   2.801   0.788  16.913  0.4037 -0.1098  0.3589
 1683SOL    HW116511   2.824   0.785  16.821 -0.9010  2.8759 -0.0612
 1683SOL    HW216512   2.777   0.697  16.929 -0.4787 -0.3487 -2.3646
 1684SOL     OW16513   3.205   0.093   9.183  0.7887 -0.4544 -0.6445
 1684SOL    HW116514   3.210   0.188   9.177 -2.2513 -0.2204  0.8638
 1684SOL    HW216515   3.132   0.078   9.123 -0.2080  0.6326  0.3260
 1685SOL     OW16516   4.666   3.661  17.085  0.4848  0.1777 -0.1753
 1685SOL    HW116517   0.033   3.636  17.073  0.5723 -0.5443  2.0396
 1685SOL    HW216518   4.669   3.742  17.136  1.6344 -0.9859  1.6028
 1686SOL     OW16519   3.369   2.751  12.744  0.3771 -0.1319  0.7663
 1686SOL    HW116520   3.446   2.720  12.696  0.3974 -1.3501  1.5721
 1686SOL    HW216521   3.312   2.678  12.765 -0.3229 -0.1831 -1.3548
 1687SOL     OW16522   1.156   0.693   3.453 -0.2551  0.2968 -0.2587
 1687SOL    HW116523   1.080   0.664   3.504  0.7102  1.5827  1.9026
 1687SOL    HW216524   1.105   0.693   3.373 -1.0183 -1.6530  0.2323
 1688SOL     OW16525   2.757   3.819  12.046  0.5215  0.0560  0.2007
 1688SOL    HW116526   2.756   3.818  11.951 -2.6311 -1.4450  0.2472
 1688SOL    HW216527   2.672   3.777  12.061  0.5272  0.6878  2.0013
 1689SOL     OW16528   0.039   3.326   7.510 -0.0980  0.3612  0.2655
 1689SOL    HW116529   4.693   3.290   7.564 -0.8570  2.1513  0.4401
 1689SOL    HW216530   0.107   3.337   7.576 -0.3410 -0.8586  0.7141
 1690SOL     OW16531   0.775   2.771   6.833  0.1112 -0.0275 -0.2540
 1690SOL    HW116532   0.712   2.803   6.769  1.8066  1.6485 -1.0814
 1690SOL    HW216533   0.768   2.677   6.815  2.0419 -0.1275 -0.3957
 1691SOL     OW16534   1.819   2.049   2.700 -0.5171  0.6461 -0.8386
 1691SOL    HW116535   1.878   1.982   2.666 -0.4521  0.8140 -1.0542
 1691SOL    HW216536   1.873   2.097   2.762  0.1053 -1.8212  0.5317
 1692SOL     OW16537   3.328   3.833   4.776 -0.2960 -0.1166 -0.1490
 1692SOL    HW116538   3.372   3.894   4.716  1.4302 -0.6480  0.5741
 1692SOL    HW216539   3.400   3.781   4.812  0.8129  0.1370 -2.0068
 1693SOL     OW16540   0.199   4.246   6.754  0.4959  0.4099  0.0869
 1693SOL    HW116541   0.276   4.237   6.811  0.3563 -1.3749 -0.0255
 1693SOL    HW216542   0.220   4.328   6.709 -1.6623  2.2862  2.4870
 1694SOL     OW16543   2.587   3.732   8.398  0.0983 -0.3633  0.1427
 1694SOL    HW116544   2.496   3.707   8.384  0.5323  0.0482 -3.5266
 1694SOL    HW216545   2.579   3.822   8.366 -1.8277  0.0102  1.7273
 1695SOL     OW16546   3.456   4.016  12.629 -0.3557  0.1617 -0.0054
 1695SOL    HW116547   3.543   4.033  12.666 -1.4987 -0.6809  3.0524
 1695SOL    HW216548   3.405   3.992  12.706 -1.4030  0.4952 -0.5987
 1696SOL     OW16549   3.939   3.763   4.478 -0.4498  0.0291 -0.3260
 1696SOL    HW116550   3.895   3.702   4.537  0.3851  1.9017  2.2478
 1696SOL    HW216551   3.903   3.738   4.393  1.9974 -0.6710 -1.1512
 1697SOL     OW16552   4.584   0.360   8.575 -0.1046  0.1463 -0.0863
 1697SOL    HW116553   4.545   0.299   8.637  1.7360 -3.4896 -2.5272
 1697SOL    HW216554   4.502   0.398   8.544 -0.8659 -0.6344  0.9879
 1698SOL     OW16555   3.505   2.939  12.958  0.0615 -0.3284 -0.3534
 1698SOL    HW116556   3.454   2.929  12.878 -1.4048 -1.9667  0.7984
 1698SOL    HW216557   3.536   2.852  12.983  1.1430 -0.3350 -1.7292
 1699SOL     OW16558   2.698   3.468   8.450  0.0781 -0.1449  0.2170
 1699SOL    HW116559   2.701   3.454   8.355  2.1366  1.2371  0.0695
 1699SOL    HW216560   2.673   3.561   8.456 -0.8168 -0.3578 -0.2247
 1700SOL     OW16561   3.046   2.042   6.838 -0.1295 -0.1996  0.1150
 1700SOL    HW116562   2.967   2.070   6.792  0.3000  0.4853 -0.2097
 1700SOL    HW216563   3.050   1.947   6.825  1.7060 -0.0573 -0.4143
 1701SOL     OW16564   1.401   2.019   3.604 -0.5755 -0.4410 -0.1175
 1701SOL    HW116565   1.492   2.027   3.573 -0.6275 -0.9180 -0.3792
 1701SOL    HW216566   1.414   1.957   3.676  1.2662  1.1049  0.9027
 1702SOL     OW16567   4.645   1.135   3.630 -0.0038  0.1195 -0.0264
 1702SOL    HW116568   4.670   1.046   3.654 -3.0950 -1.0023 -1.0500
 1702SOL    HW216569   4.632   1.166   3.720  2.1821  4.1162 -1.0453
 1703SOL     OW16570   3.537   3.648   4.484 -0.1793 -0.8896 -0.0670
 1703SOL    HW116571   3.452   3.603   4.489 -0.2163 -0.5682  2.3348
 1703SOL    HW216572   3.499   3.716   4.427 -0.5016 -1.5320 -0.6241
 1704SOL     OW16573   1.119   0.407  14.466  0.7398  0.7182  0.0416
 1704SOL    HW116574   1.193   0.439  14.517 -0.7499  0.7300  2.2001
 1704SOL    HW216575   1.100   0.325  14.511  0.2958  2.0392  2.2493
 1705SOL     OW16576   1.197   0.505   3.064  0.2405  0.2027 -0.3650
 1705SOL    HW116577   1.182   0.579   3.124  2.3531 -0.7186  1.2885
 1705SOL    HW216578   1.291   0.518   3.050  0.2441  1.4210  0.7395
 1706SOL     OW16579   1.232   0.442   8.439 -0.2627  0.5614  1.0058
 1706SOL    HW116580   1.209   0.533   8.454 -1.7827  0.5947 -1.4725
 1706SOL    HW216581   1.231   0.451   8.344 -2.0307 -1.9705  0.7891
 1707SOL     OW16582   2.813   2.425   7.288  0.7295  0.0314  0.3799
 1707SOL    HW116583   2.885   2.484   7.262  1.8290 -0.8945  1.3486
 1707SOL    HW216584   2.836   2.388   7.373 -1.5421  0.9442  1.3707
 1708SOL     OW16585   1.162   4.054   5.082 -0.5685  0.1821  0.3765
 1708SOL    HW116586   1.097   4.004   5.132  0.8272 -1.3875  0.5844
 1708SOL    HW216587   1.177   3.987   5.016  0.3930  2.1550 -1.4039
 1709SOL     OW16588   4.003   3.203   6.546 -0.1680  0.6324 -0.2320
 1709SOL    HW116589   4.080   3.167   6.503  0.2160  1.0431  0.1083
 1709SOL    HW216590   4.037   3.287   6.575 -0.9335  0.3167  1.6464
 1710SOL     OW16591   0.494   3.554   5.831 -0.1363 -0.1774 -0.4351
 1710SOL    HW116592   0.467   3.616   5.763 -0.5409  0.2439  0.1066
 1710SOL    HW216593   0.588   3.565   5.835 -0.1016  0.0686 -1.9256
 1711SOL     OW16594   1.090   2.007  16.981 -0.4684 -0.0676  0.3721
 1711SOL    HW116595   1.089   2.102  16.984 -0.8628 -0.0658  0.2208
 1711SOL    HW216596   1.015   1.974  16.930 -0.8602 -0.4553  1.2008
 1712SOL     OW16597   3.094   1.149   0.577 -0.1564  0.1078 -0.4305
 1712SOL    HW116598   3.183   1.124   0.550 -0.0811  0.6994 -0.7204
 1712SOL    HW216599   3.062   1.081   0.636  0.8997  0.2275  0.2781
 1713SOL     OW16600   4.314   2.836   8.898 -0.3185 -0.1595  0.3194
 1713SOL    HW116601   4.336   2.929   8.900 -0.2283 -0.1037 -3.1463
 1713SOL    HW216602   4.228   2.835   8.940 -1.1022 -2.1998 -1.3350
 1714SOL     OW16603   1.503   2.137   8.212 -0.3906 -0.0792 -0.0835
 1714SOL    HW116604   1.490   2.075   8.283  0.3141 -0.1901 -0.0555
 1714SOL    HW216605   1.423   2.114   8.165 -2.2850  2.2132  1.9841
 1715SOL     OW16606   2.249   4.213   9.433 -0.2365 -0.3925  0.1550
 1715SOL    HW116607   2.261   4.118   9.438  3.7939  0.0886 -0.1883
 1715SOL    HW216608   2.169   4.222   9.484 -0.7819  0.0074 -0.7679
 1716SOL     OW16609   3.925   0.854   7.376 -0.1802  0.1420  0.5575
 1716SOL    HW116610   3.855   0.917   7.389 -0.4658  0.1220 -0.9484
 1716SOL    HW216611   3.937   0.861   7.282 -0.1395 -0.7835  0.4912
 1717SOL     OW16612   1.905   1.737   3.464  0.2598 -0.1222  0.6318
 1717SOL    HW116613   1.862   1.775   3.541  0.0949  1.6960 -0.3456
 1717SOL    HW216614   1.882   1.646   3.477 -0.0312 -0.3712 -1.6656
 1718SOL     OW16615   3.277   4.357   6.828 -0.3545  0.3200  0.0555
 1718SOL    HW116616   3.329   4.394   6.757  0.5617  0.1481  0.6391
 1718SOL    HW216617   3.235   4.276   6.798  0.9843 -0.2810 -0.2210
 1719SOL     OW16618   3.086   0.497   7.712 -0.6231 -0.1563 -0.7464
 1719SOL    HW116619   3.159   0.472   7.768 -0.5639  1.1963 -0.2226
 1719SOL    HW216620   3.066   0.586   7.741  0.1281 -0.5701  0.9973
 1720SOL     OW16621   2.585   2.165   1.558  0.2129 -0.0402  0.0284
 1720SOL    HW116622   2.668   2.158   1.604  0.6829 -1.0077 -0.9426
 1720SOL    HW216623   2.595   2.101   1.487  0.4784 -2.4066  2.2132
 1721SOL     OW16624   2.577   2.817   5.157 -0.4326  0.0162  0.2272
 1721SOL    HW116625   2.561   2.820   5.251 -0.0572  3.0199  0.1833
 1721SOL    HW216626   2.536   2.898   5.129 -0.4525  1.0106  3.2025
 1722SOL     OW16627   3.675   1.410   2.057 -0.3385 -0.7048  0.5735
 1722SOL    HW116628   3.716   1.324   2.050  0.8333 -0.0478 -0.7302
 1722SOL    HW216629   3.665   1.450   1.971 -0.9136 -0.2972  0.8322
 1723SOL     OW16630   1.296   1.555   4.477  0.0777  0.2749 -0.1340
 1723SOL    HW116631   1.346   1.490   4.527 -0.9523 -0.4657 -0.0625
 1723SOL    HW216632   1.226   1.497   4.450 -0.5490  0.2291  1.6039
 1724SOL     OW16633   0.531   1.069   8.518 -0.5119  0.5102 -0.0132
 1724SOL    HW116634   0.556   1.149   8.564  0.8877  1.6679 -2.7901
 1724SOL    HW216635   0.507   1.015   8.593 -0.2012  2.3581  1.4064
 1725SOL     OW16636   0.650   4.672   3.129 -0.3765 -0.1682  0.1008
 1725SOL    HW116637   0.593   4.638   3.198  1.2191 -4.2386 -0.6144
 1725SOL    HW216638   0.636   0.042   3.137 -2.8843 -0.6719  1.5909
 1726SOL     OW16639   0.824   4.204   5.044  0.2772 -0.5492  0.3573
 1726SOL    HW116640   0.775   4.122   5.038 -0.6586 -0.0765  1.7412
 1726SOL    HW216641   0.838   4.196   5.138  2.6774 -0.9988 -0.0356
 1727SOL     OW16642   1.736   2.437   1.607  0.2848  0.1901 -0.0278
 1727SOL    HW116643   1.647   2.423   1.641  0.1273 -1.2187 -1.0066
 1727SOL    HW216644   1.790   2.377   1.658  0.1055 -1.3271 -1.6338
 1728SOL     OW16645   1.240   0.031   7.887  0.3295  0.2945  0.2298
 1728SOL    HW116646   1.331   0.019   7.860 -0.2038  0.1126 -1.5427
 1728SOL    HW216647   1.232   4.699   7.964  1.0131 -0.7352 -0.4462
 1729SOL     OW16648   4.430   3.335   1.406  0.5888 -0.5642 -0.1425
 1729SOL    HW116649   4.412   3.246   1.435 -0.4493 -0.6529 -1.0384
 1729SOL    HW216650   4.372   3.378   1.469  1.3889 -0.7207  0.6899
 1730SOL     OW16651   3.202   2.009  13.218 -0.9149 -0.0259 -0.9296
 1730SOL    HW116652   3.291   1.973  13.212  0.3261  3.2426 -1.9195
 1730SOL    HW216653   3.212   2.086  13.273 -1.3302 -1.0175  0.5324
 1731SOL     OW16654   1.581   2.856   9.248  0.1638 -0.3057 -0.3730
 1731SOL    HW116655   1.627   2.940   9.246  0.5038 -0.4762  0.5018
 1731SOL    HW216656   1.653   2.794   9.256 -0.9927 -1.7143 -0.8932
 1732SOL     OW16657   4.654   3.998  14.811 -0.0595 -0.1247 -0.4439
 1732SOL    HW116658   4.646   3.951  14.728  0.7061 -2.2254  0.6617
 1732SOL    HW216659   4.577   3.963  14.856  0.6181 -3.0450 -1.5459
 1733SOL     OW16660   4.243   2.584   6.940  0.0198 -0.0180 -0.4115
 1733SOL    HW116661   4.318   2.566   6.883 -0.4167  0.6106 -1.1795
 1733SOL    HW216662   4.200   2.498   6.946  1.4637 -0.7141  0.1714
 1734SOL     OW16663   3.798   2.975   5.300  0.3672  0.1920 -0.2054
 1734SOL    HW116664   3.815   3.062   5.265 -0.2585  0.0213 -0.9366
 1734SOL    HW216665   3.856   2.929   5.238  0.3135  2.0363 -1.6318
 1735SOL     OW16666   3.563   1.562   8.151 -0.3736 -0.0211  0.1268
 1735SOL    HW116667   3.657   1.543   8.158 -0.5346  0.4575  3.2303
 1735SOL    HW216668   3.531   1.590   8.236  0.4280  2.1205 -0.2644
 1736SOL     OW16669   2.094   0.124   5.264 -0.0419  0.2416 -0.9456
 1736SOL    HW116670   2.182   0.130   5.301 -0.3851  1.0083 -0.2562
 1736SOL    HW216671   2.073   0.035   5.293 -2.2169  0.4085 -1.9951
 1737SOL     OW16672   4.709   4.588   6.147 -0.2589  0.5350 -0.6142
 1737SOL    HW116673   4.615   4.568   6.143 -0.0121 -0.7619  0.0213
 1737SOL    HW216674   0.021   4.500   6.138 -2.4524 -0.3874 -0.6363
 1738SOL     OW16675   3.399   1.094   8.324  0.2074 -0.1256  0.4443
 1738SOL    HW116676   3.492   1.070   8.334  0.9118  1.9298 -1.0629
 1738SOL    HW216677   3.403   1.183   8.289  1.5293 -0.5069 -0.3698
 1739SOL     OW16678   0.639   0.244   3.168  0.3911 -0.1985 -0.3454
 1739SOL    HW116679   0.636   0.283   3.255  2.1362 -2.0759  0.5544
 1739SOL    HW216680   0.552   0.262   3.134 -0.3243  0.1582  1.7183
 1740SOL     OW16681   2.274   4.316   5.164 -0.2023 -0.3176 -0.0370
 1740SOL    HW116682   2.259   4.223   5.148 -0.0845 -0.5052  0.9574
 1740SOL    HW216683   2.370   4.322   5.163 -0.2026 -0.2681  0.3021
 1741SOL     OW16684   3.401   3.876   6.939  0.4736  0.4501  0.7883
 1741SOL    HW116685   3.433   3.940   7.003 -0.2862  0.4675  1.1482
 1741SOL    HW216686   3.479   3.850   6.889  0.0040 -0.4349  0.5080
 1742SOL     OW16687   3.346   1.929   5.353  0.0344 -0.4504 -0.3355
 1742SOL    HW116688   3.278   1.940   5.286 -0.8913  1.7536  0.9936
 1742SOL    HW216689   3.423   1.886   5.315  1.0930  1.5225 -0.4284
 1743SOL     OW16690   1.872   2.711  16.832 -0.5851 -0.4331 -0.1152
 1743SOL    HW116691   1.920   2.647  16.779  0.0636 -0.3258  0.3302
 1743SOL    HW216692   1.890   2.791  16.784 -0.0234  0.1456  1.0602
 1744SOL     OW16693   1.192   1.585  12.918  0.2226 -0.2089 -0.1421
 1744SOL    HW116694   1.148   1.568  13.001  1.6392 -1.9228  0.2662
 1744SOL    HW216695   1.278   1.553  12.945 -0.6198 -1.1673  1.3845
 1745SOL     OW16696   0.305   3.112  13.745  0.0572  0.0400  0.0243
 1745SOL    HW116697   0.383   3.088  13.696  0.0287 -1.5782  0.7649
 1745SOL    HW216698   0.289   3.024  13.780 -2.3058  0.6559  0.4995
 1746SOL     OW16699   4.659   2.561   2.637 -0.0828  0.0551  0.4093
 1746SOL    HW116700   4.674   2.468   2.622  0.1615 -0.0474  1.2491
 1746SOL    HW216701   4.564   2.575   2.634 -0.6087 -3.6331 -0.0963
 1747SOL     OW16702   3.725   2.712   1.061 -0.2345 -0.1891 -0.0668
 1747SOL    HW116703   3.688   2.779   1.118  2.8462  1.7068 -0.2717
 1747SOL    HW216704   3.647   2.670   1.026 -0.8528 -0.6923  1.9329
 1748SOL     OW16705   0.126   3.823   3.065  0.3229 -0.1946 -0.0269
 1748SOL    HW116706   0.146   3.894   3.004 -3.0710  1.3511  0.6606
 1748SOL    HW216707   0.198   3.833   3.128 -0.2688  0.2650  0.5677
 1749SOL     OW16708   2.879   3.565  12.223  0.0536  0.0690 -0.1853
 1749SOL    HW116709   2.926   3.494  12.266 -0.9284 -1.5202 -1.7538
 1749SOL    HW216710   2.866   3.636  12.286  0.1228 -1.5162  1.6008
 1750SOL     OW16711   3.200   0.020   3.015  0.3101 -0.4410 -0.7466
 1750SOL    HW116712   3.158   0.106   3.024  1.6130  0.2143 -0.8194
 1750SOL    HW216713   3.292   0.034   3.037  0.7441 -2.1666 -1.4596
 1751SOL     OW16714   3.572   0.394   3.987 -0.0521  0.6516 -0.3301
 1751SOL    HW116715   3.536   0.318   3.941  3.0482 -0.7645 -0.4604
 1751SOL    HW216716   3.495   0.448   3.997  0.2402  1.2025 -1.0209
 1752SOL     OW16717   1.983   3.724  13.227  0.3521  0.5050  0.1630
 1752SOL    HW116718   2.000   3.802  13.280  1.7114  0.4249 -0.1528
 1752SOL    HW216719   2.061   3.727  13.172  0.2355  1.3388  0.0449
 1753SOL     OW16720   4.386   3.835  12.278  0.0561 -0.0492  0.2735
 1753SOL    HW116721   4.433   3.752  12.270  1.1141  0.6974 -1.4321
 1753SOL    HW216722   4.409   3.897  12.208 -0.5207  0.6884  0.7406
 1754SOL     OW16723   2.463   2.001  16.015 -0.7765 -0.3943  1.0150
 1754SOL    HW116724   2.454   2.094  16.036  1.0980 -0.3538  1.6274
 1754SOL    HW216725   2.493   1.971  16.101  3.1854  0.0650 -0.1866
 1755SOL     OW16726   1.608   3.135   2.674 -0.0887  0.0734 -0.0705
 1755SOL    HW116727   1.703   3.126   2.663 -0.3075 -0.2476 -1.7909
 1755SOL    HW216728   1.601   3.223   2.636  1.4979  1.2047  2.3293
 1756SOL     OW16729   0.247   0.134   8.064 -0.3149 -0.1653 -0.1880
 1756SOL    HW116730   0.302   0.200   8.021 -1.4763  0.2126 -1.0787
 1756SOL    HW216731   0.179   0.192   8.097  0.8632  0.5715  0.9779
 1757SOL     OW16732   0.349   4.656   3.077 -0.6627 -0.0066 -0.0964
 1757SOL    HW116733   0.404   4.653   3.156 -0.1386 -1.4654 -0.5135
 1757SOL    HW216734   0.399   4.623   3.002 -0.7981 -0.0366 -0.1733
 1758SOL     OW16735   4.452   0.867   1.531 -0.1888 -0.4241 -0.3466
 1758SOL    HW116736   4.499   0.949   1.549  2.7762 -1.6455 -2.4244
 1758SOL    HW216737   4.505   0.806   1.582 -1.7403 -0.1770  1.5597
 1759SOL     OW16738   0.460   1.337  14.386 -0.7399 -0.3243  0.5317
 1759SOL    HW116739   0.528   1.281  14.422  0.1814  1.8430  2.1273
 1759SOL    HW216740   0.500   1.422  14.404  1.3797 -0.8310 -1.7063
 1760SOL     OW16741   3.912   3.261   7.483  0.0779 -0.1083 -0.1558
 1760SOL    HW116742   3.989   3.311   7.509 -1.2240  2.2794 -0.8889
 1760SOL    HW216743   3.849   3.291   7.548  0.7342  0.9017  0.0208
 1761SOL     OW16744   1.412   2.440   7.761 -0.3304 -0.3474 -0.4933
 1761SOL    HW116745   1.424   2.416   7.669  1.5961  0.6069 -0.4845
 1761SOL    HW216746   1.369   2.526   7.761  0.9900  0.3154  0.1427
 1762SOL     OW16747   3.617   2.542   8.405 -0.1807  0.7867 -0.5866
 1762SOL    HW116748   3.665   2.619   8.435 -1.3743  1.2879  0.0270
 1762SOL    HW216749   3.529   2.578   8.414 -1.2629 -2.2053  0.9272
 1763SOL     OW16750   2.523   3.852   2.017  0.4597  0.1774  0.0936
 1763SOL    HW116751   2.523   3.785   1.949  2.2509  0.7083 -0.4318
 1763SOL    HW216752   2.598   3.908   1.997  0.9252 -0.1683  0.8512
 1764SOL     OW16753   1.133   1.435   7.911 -0.1653  0.2846 -0.3965
 1764SOL    HW116754   1.200   1.372   7.883 -0.9052 -1.0781  0.9455
 1764SOL    HW216755   1.082   1.377   7.968 -0.2481  1.0088  0.2546
 1765SOL     OW16756   3.625   1.203   4.696  0.1582 -0.7687  0.4424
 1765SOL    HW116757   3.685   1.186   4.623  0.2301  1.1840  0.0305
 1765SOL    HW216758   3.664   1.288   4.715  0.4291 -1.1575  1.5826
 1766SOL     OW16759   3.988   3.436  11.929  0.6848  0.7158  0.3761
 1766SOL    HW116760   4.024   3.517  11.894 -0.9324  1.3951  0.2770
 1766SOL    HW216761   3.995   3.456  12.023  2.4181  2.2207 -0.0808
 1767SOL     OW16762   2.226   3.547  13.148 -0.1292 -0.6513  0.0274
 1767SOL    HW116763   2.319   3.527  13.145  0.2957  1.0734  1.4539
 1767SOL    HW216764   2.226   3.617  13.083  0.7981  0.0690  0.7869
 1768SOL     OW16765   4.648   2.961   7.159 -0.1805  0.5195  0.1215
 1768SOL    HW116766   4.665   2.990   7.069  1.9927 -1.3847 -0.0960
 1768SOL    HW216767   4.553   2.958   7.162 -0.2845  0.9360 -2.8940
 1769SOL     OW16768   1.571   3.581   8.607  0.2123  0.3553  0.1657
 1769SOL    HW116769   1.626   3.506   8.583  2.5602  2.2054 -0.1682
 1769SOL    HW216770   1.629   3.632   8.665  1.0812 -1.0349  0.5235
 1770SOL     OW16771   2.145   3.419   5.408 -0.1000  0.2106  0.0467
 1770SOL    HW116772   2.126   3.456   5.494  1.0483 -2.1013  1.2967
 1770SOL    HW216773   2.194   3.492   5.369 -0.6754  1.1202  1.0235
 1771SOL     OW16774   0.974   0.918   6.595 -0.4276  0.6416  0.4053
 1771SOL    HW116775   0.988   0.831   6.633  0.0196  0.3002 -0.5289
 1771SOL    HW216776   1.022   0.918   6.512 -2.2789 -0.4308 -0.6539
 1772SOL     OW16777   1.461   4.430   8.139  0.0824  0.4189 -0.0430
 1772SOL    HW116778   1.440   4.383   8.220 -1.2148 -3.3789 -2.6101
 1772SOL    HW216779   1.385   4.489   8.134 -1.2033 -1.3998 -1.8442
 1773SOL     OW16780   3.704   0.830  10.570  0.6148  0.2308  0.1713
 1773SOL    HW116781   3.775   0.877  10.526  1.2111  1.4885  2.4901
 1773SOL    HW216782   3.739   0.741  10.578 -2.0433 -0.7819  0.4658
 1774SOL     OW16783   3.248   4.570  13.101 -0.4251 -0.8930 -0.3084
 1774SOL    HW116784   3.208   4.495  13.058  1.8784 -2.8107  0.9118
 1774SOL    HW216785   3.186   4.590  13.172 -0.7402 -1.2914 -0.4747
 1775SOL     OW16786   0.052   2.258   4.237  0.5890  0.3098 -0.2962
 1775SOL    HW116787   0.052   2.354   4.242 -0.8338  0.2106  1.5326
 1775SOL    HW216788   4.708   2.242   4.301 -0.9761  0.7708 -1.8672
 1776SOL     OW16789   0.286   2.355  17.361  0.3706 -0.2692 -0.0104
 1776SOL    HW116790   0.382   2.354  17.352  0.4145  2.5091  0.3589
 1776SOL    HW216791   0.264   2.448  17.362 -0.3976 -0.4805  1.9550
 1777SOL     OW16792   0.411   3.818   8.938  0.4734  0.1622 -0.3070
 1777SOL    HW116793   0.420   3.838   9.031 -4.3649  2.4442 -0.2790
 1777SOL    HW216794   0.355   3.741   8.933  0.6478 -0.0479  0.9489
 1778SOL     OW16795   2.793   0.242  13.986 -0.3155  0.2677  0.0864
 1778SOL    HW116796   2.885   0.267  13.999 -0.3933  0.2684  0.6423
 1778SOL    HW216797   2.787   0.277  13.898 -1.8229 -2.4648 -0.8699
 1779SOL     OW16798   0.518   3.069   7.322 -0.4310 -0.4415  0.0593
 1779SOL    HW116799   0.455   3.079   7.251  0.1180 -0.0033 -0.3620
 1779SOL    HW216800   0.592   3.054   7.263 -1.4210 -1.1608 -0.9904
 1780SOL     OW16801   0.563   0.255   5.584 -0.3295  0.2105 -0.6846
 1780SOL    HW116802   0.480   0.274   5.541 -0.2430  1.6366 -0.2221
 1780SOL    HW216803   0.561   0.159   5.592 -1.0060  0.4000  1.2475
 1781SOL     OW16804   3.516   1.891   4.139  0.2689 -0.6071  0.0650
 1781SOL    HW116805   3.524   1.810   4.089 -0.3183  0.4841 -1.8036
 1781SOL    HW216806   3.588   1.891   4.203 -1.0708 -0.5176  1.5926
 1782SOL     OW16807   1.614   0.855   7.070 -0.3757 -0.3660 -0.1084
 1782SOL    HW116808   1.652   0.782   7.022 -1.3277 -1.7820  1.3061
 1782SOL    HW216809   1.551   0.819   7.133  0.2526 -0.0348  0.7185
 1783SOL     OW16810   1.320   3.674   6.129  0.0771  0.1179 -0.0107
 1783SOL    HW116811   1.302   3.761   6.094 -1.4412 -0.3152 -0.3443
 1783SOL    HW216812   1.378   3.640   6.061  0.3425 -0.7909  0.6730
 1784SOL     OW16813   3.151   1.581   5.806 -0.0303 -0.3549  0.2806
 1784SOL    HW116814   3.214   1.549   5.742  0.9385 -0.8641  1.4750
 1784SOL    HW216815   3.151   1.673   5.779  2.3792  0.3600  2.5801
 1785SOL     OW16816   4.679   4.709   6.565 -0.2881  0.3489  0.6777
 1785SOL    HW116817   0.019   4.693   6.634 -0.8545  1.6391  1.5113
 1785SOL    HW216818   0.022   4.708   6.497 -0.3698 -0.4250  0.6192
 1786SOL     OW16819   0.529   1.946   2.967 -0.0219 -0.5922  0.0796
 1786SOL    HW116820   0.474   2.014   2.928 -0.8265 -0.6852  1.0685
 1786SOL    HW216821   0.545   1.882   2.897 -1.0520  0.2207 -0.8926
 1787SOL     OW16822   4.690   2.233  14.008 -0.2250 -0.3110 -0.5670
 1787SOL    HW116823   4.603   2.210  13.974 -1.1578 -0.3899  1.8406
 1787SOL    HW216824   4.678   2.327  14.020  0.0952 -0.0292 -2.5536
 1788SOL     OW16825   0.611   3.562   8.949  0.6022  0.3987  0.0460
 1788SOL    HW116826   0.593   3.600   9.035 -1.8306 -0.4872 -0.0454
 1788SOL    HW216827   0.623   3.637   8.890  0.6449 -0.7824 -1.4577
 1789SOL     OW16828   0.800   2.246   6.564 -0.1815 -0.0532 -0.0604
 1789SOL    HW116829   0.802   2.318   6.500  3.2150 -0.0483  0.0561
 1789SOL    HW216830   0.729   2.199   6.520  0.0120 -0.8487  0.4816
 1790SOL     OW16831   4.364   0.398   5.369  0.0861 -0.1170 -0.3558
 1790SOL    HW116832   4.296   0.461   5.344 -1.2950 -1.6364 -0.3384
 1790SOL    HW216833   4.364   0.332   5.300 -0.3715  0.2451 -0.7000
 1791SOL     OW16834   0.248   4.555  13.105  0.0988  0.6311 -0.0814
 1791SOL    HW116835   0.343   4.565  13.115  0.2565 -1.1542  0.1268
 1791SOL    HW216836   0.215   4.644  13.119  0.3186  0.6531  0.3056
 1792SOL     OW16837   4.572   4.305   3.132 -0.0727 -0.0603 -0.1149
 1792SOL    HW116838   4.495   4.249   3.144  0.1283 -1.0277 -3.3808
 1792SOL    HW216839   4.624   4.257   3.068 -1.0307 -0.5607 -0.5296
 1793SOL     OW16840   1.665   0.828   1.963  0.1104 -0.1810  0.4725
 1793SOL    HW116841   1.753   0.859   1.987 -1.3775  3.7097  0.9324
 1793SOL    HW216842   1.633   0.879   1.889  0.1550 -1.2756 -0.3019
 1794SOL     OW16843   1.670   0.949   7.679  0.6780 -0.2154  0.1303
 1794SOL    HW116844   1.602   0.882   7.670 -1.4929  2.0611 -0.3267
 1794SOL    HW216845   1.713   0.946   7.593 -0.0451 -2.2520 -0.1708
 1795SOL     OW16846   2.108   2.565   5.018 -0.4255 -0.9008 -0.1351
 1795SOL    HW116847   2.109   2.655   4.983 -0.9791 -1.5954 -1.9673
 1795SOL    HW216848   2.142   2.510   4.947  1.3787  0.8293 -0.6312
 1796SOL     OW16849   4.584   4.236   8.396  0.3716 -0.4582 -0.2079
 1796SOL    HW116850   4.624   4.239   8.482  2.0633 -0.1519 -1.0088
 1796SOL    HW216851   4.508   4.179   8.408  1.4742 -1.9291 -0.3312
 1797SOL     OW16852   1.403   1.345   6.808  0.3397 -0.4029  0.2248
 1797SOL    HW116853   1.378   1.321   6.719 -0.8579  0.8289  0.2269
 1797SOL    HW216854   1.393   1.262   6.855  1.2425  0.9832  2.8943
 1798SOL     OW16855   3.981   0.202   1.453 -0.3338  0.1605  0.0825
 1798SOL    HW116856   4.006   0.202   1.545 -0.4236 -0.6427  0.1112
 1798SOL    HW216857   3.902   0.256   1.462 -0.7407 -0.3910 -0.1917
 1799SOL     OW16858   4.667   1.198  12.780 -0.0971  0.0099  0.3428
 1799SOL    HW116859   0.005   1.133  12.748 -1.6207 -2.4635  2.4639
 1799SOL    HW216860   0.005   1.266  12.806  0.8365 -0.3606 -0.9307
 1800SOL     OW16861   2.726   1.595   7.263 -0.9917 -0.7543  0.5047
 1800SOL    HW116862   2.757   1.684   7.244  1.4179 -1.9215 -1.1388
 1800SOL    HW216863   2.810   1.550   7.248 -0.8793 -0.5535  0.5325
 1801SOL     OW16864   2.662   1.445  17.478 -0.1757 -0.0117 -0.0871
 1801SOL    HW116865   2.612   1.505  17.533  0.4181  1.7910 -1.5029
 1801SOL    HW216866   2.737   1.428  17.535 -0.6200  0.5489  0.6546
 1802SOL     OW16867   4.630   2.016   9.104  0.2841  0.1876 -0.6252
 1802SOL    HW116868   4.692   1.965   9.052  0.0669  0.6759 -1.3554
 1802SOL    HW216869   4.614   1.965   9.183  0.8612  0.8508 -0.0788
 1803SOL     OW16870   1.677   0.242   2.896 -0.0061  0.3847  0.6612
 1803SOL    HW116871   1.693   0.194   2.977  2.4929  0.6750  0.3420
 1803SOL    HW216872   1.763   0.279   2.874 -2.0912  3.0886 -3.0368
 1804SOL     OW16873   4.633   4.630   9.586 -0.4264  0.0002  0.0292
 1804SOL    HW116874   4.544   4.594   9.584  0.6821 -2.7161 -0.6345
 1804SOL    HW216875   4.687   4.564   9.629  0.7325  1.1811  0.3805
 1805SOL     OW16876   0.465   0.189   8.780  0.1688  0.0610 -0.0061
 1805SOL    HW116877   0.407   0.260   8.755 -0.2837 -0.5007 -0.5710
 1805SOL    HW216878   0.519   0.180   8.702  2.3708  2.4697  1.2666
 1806SOL     OW16879   2.671   1.953   0.333 -0.1214  0.1754  0.2932
 1806SOL    HW116880   2.673   1.915   0.246 -0.7519  3.4325 -1.1582
 1806SOL    HW216881   2.734   1.902   0.383  0.3607  1.3824  0.9264
 1807SOL     OW16882   0.526   4.419   6.498  0.1182  0.3978  0.2283
 1807SOL    HW116883   0.578   4.442   6.575  1.2612 -1.7976  0.1056
 1807SOL    HW216884   0.484   4.503   6.482 -2.5710 -1.2438 -1.2533
 1808SOL     OW16885   4.211   4.566   7.034  0.1113  0.1782 -0.3583
 1808SOL    HW116886   4.196   4.599   7.123  1.1605 -0.4699  0.0615
 1808SOL    HW216887   4.281   4.506   7.060 -1.0525 -1.2098 -0.4220
 1809SOL     OW16888   3.364   4.151   6.352  0.4384  0.0053  0.2591
 1809SOL    HW116889   3.436   4.087   6.351 -1.3730 -2.0291 -0.5423
 1809SOL    HW216890   3.397   4.202   6.278  1.1646  2.4353  2.2684
 1810SOL     OW16891   4.006   2.450   4.371 -0.5373 -0.2835  0.4488
 1810SOL    HW116892   4.019   2.533   4.326  0.8546 -0.8280 -0.1573
 1810SOL    HW216893   4.036   2.380   4.313 -2.6500 -0.6312 -0.2377
 1811SOL     OW16894   3.304   1.002  10.459 -0.8194 -0.0669 -0.0415
 1811SOL    HW116895   3.305   1.079  10.402  1.3462  0.0584  0.1715
 1811SOL    HW216896   3.383   0.964  10.422  0.1194  1.2944  0.5835
 1812SOL     OW16897   3.754   3.950   9.932  0.1333 -0.4724 -0.9222
 1812SOL    HW116898   3.676   3.976   9.981 -0.9468 -2.6392 -1.5101
 1812SOL    HW216899   3.771   3.863   9.970  1.7838 -0.1652 -0.9300
 1813SOL     OW16900   1.850   3.744   9.005  0.5439  0.1753  0.4452
 1813SOL    HW116901   1.883   3.808   9.068  1.1971  1.9480 -1.6964
 1813SOL    HW216902   1.792   3.690   9.058  0.5919 -2.9358 -2.7099
 1814SOL     OW16903   2.948   3.431   2.241  0.7831 -0.2268  0.0903
 1814SOL    HW116904   2.856   3.431   2.214  1.3084 -2.4883 -1.6737
 1814SOL    HW216905   2.943   3.424   2.337  2.2425 -1.5562  0.0665
 1815SOL     OW16906   2.583   3.687  14.469  0.0767  0.9561  0.0084
 1815SOL    HW116907   2.659   3.730  14.430  1.5917 -1.1681  0.5791
 1815SOL    HW216908   2.624   3.618  14.522 -1.7946 -0.2948 -0.1686
 1816SOL     OW16909   2.117   4.650   8.822 -0.3285  0.2504  0.0182
 1816SOL    HW116910   2.135   4.669   8.914  0.9094 -1.7023  0.1838
 1816SOL    HW216911   2.160   4.564   8.820 -0.1281  0.3621 -0.6154
 1817SOL     OW16912   3.592   2.850  12.440 -0.0744 -0.1883 -0.0094
 1817SOL    HW116913   3.639   2.828  12.360  1.2034  0.0440  0.6795
 1817SOL    HW216914   3.511   2.890  12.408  0.4403  0.7883 -0.0819
 1818SOL     OW16915   2.165   1.038   4.338 -0.2107 -0.1203 -0.5543
 1818SOL    HW116916   2.236   0.986   4.375 -2.1890 -2.6528 -0.2994
 1818SOL    HW216917   2.195   1.059   4.250  0.2031 -2.0641 -0.8572
 1819SOL     OW16918   3.891   2.463  16.267  0.4672  0.2229  0.1660
 1819SOL    HW116919   3.893   2.479  16.173 -0.4061 -0.4249  0.0421
 1819SOL    HW216920   3.943   2.536  16.299 -0.2827  0.1177  1.6122
 1820SOL     OW16921   1.334   2.716   1.911  0.1811 -0.4319 -0.0617
 1820SOL    HW116922   1.276   2.790   1.892 -1.7152 -1.0042  3.5905
 1820SOL    HW216923   1.272   2.642   1.913  2.4111 -2.2585  1.6664
 1821SOL     OW16924   2.330   3.278   5.797  0.8972  0.0937  0.0326
 1821SOL    HW116925   2.381   3.253   5.874 -0.9029  0.1710  1.2203
 1821SOL    HW216926   2.395   3.287   5.727  0.6207 -1.7793 -0.4640
 1822SOL     OW16927   1.805   3.999   6.589  0.0067 -0.3249 -0.3280
 1822SOL    HW116928   1.831   3.914   6.625 -1.2517 -0.5995 -0.0686
 1822SOL    HW216929   1.754   3.972   6.512 -2.2542 -1.1079  1.4401
 1823SOL     OW16930   4.323   0.175   9.434  0.8822 -0.2714  0.0760
 1823SOL    HW116931   4.412   0.194   9.463  0.6805 -1.6257  1.5615
 1823SOL    HW216932   4.325   0.199   9.341  1.3423 -1.6384 -0.2560
 1824SOL     OW16933   0.886   0.293   1.545  0.1307  0.0472 -0.1510
 1824SOL    HW116934   0.921   0.238   1.475 -0.9574 -0.8074 -0.0190
 1824SOL    HW216935   0.942   0.369   1.527  1.2862 -0.9907 -0.9777
 1825SOL     OW16936   0.726   4.592  10.173  0.1457  0.1142  0.3247
 1825SOL    HW116937   0.727   4.503  10.137  1.4504  0.7223 -1.1409
 1825SOL    HW216938   0.644   4.589  10.222 -0.2959  1.6519 -0.3412
 1826SOL     OW16939   1.450   0.764  11.344 -0.4101 -0.3505  0.3482
 1826SOL    HW116940   1.377   0.824  11.328 -0.5545 -0.2737  1.2459
 1826SOL    HW216941   1.481   0.797  11.428 -2.5049 -0.3469  1.1312
 1827SOL     OW16942   1.433   2.801  12.277 -0.1867  0.3268  1.2259
 1827SOL    HW116943   1.344   2.790  12.243 -0.4764  1.1300  1.7244
 1827SOL    HW216944   1.396   2.761  12.356  0.7710 -0.4852  1.2652
 1828SOL     OW16945   0.799   1.676   2.891 -0.3387 -0.6503 -0.0421
 1828SOL    HW116946   0.718   1.710   2.853  0.1418  0.2247 -0.2735
 1828SOL    HW216947   0.875   1.709   2.844 -0.6571  0.1170 -0.0180
 1829SOL     OW16948   0.448   1.354  14.078 -0.3755  0.2449 -0.3379
 1829SOL    HW116949   0.518   1.419  14.078  0.1868 -0.3676 -1.6218
 1829SOL    HW216950   0.446   1.325  14.169 -0.5562  0.3189 -0.3179
 1830SOL     OW16951   4.673   2.950  10.053  0.2082  0.0137  0.4284
 1830SOL    HW116952   4.622   2.969   9.974  1.6957 -0.3732 -0.6326
 1830SOL    HW216953   0.028   2.911  10.016 -0.2835 -0.3169 -0.2689
 1831SOL     OW16954   2.679   1.847   4.863  0.1886  0.1185  0.5947
 1831SOL    HW116955   2.707   1.761   4.831  1.8193  1.1802 -0.9101
 1831SOL    HW216956   2.599   1.859   4.812 -0.4150 -0.8476  1.3230
 1832SOL     OW16957   1.998   3.050  10.918  0.0562  1.0132 -0.1373
 1832SOL    HW116958   1.939   3.099  10.975 -0.3919  2.0563 -1.4797
 1832SOL    HW216959   1.977   2.959  10.938  1.4091  0.8047  0.3330
 1833SOL     OW16960   1.238   2.847   7.239 -0.3310 -0.2650 -0.8077
 1833SOL    HW116961   1.323   2.806   7.252  0.6524  2.5487  1.5846
 1833SOL    HW216962   1.181   2.778   7.205 -0.9894 -0.7514  1.3006
 1834SOL     OW16963   0.200   0.082  12.766 -0.0827 -0.3456  0.1018
 1834SOL    HW116964   0.277   0.037  12.799 -0.0711 -0.3425  0.0785
 1834SOL    HW216965   0.242   0.127  12.693  0.0235  1.4798  1.2739
 1835SOL     OW16966   0.047   4.298   7.397 -0.1571  0.5919  0.0532
 1835SOL    HW116967   0.097   4.226   7.436  2.5207  2.4684  0.0720
 1835SOL    HW216968   0.003   4.230   7.346  0.0969 -0.6966  1.5399
 1836SOL     OW16969   1.773   2.932   5.129 -0.5152 -0.1264  0.4925
 1836SOL    HW116970   1.781   2.837   5.118  1.0132  0.0812 -0.1699
 1836SOL    HW216971   1.848   2.967   5.178  0.2049  0.2197 -0.8834
 1837SOL     OW16972   2.020   2.760   4.474  0.3597 -0.0630  0.1044
 1837SOL    HW116973   2.011   2.842   4.523 -0.0926 -1.0819  1.7172
 1837SOL    HW216974   2.093   2.786   4.417 -0.0545  1.2287  0.1543
 1838SOL     OW16975   3.032   4.552   7.891  0.1624 -0.3836  0.1971
 1838SOL    HW116976   3.020   4.641   7.858 -1.0792  0.2893  2.5312
 1838SOL    HW216977   3.125   4.554   7.914 -0.1841 -0.9254  1.6458
 1839SOL     OW16978   0.889   4.286   7.882  0.5645  0.1022  0.8569
 1839SOL    HW116979   0.971   4.245   7.911  0.1915 -0.6635  0.8276
 1839SOL    HW216980   0.860   4.307   7.971 -1.7130 -1.0352  0.3749
 1840SOL     OW16981   0.782   3.152  16.245 -0.0738 -0.2167 -0.0627
 1840SOL    HW116982   0.756   3.067  16.281 -1.1033 -0.1419 -0.6450
 1840SOL    HW216983   0.872   3.150  16.277  0.3709 -1.5368 -1.4087
 1841SOL     OW16984   3.712   0.953   4.223 -0.6344  0.5872  0.1945
 1841SOL    HW116985   3.775   0.893   4.184  0.8990  1.9196  0.6494
 1841SOL    HW216986   3.722   1.033   4.173  0.4995  0.2976 -0.0283
 1842SOL     OW16987   2.023   1.256  14.793 -0.6070 -0.2614  0.0114
 1842SOL    HW116988   2.056   1.328  14.739 -2.1139  1.2287  1.0686
 1842SOL    HW216989   2.091   1.257  14.860 -1.0497 -1.7183  0.4801
 1843SOL     OW16990   0.832   1.678   1.837 -0.3117 -0.5017 -0.3366
 1843SOL    HW116991   0.894   1.746   1.866 -0.3389 -0.3754 -0.5757
 1843SOL    HW216992   0.758   1.733   1.813 -0.5532 -0.4656  0.4732
 1844SOL     OW16993   1.623   1.788   8.942 -0.3439 -0.4632  0.0264
 1844SOL    HW116994   1.626   1.693   8.931  1.3090 -0.4362  0.1821
 1844SOL    HW216995   1.533   1.805   8.969 -0.6740 -1.2693 -0.5894
 1845SOL     OW16996   1.220   3.232  12.308  0.2616 -0.1432 -0.2275
 1845SOL    HW116997   1.177   3.317  12.313  2.4915  0.9970 -0.3829
 1845SOL    HW216998   1.297   3.239  12.364 -0.4566 -3.3280  1.1639
 1846SOL     OW16999   1.404   2.426   4.103  0.4307  0.1375  0.4649
 1846SOL    HW117000   1.341   2.468   4.044 -0.1775  0.0860  1.0757
 1846SOL    HW217001   1.400   2.331   4.089  3.4052  0.0455  0.3048
 1847SOL     OW17002   1.338   1.968  11.366  0.3394  0.0619  0.1297
 1847SOL    HW117003   1.264   2.027  11.379  0.3736  0.4235 -1.3252
 1847SOL    HW217004   1.297   1.911  11.301  1.1218  0.0185 -0.3254
 1848SOL     OW17005   0.379   2.151   8.314  0.1772  0.1146 -0.0152
 1848SOL    HW117006   0.410   2.132   8.225  1.7072 -1.2176  0.8083
 1848SOL    HW217007   0.464   2.156   8.359  0.0464  2.3749  0.0075
 1849SOL     OW17008   3.421   3.790  16.357  0.0514 -0.0956  0.6360
 1849SOL    HW117009   3.463   3.706  16.372  0.2947 -0.2412 -0.8799
 1849SOL    HW217010   3.491   3.838  16.311  0.0188  0.8535  1.5758
 1850SOL     OW17011   1.131   2.124   2.381  0.3398  0.2653  0.2523
 1850SOL    HW117012   1.125   2.119   2.286  1.3998  0.4211  0.1748
 1850SOL    HW217013   1.047   2.085   2.405 -0.2143  0.6799 -1.0224
 1851SOL     OW17014   2.148   1.588  13.246 -0.0569 -0.1245 -0.0483
 1851SOL    HW117015   2.185   1.672  13.274 -1.4033  0.5209 -0.2247
 1851SOL    HW217016   2.197   1.527  13.301 -0.8603 -0.1992  0.5710
 1852SOL     OW17017   1.572   3.904  11.066 -0.0780 -0.1706 -0.5116
 1852SOL    HW117018   1.666   3.892  11.071 -0.0462 -0.8967 -2.6397
 1852SOL    HW217019   1.546   3.931  11.154 -2.3095 -3.9347 -0.0401
 1853SOL     OW17020   1.360   0.006  11.663  0.1358 -0.3965  0.5020
 1853SOL    HW117021   1.406   4.676  11.727  0.3395 -1.7540 -0.8034
 1853SOL    HW217022   1.403   0.088  11.686  0.2938 -0.3560  0.0633
 1854SOL     OW17023   2.450   4.534   7.260  0.3071  0.5056 -0.3561
 1854SOL    HW117024   2.441   4.629   7.255 -0.2198  0.4637 -0.1852
 1854SOL    HW217025   2.368   4.511   7.304  0.6198 -1.1366 -0.6404
 1855SOL     OW17026   4.663   0.962   8.299  0.0297 -0.1987  0.1012
 1855SOL    HW117027   0.017   0.908   8.307  0.0622 -0.3799 -1.4847
 1855SOL    HW217028   4.646   0.964   8.393 -1.8178  0.5809 -0.2460
 1856SOL     OW17029   1.182   0.869   8.966 -0.4485 -0.2005  0.0304
 1856SOL    HW117030   1.276   0.869   8.949 -0.7949  0.8984 -1.8563
 1856SOL    HW217031   1.168   0.797   9.028 -0.9767 -0.7902 -0.7572
 1857SOL     OW17032   2.402   4.125  10.534  0.8448 -0.3365 -0.2076
 1857SOL    HW117033   2.433   4.092  10.619  1.9127  1.4257  0.0931
 1857SOL    HW217034   2.404   4.220  10.546 -3.2233 -0.0544 -1.8538
 1858SOL     OW17035   4.666   3.580   3.810 -0.3465  0.4336 -0.3495
 1858SOL    HW117036   0.031   3.592   3.843  0.4443 -0.3236 -2.2301
 1858SOL    HW217037   4.681   3.498   3.764 -3.1424 -0.5735  0.5347
 1859SOL     OW17038   3.458   4.428   2.887  0.2222 -0.1759 -0.7229
 1859SOL    HW117039   3.490   4.515   2.911 -1.7523 -0.0031  1.3630
 1859SOL    HW217040   3.370   4.455   2.858  0.0341 -0.7498 -0.6892
 1860SOL     OW17041   1.882   4.419   8.919 -0.2912  0.4984  0.3847
 1860SOL    HW117042   1.930   4.368   8.984 -0.5863  0.5919  0.6756
 1860SOL    HW217043   1.916   4.508   8.928 -0.6246  0.5292  1.2317
 1861SOL     OW17044   0.357   4.341   4.463  0.0427 -0.3141 -0.2485
 1861SOL    HW117045   0.305   4.418   4.438 -0.0763 -0.0053  0.9576
 1861SOL    HW217046   0.322   4.330   4.551 -0.0942  1.8564 -0.0390
 1862SOL     OW17047   2.574   1.536   2.997 -0.5248 -0.0468  0.0111
 1862SOL    HW117048   2.582   1.468   3.064 -2.6140  0.8982  1.2537
 1862SOL    HW217049   2.581   1.479   2.921 -0.7506  1.9608 -1.5124
 1863SOL     OW17050   2.183   0.515   6.659 -0.5963  0.0887  0.6049
 1863SOL    HW117051   2.205   0.433   6.702  0.1753 -0.2341 -0.4000
 1863SOL    HW217052   2.217   0.505   6.570 -0.6016  0.6140  0.5452
 1864SOL     OW17053   3.482   3.910   6.037 -0.0027 -0.5099 -0.0126
 1864SOL    HW117054   3.440   3.945   5.959 -1.5475  0.0788  1.0722
 1864SOL    HW217055   3.415   3.930   6.102  0.5074 -0.2524  0.4415
 1865SOL     OW17056   1.887   1.610   1.804 -0.0624  0.3401  0.2219
 1865SOL    HW117057   1.823   1.583   1.870 -0.3254 -0.2180 -0.2658
 1865SOL    HW217058   1.950   1.643   1.869 -0.1168 -0.0025  0.4490
 1866SOL     OW17059   1.191   3.312  16.163  0.5422 -0.3979  0.2110
 1866SOL    HW117060   1.163   3.357  16.083  1.1235  0.0290  0.2497
 1866SOL    HW217061   1.260   3.265  16.115  1.9243  1.1799  0.6470
 1867SOL     OW17062   1.146   2.246  15.858  0.1285 -0.5609  0.0540
 1867SOL    HW117063   1.079   2.208  15.802 -2.2105  2.3525  0.8527
 1867SOL    HW217064   1.143   2.331  15.814 -1.8609 -1.8567 -2.3201
 1868SOL     OW17065   1.253   0.951   0.304 -0.2097  0.0467  0.4975
 1868SOL    HW117066   1.184   0.937   0.368  1.4553 -3.9121  1.4148
 1868SOL    HW217067   1.197   0.980   0.232  1.1843  0.4835 -0.4082
 1869SOL     OW17068   2.828   2.169  13.965 -0.2750 -0.1182 -0.4247
 1869SOL    HW117069   2.869   2.251  13.938 -0.5215 -0.2806 -1.2958
 1869SOL    HW217070   2.800   2.189  14.054  1.1730 -0.9219  0.2038
 1870SOL     OW17071   2.685   4.390   3.435 -0.7383  0.4969  0.0883
 1870SOL    HW117072   2.693   4.458   3.502 -0.9839  0.6882 -0.0757
 1870SOL    HW217073   2.612   4.349   3.481 -1.9713  0.4559 -1.8914
 1871SOL     OW17074   4.042   1.893   4.178  0.0089 -0.4867 -0.0868
 1871SOL    HW117075   4.113   1.905   4.241 -0.3851 -2.0841  0.6715
 1871SOL    HW217076   4.085   1.824   4.128  0.1198 -1.1610  0.9249
 1872SOL     OW17077   3.790   2.876   6.389 -0.3091  0.6496 -0.2222
 1872SOL    HW117078   3.806   2.970   6.400  0.1413  0.6586 -1.0253
 1872SOL    HW217079   3.784   2.868   6.294  1.4732  0.4548 -0.3102
 1873SOL     OW17080   0.003   1.417   5.895  0.2814 -0.3356  0.1597
 1873SOL    HW117081   4.705   1.384   5.982  1.3123 -2.3113 -0.3030
 1873SOL    HW217082   4.648   1.469   5.880 -0.0357 -0.6711  0.6738
 1874SOL     OW17083   3.368   3.577   5.011  0.1439  0.1392 -0.1575
 1874SOL    HW117084   3.452   3.623   5.018  0.5683 -0.4548 -1.2590
 1874SOL    HW217085   3.374   3.549   4.920 -0.4651 -1.8105  0.4003
 1875SOL     OW17086   0.238   1.606   9.063 -0.3589 -0.2735  0.2355
 1875SOL    HW117087   0.271   1.691   9.092  1.0987 -0.1492 -1.7615
 1875SOL    HW217088   0.175   1.591   9.133 -0.7170 -2.1642 -0.4824
 1876SOL     OW17089   1.651   4.435  17.047 -0.2175 -0.2365  0.0638
 1876SOL    HW117090   1.615   4.351  17.074  3.4688 -1.8686 -0.0967
 1876SOL    HW217091   1.718   4.441  17.115 -0.3651  1.2572  0.0744
 1877SOL     OW17092   2.236   0.492   1.618  0.3627 -0.1916 -0.1691
 1877SOL    HW117093   2.188   0.542   1.552  0.9666 -0.3048 -0.6907
 1877SOL    HW217094   2.210   0.402   1.602 -0.1652  0.6014 -3.7558
 1878SOL     OW17095   0.636   3.217   7.048  0.1931 -0.2944 -0.0150
 1878SOL    HW117096   0.571   3.285   7.030  1.3487  0.0469 -2.9682
 1878SOL    HW217097   0.645   3.187   6.957 -0.1104 -1.2946  0.2893
 1879SOL     OW17098   3.962   0.101   6.968 -0.3934  0.2427  0.4571
 1879SOL    HW117099   3.913   0.167   6.919  0.9448 -0.9712 -2.5151
 1879SOL    HW217100   4.041   0.107   6.914  0.4066 -0.4027  1.5652
 1880SOL     OW17101   0.517   4.092   3.737  0.1809 -0.0697 -0.4195
 1880SOL    HW117102   0.523   4.161   3.803 -2.6691 -0.3534  0.1552
 1880SOL    HW217103   0.513   4.020   3.799 -0.5785 -0.6218 -1.1077
 1881SOL     OW17104   1.011   3.080   2.272  0.3936  0.5206 -0.7814
 1881SOL    HW117105   0.930   3.126   2.293 -0.8287 -1.8849 -0.2264
 1881SOL    HW217106   0.971   2.995   2.252 -0.7977  0.5989  1.2494
 1882SOL     OW17107   3.895   3.529   0.621  0.0112 -0.3306  0.0311
 1882SOL    HW117108   3.809   3.537   0.662 -0.0471 -0.5124 -0.0534
 1882SOL    HW217109   3.906   3.439   0.589 -1.2890  0.2195 -1.9634
 1883SOL     OW17110   4.634   3.548   7.734  0.1237 -0.2352 -0.3209
 1883SOL    HW117111   4.590   3.620   7.780  1.2040 -0.0797  0.4741
 1883SOL    HW217112   4.605   3.566   7.644 -1.2713  0.9355  0.3611
 1884SOL     OW17113   1.491   1.261   4.944 -0.2222  0.5716  0.6205
 1884SOL    HW117114   1.397   1.253   4.960 -0.2333  1.3764  0.9474
 1884SOL    HW217115   1.513   1.349   4.913 -0.5182  0.3186 -0.2902
 1885SOL     OW17116   0.181   0.433   1.913  0.0044  0.3948 -0.0655
 1885SOL    HW117117   0.096   0.407   1.949  0.7715  2.0058  2.9663
 1885SOL    HW217118   0.160   0.458   1.824 -0.4417 -0.3041 -0.1620
 1886SOL     OW17119   3.342   3.087  16.494 -0.0013 -0.4725  0.0322
 1886SOL    HW117120   3.405   3.016  16.484  0.8245  0.0454  1.6054
 1886SOL    HW217121   3.269   3.035  16.529 -0.4675 -0.3769 -0.8082
 1887SOL     OW17122   0.784   2.022   7.969 -0.0245 -0.0124  0.0767
 1887SOL    HW117123   0.739   2.104   7.991  0.6933 -0.6744  3.9292
 1887SOL    HW217124   0.729   2.001   7.894 -0.2800  0.5579  0.1005
 1888SOL     OW17125   4.207   2.293   5.850 -0.3893 -0.3553 -0.2434
 1888SOL    HW117126   4.185   2.309   5.759 -0.0804 -2.2822 -0.6706
 1888SOL    HW217127   4.134   2.326   5.902  0.6405 -1.2751  1.7805
 1889SOL     OW17128   4.322   2.853   6.052 -0.0912  0.3320  0.2457
 1889SOL    HW117129   4.254   2.902   6.099 -0.1090  1.5741 -1.0893
 1889SOL    HW217130   4.262   2.811   5.992 -0.4611 -0.0161  0.8619
 1890SOL     OW17131   0.924   2.199  15.737  0.3498 -0.2558 -0.5223
 1890SOL    HW117132   0.925   2.253  15.658 -0.6136  1.3798  0.5785
 1890SOL    HW217133   0.838   2.216  15.774  0.5256  0.6823 -0.5382
 1891SOL     OW17134   0.797   1.058  17.346 -0.3338 -0.4748  0.3044
 1891SOL    HW117135   0.759   1.070  17.259  1.3449  2.1229 -0.0731
 1891SOL    HW217136   0.879   1.022  17.312  2.7025  2.6521  4.2925
 1892SOL     OW17137   2.971   3.483   7.666  0.0274 -0.1205 -0.8256
 1892SOL    HW117138   2.932   3.567   7.689  0.5528  0.2609 -1.3523
 1892SOL    HW217139   2.917   3.460   7.590  0.0012  1.5305 -1.2987
 1893SOL     OW17140   2.143   0.488  12.115 -0.1270  0.7975  0.3217
 1893SOL    HW117141   2.188   0.538  12.047 -0.7533  0.5422 -0.2712
 1893SOL    HW217142   2.052   0.516  12.116  0.4367  2.6961  0.0836
 1894SOL     OW17143   1.714   2.114  16.430 -0.2827  0.0731 -0.2350
 1894SOL    HW117144   1.725   2.040  16.371 -0.0992  0.8779 -1.2110
 1894SOL    HW217145   1.697   2.184  16.366 -0.2218  0.4808  0.1951
 1895SOL     OW17146   4.473   1.156   5.663  0.4357 -0.3363  0.2796
 1895SOL    HW117147   4.423   1.230   5.698 -0.1522 -0.4931 -0.2351
 1895SOL    HW217148   4.509   1.196   5.583  2.1024  0.0131  1.1824
 1896SOL     OW17149   2.323   3.601   5.280 -0.1509 -0.0531  0.4314
 1896SOL    HW117150   2.394   3.570   5.224 -0.3601 -1.0002  0.6966
 1896SOL    HW217151   2.385   3.627   5.348  0.8719 -0.5718 -0.2943
 1897SOL     OW17152   3.368   4.116  16.396 -0.3817 -0.3324 -0.2495
 1897SOL    HW117153   3.371   4.105  16.491 -3.6997  0.5811 -0.0304
 1897SOL    HW217154   3.393   4.029  16.366 -0.3567  0.3530 -2.2768
 1898SOL     OW17155   2.050   3.502  14.610  0.2546  0.1270 -0.1787
 1898SOL    HW117156   1.980   3.510  14.545 -0.2835 -0.3739  0.3379
 1898SOL    HW217157   2.029   3.428  14.668 -1.5179  0.6130 -0.1925
 1899SOL     OW17158   2.761   3.464  13.002 -0.4722 -0.5806 -0.1532
 1899SOL    HW117159   2.700   3.537  13.014  0.4359  0.5817 -2.4316
 1899SOL    HW217160   2.809   3.500  12.927  0.3054 -0.2593  0.4983
 1900SOL     OW17161   1.052   1.986   7.947  0.0343 -0.4146  0.1943
 1900SOL    HW117162   1.035   1.902   7.990 -1.0614  0.2248  1.0216
 1900SOL    HW217163   0.967   2.030   7.940 -0.2011 -0.8443  0.3345
 1901SOL     OW17164   4.159   0.639   0.363  0.3251  0.1971 -0.5729
 1901SOL    HW117165   4.237   0.649   0.309 -1.4364 -0.9328 -3.3462
 1901SOL    HW217166   4.166   0.544   0.366 -0.4939  0.2201  1.7165
 1902SOL     OW17167   0.172   4.633   2.207  0.0556 -0.3197  0.0848
 1902SOL    HW117168   0.158   4.697   2.138 -0.8980 -2.0637 -1.3338
 1902SOL    HW217169   0.151   4.685   2.284  0.2228 -1.0006  0.5948
 1903SOL     OW17170   0.662   1.866  14.357 -0.2168 -0.6466  0.4657
 1903SOL    HW117171   0.682   1.782  14.398 -0.9894 -0.3354  1.4759
 1903SOL    HW217172   0.751   1.895  14.337 -0.9237  1.4779  0.4031
 1904SOL     OW17173   1.957   4.298   9.197 -0.2016 -0.0588  0.0466
 1904SOL    HW117174   1.993   4.286   9.284  2.2314  1.1315 -0.7836
 1904SOL    HW217175   2.032   4.336   9.150 -1.1632 -1.2978 -2.4821
 1905SOL     OW17176   4.608   0.500  16.321  0.1964 -0.0585 -0.5710
 1905SOL    HW117177   4.702   0.482  16.327 -0.1428 -1.0934  1.7177
 1905SOL    HW217178   4.612   0.551  16.240  1.7031  0.5441 -0.1179
 1906SOL     OW17179   0.196   3.952   1.125 -0.3190  0.0294  0.4615
 1906SOL    HW117180   0.175   3.880   1.184  1.3733 -0.9887 -0.1723
 1906SOL    HW217181   0.278   3.979   1.165  0.8978 -1.3920 -1.0706
 1907SOL     OW17182   0.910   3.209   6.263  0.4786  0.0031 -0.1805
 1907SOL    HW117183   0.992   3.160   6.267  0.3903  0.1405  3.2070
 1907SOL    HW217184   0.950   3.286   6.304  1.9251 -1.5248  1.2836
 1908SOL     OW17185   3.497   3.516  17.160  0.0475  0.5757  0.5271
 1908SOL    HW117186   3.578   3.492  17.205  0.8631  0.2825 -1.0970
 1908SOL    HW217187   3.526   3.523  17.070  0.4054  0.4217  0.6318
 1909SOL     OW17188   3.190   2.351   4.991 -0.7521 -0.7923 -0.1825
 1909SOL    HW117189   3.196   2.275   4.932 -3.0682 -0.5905 -0.6670
 1909SOL    HW217190   3.109   2.336   5.039 -1.0504  0.7314 -0.2215
 1910SOL     OW17191   4.036   3.923   5.612  0.4335 -0.0484  0.4020
 1910SOL    HW117192   4.071   3.886   5.530 -0.5563 -2.4271  1.0801
 1910SOL    HW217193   4.063   3.857   5.675  2.9901  0.4107 -0.1838
 1911SOL     OW17194   2.943   3.126  16.570  0.0409 -0.0061 -0.3167
 1911SOL    HW117195   2.905   3.072  16.500 -0.8048  0.8917 -0.5533
 1911SOL    HW217196   2.955   3.055  16.633  0.5818  0.3936  0.0211
 1912SOL     OW17197   4.452   3.012   2.235 -0.4577 -0.7094 -0.2340
 1912SOL    HW117198   4.439   2.918   2.220  1.0964 -1.0518  0.5840
 1912SOL    HW217199   4.361   3.037   2.251 -1.4511 -3.5984 -1.1936
 1913SOL     OW17200   3.781   2.430   1.132  0.0171 -0.1288  0.1821
 1913SOL    HW117201   3.834   2.396   1.059 -2.6597 -2.0820 -0.8715
 1913SOL    HW217202   3.787   2.521   1.103  1.9314 -0.3230 -0.0185
 1914SOL     OW17203   2.645   2.047   4.643 -0.2734 -0.3254 -0.2530
 1914SOL    HW117204   2.653   2.085   4.731 -2.4708 -0.8597  0.1906
 1914SOL    HW217205   2.703   2.107   4.596  0.9774 -1.1909  0.1849
 1915SOL     OW17206   3.199   4.471   1.714 -0.5618  0.2779  0.5381
 1915SOL    HW117207   3.223   4.490   1.624  1.2244 -0.3880  0.8899
 1915SOL    HW217208   3.125   4.532   1.721 -0.9323  0.0523 -1.6499
 1916SOL     OW17209   2.385   1.940   3.710  0.3524  0.4106 -0.2171
 1916SOL    HW117210   2.408   1.853   3.744  0.5156  1.1100  1.4611
 1916SOL    HW217211   2.296   1.922   3.679 -0.3274 -0.0576  1.9652
 1917SOL     OW17212   3.481   4.242  11.301 -0.0265 -0.3643  0.5255
 1917SOL    HW117213   3.494   4.225  11.395 -1.1630 -0.0112  0.7502
 1917SOL    HW217214   3.562   4.287  11.277 -0.4553  1.0162  1.6498
 1918SOL     OW17215   1.751   4.268   8.742  0.3696  1.1015 -0.2205
 1918SOL    HW117216   1.778   4.184   8.780 -1.8400 -0.3523 -1.8454
 1918SOL    HW217217   1.781   4.326   8.812 -1.3557  0.1475  1.3035
 1919SOL     OW17218   4.470   0.154   6.535 -0.1549  0.0018  0.4191
 1919SOL    HW117219   4.458   0.200   6.618  2.5789 -0.5100  1.1211
 1919SOL    HW217220   4.546   0.097   6.548 -0.2550  0.0995  1.4724
 1920SOL     OW17221   2.609   3.249   3.343  0.5557  0.1365 -0.1546
 1920SOL    HW117222   2.604   3.300   3.262 -0.1906 -0.2951 -0.3792
 1920SOL    HW217223   2.628   3.161   3.310  2.5451  0.9014 -1.0635
 1921SOL     OW17224   1.753   2.798   8.427 -0.1384 -0.3399 -1.3629
 1921SOL    HW117225   1.818   2.797   8.496 -0.1693  0.6764 -1.3318
 1921SOL    HW217226   1.678   2.838   8.471  0.0916 -2.0116  0.5685
 1922SOL     OW17227   2.491   2.787  17.070 -0.6540 -0.0198 -0.6134
 1922SOL    HW117228   2.420   2.796  17.134 -0.7234  1.4761 -0.9050
 1922SOL    HW217229   2.493   2.871  17.024  0.6283  1.2930  1.7559
 1923SOL     OW17230   4.246   3.476  16.683 -0.0914 -0.4315  0.0793
 1923SOL    HW117231   4.299   3.551  16.712 -0.3918 -0.2604  0.1959
 1923SOL    HW217232   4.187   3.514  16.618  2.1450 -1.4165 -2.5097
 1924SOL     OW17233   2.924   1.946   8.378  0.2120 -0.3252  0.8032
 1924SOL    HW117234   2.886   2.022   8.333 -1.7073 -0.9895  1.3098
 1924SOL    HW217235   3.017   1.961   8.392  0.1520 -1.3869  2.2635
 1925SOL     OW17236   3.919   3.688   5.036 -0.0472  0.7565  0.5310
 1925SOL    HW117237   3.888   3.759   4.979 -3.1576 -1.1064 -0.1186
 1925SOL    HW217238   3.838   3.639   5.050  1.2762 -1.8535 -0.9082
 1926SOL     OW17239   0.448   2.977   5.085 -0.5898 -0.3492 -0.1490
 1926SOL    HW117240   0.358   3.002   5.104 -0.4526  2.7144 -3.6857
 1926SOL    HW217241   0.433   2.927   5.006  2.9356  0.0971 -1.0792
 1927SOL     OW17242   3.927   3.828  13.415 -0.1326  0.7359 -0.0600
 1927SOL    HW117243   3.992   3.794  13.354 -0.2583 -0.8708  0.7077
 1927SOL    HW217244   3.846   3.780  13.396  0.0590  0.1827  0.5255
 1928SOL     OW17245   4.668   0.204   5.437 -0.3944 -0.5449 -0.3096
 1928SOL    HW117246   0.024   0.156   5.420  0.2944  0.2888  0.6175
 1928SOL    HW217247   4.666   0.266   5.364 -2.3962 -0.2128  0.0238
 1929SOL     OW17248   3.307   4.679   4.278  0.4091  0.1507  0.1274
 1929SOL    HW117249   3.368   4.711   4.212 -0.0707 -0.9748 -0.8534
 1929SOL    HW217250   3.241   4.633   4.226  1.2821 -1.5288  0.4835
 1930SOL     OW17251   2.783   0.274   3.458  0.5263  0.3055 -0.1493
 1930SOL    HW117252   2.802   0.336   3.529 -0.5115 -0.4608  0.7930
 1930SOL    HW217253   2.864   0.278   3.407  0.1997 -0.9237 -0.7690
 1931SOL     OW17254   1.449   1.454   1.048 -0.0157  0.1398  0.5098
 1931SOL    HW117255   1.488   1.436   1.134  1.5566 -0.1299 -0.2797
 1931SOL    HW217256   1.443   1.550   1.053 -1.6943  0.0464  0.3441
 1932SOL     OW17257   0.882   0.148  13.345 -0.1596 -0.3114  0.2896
 1932SOL    HW117258   0.959   0.094  13.332 -1.5998 -1.4604 -3.6713
 1932SOL    HW217259   0.891   0.194  13.261  0.4659  0.9824  1.0585
 1933SOL     OW17260   4.617   2.008  16.875 -0.2631 -0.0421 -0.8089
 1933SOL    HW117261   4.589   1.960  16.797 -0.4725 -2.3353  0.7082
 1933SOL    HW217262   4.649   1.942  16.937 -0.0333  1.1445  0.3391
 1934SOL     OW17263   3.086   4.104  16.117 -0.1569 -0.6063 -0.4492
 1934SOL    HW117264   3.180   4.107  16.102  0.1961  0.7419  2.0815
 1934SOL    HW217265   3.069   4.015  16.086  1.0194 -0.2530 -2.1265
 1935SOL     OW17266   2.690   0.242  16.350  0.0985  0.7684 -0.2965
 1935SOL    HW117267   2.785   0.236  16.355 -0.0885 -1.9163  0.0087
 1935SOL    HW217268   2.678   0.319  16.407 -0.3729  1.5046 -1.3716
 1936SOL     OW17269   2.144   1.162   4.772  0.0977 -0.1545  0.2572
 1936SOL    HW117270   2.111   1.107   4.700 -2.9348 -0.0518  1.5829
 1936SOL    HW217271   2.065   1.175   4.824 -0.7885 -1.5235 -0.7634
 1937SOL     OW17272   0.098   4.322   6.175 -0.0735  0.2980  0.4881
 1937SOL    HW117273   0.094   4.242   6.123 -3.0628  0.9632 -0.2817
 1937SOL    HW217274   0.168   4.300   6.237  0.0816 -0.4932  0.0242
 1938SOL     OW17275   0.377   0.316   3.062 -0.0189 -0.1608 -0.1079
 1938SOL    HW117276   0.410   0.295   2.975  2.4391  2.2666  0.2154
 1938SOL    HW217277   0.283   0.321   3.046 -0.1940 -1.0732  0.6627
 1939SOL     OW17278   1.585   3.686   7.204  0.1441  0.0035 -0.0545
 1939SOL    HW117279   1.613   3.705   7.114 -0.0166 -0.0757 -0.1219
 1939SOL    HW217280   1.673   3.685   7.242 -0.0823  0.5929  0.4898
 1940SOL     OW17281   3.919   0.377   6.523  0.3364 -0.0883 -0.0968
 1940SOL    HW117282   3.956   0.395   6.609 -0.4622 -0.2323  0.2800
 1940SOL    HW217283   3.983   0.331   6.468  2.0292  2.2402 -0.0315
 1941SOL     OW17284   1.432   0.551   8.598 -0.2986 -0.0897 -0.6398
 1941SOL    HW117285   1.358   0.495   8.574  0.6498 -0.6568 -2.2772
 1941SOL    HW217286   1.460   0.593   8.516 -0.8975 -0.2738 -0.9405
 1942SOL     OW17287   1.473   2.810   7.534  0.1952  1.0739 -0.6152
 1942SOL    HW117288   1.431   2.784   7.617 -1.7853  1.6972 -1.4121
 1942SOL    HW217289   1.404   2.870   7.508 -0.6348 -0.0018 -0.9249
 1943SOL     OW17290   3.902   1.502   6.147  0.7969 -0.1252  0.3674
 1943SOL    HW117291   3.868   1.589   6.171 -0.9400 -0.8557  0.5613
 1943SOL    HW217292   3.916   1.465   6.234 -0.7968 -1.7757 -0.0860
 1944SOL     OW17293   1.138   3.341   7.832  0.9254  0.2154  0.2557
 1944SOL    HW117294   1.201   3.412   7.841  0.7204  0.2852  1.1832
 1944SOL    HW217295   1.062   3.384   7.871 -0.4920 -0.0328 -2.2216
 1945SOL     OW17296   0.099   2.910   1.136  0.3029  0.9400  0.4523
 1945SOL    HW117297   0.108   3.005   1.131 -1.2211  1.0139 -0.9077
 1945SOL    HW217298   0.142   2.895   1.220 -2.1121 -0.3929  1.4545
 1946SOL     OW17299   2.080   3.479  13.361 -0.3945  0.4476 -0.5160
 1946SOL    HW117300   2.137   3.499  13.287  0.3826 -0.2702 -0.1094
 1946SOL    HW217301   1.993   3.505  13.330 -0.4394  0.7396 -0.1502
 1947SOL     OW17302   3.862   3.822   2.635  0.4913  0.3029 -0.5304
 1947SOL    HW117303   3.800   3.790   2.569  0.8384 -1.8952  0.2012
 1947SOL    HW217304   3.937   3.767   2.611  1.3793  0.8505  0.9656
 1948SOL     OW17305   0.344   1.481   9.305  0.4582 -0.6298  0.1431
 1948SOL    HW117306   0.342   1.516   9.215 -2.6085 -0.3222  0.3066
 1948SOL    HW217307   0.298   1.400   9.284  1.1161 -0.5419 -1.6230
 1949SOL     OW17308   4.310   0.405   7.866  0.2470 -0.0667 -0.4302
 1949SOL    HW117309   4.282   0.479   7.812  1.8350  0.0574 -1.0815
 1949SOL    HW217310   4.222   0.368   7.879  1.2529 -2.2123  0.3337
 1950SOL     OW17311   3.537   0.211   4.337 -0.1920 -0.2414  0.4447
 1950SOL    HW117312   3.582   0.190   4.255 -1.1344 -0.5590  0.0117
 1950SOL    HW217313   3.590   0.274   4.386 -1.4427  1.6678 -0.6621
 1951SOL     OW17314   2.572   2.339  17.011  0.0348  0.1234  0.6200
 1951SOL    HW117315   2.559   2.245  17.024  0.9754 -0.0732  0.0992
 1951SOL    HW217316   2.665   2.350  17.031  0.5250 -2.6500 -0.1478
 1952SOL     OW17317   1.233   2.727   8.204  0.6980 -0.3881 -0.3890
 1952SOL    HW117318   1.270   2.815   8.212  0.3621 -0.1246 -1.7050
 1952SOL    HW217319   1.294   2.674   8.255  1.6812 -0.0663 -1.2231
 1953SOL     OW17320   1.262   4.506   6.943  0.5421  0.6250 -0.0171
 1953SOL    HW117321   1.340   4.458   6.915 -0.7331 -1.9874  0.8867
 1953SOL    HW217322   1.214   4.429   6.973 -0.9865  1.5545 -0.0566
 1954SOL     OW17323   1.949   0.483  12.570  0.4467 -0.2113 -0.3318
 1954SOL    HW117324   2.034   0.441  12.559 -0.0857 -1.0426 -1.2528
 1954SOL    HW217325   1.987   0.555  12.620  0.7319 -0.6064  0.0254
 1955SOL     OW17326   0.704   3.269  13.474  0.5856  0.7831 -0.1266
 1955SOL    HW117327   0.681   3.338  13.412 -1.6792  0.7426  0.6818
 1955SOL    HW217328   0.617   3.233  13.490  0.9008 -0.2195 -0.6270
 1956SOL     OW17329   1.468   3.788   5.587 -0.7946 -0.1053 -0.6634
 1956SOL    HW117330   1.442   3.860   5.529 -0.0349  0.7738  0.0891
 1956SOL    HW217331   1.424   3.819   5.665  1.5383  2.5905 -0.4164
 1957SOL     OW17332   4.650   1.673   6.152  0.5225  0.0451 -0.3249
 1957SOL    HW117333   4.704   1.750   6.171 -1.0777  0.9813  0.4260
 1957SOL    HW217334   4.575   1.712   6.107  0.9913  0.8496 -0.4084
 1958SOL     OW17335   0.526   1.606  14.457 -0.5291 -0.8217 -0.2406
 1958SOL    HW117336   0.606   1.593  14.507 -1.4720 -0.4311  1.3774
 1958SOL    HW217337   0.450   1.596  14.514 -0.2956 -1.9168 -0.1229
 1959SOL     OW17338   3.021   2.974   2.441 -0.0138 -0.2689  0.5322
 1959SOL    HW117339   3.078   2.913   2.396 -0.3322  0.1171 -0.4017
 1959SOL    HW217340   2.996   3.033   2.369 -2.3307  0.1577  1.6846
 1960SOL     OW17341   2.303   3.882   3.220  0.9175  0.0727 -0.2717
 1960SOL    HW117342   2.265   3.895   3.307 -0.1493 -0.5618 -0.6468
 1960SOL    HW217343   2.258   3.959   3.184 -0.4476 -0.7288 -0.2847
 1961SOL     OW17344   2.948   2.362   4.695  0.1349  0.0832  0.7467
 1961SOL    HW117345   2.916   2.343   4.783 -0.5743 -1.3520  0.1734
 1961SOL    HW217346   2.901   2.446   4.694 -1.7525 -0.9820  0.2861
 1962SOL     OW17347   2.555   0.874  17.376 -0.0096  0.5469 -0.2449
 1962SOL    HW117348   2.536   0.806  17.441 -0.1473 -0.4476 -1.3318
 1962SOL    HW217349   2.576   0.952  17.429 -0.3492 -0.8959  2.0335
 1963SOL     OW17350   1.569   0.173   4.144 -0.0534  0.0843  0.1391
 1963SOL    HW117351   1.580   0.121   4.224  1.2870  2.4213  1.4779
 1963SOL    HW217352   1.497   0.136   4.095  1.4726 -1.0344 -1.2427
 1964SOL     OW17353   1.903   1.393  16.959 -0.0881  1.0029  0.3536
 1964SOL    HW117354   1.884   1.464  16.897 -0.1754  0.2214 -0.5111
 1964SOL    HW217355   1.993   1.422  16.973  1.2510 -3.3344  0.4349
 1965SOL     OW17356   4.078   0.375  12.036  0.4003  0.0846  0.0865
 1965SOL    HW117357   4.020   0.309  11.998 -0.7117  1.3034 -0.3274
 1965SOL    HW217358   4.061   0.352  12.128  2.3597  1.1166  0.6945
 1966SOL     OW17359   3.311   1.568   7.260  0.0461 -0.1635 -0.0222
 1966SOL    HW117360   3.342   1.567   7.169  2.3406 -0.1970  0.7484
 1966SOL    HW217361   3.252   1.643   7.258 -0.2330 -0.3991 -0.6740
 1967SOL     OW17362   1.872   0.396   3.169 -0.0994 -0.0940  0.3840
 1967SOL    HW117363   1.873   0.303   3.190 -1.6647 -0.5545 -1.6347
 1967SOL    HW217364   1.966   0.405   3.151 -0.1189 -1.5418 -0.4145
 1968SOL     OW17365   0.109   2.263   5.910 -0.3798  0.0381 -0.1536
 1968SOL    HW117366   0.118   2.266   5.815  1.6310  2.2675  0.1013
 1968SOL    HW217367   0.196   2.290   5.941  0.6814 -1.7787 -1.5490
 1969SOL     OW17368   2.835   4.136   3.418 -0.1994  0.3388  0.3348
 1969SOL    HW117369   2.811   4.229   3.415  0.2800  0.5149  2.2936
 1969SOL    HW217370   2.914   4.138   3.363 -1.0323  0.7782 -0.8400
 1970SOL     OW17371   4.621   0.045   5.777 -0.1949  0.3743 -0.7553
 1970SOL    HW117372   4.549   4.710   5.758  1.2315 -1.2092 -1.2270
 1970SOL    HW217373   4.638   0.045   5.872  0.9680  1.1094 -0.9600
 1971SOL     OW17374   4.032   1.392   3.432 -0.6969 -0.3528  0.2777
 1971SOL    HW117375   4.087   1.455   3.385 -0.6058 -0.4201  0.2950
 1971SOL    HW217376   4.014   1.426   3.519 -0.7728  0.6332 -0.1205
 1972SOL     OW17377   1.245   1.696   6.493  0.1994 -0.1085  0.0017
 1972SOL    HW117378   1.162   1.691   6.540  0.3939  0.6076  0.4387
 1972SOL    HW217379   1.264   1.604   6.478 -0.9507 -0.3625  0.1029
 1973SOL     OW17380   4.141   2.158   7.466 -0.1476 -0.4949 -0.3622
 1973SOL    HW117381   4.146   2.234   7.408 -2.4525  0.4982  0.7471
 1973SOL    HW217382   4.227   2.178   7.504 -0.5906 -0.0351  0.4036
 1974SOL     OW17383   3.493   2.475   7.757 -0.0316  0.2999  0.0655
 1974SOL    HW117384   3.511   2.385   7.786  1.5292 -0.3258 -2.9287
 1974SOL    HW217385   3.497   2.519   7.842  0.2101  1.9376 -0.7908
 1975SOL     OW17386   0.372   1.267  11.110  0.1013  0.2469 -0.2422
 1975SOL    HW117387   0.345   1.233  11.195 -0.0005 -0.2774 -0.4826
 1975SOL    HW217388   0.431   1.202  11.073 -1.0634 -0.3655 -1.0493
 1976SOL     OW17389   0.058   0.649  14.618  0.0211 -0.1371  0.2676
 1976SOL    HW117390   4.700   0.631  14.573  0.7738  0.0792 -1.2092
 1976SOL    HW217391   0.060   0.745  14.626 -2.0236  0.0154 -1.1037
 1977SOL     OW17392   3.034   2.556   7.183 -0.1582 -0.0804  0.5122
 1977SOL    HW117393   3.041   2.576   7.090  0.1789  1.0723  0.7959
 1977SOL    HW217394   3.067   2.467   7.194 -1.3529 -0.8134 -1.7093
 1978SOL     OW17395   3.733   0.656   4.221 -0.3511  0.0669  0.0036
 1978SOL    HW117396   3.676   0.717   4.267  0.9283  0.2314  1.3639
 1978SOL    HW217397   3.806   0.643   4.282  1.2990  0.9136 -1.7806
 1979SOL     OW17398   2.789   2.870   4.248 -0.0357  0.0470 -0.1976
 1979SOL    HW117399   2.729   2.838   4.181 -0.5002  1.5795 -0.5184
 1979SOL    HW217400   2.838   2.934   4.197  1.0743  0.1333  0.9536
 1980SOL     OW17401   2.971   4.066  12.215 -0.2219 -0.3733  0.0198
 1980SOL    HW117402   2.887   4.094  12.178 -0.3004 -1.6250 -0.7631
 1980SOL    HW217403   3.028   4.141  12.199 -0.7052 -0.2388 -1.0542
 1981SOL     OW17404   2.021   1.390   6.345  0.1855  0.8054  0.5339
 1981SOL    HW117405   2.098   1.412   6.398  0.6270  1.0685 -0.2210
 1981SOL    HW217406   2.036   1.300   6.317 -0.0245  0.6897  0.7880
 1982SOL     OW17407   3.520   0.000   0.171 -0.2256  0.2710  0.4866
 1982SOL    HW117408   3.534   4.636   0.138  0.9141 -0.0818  1.9274
 1982SOL    HW217409   3.552   0.055   0.100 -0.6861 -0.9530 -0.6732
 1983SOL     OW17410   3.009   1.813   3.311 -0.1543  0.4086 -0.1930
 1983SOL    HW117411   2.914   1.802   3.321  0.0383 -1.2166 -0.1235
 1983SOL    HW217412   3.039   1.828   3.401  0.9688  1.3781 -0.7285
 1984SOL     OW17413   4.235   0.596   6.372 -0.0215  0.0587  0.1719
 1984SOL    HW117414   4.191   0.562   6.450 -0.7302 -0.1972 -0.3426
 1984SOL    HW217415   4.317   0.550   6.395  0.8230  0.8218 -1.3458
 1985SOL     OW17416   1.272   2.490   6.340 -0.3943  0.0606 -0.6761
 1985SOL    HW117417   1.286   2.522   6.251 -2.2337  0.8324 -0.6862
 1985SOL    HW217418   1.358   2.448   6.342  1.0478  3.1355  0.8254
 1986SOL     OW17419   4.656   1.590   8.918 -0.1597  0.0782  0.0268
 1986SOL    HW117420   4.612   1.578   9.002 -0.7217  0.0713 -0.2649
 1986SOL    HW217421   4.615   1.529   8.856 -0.0399  1.1518 -1.1192
 1987SOL     OW17422   1.726   2.461   4.948  0.4416  0.5288  0.2052
 1987SOL    HW117423   1.679   2.381   4.927  2.3883 -0.6662  0.4899
 1987SOL    HW217424   1.710   2.524   4.878 -4.9566  1.7582  2.5260
 1988SOL     OW17425   3.052   3.393   0.565  0.8248 -0.2714  0.3580
 1988SOL    HW117426   3.140   3.370   0.537 -0.0321 -2.6961 -0.3925
 1988SOL    HW217427   3.054   3.486   0.587  0.1464 -0.5513  1.6521
 1989SOL     OW17428   2.857   3.737  14.719  0.4540  0.3699 -0.2496
 1989SOL    HW117429   2.843   3.818  14.768 -0.4210  0.3811 -0.5213
 1989SOL    HW217430   2.895   3.776  14.640 -0.1296 -0.7300 -1.0704
 1990SOL     OW17431   0.762   3.771  16.346  0.3714  0.2764 -0.4946
 1990SOL    HW117432   0.824   3.759  16.274 -0.2960 -0.5641 -0.9210
 1990SOL    HW217433   0.749   3.684  16.383 -1.8054 -0.0321 -2.0367
 1991SOL     OW17434   0.192   2.221   0.424 -0.6169  0.5886  0.0858
 1991SOL    HW117435   0.242   2.183   0.496  0.3962  2.4732  0.3805
 1991SOL    HW217436   0.193   2.313   0.451 -1.2700  0.9880 -1.2393
 1992SOL     OW17437   3.639   0.749   3.061 -0.2798 -0.4718 -0.0974
 1992SOL    HW117438   3.544   0.743   3.058 -0.3663  1.4769 -1.0464
 1992SOL    HW217439   3.647   0.741   2.966  0.8115 -2.0405  0.1238
 1993SOL     OW17440   2.107   3.837  16.972  0.5371  0.1173 -0.5019
 1993SOL    HW117441   2.118   3.924  17.011 -3.3807 -0.1365  1.1717
 1993SOL    HW217442   2.135   3.852  16.882 -1.5811 -1.0217 -1.3646
 1994SOL     OW17443   4.196   2.759   5.832  0.1365 -0.2318 -0.1813
 1994SOL    HW117444   4.122   2.814   5.807  1.5876  0.5168 -2.8152
 1994SOL    HW217445   4.227   2.719   5.751 -0.4532 -0.3085 -0.3654
 1995SOL     OW17446   2.171   3.373   7.827 -0.3721 -0.0964  0.0246
 1995SOL    HW117447   2.090   3.323   7.824  0.4305 -1.3691 -0.2393
 1995SOL    HW217448   2.185   3.370   7.922 -2.2791 -0.8344  0.2801
 1996SOL     OW17449   3.753   0.613  16.663 -0.1617  0.6473  0.2418
 1996SOL    HW117450   3.685   0.631  16.728  0.9608  1.7432  1.1125
 1996SOL    HW217451   3.826   0.599  16.722 -0.9423  1.2974  1.3553
 1997SOL     OW17452   4.696   4.185   1.954  0.2836 -0.0927  0.8132
 1997SOL    HW117453   0.023   4.259   1.986  0.0524  0.0953  0.7489
 1997SOL    HW217454   4.609   4.210   1.985  0.1805 -1.0134  1.2601
 1998SOL     OW17455   2.468   2.645   5.698  0.3326 -0.3244 -0.5067
 1998SOL    HW117456   2.383   2.619   5.733  0.5766 -2.4343 -1.5010
 1998SOL    HW217457   2.464   2.730   5.744  0.0316 -0.6473  0.0709
 1999SOL     OW17458   1.790   2.716   1.620  0.1534  0.8276  0.0738
 1999SOL    HW117459   1.777   2.631   1.578 -0.4355  0.4342  1.0693
 1999SOL    HW217460   1.712   2.719   1.676 -0.8896  2.2240 -1.4374
 2000SOL     OW17461   3.221   2.510   5.422 -0.5042  0.0957  0.0563
 2000SOL    HW117462   3.168   2.495   5.343  0.5523  0.4215 -0.7192
 2000SOL    HW217463   3.150   2.509   5.486 -0.8186 -1.8933 -0.3000
 2001SOL     OW17464   2.814   4.086  15.294 -0.1597  0.1410 -0.0306
 2001SOL    HW117465   2.844   4.167  15.334 -1.0094  0.5308 -0.1704
 2001SOL    HW217466   2.722   4.098  15.318 -1.0161 -1.1697 -2.5990
 2002SOL     OW17467   2.696   4.100  11.626  0.0888 -0.3497 -0.6040
 2002SOL    HW117468   2.757   4.030  11.604 -1.4741 -1.9481  0.1116
 2002SOL    HW217469   2.666   4.130  11.540 -0.8489  0.9427  0.1677
 2003SOL     OW17470   1.560   4.496   1.490  0.2057  0.4971  0.6225
 2003SOL    HW117471   1.480   4.512   1.539 -0.5809 -0.4139 -0.3610
 2003SOL    HW217472   1.571   4.402   1.505 -1.8050 -0.4431 -3.8581
 2004SOL     OW17473   2.201   3.779   6.995  0.4239  0.2610 -0.3073
 2004SOL    HW117474   2.230   3.761   6.906  3.4173 -1.5744  1.0663
 2004SOL    HW217475   2.272   3.821   7.044  1.1123 -0.5943 -0.5775
 2005SOL     OW17476   2.950   4.593   2.800 -0.2168  0.9047  0.0255
 2005SOL    HW117477   2.961   4.671   2.745 -0.3765  3.0061  2.9646
 2005SOL    HW217478   2.866   4.567   2.763  0.1092  1.0192 -0.8091
 2006SOL     OW17479   0.569   2.171  12.108 -0.1750 -0.0680 -0.0232
 2006SOL    HW117480   0.614   2.090  12.083 -2.3953 -0.6064 -2.2860
 2006SOL    HW217481   0.578   2.170  12.203 -1.2305 -2.2710  0.0427
 2007SOL     OW17482   0.546   2.730  17.364 -0.1892  0.2299  0.1951
 2007SOL    HW117483   0.589   2.653  17.327 -0.3669  0.2422 -0.0374
 2007SOL    HW217484   0.454   2.707  17.350  0.4142 -1.3711 -1.0759
 2008SOL     OW17485   3.280   0.424   5.296 -0.1974 -0.3095  0.1323
 2008SOL    HW117486   3.322   0.421   5.210  0.0198  1.4613  0.1841
 2008SOL    HW217487   3.233   0.340   5.292 -1.3101  0.3496 -0.8202
 2009SOL     OW17488   3.004   3.910   4.389  0.2108 -0.0887  0.0609
 2009SOL    HW117489   3.018   3.920   4.483 -0.1800  2.6435 -0.1815
 2009SOL    HW217490   2.928   3.852   4.393 -0.6903  1.0728 -0.1434
 2010SOL     OW17491   3.245   3.194   5.039 -0.6948  0.2412 -0.1922
 2010SOL    HW117492   3.300   3.238   5.104 -0.2948  0.1453 -0.4609
 2010SOL    HW217493   3.241   3.104   5.070 -1.6884  0.0731 -0.8217
 2011SOL     OW17494   1.264   2.576  11.534  0.6425  0.3607  0.0817
 2011SOL    HW117495   1.329   2.633  11.492  0.1917  0.6935 -0.1680
 2011SOL    HW217496   1.177   2.615  11.529 -1.0980 -3.5519 -0.1906
 2012SOL     OW17497   3.663   0.469   7.533  0.2084 -0.0170  0.3761
 2012SOL    HW117498   3.665   0.402   7.465  2.8359 -0.2824  0.7065
 2012SOL    HW217499   3.736   0.523   7.501 -1.6202  1.7199 -0.9045
 2013SOL     OW17500   2.138   0.775   6.613  0.8190 -0.2522  0.4717
 2013SOL    HW117501   2.150   0.680   6.615  0.7361 -0.2998 -1.1689
 2013SOL    HW217502   2.229   0.796   6.632  0.5010  3.4263 -2.1987
 2014SOL     OW17503   1.151   3.054   7.377 -0.3809 -0.1835 -0.1075
 2014SOL    HW117504   1.186   2.981   7.325 -0.2604  0.2320 -0.6057
 2014SOL    HW217505   1.189   3.044   7.464  0.8729  0.2194 -0.6107
 2015SOL     OW17506   4.709   0.675  16.110 -0.3608  0.2377  0.4796
 2015SOL    HW117507   0.066   0.624  16.110 -0.7300 -0.3692 -0.5964
 2015SOL    HW217508   0.013   0.766  16.120 -2.3368  0.5677  2.8144
 2016SOL     OW17509   1.478   1.604   7.896 -0.2280 -0.6072 -0.1217
 2016SOL    HW117510   1.457   1.695   7.918 -1.5181 -0.8862 -0.2154
 2016SOL    HW217511   1.441   1.590   7.809 -1.9215 -0.6557  0.6153
 2017SOL     OW17512   2.202   2.902  17.687 -0.0095  0.2835  0.6977
 2017SOL    HW117513   2.195   2.997  17.692 -0.2660  0.2475  1.0046
 2017SOL    HW217514   2.254   2.890  17.608 -1.4596  0.8766 -0.3444
 2018SOL     OW17515   4.220   0.876   1.991 -0.3770  0.2513  0.4390
 2018SOL    HW117516   4.266   0.845   1.913 -1.8145  0.2539 -0.4020
 2018SOL    HW217517   4.243   0.814   2.060  0.5217  0.5439  0.4041
 2019SOL     OW17518   0.610   0.695   6.661 -0.4586 -0.4039  0.3188
 2019SOL    HW117519   0.674   0.623   6.663  0.1858  0.1865  0.6980
 2019SOL    HW217520   0.603   0.705   6.566  3.1194  1.2670  0.2146
 2020SOL     OW17521   4.567   3.066   3.026  0.0472 -0.4318 -0.0832
 2020SOL    HW117522   4.533   3.021   2.949  1.8361 -2.6581  0.4536
 2020SOL    HW217523   4.492   3.054   3.085  0.4296 -2.1780  0.0220
 2021SOL     OW17524   3.382   2.412   2.246 -0.2617  0.0618 -0.3729
 2021SOL    HW117525   3.365   2.354   2.172 -0.4709  1.1646 -1.1882
 2021SOL    HW217526   3.466   2.455   2.236 -0.9743  1.4412 -0.3923
 2022SOL     OW17527   0.047   2.059   2.578  0.3771  0.0618 -0.1649
 2022SOL    HW117528   0.020   2.141   2.619 -2.0257 -1.3837  1.1903
 2022SOL    HW217529   0.127   2.048   2.628  1.2495 -2.9288 -2.2011
 2023SOL     OW17530   1.205   3.511  16.408  0.1192 -0.3456 -0.7142
 2023SOL    HW117531   1.205   3.600  16.371 -1.6680 -0.0449 -0.0068
 2023SOL    HW217532   1.133   3.515  16.471 -0.0885 -0.9600 -0.9085
 2024SOL     OW17533   1.465   1.396   4.102  0.0324 -0.3059 -0.5516
 2024SOL    HW117534   1.464   1.473   4.159 -0.9282 -2.1050  1.8377
 2024SOL    HW217535   1.554   1.362   4.115 -0.6666 -1.7762  0.2580
 2025SOL     OW17536   0.503   1.729   3.141 -0.2246 -0.5206 -0.5328
 2025SOL    HW117537   0.417   1.711   3.104 -0.7080 -0.4596  0.5672
 2025SOL    HW217538   0.534   1.805   3.091  1.0262 -0.3553  0.4967
 2026SOL     OW17539   0.057   2.884  12.841 -0.0268  0.3307 -0.3523
 2026SOL    HW117540   4.705   2.866  12.787 -0.6111  2.7654 -0.3272
 2026SOL    HW217541   0.014   2.947  12.899 -1.1706 -0.6566 -0.1305
 2027SOL     OW17542   3.022   4.225   1.773  0.3989  0.2438 -0.0465
 2027SOL    HW117543   3.068   4.309   1.782  0.8852 -0.0022 -0.2347
 2027SOL    HW217544   2.958   4.242   1.843 -2.6306 -1.1379 -2.5132
 2028SOL     OW17545   3.764   0.579   0.758 -0.0558  0.0495  0.2773
 2028SOL    HW117546   3.683   0.628   0.770 -0.8055 -1.3687  0.9758
 2028SOL    HW217547   3.735   0.504   0.810 -2.5502  1.0504  0.3221
 2029SOL     OW17548   2.761   1.283   6.536  0.0931  0.6724  0.0843
 2029SOL    HW117549   2.837   1.230   6.561 -0.1452  0.2657 -0.0546
 2029SOL    HW217550   2.690   1.219   6.544  0.2293  0.8244  2.4999
 2030SOL     OW17551   3.546   0.721   5.705 -0.4113 -0.2378  0.2282
 2030SOL    HW117552   3.631   0.750   5.737 -0.6995  1.0022 -0.1153
 2030SOL    HW217553   3.543   0.750   5.614  2.2728 -1.9976 -0.4061
 2031SOL     OW17554   0.415   3.579   6.092  0.5636 -0.1375  0.2344
 2031SOL    HW117555   0.428   3.606   6.001  0.2102  3.7447  1.3085
 2031SOL    HW217556   0.424   3.485   6.077 -0.2923 -0.0448 -0.8781
 2032SOL     OW17557   1.968   2.207   2.858  0.1305  0.3252 -0.2059
 2032SOL    HW117558   1.988   2.245   2.944  0.7482  2.2925 -1.2264
 2032SOL    HW217559   1.974   2.289   2.810  0.2447  0.9187  0.8255
 2033SOL     OW17560   3.109   0.726   3.112  0.6314 -0.1521 -0.1899
 2033SOL    HW117561   3.090   0.771   3.029  0.6073 -0.3322 -0.2823
 2033SOL    HW217562   3.058   0.786   3.166  0.1454  0.2542 -1.0901
 2034SOL     OW17563   3.861   0.907   1.534  0.1448  0.9829 -0.4358
 2034SOL    HW117564   3.912   0.923   1.613  1.0945 -1.1882 -0.6271
 2034SOL    HW217565   3.928   0.919   1.468  1.5803  0.7881  0.9819
 2035SOL     OW17566   0.782   1.367   9.372 -0.1355  0.4691 -0.7430
 2035SOL    HW117567   0.778   1.405   9.460 -0.9345 -1.7449  0.1558
 2035SOL    HW217568   0.691   1.343   9.359  0.0547  0.0260 -1.2452
 2036SOL     OW17569   4.239   1.899   2.299  0.3461 -0.8038  0.1500
 2036SOL    HW117570   4.168   1.841   2.273 -1.0103  1.1060 -0.3625
 2036SOL    HW217571   4.270   1.850   2.376 -1.1887 -1.1214  0.5744
 2037SOL     OW17572   3.963   2.297   2.423 -0.1944  0.6382 -0.1777
 2037SOL    HW117573   4.002   2.323   2.340 -0.4813  0.6255 -0.3184
 2037SOL    HW217574   4.044   2.259   2.455 -1.3313 -0.9283  0.8518
 2038SOL     OW17575   4.366   0.777  13.268  0.4600  0.4446 -0.2845
 2038SOL    HW117576   4.344   0.842  13.202  0.6616 -0.9453 -1.6961
 2038SOL    HW217577   4.289   0.720  13.258  0.9704  0.1753 -2.5746
 2039SOL     OW17578   4.233   2.319  12.866 -0.1412 -0.6708  0.4417
 2039SOL    HW117579   4.216   2.226  12.855 -1.6813 -0.4340  0.7235
 2039SOL    HW217580   4.239   2.330  12.961  1.5066 -0.0766  0.2691
 2040SOL     OW17581   3.284   0.439   7.872 -0.1788  0.1128 -0.1122
 2040SOL    HW117582   3.347   0.484   7.928 -1.8687  0.0319  1.8404
 2040SOL    HW217583   3.250   0.371   7.929  1.2840  0.2040  0.8913
 2041SOL     OW17584   2.226   1.612   1.735  0.1105 -0.0700  0.0280
 2041SOL    HW117585   2.303   1.556   1.732 -0.2648 -0.5530 -0.5717
 2041SOL    HW217586   2.200   1.605   1.827 -1.6017  0.0511 -0.4372
 2042SOL     OW17587   4.311   1.018   3.112 -0.6659 -0.4332  0.2988
 2042SOL    HW117588   4.225   0.977   3.103 -0.3724 -0.7404 -1.1608
 2042SOL    HW217589   4.319   1.079   3.039 -2.2841 -1.5994 -0.8437
 2043SOL     OW17590   0.005   1.491  16.729 -0.3574 -0.5194  0.0856
 2043SOL    HW117591   4.690   1.430  16.667 -0.7130 -2.1870  1.9861
 2043SOL    HW217592   4.662   1.489  16.797  0.5070  0.4878  0.9725
 2044SOL     OW17593   1.291   2.253   0.692  0.0650  0.0545 -1.0718
 2044SOL    HW117594   1.379   2.244   0.655 -0.0528 -0.3469 -1.2641
 2044SOL    HW217595   1.254   2.323   0.638 -0.5786  0.2363 -0.3898
 2045SOL     OW17596   3.246   1.069   6.437 -0.4563  0.1555  0.0058
 2045SOL    HW117597   3.208   0.982   6.434  1.3784 -0.6622  0.6666
 2045SOL    HW217598   3.337   1.046   6.454 -0.0155 -0.1580 -2.8279
 2046SOL     OW17599   4.238   1.319  15.922  0.6172  0.3225 -0.0488
 2046SOL    HW117600   4.209   1.385  15.859  2.1608 -0.5150 -1.6124
 2046SOL    HW217601   4.212   1.357  16.006  0.3297 -0.8760  0.4016
 2047SOL     OW17602   1.876   1.339   7.457  0.3349  0.0161  0.1140
 2047SOL    HW117603   1.812   1.367   7.392  0.8070  0.1598 -0.2886
 2047SOL    HW217604   1.902   1.254   7.419  0.7992 -0.4069  1.3737
 2048SOL     OW17605   1.393   2.578   4.311  0.1296  0.3134  0.2149
 2048SOL    HW117606   1.482   2.609   4.296 -0.6609  2.7458  0.4454
 2048SOL    HW217607   1.383   2.527   4.231 -2.1028  0.3439  0.4750
 2049SOL     OW17608   0.530   1.728   7.897  0.2809  0.0943  0.0016
 2049SOL    HW117609   0.590   1.708   7.968  1.5305  1.9429 -0.5524
 2049SOL    HW217610   0.449   1.739   7.947 -0.4854  2.7524 -1.7987
 2050SOL     OW17611   1.756   4.006   1.171  0.1634 -0.0059  0.1279
 2050SOL    HW117612   1.811   3.985   1.096  1.7351 -0.9760  1.5515
 2050SOL    HW217613   1.670   3.974   1.145  0.0402 -0.2112  0.8043
 2051SOL     OW17614   1.707   0.147   9.114 -0.1207  0.0675  0.3276
 2051SOL    HW117615   1.802   0.139   9.126 -0.0341  1.8301  0.7884
 2051SOL    HW217616   1.693   0.053   9.104 -2.4777  0.1630  2.7597
 2052SOL     OW17617   2.292   4.546  12.219 -0.5489 -0.1427  0.1034
 2052SOL    HW117618   2.294   4.570  12.312 -0.8285 -0.4494  0.1863
 2052SOL    HW217619   2.379   4.577  12.194 -0.9122  1.1236  0.3875
 2053SOL     OW17620   0.001   0.332   7.944 -0.1551  0.4667  0.2911
 2053SOL    HW117621   0.069   0.356   8.006  0.3325 -0.3236  0.0645
 2053SOL    HW217622   4.648   0.371   7.984 -0.0905  0.5259  0.3566
 2054SOL     OW17623   2.693   1.938  15.512 -0.0605 -0.6265  0.3933
 2054SOL    HW117624   2.651   1.988  15.582 -0.7835  0.8878 -1.1234
 2054SOL    HW217625   2.680   1.851  15.550  1.1274  0.1780  2.6412
 2055SOL     OW17626   1.579   1.064   6.459 -0.4659 -0.3076 -0.4099
 2055SOL    HW117627   1.622   1.060   6.544  1.4036  3.1348 -1.2247
 2055SOL    HW217628   1.602   1.151   6.428 -2.0110  0.1203 -0.3354
 2056SOL     OW17629   0.946   0.149   5.773  0.7626  0.3666  0.3770
 2056SOL    HW117630   0.997   0.105   5.705  0.5125  0.4078  0.1603
 2056SOL    HW217631   0.896   0.205   5.714  0.7293  0.0449  0.0972
 2057SOL     OW17632   2.365   2.121   0.757 -0.2863 -0.1151 -0.3570
 2057SOL    HW117633   2.388   2.045   0.810  0.0687 -0.5049 -1.0782
 2057SOL    HW217634   2.429   2.186   0.785 -1.0658  0.4817  0.0727
 2058SOL     OW17635   2.428   4.382  13.863  0.2792  0.6932 -0.0286
 2058SOL    HW117636   2.369   4.444  13.907 -0.6852  0.2931 -0.7639
 2058SOL    HW217637   2.505   4.381  13.921 -1.2430 -1.0952  1.9581
 2059SOL     OW17638   1.192   3.310   8.641 -0.1677  0.1231  1.0019
 2059SOL    HW117639   1.096   3.317   8.639 -0.2846 -2.3400 -0.6745
 2059SOL    HW217640   1.222   3.395   8.674 -2.0168  1.3717 -0.5508
 2060SOL     OW17641   2.760   0.570   5.638  0.1630  0.0456  0.0358
 2060SOL    HW117642   2.763   0.630   5.713 -2.1623 -2.5240  2.2163
 2060SOL    HW217643   2.751   0.485   5.680  1.1738  0.1397  0.4466
 2061SOL     OW17644   1.069   0.062   1.703  0.2583  0.3940 -0.2004
 2061SOL    HW117645   0.974   0.076   1.698  0.4440  1.4227 -0.8358
 2061SOL    HW217646   1.090   0.052   1.796 -0.2968 -3.1453 -0.4560
 2062SOL     OW17647   0.488   4.275   2.399  0.3395 -0.2679 -0.7880
 2062SOL    HW117648   0.498   4.364   2.364 -0.1421 -0.5890 -1.7464
 2062SOL    HW217649   0.437   4.298   2.476 -0.0260  1.3071 -1.5011
 2063SOL     OW17650   3.180   1.741   3.097  0.5493  0.2203  0.4805
 2063SOL    HW117651   3.141   1.748   3.184 -0.7918  0.2965 -0.1153
 2063SOL    HW217652   3.103   1.754   3.041  0.3419  0.4402  0.8104
 2064SOL     OW17653   2.790   2.789   7.984  0.0547 -0.4604  0.1398
 2064SOL    HW117654   2.779   2.711   8.039 -0.4500  0.0873  0.8118
 2064SOL    HW217655   2.754   2.855   8.044 -2.2000 -1.3742 -0.1927
 2065SOL     OW17656   0.267   2.913   3.405  0.2953 -0.1751  0.0090
 2065SOL    HW117657   0.287   2.870   3.489 -2.1387 -0.5826  0.3770
 2065SOL    HW217658   0.172   2.905   3.406  0.2224  0.7003 -0.3158
 2066SOL     OW17659   2.783   2.774   8.318  0.1743 -0.1143  0.0896
 2066SOL    HW117660   2.732   2.712   8.266 -0.9697  1.2012 -0.3586
 2066SOL    HW217661   2.709   2.808   8.369  0.9955 -0.5100  1.5497
 2067SOL     OW17662   1.468   3.087  10.857  0.3028  0.0374  0.5034
 2067SOL    HW117663   1.524   3.130  10.922  0.5985 -3.3523  2.5230
 2067SOL    HW217664   1.479   3.153  10.788 -1.2640  0.6807  0.8861
 2068SOL     OW17665   2.065   0.217   9.663  0.2701  0.0510 -0.1328
 2068SOL    HW117666   2.132   0.165   9.707  0.5092  1.9313  1.7158
 2068SOL    HW217667   2.081   0.305   9.698 -0.9672  0.7883 -1.4108
 2069SOL     OW17668   2.806   0.656   6.606  0.3021 -0.5288 -0.1653
 2069SOL    HW117669   2.796   0.664   6.701 -0.7245  0.5939 -0.3709
 2069SOL    HW217670   2.859   0.733   6.586 -0.1930 -0.2001 -0.2117
 2070SOL     OW17671   4.012   3.950   9.954  0.3841 -0.3529 -0.0536
 2070SOL    HW117672   3.919   3.952   9.933  0.1239 -3.6596  0.8340
 2070SOL    HW217673   4.028   4.040   9.983 -1.2894  0.7563 -2.5644
 2071SOL     OW17674   1.497   0.664   8.363  0.4048  0.6104 -0.0256
 2071SOL    HW117675   1.561   0.727   8.396  1.6289 -1.4215  1.5163
 2071SOL    HW217676   1.529   0.647   8.274 -0.8139  0.0845 -0.3608
 2072SOL     OW17677   2.825   4.532   5.484 -0.4925  0.2509  0.1737
 2072SOL    HW117678   2.880   4.479   5.427  2.2574  2.2566  0.9902
 2072SOL    HW217679   2.876   4.612   5.493  1.0168 -0.4748 -1.9684
 2073SOL     OW17680   1.780   3.589   2.274 -0.2925  0.1200  0.3929
 2073SOL    HW117681   1.814   3.678   2.289 -0.0470  0.2036 -0.6927
 2073SOL    HW217682   1.752   3.560   2.361 -2.2183 -1.7723 -0.8759
 2074SOL     OW17683   3.433   2.838   4.699  0.3365 -0.1757 -0.4642
 2074SOL    HW117684   3.442   2.749   4.665 -1.2365 -1.2006  1.7992
 2074SOL    HW217685   3.381   2.876   4.628  0.2891  0.3127 -0.1615
 2075SOL     OW17686   3.573   1.819   6.568  0.2723  0.5791 -0.3061
 2075SOL    HW117687   3.542   1.842   6.655  0.2052 -1.2730  0.1570
 2075SOL    HW217688   3.496   1.853   6.524  0.1843  1.9292  0.8986
 2076SOL     OW17689   0.064   3.618   7.301  0.4580 -0.0295 -0.1921
 2076SOL    HW117690   0.036   3.695   7.252  0.0977 -0.1234 -0.1289
 2076SOL    HW217691   0.130   3.596   7.235  0.2553  1.6800 -0.9734
 2077SOL     OW17692   2.516   0.913  13.334  0.0746  0.2986  0.3104
 2077SOL    HW117693   2.530   0.901  13.428  0.2999 -2.6266 -0.1029
 2077SOL    HW217694   2.490   0.823  13.312 -2.5482  1.3321 -0.7447
 2078SOL     OW17695   2.412   0.890   5.581 -0.3889 -0.2051 -0.7856
 2078SOL    HW117696   2.364   0.811   5.607  1.4981 -1.3970 -0.9020
 2078SOL    HW217697   2.370   0.957   5.634  0.6585 -1.0345  1.0797
 2079SOL     OW17698   4.177   2.137   3.712 -0.3806  0.1852  0.1499
 2079SOL    HW117699   4.228   2.120   3.791 -0.6294 -0.2747  0.2088
 2079SOL    HW217700   4.096   2.089   3.730 -0.3700  1.0013  2.3751
 2080SOL     OW17701   3.646   2.361  11.559  0.1116  0.2745  0.1056
 2080SOL    HW117702   3.703   2.303  11.609 -0.7695 -0.9643 -0.3007
 2080SOL    HW217703   3.583   2.297  11.525  0.4381 -0.3030  0.5933
 2081SOL     OW17704   4.550   2.827  13.537 -0.4492  0.8603 -0.6111
 2081SOL    HW117705   4.483   2.768  13.573 -1.3919  1.2968 -1.6585
 2081SOL    HW217706   4.537   2.903  13.593  2.2003 -0.3705  1.7116
 2082SOL     OW17707   0.716   1.169   7.602  0.6508  0.2110  0.3842
 2082SOL    HW117708   0.657   1.160   7.678 -2.5163  2.4128 -1.8062
 2082SOL    HW217709   0.652   1.198   7.538  0.1928 -1.3976  0.1082
 2083SOL     OW17710   2.156   2.110   1.233  0.1005 -0.2300 -0.2716
 2083SOL    HW117711   2.075   2.103   1.284 -0.3953  1.3612 -0.8235
 2083SOL    HW217712   2.191   2.192   1.268 -0.1132  0.0052 -0.6092
 2084SOL     OW17713   3.702   1.844   3.297 -0.1605 -0.0616  0.0297
 2084SOL    HW117714   3.762   1.785   3.252 -0.1605 -0.9493  1.1737
 2084SOL    HW217715   3.619   1.818   3.257 -0.2181 -0.9638  0.7255
 2085SOL     OW17716   2.891   3.874   1.803  0.2871  0.2405 -0.2664
 2085SOL    HW117717   2.920   3.878   1.894 -0.2331 -0.0028 -0.0861
 2085SOL    HW217718   2.859   3.785   1.786  1.1707 -0.0201 -0.5629
 2086SOL     OW17719   2.423   0.725   3.021 -0.2146 -0.0088 -0.4128
 2086SOL    HW117720   2.414   0.695   3.111  0.4919  3.0231  0.6759
 2086SOL    HW217721   2.351   0.786   3.004 -0.9328 -0.3524  1.5167
 2087SOL     OW17722   4.473   4.677   7.458  0.7452 -0.0187  0.3712
 2087SOL    HW117723   4.400   4.695   7.517 -0.7719  0.9529 -1.8339
 2087SOL    HW217724   4.545   4.695   7.519  1.1562  0.3428 -0.2296
 2088SOL     OW17725   3.743   0.012   5.524 -0.4384 -0.2196 -0.6983
 2088SOL    HW117726   3.649   0.022   5.538 -0.3422  0.8315 -0.8682
 2088SOL    HW217727   3.752   4.642   5.510  1.8700  0.1249 -1.5644
 2089SOL     OW17728   1.104   3.272  14.827  0.6451  0.4608 -0.4576
 2089SOL    HW117729   1.093   3.228  14.743  1.3812  0.5235 -0.5869
 2089SOL    HW217730   1.155   3.209  14.878 -0.6163  0.0885  0.3463
 2090SOL     OW17731   3.099   2.783   5.472 -0.2002  0.5093 -0.1500
 2090SOL    HW117732   3.164   2.733   5.424 -1.5139 -1.5025  0.1263
 2090SOL    HW217733   3.162   2.841   5.514 -0.0498  0.3827 -0.1999
 2091SOL     OW17734   4.374   1.066   4.616  0.0411 -0.5485 -0.1251
 2091SOL    HW117735   4.300   1.127   4.617 -0.5638 -1.2554 -2.1068
 2091SOL    HW217736   4.356   1.028   4.531 -0.9794  0.4463 -0.3487
 2092SOL     OW17737   4.019   2.744  13.984 -0.0591  0.2427 -0.5798
 2092SOL    HW117738   3.945   2.747  14.044 -0.6398 -0.1136 -1.2652
 2092SOL    HW217739   4.087   2.751  14.051  0.1434 -0.5769 -0.7023
 2093SOL     OW17740   1.481   1.108   8.638 -0.2922 -0.3574  0.6413
 2093SOL    HW117741   1.455   1.016   8.637 -0.9051 -0.2043  2.2931
 2093SOL    HW217742   1.528   1.111   8.555 -0.0739  1.6838  0.8402
 2094SOL     OW17743   1.910   0.420  14.589  0.1502 -0.0272 -0.2780
 2094SOL    HW117744   1.970   0.471  14.534 -1.4592 -1.4281 -3.3585
 2094SOL    HW217745   1.951   0.334  14.574  2.1735  0.4871  2.2458
 2095SOL     OW17746   4.411   1.217   6.314  0.1847 -0.0635  0.0903
 2095SOL    HW117747   4.366   1.132   6.309 -0.5611  0.2797  1.2742
 2095SOL    HW217748   4.408   1.243   6.222 -2.6064  0.1887  0.2647
 2096SOL     OW17749   1.398   4.321   3.609 -0.6304 -0.1374 -0.4087
 2096SOL    HW117750   1.334   4.294   3.544 -1.5587 -2.7041  1.5542
 2096SOL    HW217751   1.341   4.323   3.686  0.3865 -3.8617  0.4568
 2097SOL     OW17752   1.572   4.157   4.762  0.3695  0.3973 -0.1235
 2097SOL    HW117753   1.639   4.170   4.695  1.1879  0.3135  0.6809
 2097SOL    HW217754   1.568   4.245   4.799 -0.4096 -0.1803  1.1754
 2098SOL     OW17755   2.686   2.004   9.104 -0.1937 -0.4369  0.3017
 2098SOL    HW117756   2.632   2.066   9.153 -0.1426 -1.2672  1.4020
 2098SOL    HW217757   2.764   1.993   9.159 -0.6286  0.2029  1.0433
 2099SOL     OW17758   0.235   2.693   3.099 -0.5091 -0.1501  0.0246
 2099SOL    HW117759   0.294   2.715   3.026 -0.8001  2.0390  0.4319
 2099SOL    HW217760   0.216   2.776   3.143  1.5967  1.0637 -1.3715
 2100SOL     OW17761   2.328   1.227  16.333 -0.3275 -0.2867  0.0101
 2100SOL    HW117762   2.306   1.134  16.337  1.7422 -0.8275 -1.3425
 2100SOL    HW217763   2.423   1.229  16.344 -0.6899  1.6711  2.5396
 2101SOL     OW17764   3.591   1.867   5.939  1.2557  0.2287 -0.3404
 2101SOL    HW117765   3.674   1.912   5.922  0.8557  1.2887  0.5305
 2101SOL    HW217766   3.602   1.782   5.897  0.6771  0.8880 -1.8187
 2102SOL     OW17767   3.347   3.863   5.651 -0.1711 -0.0850  0.1209
 2102SOL    HW117768   3.336   3.810   5.572 -0.5284 -3.0938  2.2206
 2102SOL    HW217769   3.440   3.875   5.634 -0.4722 -2.6078 -3.4128
 2103SOL     OW17770   4.376   3.402   3.718 -0.4352 -0.1321  0.6946
 2103SOL    HW117771   4.457   3.366   3.754  0.1234 -0.0820 -0.5345
 2103SOL    HW217772   4.423   3.458   3.656 -0.4963  0.7169  1.4154
 2104SOL     OW17773   4.184   2.812  12.663 -0.5072 -0.3332  0.1263
 2104SOL    HW117774   4.272   2.818  12.626 -0.6363 -0.4295 -0.1977
 2104SOL    HW217775   4.179   2.725  12.702 -1.7662  0.0834  0.9126
 2105SOL     OW17776   4.474   4.463  17.435  0.3777  0.0499 -0.2650
 2105SOL    HW117777   4.565   4.493  17.431 -0.0593  1.1498 -2.0407
 2105SOL    HW217778   4.427   4.545  17.451  0.2642  0.0232 -0.4581
 2106SOL     OW17779   1.440   4.081  16.010  0.3973 -0.0154 -0.1972
 2106SOL    HW117780   1.452   3.993  16.046  0.7461  0.4361  0.8055
 2106SOL    HW217781   1.345   4.090  16.003  0.3958  0.0290 -0.1245
 2107SOL     OW17782   2.496   1.403   8.460  0.1041 -0.4141 -0.4657
 2107SOL    HW117783   2.459   1.491   8.470  1.5717  0.0085  1.2562
 2107SOL    HW217784   2.428   1.356   8.412 -1.2887 -0.5162  1.6179
 2108SOL     OW17785   3.894   4.460   2.348 -0.0993 -0.0910 -0.4169
 2108SOL    HW117786   3.965   4.480   2.288 -0.6497  0.5650 -0.8575
 2108SOL    HW217787   3.834   4.535   2.351 -0.3197 -0.3221  0.7861
 2109SOL     OW17788   4.063   0.195   8.172 -0.6596  0.6063 -0.7132
 2109SOL    HW117789   4.018   0.112   8.186  0.2275  0.2701  0.1720
 2109SOL    HW217790   4.145   0.156   8.142 -0.0561  2.9900 -2.1517
 2110SOL     OW17791   1.166   4.032   3.012  0.6403  0.2669  0.6141
 2110SOL    HW117792   1.117   4.026   2.930 -0.5755  0.3680  1.3295
 2110SOL    HW217793   1.212   4.115   3.002  1.2837 -0.4662 -2.6709
 2111SOL     OW17794   2.616   4.616  16.920 -0.2841 -0.2246  0.6498
 2111SOL    HW117795   2.574   4.537  16.885  0.9100 -0.4645 -0.2180
 2111SOL    HW217796   2.626   4.666  16.840  0.3190 -1.8275 -0.2676
 2112SOL     OW17797   2.607   3.791   5.655 -0.3658 -0.2017  0.2973
 2112SOL    HW117798   2.580   3.804   5.746 -2.4363  1.3436 -0.5521
 2112SOL    HW217799   2.666   3.864   5.638  0.3737 -1.0732 -0.8627
 2113SOL     OW17800   4.640   2.656   4.504 -0.0629 -0.3463  0.4405
 2113SOL    HW117801   4.563   2.704   4.534 -0.2377 -1.4803  1.7743
 2113SOL    HW217802   4.600   2.593   4.444  1.7253 -0.6527 -0.4347
 2114SOL     OW17803   1.676   3.325  16.027  0.2447  0.5216  0.1721
 2114SOL    HW117804   1.673   3.296  16.119  0.8619 -0.4516 -0.1046
 2114SOL    HW217805   1.659   3.419  16.034  0.2012  0.6794 -2.1113
 2115SOL     OW17806   0.650   1.441   3.361  0.1078  0.1681  0.3653
 2115SOL    HW117807   0.653   1.504   3.433 -0.5323  0.2650  0.3060
 2115SOL    HW217808   0.672   1.488   3.281 -1.8697 -1.1187 -0.9172
 2116SOL     OW17809   1.474   0.379   0.621  0.0589  0.1444  0.5964
 2116SOL    HW117810   1.461   0.351   0.712  0.1328  1.9015  1.1582
 2116SOL    HW217811   1.535   0.318   0.581 -1.3003 -0.9049  0.1239
 2117SOL     OW17812   2.092   2.907   3.170 -0.3397  0.0011 -0.1933
 2117SOL    HW117813   2.104   2.976   3.105 -0.8989 -0.1638 -0.4722
 2117SOL    HW217814   2.076   2.951   3.254 -0.5119 -0.4649  0.0180
 2118SOL     OW17815   3.960   0.187   5.500  0.2385 -0.0682  0.1009
 2118SOL    HW117816   3.905   0.243   5.555  2.0604  1.7697  0.0410
 2118SOL    HW217817   3.897   0.116   5.485 -0.2314  0.4992 -0.5949
 2119SOL     OW17818   2.473   0.824   8.755  0.6874  0.0873 -0.2571
 2119SOL    HW117819   2.436   0.784   8.834  2.5346 -0.8687  0.1280
 2119SOL    HW217820   2.421   0.780   8.688  0.4657  0.7172 -0.5021
 2120SOL     OW17821   4.436   3.364   4.594  0.1410  0.0164 -0.7386
 2120SOL    HW117822   4.354   3.384   4.549  0.7744 -0.1835 -1.9680
 2120SOL    HW217823   4.420   3.419   4.671  3.2473  1.3383 -1.0330
 2121SOL     OW17824   1.241   4.493   9.171  0.0270  0.1406  0.6286
 2121SOL    HW117825   1.241   4.536   9.085  2.4408 -0.2140  0.4347
 2121SOL    HW217826   1.239   4.398   9.166 -1.1726  0.1739  0.4483
 2122SOL     OW17827   4.250   3.654   9.563 -0.0864  0.1628  0.0514
 2122SOL    HW117828   4.281   3.671   9.652  1.7449  2.1603 -0.9836
 2122SOL    HW217829   4.267   3.560   9.554 -0.1804  0.1172  0.3372
 2123SOL     OW17830   2.520   3.472  16.994  0.4241 -0.0890  1.0525
 2123SOL    HW117831   2.539   3.473  16.901  0.4101  1.7626  1.0756
 2123SOL    HW217832   2.493   3.380  16.996  0.2779 -0.0970 -2.7316
 2124SOL     OW17833   4.611   1.367   8.758  0.2129 -0.1120  0.2139
 2124SOL    HW117834   4.568   1.338   8.839  0.1462 -1.8557 -0.4500
 2124SOL    HW217835   4.616   1.290   8.702 -1.3457  0.1350 -0.2596
 2125SOL     OW17836   0.935   1.707  12.960  0.1802 -0.0802  0.2105
 2125SOL    HW117837   0.843   1.704  12.985  0.9252 -0.6665  2.9451
 2125SOL    HW217838   0.976   1.696  13.046 -3.2718  0.8423  1.9741
 2126SOL     OW17839   0.757   3.335   9.364 -0.4473  0.5211  0.2512
 2126SOL    HW117840   0.769   3.293   9.279 -0.2815 -0.1864  0.6259
 2126SOL    HW217841   0.843   3.374   9.377 -0.4579 -0.1288  2.1564
 2127SOL     OW17842   2.437   2.543   8.079 -0.0823  0.1193 -0.3307
 2127SOL    HW117843   2.367   2.604   8.055 -1.2890 -0.9276  0.5084
 2127SOL    HW217844   2.395   2.501   8.154 -1.3451  0.1028 -1.0453
 2128SOL     OW17845   4.264   4.597   3.827  0.3497 -0.3991  0.5312
 2128SOL    HW117846   4.207   4.569   3.898 -1.2289 -0.6171 -0.8039
 2128SOL    HW217847   4.205   4.655   3.778 -1.4481 -1.3025  1.6237
 2129SOL     OW17848   4.381   1.105   9.163 -0.5476  0.0264  0.1191
 2129SOL    HW117849   4.328   1.170   9.210 -1.3721 -0.9049  0.4855
 2129SOL    HW217850   4.335   1.033   9.208  2.1968 -0.8119  1.5424
 2130SOL     OW17851   0.912   3.762   7.239  0.0582  0.0812 -0.0759
 2130SOL    HW117852   0.995   3.732   7.277  0.6275  2.3457  0.5010
 2130SOL    HW217853   0.853   3.690   7.260 -0.3364  0.6935  0.9044
 2131SOL     OW17854   3.611   3.603   7.306 -0.2168  0.5185 -0.0171
 2131SOL    HW117855   3.569   3.688   7.314 -2.0601 -0.5885  1.8612
 2131SOL    HW217856   3.543   3.550   7.264 -0.4673 -1.5676  3.0300
 2132SOL     OW17857   0.087   2.753  17.128  0.8372  0.2415  0.8044
 2132SOL    HW117858   0.126   2.693  17.191 -1.4878  0.9184  2.9186
 2132SOL    HW217859   0.147   2.825  17.108 -0.4366  1.1527  0.2326
 2133SOL     OW17860   3.160   0.004   9.850 -0.3766  0.2396  0.0892
 2133SOL    HW117861   3.184   0.024   9.760  1.6724  0.5340  0.6996
 2133SOL    HW217862   3.067   4.704   9.844  0.0432 -0.4432 -3.3708
 2134SOL     OW17863   1.928   3.108   4.398 -0.0393 -0.0492 -0.8316
 2134SOL    HW117864   1.856   3.048   4.421 -0.5130  1.0591  0.6033
 2134SOL    HW217865   1.917   3.130   4.306 -3.0318  0.8654 -0.2898
 2135SOL     OW17866   3.653   3.124   8.184 -0.3203  0.1907 -0.7539
 2135SOL    HW117867   3.561   3.100   8.190 -0.6568  1.6054 -0.1841
 2135SOL    HW217868   3.702   3.081   8.254  0.3253 -1.1736 -2.0505
 2136SOL     OW17869   4.416   2.187   3.841 -0.5822 -0.0162  0.0589
 2136SOL    HW117870   4.436   2.223   3.755 -2.6128  0.0432 -0.3758
 2136SOL    HW217871   4.456   2.100   3.843  2.0048  1.1453 -0.7525
 2137SOL     OW17872   0.061   0.925   1.952  0.0215 -0.0311  0.4385
 2137SOL    HW117873   0.097   0.852   1.901  0.7471  1.1350 -0.7095
 2137SOL    HW217874   4.698   0.938   1.916 -0.4593  0.0559  1.6418
 2138SOL     OW17875   0.153   3.556   3.294 -0.1156 -0.1563 -0.0890
 2138SOL    HW117876   0.164   3.517   3.381 -1.3586  1.0279  0.5834
 2138SOL    HW217877   0.229   3.518   3.248 -1.4210  3.1328 -4.9156
 2139SOL     OW17878   2.709   1.966   8.010  0.0489  0.0405  0.4152
 2139SOL    HW117879   2.763   1.892   7.979 -1.3355 -0.6639 -0.3303
 2139SOL    HW217880   2.627   1.920   8.026 -1.0023  0.7489 -2.8946
 2140SOL     OW17881   4.376   2.630   3.712 -0.1714  0.6172 -0.2106
 2140SOL    HW117882   4.430   2.611   3.635  0.5154  2.0307 -0.0960
 2140SOL    HW217883   4.299   2.575   3.700 -0.7439  1.1855  0.8309
 2141SOL     OW17884   1.202   0.959   7.458 -0.8730  0.0712  0.1196
 2141SOL    HW117885   1.260   0.991   7.389  0.3402 -0.2422  0.9966
 2141SOL    HW217886   1.184   1.035   7.514 -1.5296  0.0113 -0.0085
 2142SOL     OW17887   0.403   2.091   3.731 -0.2654  0.2576  0.2581
 2142SOL    HW117888   0.335   2.128   3.788 -0.7591  1.6129 -1.2195
 2142SOL    HW217889   0.462   2.166   3.724 -0.7920  0.4970 -1.7781
 2143SOL     OW17890   3.839   0.779  12.010 -0.3932  0.4903  0.3703
 2143SOL    HW117891   3.789   0.833  11.948 -1.0685  1.3798  1.6787
 2143SOL    HW217892   3.920   0.749  11.969 -0.7329  2.9771 -2.1527
 2144SOL     OW17893   2.771   4.261   1.971  0.0980  0.5542  0.2731
 2144SOL    HW117894   2.710   4.320   1.926  0.0461 -0.0973 -0.5190
 2144SOL    HW217895   2.732   4.273   2.057 -4.5673  1.8452 -1.9907
 2145SOL     OW17896   3.614   3.362  17.448  0.1582  0.2956  0.3429
 2145SOL    HW117897   3.683   3.339  17.510  0.0052 -1.6209 -0.2007
 2145SOL    HW217898   3.647   3.348  17.359  0.8604  0.0721  0.6346
 2146SOL     OW17899   0.183   3.027   5.769 -0.4489 -0.1689  0.0097
 2146SOL    HW117900   0.243   3.094   5.804 -1.8671  0.5949  0.9918
 2146SOL    HW217901   0.229   2.947   5.795  0.6230 -0.0592 -1.5612
 2147SOL     OW17902   1.662   0.647   9.036  0.1637 -0.4447 -0.0146
 2147SOL    HW117903   1.702   0.663   8.950 -0.7583 -0.1261 -0.3778
 2147SOL    HW217904   1.733   0.602   9.083  0.6736  0.2973 -0.0783
 2148SOL     OW17905   3.530   4.184   6.940  0.2411 -0.2289 -0.0115
 2148SOL    HW117906   3.451   4.162   6.889 -0.5408  2.4072  0.0821
 2148SOL    HW217907   3.545   4.278   6.932 -0.7428 -0.3373 -2.9362
 2149SOL     OW17908   2.268   4.092   7.395  0.5927 -0.1479  0.1168
 2149SOL    HW117909   2.295   4.088   7.487 -1.2763 -0.0153  0.6757
 2149SOL    HW217910   2.351   4.127   7.364  0.0117  1.1663  0.0289
 2150SOL     OW17911   1.467   2.047   2.977  0.1943  0.5606 -0.1784
 2150SOL    HW117912   1.501   2.006   2.897  2.4557  1.4262  0.3427
 2150SOL    HW217913   1.478   1.968   3.031 -0.9670  1.4607  1.3506
 2151SOL     OW17914   1.646   2.137   3.175 -0.0717 -0.7273 -0.3700
 2151SOL    HW117915   1.718   2.076   3.191 -0.1074 -0.5953  0.2767
 2151SOL    HW217916   1.610   2.102   3.093 -1.2737  0.3215 -0.2949
 2152SOL     OW17917   2.803   0.896   4.881 -0.4618  0.5607  0.4445
 2152SOL    HW117918   2.848   0.973   4.914 -1.6284  1.4090  0.0495
 2152SOL    HW217919   2.732   0.939   4.833 -1.1536  0.0883  1.0323
 2153SOL     OW17920   3.230   3.118   9.655  0.0926  0.2768 -0.2719
 2153SOL    HW117921   3.290   3.171   9.602  1.5564  0.6655  1.7888
 2153SOL    HW217922   3.273   3.139   9.738  0.2730 -2.4316  0.3357
 2154SOL     OW17923   4.438   2.976  17.000  0.1026  0.3595 -0.2040
 2154SOL    HW117924   4.418   3.070  16.998 -0.1721  0.2386 -2.7029
 2154SOL    HW217925   4.366   2.934  16.953  0.0152  0.8788 -0.5356
 2155SOL     OW17926   1.627   3.938   7.365 -0.4869 -0.3451 -0.5085
 2155SOL    HW117927   1.637   3.871   7.297  0.3599 -0.0328 -0.6930
 2155SOL    HW217928   1.614   4.013   7.306  1.3181 -1.7466 -2.6680
 2156SOL     OW17929   2.179   4.182  13.445  0.1822  0.2591  0.6343
 2156SOL    HW117930   2.083   4.173  13.444  0.5252 -3.2237  2.5128
 2156SOL    HW217931   2.195   4.189  13.539 -0.6459 -1.0647  0.8780
 2157SOL     OW17932   2.381   1.187   4.856  0.2430  0.1117 -0.3114
 2157SOL    HW117933   2.296   1.148   4.834  0.0946  1.3424 -1.8961
 2157SOL    HW217934   2.356   1.225   4.940 -2.4097 -0.7021 -0.7243
 2158SOL     OW17935   2.242   3.304  10.529 -0.0179 -0.1106 -0.3688
 2158SOL    HW117936   2.194   3.255  10.595  1.6415 -3.4975 -1.6567
 2158SOL    HW217937   2.320   3.315  10.582  0.2714 -3.2233 -0.1195
 2159SOL     OW17938   0.464   2.041   7.371  0.4646  0.5522  0.2564
 2159SOL    HW117939   0.416   2.071   7.448  1.2438  1.3455  0.4398
 2159SOL    HW217940   0.549   2.058   7.413  0.1227  0.2244  1.0833
 2160SOL     OW17941   2.325   1.043   5.287  0.0241  0.4038 -0.3929
 2160SOL    HW117942   2.346   0.983   5.359 -0.3420  0.5638 -0.1559
 2160SOL    HW217943   2.403   1.035   5.232  0.9156  0.2931  0.8604
 2161SOL     OW17944   1.575   1.765   1.566  0.0399 -0.1832  0.2024
 2161SOL    HW117945   1.516   1.840   1.560 -0.9855 -0.9656  0.4270
 2161SOL    HW217946   1.563   1.739   1.658  0.4505 -0.6689  0.1215
 2162SOL     OW17947   0.010   0.229   4.028 -0.0036  0.0667  0.1929
 2162SOL    HW117948   0.075   0.235   3.958 -0.4228  0.6685 -0.1427
 2162SOL    HW217949   4.688   0.309   4.004 -0.3435 -0.4990 -1.0239
 2163SOL     OW17950   3.480   3.771  14.130 -0.1937 -0.0359  0.3977
 2163SOL    HW117951   3.495   3.853  14.176 -0.2484  1.4423 -2.2276
 2163SOL    HW217952   3.398   3.790  14.085  0.1135  1.1788  0.3683
 2164SOL     OW17953   2.009   0.951   3.709  0.2014 -0.7347 -0.5549
 2164SOL    HW117954   2.101   0.952   3.735 -0.3844 -0.0370  1.4682
 2164SOL    HW217955   1.959   0.973   3.788  2.2279  0.0682  0.4832
 2165SOL     OW17956   0.848   0.335   8.478  0.0579 -0.1963  0.2556
 2165SOL    HW117957   0.877   0.377   8.559  1.2927 -0.1395 -0.2205
 2165SOL    HW217958   0.776   0.275   8.499  2.0886 -2.8135 -0.3609
 2166SOL     OW17959   3.971   0.640  10.860 -0.1573 -0.0851  0.1479
 2166SOL    HW117960   3.876   0.635  10.861 -0.2991  3.1977  0.9406
 2166SOL    HW217961   3.987   0.682  10.775 -0.6690 -0.5918 -0.1953
 2167SOL     OW17962   2.873   2.471   8.840  0.2339  0.3707  0.0995
 2167SOL    HW117963   2.805   2.439   8.781  4.1762 -2.6549 -2.7632
 2167SOL    HW217964   2.825   2.447   8.919  0.1083  0.1598 -0.0410
 2168SOL     OW17965   3.733   3.418  14.896  0.3712 -0.0719  0.0683
 2168SOL    HW117966   3.817   3.427  14.851 -0.1663 -0.6774 -1.0315
 2168SOL    HW217967   3.709   3.509  14.878  0.4132 -0.3105 -1.1654
 2169SOL     OW17968   2.635   3.863   5.944 -0.1380  0.0011 -0.2945
 2169SOL    HW117969   2.671   3.943   5.906  0.5063 -0.8352 -1.4371
 2169SOL    HW217970   2.560   3.894   5.996  1.1139  2.6116 -0.0725
 2170SOL     OW17971   3.910   3.431  10.473  0.1390  0.1032 -0.2530
 2170SOL    HW117972   3.895   3.521  10.444 -1.5680 -0.6075 -1.5389
 2170SOL    HW217973   3.973   3.434  10.545  0.6433 -0.3854 -0.6736
 2171SOL     OW17974   0.927   1.915  14.444 -0.7243  0.2586  0.1029
 2171SOL    HW117975   0.926   1.972  14.521 -2.8495 -0.0826  0.3212
 2171SOL    HW217976   0.924   1.829  14.486  1.5109 -0.6393 -1.5679
 2172SOL     OW17977   2.208   2.851   3.817  0.0907  0.6165  0.4955
 2172SOL    HW117978   2.297   2.882   3.799  0.6895 -0.4808  1.5480
 2172SOL    HW217979   2.172   2.858   3.728 -0.4507 -0.0098  0.6635
 2173SOL     OW17980   0.918   0.328   8.215 -0.4310  0.0977  0.2406
 2173SOL    HW117981   0.878   0.341   8.301 -1.9407 -0.3843 -0.3801
 2173SOL    HW217982   0.994   0.278   8.245 -0.7453 -0.4577  0.1181
 2174SOL     OW17983   0.400   2.094   0.862 -0.6715 -0.0243 -0.1619
 2174SOL    HW117984   0.438   2.054   0.940 -2.0025 -1.5699 -0.2920
 2174SOL    HW217985   0.323   2.149   0.876 -0.2725  0.2687  0.8585
 2175SOL     OW17986   2.044   2.909  12.631  0.0024  0.2198 -0.5601
 2175SOL    HW117987   2.119   2.859  12.664 -0.6476 -1.1260 -1.1193
 2175SOL    HW217988   2.087   2.953  12.559  0.6602 -0.1670 -0.4035
 2176SOL     OW17989   0.959   2.719  15.500 -0.5778  0.1620  0.7142
 2176SOL    HW117990   0.881   2.771  15.519 -0.7438 -0.3730  1.5230
 2176SOL    HW217991   1.022   2.788  15.477  0.5841 -1.0193  0.3104
 2177SOL     OW17992   4.322   4.380   9.939  0.0066 -0.5734  0.1513
 2177SOL    HW117993   4.357   4.402  10.025  0.9216  0.1327 -0.3967
 2177SOL    HW217994   4.313   4.463   9.894  0.1606 -0.9031 -0.4951
 2178SOL     OW17995   3.176   3.902   2.480 -0.7070 -0.2661 -0.7991
 2178SOL    HW117996   3.225   3.858   2.411  0.6859  0.7761 -0.4686
 2178SOL    HW217997   3.085   3.896   2.451 -0.0932 -0.4223 -2.7004
 2179SOL     OW17998   3.075   1.472   3.923 -0.0729  0.4405  0.3915
 2179SOL    HW117999   3.038   1.545   3.973 -1.3811  0.5569 -0.7679
 2179SOL    HW218000   3.159   1.465   3.969  0.5694  1.8645 -0.5424
 2180SOL     OW18001   4.004   1.626  16.350 -0.3773  0.6830 -0.2110
 2180SOL    HW118002   3.952   1.692  16.397  1.2389  0.8360  1.3488
 2180SOL    HW218003   4.016   1.673  16.267 -1.5046  1.2185 -0.0675
 2181SOL     OW18004   0.090   4.341  13.200  0.3012  0.4271  0.3166
 2181SOL    HW118005   0.144   4.268  13.229 -1.3804 -0.8524  0.1897
 2181SOL    HW218006   0.150   4.395  13.148  2.3744 -1.5678  0.6600
 2182SOL     OW18007   3.858   1.956   6.737  0.7009  0.0330  0.1712
 2182SOL    HW118008   3.842   1.917   6.823 -0.3536  1.9250  0.8549
 2182SOL    HW218009   3.776   1.944   6.689  2.3967 -1.0052 -2.4105
 2183SOL     OW18010   4.227   4.100  10.705  0.3089  0.2226 -0.0479
 2183SOL    HW118011   4.201   4.101  10.797  2.0478 -1.7806  0.4705
 2183SOL    HW218012   4.285   4.026  10.722  0.9331  0.6830 -0.2063
 2184SOL     OW18013   3.724   0.354   5.608  0.1686 -0.5188 -0.1121
 2184SOL    HW118014   3.734   0.432   5.553 -0.9215 -0.9277 -0.8922
 2184SOL    HW218015   3.704   0.382   5.697  0.1162  1.5851 -0.7817
 2185SOL     OW18016   2.599   3.246  14.048  0.6444  0.4625  0.1793
 2185SOL    HW118017   2.519   3.212  14.087  1.0498 -1.9286 -1.0559
 2185SOL    HW218018   2.673   3.189  14.069  1.1010  1.5397  1.5388
 2186SOL     OW18019   0.319   0.807   6.425 -0.1793 -0.6166 -0.5511
 2186SOL    HW118020   0.415   0.800   6.422 -0.2330 -1.4033 -0.4567
 2186SOL    HW218021   0.307   0.733   6.366  0.2303 -0.0789 -1.3122
 2187SOL     OW18022   3.978   0.123   1.212 -0.2439 -0.2167  0.5206
 2187SOL    HW118023   3.975   0.139   1.307 -1.1989 -2.4948  0.8603
 2187SOL    HW218024   4.062   0.079   1.214  0.2798  0.7403 -0.9258
 2188SOL     OW18025   4.027   1.596   6.800  0.2083 -0.5021  0.6847
 2188SOL    HW118026   3.935   1.595   6.823  0.2602  1.0587  1.0067
 2188SOL    HW218027   4.012   1.630   6.712 -0.9767 -2.6241  0.0702
 2189SOL     OW18028   3.937   1.016   3.526 -0.7516 -0.5724  0.0098
 2189SOL    HW118029   4.005   1.026   3.459 -0.2935  1.4483  0.7879
 2189SOL    HW218030   3.873   1.028   3.456 -1.0284  0.6904  0.4731
 2190SOL     OW18031   2.304   0.486   4.828  0.1632  0.5357 -0.3605
 2190SOL    HW118032   2.322   0.511   4.737 -1.0308 -0.2837 -0.8192
 2190SOL    HW218033   2.212   0.508   4.840  0.7773  2.1915  1.3149
 2191SOL     OW18034   1.374   3.895   6.888 -0.0258 -0.3129 -0.1298
 2191SOL    HW118035   1.388   3.932   6.975  1.3537  0.1450 -0.5304
 2191SOL    HW218036   1.312   3.952   6.843 -0.8922 -0.8864  0.3436
 2192SOL     OW18037   3.984   3.161   3.237 -0.3703 -0.2760  0.4554
 2192SOL    HW118038   3.947   3.097   3.298 -0.2571 -0.3648  0.4314
 2192SOL    HW218039   4.017   3.114   3.160  3.3724 -1.6319  2.9183
 2193SOL     OW18040   4.334   3.117   1.129 -0.1631 -0.2440 -0.0982
 2193SOL    HW118041   4.354   3.123   1.223 -0.8145  1.2059 -0.0487
 2193SOL    HW218042   4.413   3.084   1.086  0.6425 -1.7243  2.4631
 2194SOL     OW18043   1.017   0.624   3.668  0.5478 -0.1311 -0.4274
 2194SOL    HW118044   0.941   0.671   3.701  1.4128  0.0048  1.3569
 2194SOL    HW218045   1.084   0.638   3.735 -0.6989 -0.2809  0.8523
 2195SOL     OW18046   2.029   1.776   4.639  0.0491  0.1241 -0.1806
 2195SOL    HW118047   1.975   1.697   4.635 -0.7009  0.6802 -1.0190
 2195SOL    HW218048   2.117   1.741   4.622 -0.3605 -1.4748  1.0269
 2196SOL     OW18049   0.802   3.799   7.674  0.2842 -0.1358  0.5280
 2196SOL    HW118050   0.729   3.812   7.734  0.3194 -0.9765  0.7438
 2196SOL    HW218051   0.883   3.787   7.723 -0.1109 -2.4930  0.5749
 2197SOL     OW18052   2.740   2.583   5.840 -0.3056 -0.0636 -0.0785
 2197SOL    HW118053   2.645   2.583   5.843 -0.2981 -1.4046 -0.1131
 2197SOL    HW218054   2.738   2.585   5.744 -0.5863 -1.8322 -0.1040
 2198SOL     OW18055   1.875   3.291  11.065  0.4032 -0.0238  0.5193
 2198SOL    HW118056   1.908   3.329  11.147 -0.9354 -2.2240  2.0656
 2198SOL    HW218057   1.940   3.327  11.005 -1.2444  0.9715 -0.6636
 2199SOL     OW18058   2.149   3.768   5.142 -0.4284  0.2530 -0.3132
 2199SOL    HW118059   2.196   3.689   5.169 -0.4459 -0.1203 -1.3570
 2199SOL    HW218060   2.073   3.742   5.089  1.0112 -0.9669 -1.7796
 2200SOL     OW18061   0.687   4.087   9.043  0.1605 -0.4361  0.0025
 2200SOL    HW118062   0.698   4.048   9.130 -1.6835  1.2631  1.0073
 2200SOL    HW218063   0.759   4.150   9.040  0.8096 -1.1006  1.6847
 2201SOL     OW18064   0.953   2.539   7.303 -0.2219 -0.2494 -0.2675
 2201SOL    HW118065   0.910   2.623   7.319  2.6931  0.9324  1.5964
 2201SOL    HW218066   1.016   2.555   7.233 -0.7427  0.5487 -0.5436
 2202SOL     OW18067   3.117   1.751   7.301  0.2218  0.0415 -0.2391
 2202SOL    HW118068   3.115   1.846   7.310  2.4435  0.0615  0.0744
 2202SOL    HW218069   3.089   1.730   7.390 -1.2031  1.6291 -0.3198
 2203SOL     OW18070   1.156   3.702   1.587 -0.3601  0.0620 -0.1546
 2203SOL    HW118071   1.173   3.794   1.570 -0.5121  0.3063  1.0056
 2203SOL    HW218072   1.151   3.663   1.499 -0.1144  0.7286 -0.4601
 2204SOL     OW18073   2.358   3.185  17.411  0.2702  0.0277  0.2368
 2204SOL    HW118074   2.398   3.099  17.399 -2.0721 -1.0952  0.6037
 2204SOL    HW218075   2.428   3.249  17.425 -0.7653  1.0847  0.6597
 2205SOL     OW18076   0.417   4.606  11.504  0.4649 -0.1527 -0.1167
 2205SOL    HW118077   0.361   4.555  11.446 -1.4100  0.8198  0.8466
 2205SOL    HW218078   0.371   4.582  11.584  0.0228  1.4439  0.1189
 2206SOL     OW18079   1.834   1.675   4.885  1.0511  0.4480 -0.1313
 2206SOL    HW118080   1.777   1.733   4.834  1.0166 -1.3003 -2.0736
 2206SOL    HW218081   1.895   1.639   4.821  0.7679  0.9397 -0.6899
 2207SOL     OW18082   2.385   4.719   2.460  0.4139 -0.2202  0.3845
 2207SOL    HW118083   2.413   0.040   2.539  1.6710  1.3901 -0.9934
 2207SOL    HW218084   2.290   4.710   2.473  0.5634 -0.7935  1.0897
 2208SOL     OW18085   1.302   3.028   7.607 -0.3318 -0.2083 -0.7820
 2208SOL    HW118086   1.382   3.078   7.625 -0.3330 -0.1213 -1.0123
 2208SOL    HW218087   1.273   2.999   7.693 -0.7893  1.1757 -0.4597
 2209SOL     OW18088   0.884   1.121   3.930  0.0941  0.0855  0.0249
 2209SOL    HW118089   0.795   1.092   3.910  0.1933 -0.3023  0.1541
 2209SOL    HW218090   0.871   1.169   4.012 -0.2240 -1.5958  0.9470
 2210SOL     OW18091   0.385   1.084   5.375  0.0346  0.1388  0.5341
 2210SOL    HW118092   0.361   1.023   5.304  2.3424 -2.6262  2.1364
 2210SOL    HW218093   0.452   1.035   5.424  2.9894 -0.2279 -3.7915
 2211SOL     OW18094   0.026   2.579  14.399 -0.4049  0.0692  0.3822
 2211SOL    HW118095   0.108   2.586  14.350 -1.0089 -1.3486 -0.8407
 2211SOL    HW218096   0.048   2.631  14.476 -2.6761  2.8978 -0.8983
 2212SOL     OW18097   2.796   2.171   9.926 -0.9717 -0.6592  0.0269
 2212SOL    HW118098   2.830   2.113   9.858  2.1817 -2.5981  3.2293
 2212SOL    HW218099   2.716   2.199   9.882 -0.6956  0.8131  0.4671
 2213SOL     OW18100   3.422   3.982  17.431  0.0869 -0.5937  0.5777
 2213SOL    HW118101   3.362   3.992  17.357  2.2450  4.1476 -0.4950
 2213SOL    HW218102   3.381   3.903  17.467 -0.9499 -1.3444 -2.2528
 2214SOL     OW18103   0.317   0.555   6.291 -0.2896  0.0476  0.1672
 2214SOL    HW118104   0.367   0.522   6.216  1.2718  0.6247  0.9812
 2214SOL    HW218105   0.370   0.507   6.354  0.5298  0.7177 -0.0255
 2215SOL     OW18106   0.042   3.313  14.834 -0.1910  0.0956 -0.4236
 2215SOL    HW118107   0.097   3.237  14.854 -0.6621  0.3695  1.8716
 2215SOL    HW218108   0.096   3.356  14.767  0.8654 -1.3405 -0.5035
 2216SOL     OW18109   1.572   1.970   2.013  0.0695  0.0729  0.0698
 2216SOL    HW118110   1.509   2.008   1.952  1.7579 -1.3337 -2.5660
 2216SOL    HW218111   1.652   1.975   1.959  1.5633 -1.4262  2.1591
 2217SOL     OW18112   3.982   0.869   3.753  0.0219 -0.1736  0.0339
 2217SOL    HW118113   3.981   0.924   3.675  2.8386  0.6882  0.6009
 2217SOL    HW218114   4.025   0.927   3.817 -0.2173 -0.1608  0.1830
 2218SOL     OW18115   1.675   2.640   8.813  0.1313 -0.3841 -0.0983
 2218SOL    HW118116   1.677   2.580   8.738 -2.4726  0.1019 -0.5459
 2218SOL    HW218117   1.766   2.632   8.841 -0.0671 -0.4320  0.5298
 2219SOL     OW18118   2.026   1.868   8.161 -0.3546  0.4619  0.0880
 2219SOL    HW118119   2.101   1.840   8.213 -0.0154 -0.3649 -0.8430
 2219SOL    HW218120   1.975   1.787   8.169 -0.9967  0.9644  1.0788
 2220SOL     OW18121   2.988   4.639   3.433  0.4864  0.1482  0.0574
 2220SOL    HW118122   2.998   0.010   3.432  1.0170  0.0939  0.1777
 2220SOL    HW218123   3.076   4.609   3.412 -0.6671 -2.2590 -1.2935
 2221SOL     OW18124   2.978   0.994   2.564 -0.4274  0.0431  0.1080
 2221SOL    HW118125   3.072   1.009   2.575 -0.3027  1.1797 -2.5159
 2221SOL    HW218126   2.965   1.020   2.473  2.5973  2.4097  0.3621
 2222SOL     OW18127   4.475   3.953   6.880 -0.1495 -0.5649 -0.5112
 2222SOL    HW118128   4.566   3.983   6.882 -0.6343  1.0196 -1.9832
 2222SOL    HW218129   4.479   3.884   6.946 -1.0096 -1.9752 -1.9262
 2223SOL     OW18130   1.952   1.405  15.675  0.1649 -0.0812  0.7469
 2223SOL    HW118131   1.866   1.437  15.703 -0.7661  0.3255 -2.5176
 2223SOL    HW218132   1.997   1.423  15.758 -0.3561  0.9546  0.8061
 2224SOL     OW18133   0.610   4.311   5.195  0.0087 -0.2331  0.2512
 2224SOL    HW118134   0.602   4.262   5.113  1.4398 -0.3544  0.1895
 2224SOL    HW218135   0.611   4.398   5.154 -0.4255 -2.3291 -4.2292
 2225SOL     OW18136   3.774   1.677   2.901  0.5224 -0.1738 -0.3936
 2225SOL    HW118137   3.685   1.712   2.894 -0.3433 -1.9265  1.9451
 2225SOL    HW218138   3.815   1.741   2.842  1.6668  0.7775  1.4468
 2226SOL     OW18139   2.277   1.450  12.804  0.7490  0.3045  0.1245
 2226SOL    HW118140   2.329   1.370  12.790  0.8644  0.4053 -0.0202
 2226SOL    HW218141   2.206   1.433  12.742  0.0562 -0.3590  1.0862
 2227SOL     OW18142   1.160   0.787   0.935 -0.4918 -0.0387  0.5019
 2227SOL    HW118143   1.083   0.762   0.884  0.1340 -0.6577 -0.1187
 2227SOL    HW218144   1.126   0.858   0.990  0.3394 -0.2119  1.2508
 2228SOL     OW18145   0.111   2.940   5.523  0.2499 -0.3692  0.2979
 2228SOL    HW118146   0.171   2.871   5.550  0.2962 -1.0078 -1.4203
 2228SOL    HW218147   0.120   2.992   5.602  1.8635 -0.0450 -0.0994
 2229SOL     OW18148   2.698   4.600  17.191 -1.1156  0.0964  0.2817
 2229SOL    HW118149   2.673   4.595  17.099  1.1151 -1.8299 -0.2106
 2229SOL    HW218150   2.782   4.554  17.191 -1.5647 -0.7289 -0.1585
 2230SOL     OW18151   2.591   4.493   9.185  0.1664 -0.7549 -0.0014
 2230SOL    HW118152   2.605   4.534   9.270  2.2008  0.9008 -1.1403
 2230SOL    HW218153   2.681   4.506   9.156  0.0416  1.0964  0.4989
 2231SOL     OW18154   4.315   3.352   4.869  0.1660  0.4820 -0.3360
 2231SOL    HW118155   4.346   3.437   4.901  0.6687  0.5950 -1.1186
 2231SOL    HW218156   4.239   3.334   4.924  2.1606  0.2105  2.3029
 2232SOL     OW18157   1.005   1.084   3.035 -0.0331  0.7659 -0.3505
 2232SOL    HW118158   1.085   1.101   2.984 -0.6523  1.7997 -0.9723
 2232SOL    HW218159   1.034   1.124   3.118 -1.4984  2.6293 -0.7447
 2233SOL     OW18160   2.303   4.051   9.696  0.0705  0.3773  0.4243
 2233SOL    HW118161   2.357   3.972   9.697 -0.1847  0.1718 -1.3815
 2233SOL    HW218162   2.278   4.049   9.604 -0.1263 -0.6620  0.5003
 2234SOL     OW18163   0.491   3.724   7.200 -0.4493 -0.7996 -0.5353
 2234SOL    HW118164   0.533   3.729   7.286  1.4409  0.0221 -1.5071
 2234SOL    HW218165   0.544   3.793   7.162 -0.3553 -0.3153  0.4552
 2235SOL     OW18166   2.145   1.395   8.490 -0.3751  0.0006  0.9712
 2235SOL    HW118167   2.194   1.339   8.549 -1.1667 -2.9718 -1.2132
 2235SOL    HW218168   2.209   1.465   8.474 -2.1464  0.7050 -2.8663
 2236SOL     OW18169   1.016   3.070  11.352  0.0784 -0.5641  0.4987
 2236SOL    HW118170   0.980   3.077  11.264  2.6371  0.2869 -0.4596
 2236SOL    HW218171   1.102   3.036  11.329 -0.1844 -0.2833 -0.8999
 2237SOL     OW18172   1.556   2.729   1.761  0.3670  0.6964 -0.2150
 2237SOL    HW118173   1.604   2.795   1.812  1.3723 -1.1415  1.1818
 2237SOL    HW218174   1.467   2.743   1.795  0.2454  4.1461 -1.8615
 2238SOL     OW18175   3.781   3.994  16.774  0.8454  0.2838 -0.1419
 2238SOL    HW118176   3.853   4.035  16.726  2.4647 -0.6048  1.5250
 2238SOL    HW218177   3.783   3.900  16.755 -0.8922  0.0221  0.9942
 2239SOL     OW18178   0.157   0.784   8.295 -0.2281  0.0220 -0.1570
 2239SOL    HW118179   0.208   0.864   8.309  1.7599 -1.6189  1.9844
 2239SOL    HW218180   0.169   0.727   8.371  2.1816  0.0147 -0.5319
 2240SOL     OW18181   3.672   1.449   3.249 -0.1116  0.0589 -0.1194
 2240SOL    HW118182   3.599   1.472   3.306 -1.2456  1.3056 -2.1132
 2240SOL    HW218183   3.699   1.364   3.285 -0.4778  0.4626  1.1204
 2241SOL     OW18184   4.197   1.458   6.981  0.2014  0.0287  0.0683
 2241SOL    HW118185   4.151   1.518   6.922 -0.7150  0.8034  1.5853
 2241SOL    HW218186   4.242   1.404   6.916  1.3531  0.3179  0.6303
 2242SOL     OW18187   4.233   3.824   3.500  0.1299 -0.1321  0.1771
 2242SOL    HW118188   4.322   3.789   3.491  0.2168  0.3107 -0.6889
 2242SOL    HW218189   4.193   3.738   3.514  1.7178 -0.9775 -0.5105
 2243SOL     OW18190   4.382   4.598   8.576 -0.3236  0.3094  0.1009
 2243SOL    HW118191   4.297   4.631   8.547 -0.0139  1.0090 -0.0181
 2243SOL    HW218192   4.421   4.580   8.491 -0.4755 -2.7251  0.6620
 2244SOL     OW18193   1.387   1.620   7.180  0.4853 -0.6350 -0.3124
 2244SOL    HW118194   1.470   1.597   7.137  0.3607  0.4344 -1.1118
 2244SOL    HW218195   1.337   1.538   7.174 -0.5386 -0.0312  0.0328
 2245SOL     OW18196   4.343   0.698   3.045 -0.3316  0.3436  0.6376
 2245SOL    HW118197   4.292   0.618   3.053  0.7171 -0.3161  0.7740
 2245SOL    HW218198   4.277   0.760   3.075 -1.1214  0.5803 -1.6043
 2246SOL     OW18199   1.077   3.743   3.312 -0.4015 -0.8453  0.0495
 2246SOL    HW118200   1.156   3.760   3.260 -1.3337 -0.0311 -1.1139
 2246SOL    HW218201   1.037   3.670   3.264 -1.4657  0.1313 -0.5395
 2247SOL     OW18202   1.688   1.708   5.526 -0.0280 -0.8076 -0.4481
 2247SOL    HW118203   1.653   1.777   5.582  1.1713  0.4561 -1.2672
 2247SOL    HW218204   1.632   1.724   5.451  3.3936  0.3924 -2.7306
 2248SOL     OW18205   2.776   3.762  12.369  0.4990  0.2493 -0.2184
 2248SOL    HW118206   2.685   3.786  12.349  0.2147 -2.3711 -2.1270
 2248SOL    HW218207   2.813   3.835  12.418 -2.0838  1.3697  0.0814
 2249SOL     OW18208   1.838   4.277   3.623  0.0519 -0.7117 -0.2240
 2249SOL    HW118209   1.797   4.348   3.574 -0.2179 -0.0017  1.0108
 2249SOL    HW218210   1.764   4.219   3.640 -0.7409  0.5036  0.5195
 2250SOL     OW18211   2.501   4.263   9.526 -0.2122 -0.5356 -0.1562
 2250SOL    HW118212   2.408   4.283   9.517 -0.0866 -0.4286 -1.1844
 2250SOL    HW218213   2.517   4.186   9.472  2.5665  0.7343 -1.1151
 2251SOL     OW18214   0.597   4.199   0.641  0.0913  0.1492  0.2575
 2251SOL    HW118215   0.642   4.121   0.674  1.4896  0.6023 -0.5436
 2251SOL    HW218216   0.555   4.163   0.563  1.4007  1.9245 -1.2817
 2252SOL     OW18217   3.497   2.494  10.803 -0.3423  0.0467 -0.8815
 2252SOL    HW118218   3.520   2.555  10.873 -1.8719 -0.3273 -0.0577
 2252SOL    HW218219   3.517   2.555  10.733  0.9154  2.6376  1.7215
 2253SOL     OW18220   0.803   2.120   8.512 -0.2291 -0.0321 -0.1294
 2253SOL    HW118221   0.843   2.193   8.559 -0.4563  0.0986 -0.1389
 2253SOL    HW218222   0.717   2.111   8.553 -0.5699  0.0953 -0.8206
 2254SOL     OW18223   0.250   3.118   9.231 -0.2054 -0.1343 -0.0156
 2254SOL    HW118224   0.189   3.157   9.294  0.3412  0.1718  0.3262
 2254SOL    HW218225   0.320   3.097   9.293 -2.4326  0.4495  2.7041
 2255SOL     OW18226   1.720   0.810   2.691 -0.1409 -0.0983 -0.3817
 2255SOL    HW118227   1.773   0.730   2.688  0.8737  0.6003 -1.2139
 2255SOL    HW218228   1.671   0.808   2.610  1.0679  0.6911 -1.1345
 2256SOL     OW18229   0.494   2.855   7.498 -0.2711 -0.5864  0.8345
 2256SOL    HW118230   0.563   2.812   7.449 -0.5017  1.0963 -0.9659
 2256SOL    HW218231   0.470   2.914   7.427  0.5328 -1.9913 -0.6123
 2257SOL     OW18232   0.694   4.308  10.206  0.6067 -0.6525 -0.1574
 2257SOL    HW118233   0.610   4.281  10.242  0.1698  0.9641 -0.0034
 2257SOL    HW218234   0.757   4.273  10.268 -1.2084 -0.4159  1.8056
 2258SOL     OW18235   1.426   2.004  10.218 -0.3008 -0.0890 -0.0860
 2258SOL    HW118236   1.343   2.005  10.172 -1.5491 -1.0807  2.1511
 2258SOL    HW218237   1.475   2.055  10.153  0.2904 -0.1686  0.2939
 2259SOL     OW18238   1.317   4.526   1.981 -0.0055 -0.3977  0.1400
 2259SOL    HW118239   1.266   4.453   1.946  1.4080 -0.2890 -2.1311
 2259SOL    HW218240   1.316   4.495   2.072 -1.2745 -0.0361  0.2398
 2260SOL     OW18241   1.011   3.879   8.948  0.8737  0.0039  0.3034
 2260SOL    HW118242   0.950   3.905   9.017  2.8459  3.1845  0.8509
 2260SOL    HW218243   1.094   3.913   8.981  2.0455  0.3354 -2.9209
 2261SOL     OW18244   1.189   2.401   0.475 -0.0810  0.3791 -0.4746
 2261SOL    HW118245   1.183   2.462   0.401 -0.0604 -0.5080 -1.2080
 2261SOL    HW218246   1.106   2.417   0.520  0.7720  0.3738  1.1075
 2262SOL     OW18247   1.088   1.307   2.648  0.0088  0.9463  0.4680
 2262SOL    HW118248   1.053   1.394   2.627 -0.9133 -0.0098 -1.8672
 2262SOL    HW218249   1.138   1.325   2.728 -0.1351 -0.4165  0.8656
 2263SOL     OW18250   0.740   4.009  10.274  0.1279 -0.3134 -0.0110
 2263SOL    HW118251   0.677   3.947  10.311  1.3794 -2.0216 -0.7605
 2263SOL    HW218252   0.696   4.013  10.189  0.9361  0.3980 -0.3909
 2264SOL     OW18253   2.911   2.089   2.795  0.0407  0.4752 -0.1702
 2264SOL    HW118254   3.002   2.060   2.805 -0.2620 -0.6427 -0.6343
 2264SOL    HW218255   2.892   2.058   2.706  2.4133  0.5324 -0.6990
 2265SOL     OW18256   2.274   2.163   9.202 -0.0499  0.2899  0.6240
 2265SOL    HW118257   2.233   2.228   9.260  2.7662  1.8523  0.8518
 2265SOL    HW218258   2.217   2.088   9.218 -1.5849  1.4605  0.6478
 2266SOL     OW18259   1.743   0.638   9.420 -0.3222  0.6806  0.0849
 2266SOL    HW118260   1.697   0.559   9.449  1.4325 -0.1992  0.5052
 2266SOL    HW218261   1.780   0.663   9.504  1.6573 -2.3220  0.1083
 2267SOL     OW18262   4.555   4.099   9.210 -0.0148 -0.6100  0.5068
 2267SOL    HW118263   4.571   4.078   9.302 -1.6773  1.5335  1.2892
 2267SOL    HW218264   4.559   4.195   9.210  0.7058 -0.6410 -3.1935
 2268SOL     OW18265   4.713   0.471   8.927  0.0982  0.2489 -0.3307
 2268SOL    HW118266   4.670   0.425   8.999  0.7433 -0.5122 -0.4192
 2268SOL    HW218267   0.082   0.467   8.950 -0.2878 -0.7093  1.0610
 2269SOL     OW18268   4.320   0.292  15.615 -0.5979  0.0113  0.2511
 2269SOL    HW118269   4.415   0.277  15.618 -0.5696 -0.0244 -0.7580
 2269SOL    HW218270   4.315   0.386  15.634  0.8213  0.2506 -0.5548
 2270SOL     OW18271   2.935   1.395   4.309 -0.0860  0.0888 -0.0802
 2270SOL    HW118272   2.934   1.438   4.395  0.2611 -0.8209  0.3786
 2270SOL    HW218273   2.851   1.426   4.278 -0.7477 -0.2681  1.3333
 2271SOL     OW18274   2.307   4.602   8.242 -0.1413  0.2644 -0.3148
 2271SOL    HW118275   2.395   4.582   8.274 -0.2819 -0.4795 -0.3801
 2271SOL    HW218276   2.329   4.595   8.149  3.8269  0.8472  0.5511
 2272SOL     OW18277   3.420   1.016   3.843  0.3819 -0.2676 -0.1072
 2272SOL    HW118278   3.373   0.937   3.871 -0.5835  0.8170  1.2744
 2272SOL    HW218279   3.451   1.001   3.753  0.3073 -0.5773 -0.0821
 2273SOL     OW18280   3.752   4.445   8.222 -0.1212  0.4030 -0.0608
 2273SOL    HW118281   3.827   4.429   8.164  0.5703  2.4328  0.2828
 2273SOL    HW218282   3.701   4.364   8.218 -0.0870  0.4269 -1.1546
 2274SOL     OW18283   3.148   0.546   5.933 -0.5010 -0.0666  0.7372
 2274SOL    HW118284   3.237   0.531   5.900 -1.4199 -1.6430 -1.0209
 2274SOL    HW218285   3.148   0.641   5.949 -0.4430 -0.2260  1.6581
 2275SOL     OW18286   2.458   2.210   2.161 -0.3487  0.4094  0.3794
 2275SOL    HW118287   2.481   2.283   2.104  3.3132 -1.2903 -0.3469
 2275SOL    HW218288   2.465   2.254   2.246  1.8548 -1.5644  1.2361
 2276SOL     OW18289   3.529   0.792  12.201  0.2646 -0.0779  0.4107
 2276SOL    HW118290   3.618   0.780  12.168 -0.2366  1.5246 -1.4890
 2276SOL    HW218291   3.523   0.887  12.211 -3.5788 -0.2546 -0.0379
 2277SOL     OW18292   4.289   1.650   2.475 -0.1609  0.4326 -0.1327
 2277SOL    HW118293   4.339   1.619   2.400  0.8169 -0.6146  0.9485
 2277SOL    HW218294   4.358   1.658   2.541  1.0247 -2.0896 -1.0456
 2278SOL     OW18295   2.659   1.179   0.069  0.4831 -0.1323  0.1238
 2278SOL    HW118296   2.658   1.263   0.114  0.1002 -0.5372  0.8594
 2278SOL    HW218297   2.753   1.161   0.073  0.3357 -1.4928 -2.1549
 2279SOL     OW18298   4.440   4.544   6.158  0.0525 -0.2131  0.0536
 2279SOL    HW118299   4.397   4.593   6.228  0.7370  1.0199 -0.3989
 2279SOL    HW218300   4.447   4.464   6.210 -1.7924 -0.7817 -0.5795
 2280SOL     OW18301   0.536   1.824  14.058  0.3547  0.4261 -0.3972
 2280SOL    HW118302   0.507   1.913  14.038 -0.4251 -0.2662 -2.3333
 2280SOL    HW218303   0.628   1.845  14.038  0.7108 -0.5081  0.2669
 2281SOL     OW18304   3.592   3.200  12.383  0.0912  0.6134 -0.0436
 2281SOL    HW118305   3.543   3.129  12.342  1.5020  0.1218 -0.8422
 2281SOL    HW218306   3.587   3.176  12.476 -0.2813 -3.7851 -1.1961
 2282SOL     OW18307   3.455   2.771   7.433 -0.3055  0.0524 -0.2593
 2282SOL    HW118308   3.536   2.792   7.480 -0.7379 -0.3161  0.6537
 2282SOL    HW218309   3.486   2.745   7.347 -2.7280 -0.9517 -0.8073
 2283SOL     OW18310   2.807   1.823   4.227 -0.1794  0.1005  0.5103
 2283SOL    HW118311   2.793   1.844   4.319  1.7277  3.3544  0.0388
 2283SOL    HW218312   2.861   1.897   4.200  0.8389 -0.9770 -0.4094
 2284SOL     OW18313   3.619   0.631   7.736 -0.3208 -0.0663 -0.3238
 2284SOL    HW118314   3.571   0.591   7.808 -0.7543  0.6735 -0.2026
 2284SOL    HW218315   3.628   0.552   7.682 -0.2371 -0.2992  0.0324
 2285SOL     OW18316   3.134   2.315   7.259 -0.0539 -0.2581 -0.3104
 2285SOL    HW118317   3.128   2.370   7.337 -0.8686 -0.2632 -0.3721
 2285SOL    HW218318   3.227   2.290   7.257 -0.2974 -1.1233 -0.7053
 2286SOL     OW18319   3.968   1.573   5.170 -0.4119 -0.1406  0.1405
 2286SOL    HW118320   3.975   1.508   5.240 -0.6212  1.1338  1.3460
 2286SOL    HW218321   4.040   1.543   5.115  0.7697 -0.7153  1.9980
 2287SOL     OW18322   2.060   0.783   8.771  0.2580  0.1618  0.0978
 2287SOL    HW118323   2.071   0.693   8.804 -1.3087  0.3354  1.0807
 2287SOL    HW218324   2.147   0.794   8.734  0.4516 -0.6014  0.3182
 2288SOL     OW18325   3.534   3.357   7.532 -0.2983 -0.5718  0.1933
 2288SOL    HW118326   3.597   3.345   7.461  2.3741  0.1563  2.4040
 2288SOL    HW218327   3.462   3.301   7.505 -0.1685 -0.1319 -1.0303
 2289SOL     OW18328   3.521   0.916   0.211  0.9899 -0.1537 -0.0431
 2289SOL    HW118329   3.497   0.837   0.259  0.0427 -0.5117 -1.1042
 2289SOL    HW218330   3.616   0.910   0.216  0.8912 -2.7033 -1.2634
 2290SOL     OW18331   1.073   3.824   9.292  0.3732 -0.5228 -0.6919
 2290SOL    HW118332   1.132   3.812   9.217  2.1334 -0.3870  0.6696
 2290SOL    HW218333   1.111   3.764   9.357 -1.2511  0.7006  1.3817
 2291SOL     OW18334   0.624   1.061   3.891 -0.4645 -0.1983 -0.0389
 2291SOL    HW118335   0.582   1.141   3.923  0.8430  0.3454  0.3007
 2291SOL    HW218336   0.567   1.053   3.814 -0.0643  1.3515 -0.4961
 2292SOL     OW18337   4.485   1.039   0.064  0.6328  0.5254 -0.1822
 2292SOL    HW118338   4.476   0.944   0.062  0.0114  0.5740  0.1429
 2292SOL    HW218339   4.568   1.037   0.017  0.3207 -0.1244 -0.6983
 2293SOL     OW18340   1.566   0.566  10.672  0.3717 -0.0946 -0.2646
 2293SOL    HW118341   1.495   0.541  10.731  0.9787 -0.3428  0.3588
 2293SOL    HW218342   1.523   0.625  10.610 -0.4892 -1.1496 -0.6709
 2294SOL     OW18343   3.600   3.527  13.798 -0.3815  0.2165  0.4450
 2294SOL    HW118344   3.617   3.536  13.704 -1.5277  0.0796  0.2195
 2294SOL    HW218345   3.506   3.510  13.802 -0.2242 -0.4759  1.1561
 2295SOL     OW18346   2.046   3.926   6.232 -0.3667  0.3368  0.0666
 2295SOL    HW118347   2.105   3.866   6.278  0.5877  0.4155 -1.0362
 2295SOL    HW218348   2.105   3.966   6.168  1.7163  0.9852  2.3848
 2296SOL     OW18349   0.131   2.746   6.606  0.6849  0.3117 -0.7309
 2296SOL    HW118350   0.124   2.710   6.694 -0.5729 -0.3524 -1.0950
 2296SOL    HW218351   0.225   2.739   6.590  0.4587 -0.6826 -1.6394
 2297SOL     OW18352   1.183   1.898   6.091  0.3551 -0.1704 -0.4024
 2297SOL    HW118353   1.173   1.908   6.186 -1.5511  1.6221 -0.8013
 2297SOL    HW218354   1.221   1.980   6.059 -1.9086  0.4388 -1.5158
 2298SOL     OW18355   2.056   0.443   7.450  0.0279 -0.0977  0.1668
 2298SOL    HW118356   2.085   0.355   7.426 -0.5707 -0.1523 -0.3412
 2298SOL    HW218357   1.966   0.423   7.475 -0.5070 -0.6185 -2.1236
 2299SOL     OW18358   4.634   3.796   6.315 -0.0921  0.1238 -0.0501
 2299SOL    HW118359   4.684   3.860   6.366 -1.4235 -0.2324  1.6669
 2299SOL    HW218360   4.542   3.818   6.323 -0.7110 -2.5680  0.1905
 2300SOL     OW18361   4.700   0.317   6.773 -0.3156 -1.0530 -0.6485
 2300SOL    HW118362   4.720   0.227   6.747  0.9788 -1.2116  0.8835
 2300SOL    HW218363   4.688   0.349   6.683 -1.1034  0.8976  0.1564
 2301SOL     OW18364   0.508   2.773   4.211 -0.0158 -0.0786  0.0083
 2301SOL    HW118365   0.581   2.711   4.212 -1.6403 -1.9997  0.9855
 2301SOL    HW218366   0.525   2.821   4.292  0.7055  1.5260 -1.1017
 2302SOL     OW18367   1.609   1.697   6.795  0.0423  0.3044  0.3634
 2302SOL    HW118368   1.603   1.664   6.885 -1.5961  0.4341  0.2915
 2302SOL    HW218369   1.526   1.662   6.763  0.7717 -2.6794  1.7364
 2303SOL     OW18370   4.490   1.432   1.870  0.2242 -0.0787  0.4670
 2303SOL    HW118371   4.465   1.389   1.789 -0.2872 -0.9012  1.0605
 2303SOL    HW218372   4.502   1.349   1.918 -1.5408 -1.5232 -1.5719
 2304SOL     OW18373   1.320   2.410   1.193  0.4129 -0.0055 -0.0976
 2304SOL    HW118374   1.239   2.404   1.243 -0.3619 -0.7500 -1.4568
 2304SOL    HW218375   1.378   2.344   1.232  0.1861  0.8981  1.7617
 2305SOL     OW18376   0.481   4.083   3.176  0.1016  0.1538 -0.6473
 2305SOL    HW118377   0.459   4.044   3.091 -1.8562 -1.5637  0.6441
 2305SOL    HW218378   0.413   4.041   3.229 -0.7405 -0.5075 -2.2628
 2306SOL     OW18379   1.869   4.588   8.166 -0.4443  0.0779 -0.1253
 2306SOL    HW118380   1.950   4.590   8.116 -0.1876  0.5410  0.3085
 2306SOL    HW218381   1.822   4.520   8.118 -0.1626  0.4518 -0.9322
 2307SOL     OW18382   2.550   0.706   3.727  0.6093 -0.0508  0.2016
 2307SOL    HW118383   2.485   0.736   3.663  0.1677 -0.6556  0.3692
 2307SOL    HW218384   2.630   0.735   3.682  0.5157  0.2957  0.2532
 2308SOL     OW18385   3.528   1.648   8.398 -0.4876  0.3747 -0.4255
 2308SOL    HW118386   3.552   1.741   8.393 -0.3024  0.2823 -1.2416
 2308SOL    HW218387   3.520   1.630   8.492 -0.2015 -2.0467 -0.8637
 2309SOL     OW18388   2.702   3.903  13.450  0.3981 -0.2352  0.3452
 2309SOL    HW118389   2.654   3.921  13.531  1.0143  1.2252  0.3832
 2309SOL    HW218390   2.662   3.828  13.405 -0.4124  1.3923 -1.6619
 2310SOL     OW18391   2.689   1.350  10.464  0.2313 -0.0390  0.6934
 2310SOL    HW118392   2.601   1.312  10.470 -0.1977  0.6332 -1.4707
 2310SOL    HW218393   2.743   1.287  10.511  0.4168  0.0087  0.5427
 2311SOL     OW18394   4.527   0.682   4.537  0.2106  0.6511  0.4552
 2311SOL    HW118395   4.612   0.690   4.492 -0.8926 -1.2858 -1.9559
 2311SOL    HW218396   4.459   0.730   4.489  1.2436  2.6165  0.9433
 2312SOL     OW18397   2.329   3.091   0.836  0.3394  0.8862  0.0577
 2312SOL    HW118398   2.342   3.154   0.766  1.6695 -2.3701 -2.6307
 2312SOL    HW218399   2.281   3.017   0.799 -0.1992  1.5705 -0.6003
 2313SOL     OW18400   3.187   4.693   6.364  0.2276  0.0920 -0.0696
 2313SOL    HW118401   3.159   4.611   6.323 -1.1337  0.2812  0.4720
 2313SOL    HW218402   3.200   4.665   6.455  0.9287 -2.3378 -0.9212
 2314SOL     OW18403   0.137   1.853   5.037 -0.2139 -0.3755 -0.3780
 2314SOL    HW118404   0.160   1.825   4.949  1.6173  0.8533 -0.2961
 2314SOL    HW218405   0.119   1.773   5.087  1.1965  1.0525  2.4158
 2315SOL     OW18406   2.981   1.384   5.240  0.2260  0.4708 -0.4809
 2315SOL    HW118407   2.973   1.462   5.185  0.6383  0.4667 -0.5497
 2315SOL    HW218408   3.012   1.316   5.179  2.3626  1.7795 -0.8690
 2316SOL     OW18409   2.753   0.007  10.562 -0.5657 -0.2966  0.8202
 2316SOL    HW118410   2.846   0.018  10.585 -0.7928  1.0351  1.0892
 2316SOL    HW218411   2.740   0.090  10.517 -0.3481 -1.1368 -0.8031
 2317SOL     OW18412   4.376   1.069   7.888  0.6284 -0.4691  0.2726
 2317SOL    HW118413   4.296   1.106   7.927  1.8024  1.6143  0.6886
 2317SOL    HW218414   4.413   1.149   7.851 -0.0211  0.2885  1.2471
 2318SOL     OW18415   2.146   2.549   7.993  0.0609 -0.4385  0.1003
 2318SOL    HW118416   2.109   2.492   8.060 -2.0149  0.8245  0.0541
 2318SOL    HW218417   2.120   2.505   7.913 -1.0024  0.1696  0.1070
 2319SOL     OW18418   1.043   0.916   1.190  0.1826  0.1569 -0.8427
 2319SOL    HW118419   0.965   0.958   1.155  0.4453  1.1280 -0.2859
 2319SOL    HW218420   1.009   0.849   1.249  1.9392 -1.6280 -1.8608
 2320SOL     OW18421   3.946   4.432   5.819  0.2959 -0.4771 -0.2009
 2320SOL    HW118422   3.915   4.487   5.891  1.4720  0.5744 -0.4897
 2320SOL    HW218423   3.998   4.372   5.871 -0.2896 -1.2865 -0.5411
 2321SOL     OW18424   0.154   2.446   3.976 -0.1516 -0.7151  0.3811
 2321SOL    HW118425   0.184   2.357   3.958  0.3979  0.2336 -3.2909
 2321SOL    HW218426   0.116   2.419   4.060 -0.9803 -1.3581 -0.1980
 2322SOL     OW18427   2.179   4.504   7.785  0.0820 -0.1056  0.4830
 2322SOL    HW118428   2.165   4.582   7.838 -2.3472  0.1929 -0.5889
 2322SOL    HW218429   2.161   4.439   7.852 -0.1521  0.5535  1.0523
 2323SOL     OW18430   3.462   4.665   2.512 -0.3182 -0.3004  0.1733
 2323SOL    HW118431   3.486   0.027   2.477  0.1531 -0.2584  0.5992
 2323SOL    HW218432   3.368   4.678   2.525 -0.7425 -0.5837 -2.6021
 2324SOL     OW18433   3.409   0.915   1.954 -0.2136 -0.1727 -0.1428
 2324SOL    HW118434   3.445   1.001   1.978 -1.5129 -0.1414  1.6468
 2324SOL    HW218435   3.338   0.943   1.896 -1.2034  0.5984  1.4408
 2325SOL     OW18436   0.437   1.957  10.619  0.0478  0.2910 -0.6023
 2325SOL    HW118437   0.519   1.961  10.570 -0.2985  1.4378 -1.0891
 2325SOL    HW218438   0.461   1.987  10.706  1.0258 -0.8471 -0.4811
 2326SOL     OW18439   1.205   4.053   7.140  0.1151 -0.4986 -0.4021
 2326SOL    HW118440   1.150   3.991   7.092 -1.0199 -0.2936  0.6451
 2326SOL    HW218441   1.273   3.988   7.159 -0.9388 -0.9884  1.7283
 2327SOL     OW18442   3.021   0.014  16.960 -0.1158  0.2566  0.3230
 2327SOL    HW118443   3.068   4.700  16.885  0.9977 -0.0290  1.1599
 2327SOL    HW218444   3.081   4.710  17.029 -1.6776  0.0011  1.5604
 2328SOL     OW18445   1.884   1.877   0.540  0.0435 -0.2114 -0.4836
 2328SOL    HW118446   1.846   1.844   0.621  0.8397  2.2603  0.8970
 2328SOL    HW218447   1.914   1.966   0.561 -1.4562 -0.1870  1.6072
 2329SOL     OW18448   4.345   4.706   6.360 -0.0723 -0.3957 -0.1054
 2329SOL    HW118449   4.280   4.676   6.424  1.1246 -1.2176  0.7398
 2329SOL    HW218450   4.379   0.058   6.407 -0.1425 -0.7043  0.4503
 2330SOL     OW18451   0.188   3.524   3.905  0.7798  1.0385 -0.5278
 2330SOL    HW118452   0.259   3.480   3.857  1.7360 -0.4589  2.2959
 2330SOL    HW218453   0.177   3.462   3.977  0.4712  2.7734  0.9128
 2331SOL     OW18454   1.756   2.892   4.464 -0.0992 -0.0380  0.2851
 2331SOL    HW118455   1.778   2.841   4.386 -0.4392 -0.9016  0.7555
 2331SOL    HW218456   1.702   2.825   4.506  0.0858 -0.3094  0.0903
 2332SOL     OW18457   2.378   0.532   1.050 -0.0303 -0.3406 -0.1067
 2332SOL    HW118458   2.399   0.468   0.982  2.3985  1.1939 -0.8218
 2332SOL    HW218459   2.286   0.520   1.074  0.0569  1.7676  1.3367
 2333SOL     OW18460   1.258   3.050   9.590 -0.2089 -0.4768  0.3626
 2333SOL    HW118461   1.317   3.100   9.646  0.6548  0.2772 -1.2174
 2333SOL    HW218462   1.322   2.997   9.542 -0.5835 -0.6577  0.0617
 2334SOL     OW18463   4.683   4.200   8.636  0.4163  0.6020 -0.7001
 2334SOL    HW118464   4.597   4.190   8.676  0.0755  1.4835 -1.2203
 2334SOL    HW218465   4.720   4.271   8.688 -1.3587 -0.6666  2.2817
 2335SOL     OW18466   2.699   0.820  12.537 -0.1184  0.2180 -0.2707
 2335SOL    HW118467   2.758   0.753  12.502  0.0091 -0.4947  1.3133
 2335SOL    HW218468   2.614   0.783  12.512  1.7219 -1.4006 -4.2718
 2336SOL     OW18469   0.953   0.139  13.733  0.1188  0.2861  0.0541
 2336SOL    HW118470   0.918   0.192  13.662 -0.4328  1.1789  0.9992
 2336SOL    HW218471   0.884   0.168  13.793 -1.0993 -1.7475 -0.3568
 2337SOL     OW18472   0.721   3.574   8.387 -0.7156 -0.2739 -0.2169
 2337SOL    HW118473   0.662   3.649   8.383 -1.2862 -0.7724 -1.1755
 2337SOL    HW218474   0.659   3.502   8.376 -3.2057  1.5773  1.8756
 2338SOL     OW18475   3.682   2.287  10.796  0.1742  0.2423  0.1047
 2338SOL    HW118476   3.605   2.344  10.799  0.5732  0.6953  2.3607
 2338SOL    HW218477   3.666   2.214  10.856  0.4258 -0.3028 -0.4941
 2339SOL     OW18478   0.718   0.559   2.652  0.8261 -0.0186 -0.0601
 2339SOL    HW118479   0.630   0.527   2.635 -0.0191  2.6657 -0.8268
 2339SOL    HW218480   0.701   0.638   2.704 -0.6980 -0.5262  0.2166
 2340SOL     OW18481   3.686   3.423   8.432 -0.8045 -0.2311  0.3210
 2340SOL    HW118482   3.595   3.410   8.458 -0.6767  1.2185  1.4760
 2340SOL    HW218483   3.661   3.408   8.341  2.9198 -0.1984 -0.7017
 2341SOL     OW18484   3.644   4.693  14.120 -0.3973  0.0320 -0.0325
 2341SOL    HW118485   3.566   4.655  14.079 -0.1190  1.0134 -1.4804
 2341SOL    HW218486   3.687   4.618  14.161 -2.1675 -0.6037  0.6457
 2342SOL     OW18487   3.177   0.881   4.413  0.8103 -0.0639 -0.9160
 2342SOL    HW118488   3.261   0.897   4.370 -0.7001  0.8169 -3.5358
 2342SOL    HW218489   3.147   0.968   4.439  3.4585  0.9052 -1.1348
 2343SOL     OW18490   0.149   3.197   1.223 -0.3332  0.3549 -0.3447
 2343SOL    HW118491   0.088   3.201   1.296 -0.6415  1.3356 -0.6669
 2343SOL    HW218492   0.208   3.271   1.234 -0.1270  0.3250 -1.1796
 2344SOL     OW18493   4.032   2.799   2.583 -0.4004 -0.6864 -0.7581
 2344SOL    HW118494   3.961   2.813   2.520 -1.9622  2.1726  1.6372
 2344SOL    HW218495   4.004   2.716   2.622 -3.4903 -0.4082 -2.3923
 2345SOL     OW18496   3.496   2.587  17.358  0.1418  0.9028 -0.2468
 2345SOL    HW118497   3.515   2.497  17.383  1.4869  0.6382 -2.2293
 2345SOL    HW218498   3.459   2.630  17.435  0.9838  1.3335 -0.0757
 2346SOL     OW18499   3.949   2.198   8.533  0.5713  0.6625  0.4776
 2346SOL    HW118500   3.996   2.166   8.610  0.5577 -0.2794  0.0926
 2346SOL    HW218501   4.002   2.159   8.464 -0.7249  0.9818 -0.7030
 2347SOL     OW18502   1.536   2.576   2.687 -0.0079 -0.2324  0.5045
 2347SOL    HW118503   1.596   2.524   2.741 -1.7248 -1.6525  1.0543
 2347SOL    HW218504   1.584   2.604   2.610 -0.7701 -0.1595  0.0593
 2348SOL     OW18505   3.383   3.320   7.887  0.1242 -0.5956 -0.8125
 2348SOL    HW118506   3.356   3.385   7.823 -0.2463 -0.5427 -0.6015
 2348SOL    HW218507   3.457   3.280   7.842 -1.0112 -4.1430  0.4975
 2349SOL     OW18508   2.641   0.494  13.560  0.2953  0.3430 -0.7709
 2349SOL    HW118509   2.677   0.562  13.616  0.9687 -1.7014  1.3089
 2349SOL    HW218510   2.549   0.518  13.557  0.2164  0.0457 -0.8005
 2350SOL     OW18511   2.277   0.653   5.673 -0.3806  0.1912 -0.6861
 2350SOL    HW118512   2.271   0.599   5.594 -1.7113 -0.7470  0.0554
 2350SOL    HW218513   2.205   0.615   5.723 -0.2730 -0.1539 -0.7940
 2351SOL     OW18514   3.972   1.203   0.189  0.3957 -0.3233 -0.4033
 2351SOL    HW118515   3.953   1.126   0.241 -0.7727 -0.1212 -0.5107
 2351SOL    HW218516   4.058   1.186   0.151 -0.2902  0.4607 -2.3160
 2352SOL     OW18517   1.187   4.453   5.891 -0.3279 -0.0856  0.6747
 2352SOL    HW118518   1.205   4.536   5.847  0.8701  0.2309  1.7287
 2352SOL    HW218519   1.211   4.386   5.828  0.7951 -1.3179  2.4197
 2353SOL     OW18520   0.074   0.566   6.426  0.9849 -0.0833  1.1084
 2353SOL    HW118521   0.153   0.564   6.372 -0.7838 -0.9222 -1.4781
 2353SOL    HW218522   0.117   0.557   6.511 -0.4166  0.7574  1.8953
 2354SOL     OW18523   3.673   1.070   6.938 -0.2806  0.0397  0.0984
 2354SOL    HW118524   3.719   1.025   7.008 -1.6583  0.6546  1.3960
 2354SOL    HW218525   3.739   1.128   6.898 -0.5704 -1.0051 -1.8967
 2355SOL     OW18526   2.030   2.317   9.157 -0.1525  0.4766 -0.1021
 2355SOL    HW118527   1.970   2.390   9.144 -1.4985 -0.1974  2.4957
 2355SOL    HW218528   2.047   2.331   9.250 -3.7509  0.1070  0.5730
 2356SOL     OW18529   1.916   0.333   2.330  0.5062 -0.2616  0.1181
 2356SOL    HW118530   1.833   0.378   2.317  0.6977 -0.0281 -0.2875
 2356SOL    HW218531   1.968   0.412   2.342  2.9690 -1.5938 -1.7550
 2357SOL     OW18532   3.362   4.661   8.163 -0.0768  0.1937 -0.0251
 2357SOL    HW118533   3.329   4.591   8.107  1.1893 -0.3745 -0.0564
 2357SOL    HW218534   3.373   0.014   8.109 -0.0593  0.7717  0.8029
 2358SOL     OW18535   3.427   1.425   4.801  0.3288 -0.3178  0.2403
 2358SOL    HW118536   3.521   1.439   4.795  0.2810  0.4884  1.3624
 2358SOL    HW218537   3.398   1.429   4.710  1.2598  4.1611  0.1451
 2359SOL     OW18538   1.373   2.081   1.870 -0.0689  0.0424  0.2398
 2359SOL    HW118539   1.331   2.044   1.792  0.9256  2.0419 -1.2321
 2359SOL    HW218540   1.374   2.176   1.855  3.2240 -0.5673 -3.2648
 2360SOL     OW18541   3.146   1.554   6.646  0.4662 -0.2680 -0.2852
 2360SOL    HW118542   3.069   1.522   6.692  0.5685  0.6854  0.5593
 2360SOL    HW218543   3.187   1.477   6.607  0.9810  0.4316 -1.1349
 2361SOL     OW18544   2.927   3.158  14.498 -0.0436  0.2465 -0.0159
 2361SOL    HW118545   2.997   3.107  14.541  0.1656  1.2321  0.8164
 2361SOL    HW218546   2.969   3.193  14.420 -0.4934  0.5897 -0.1006
 2362SOL     OW18547   2.781   3.169   6.953 -0.2239  0.3175 -0.0027
 2362SOL    HW118548   2.690   3.188   6.976  0.0127  0.9391  0.4283
 2362SOL    HW218549   2.766   3.092   6.898 -0.7401 -0.3147  1.0036
 2363SOL     OW18550   2.356   2.473  13.717  0.1159 -0.2963  0.0954
 2363SOL    HW118551   2.419   2.527  13.766 -0.3186 -1.5815  2.0493
 2363SOL    HW218552   2.358   2.519  13.633  0.2106  1.4002  1.0218
 2364SOL     OW18553   1.897   3.740   5.574 -0.7747 -0.1832  0.3060
 2364SOL    HW118554   1.882   3.648   5.596  2.6321 -0.0133  3.1772
 2364SOL    HW218555   1.956   3.770   5.643 -1.1479  1.7200 -0.1891
 2365SOL     OW18556   4.513   0.999   7.011  0.8662 -0.5588 -0.0726
 2365SOL    HW118557   4.458   0.973   7.085 -1.3365 -0.5104 -1.7207
 2365SOL    HW218558   4.456   1.007   6.935  0.1673 -2.5877  0.2374
 2366SOL     OW18559   0.448   4.178  10.307  0.4423 -0.1694 -0.0502
 2366SOL    HW118560   0.509   4.105  10.317 -0.3113 -0.9410 -1.0964
 2366SOL    HW218561   0.362   4.140  10.288 -0.5672  0.6812  2.7366
 2367SOL     OW18562   3.552   1.573   6.208  1.1897  0.3340  0.7537
 2367SOL    HW118563   3.574   1.490   6.165  1.6508  0.9114 -0.1230
 2367SOL    HW218564   3.463   1.594   6.183  0.5982 -2.9105  0.1021
 2368SOL     OW18565   0.998   0.195   4.197 -0.0854  0.3936 -0.4042
 2368SOL    HW118566   1.071   0.149   4.239 -2.5467 -0.9523  2.4145
 2368SOL    HW218567   1.008   0.270   4.256  0.0900  0.7831 -0.9328
 2369SOL     OW18568   2.484   0.267   5.152  0.2477  0.2570 -0.4261
 2369SOL    HW118569   2.550   0.203   5.179 -1.0431 -0.3191  1.3805
 2369SOL    HW218570   2.451   0.277   5.241 -0.0449  0.4092 -0.5533
 2370SOL     OW18571   3.000   3.665  16.729  0.4055  0.4286 -0.3854
 2370SOL    HW118572   2.938   3.670  16.657  1.3499 -0.0454 -1.2271
 2370SOL    HW218573   2.971   3.584  16.771 -0.9722  1.2717  0.3076
 2371SOL     OW18574   1.808   3.821  16.972  0.0674 -0.1198  0.5879
 2371SOL    HW118575   1.732   3.841  16.917 -1.0266 -1.0212  1.7660
 2371SOL    HW218576   1.859   3.901  16.960  2.4589 -1.5940  0.9903
 2372SOL     OW18577   1.593   0.438   9.526 -0.0993  0.2173  0.0385
 2372SOL    HW118578   1.582   0.371   9.459  1.3045  0.5030 -0.4780
 2372SOL    HW218579   1.622   0.388   9.602  0.1509  1.7743  0.9688
 2373SOL     OW18580   0.636   1.900   1.811  0.4600 -0.0942 -0.1745
 2373SOL    HW118581   0.567   1.943   1.861 -0.1877 -1.4065  0.0655
 2373SOL    HW218582   0.580   1.861   1.744  0.7623  0.1126 -0.5436
 2374SOL     OW18583   0.449   2.458   5.440 -0.3011  0.4806 -0.0659
 2374SOL    HW118584   0.510   2.475   5.512  1.8082 -2.2132 -1.2287
 2374SOL    HW218585   0.469   2.365   5.427  0.1773  0.1743  2.7324
 2375SOL     OW18586   3.470   1.185   1.990 -0.3249  0.4457 -0.9448
 2375SOL    HW118587   3.399   1.235   1.951 -2.1151  0.0057  1.7608
 2375SOL    HW218588   3.544   1.205   1.933 -0.1858  0.4961 -0.7461
 2376SOL     OW18589   4.339   0.639  17.206  0.2022 -0.2404 -0.2074
 2376SOL    HW118590   4.278   0.568  17.188  0.0358  0.0268 -0.6800
 2376SOL    HW218591   4.298   0.713  17.162  2.2059  0.6808 -0.5099
 2377SOL     OW18592   3.822   2.501   7.007  0.0469  0.2675 -0.0998
 2377SOL    HW118593   3.738   2.505   6.961 -0.3080  2.5918  0.7534
 2377SOL    HW218594   3.885   2.515   6.937 -1.5176  2.3360 -1.0760
 2378SOL     OW18595   2.237   1.645   0.542 -0.3554 -0.3811  0.2205
 2378SOL    HW118596   2.277   1.558   0.539 -0.3908 -0.3951  0.1638
 2378SOL    HW218597   2.148   1.622   0.515 -0.6398  1.0848 -0.1391
 2379SOL     OW18598   3.062   3.496   4.802  0.7095  0.0799  0.0136
 2379SOL    HW118599   3.054   3.559   4.874  3.2611 -0.4224  0.7328
 2379SOL    HW218600   3.028   3.422   4.854 -2.4074  1.9510  0.6382
 2380SOL     OW18601   1.944   2.714   0.864  0.1052  0.1269 -0.0475
 2380SOL    HW118602   1.859   2.736   0.902 -0.2102  0.0320 -0.6961
 2380SOL    HW218603   1.932   2.729   0.770  2.2578 -0.8302 -0.4852
 2381SOL     OW18604   1.228   1.096   4.563  0.2324  0.3742 -0.2337
 2381SOL    HW118605   1.210   1.009   4.599 -1.3479  0.3708 -1.0326
 2381SOL    HW218606   1.135   1.117   4.548 -1.1280 -4.1334  1.8552
 2382SOL     OW18607   2.185   1.678  15.387 -0.4081 -0.2020 -0.2892
 2382SOL    HW118608   2.264   1.687  15.333  0.8454  1.5475  1.8753
 2382SOL    HW218609   2.226   1.663  15.472  0.5678  0.1602 -0.6941
 2383SOL     OW18610   2.241   0.880   8.346  0.1555 -0.0832 -0.0334
 2383SOL    HW118611   2.319   0.917   8.388  1.0761 -0.4730 -1.4214
 2383SOL    HW218612   2.269   0.796   8.310 -0.7184  0.5459 -2.1549
 2384SOL     OW18613   1.936   3.138   8.681 -0.1260 -0.2055 -0.3425
 2384SOL    HW118614   1.912   3.144   8.589 -1.9431 -1.5677  0.0347
 2384SOL    HW218615   2.005   3.201   8.701 -0.3120 -0.6019  1.5719
 2385SOL     OW18616   2.079   2.400   6.515  0.4493 -0.2682 -0.3655
 2385SOL    HW118617   2.099   2.391   6.608 -2.1037  0.8463  0.3120
 2385SOL    HW218618   2.090   2.314   6.477 -1.4063 -1.1530  1.0434
 2386SOL     OW18619   0.898   0.380  13.520 -0.3266 -0.2464  0.1190
 2386SOL    HW118620   0.880   0.313  13.454 -1.0000  1.3363 -1.3026
 2386SOL    HW218621   0.981   0.418  13.490 -1.2065  0.7772 -1.0547
 2387SOL     OW18622   3.794   4.495  17.593 -0.4889 -0.6219 -0.0004
 2387SOL    HW118623   3.783   4.443  17.514 -0.5327  0.7868 -0.9075
 2387SOL    HW218624   3.850   4.437  17.645 -0.8136 -1.9067 -1.0913
 2388SOL     OW18625   0.221   0.524  16.038  0.3474 -0.0413 -0.8079
 2388SOL    HW118626   0.265   0.590  15.984  1.7758  1.3020  2.0441
 2388SOL    HW218627   0.177   0.477  15.966  0.3146  0.2521 -0.9791
 2389SOL     OW18628   1.807   1.201  15.162 -0.4849 -0.0807  0.4876
 2389SOL    HW118629   1.759   1.175  15.240 -1.1280  2.1459  0.8169
 2389SOL    HW218630   1.865   1.125  15.151  0.9457  0.7862  2.0750
 2390SOL     OW18631   0.439   3.555   6.384 -0.3669 -0.3612  0.1249
 2390SOL    HW118632   0.517   3.501   6.372  1.5024  2.5839 -1.0195
 2390SOL    HW218633   0.410   3.558   6.292  1.0738 -0.8868 -0.3320
 2391SOL     OW18634   4.336   3.039   4.818  0.1534  0.2617 -0.1037
 2391SOL    HW118635   4.394   3.029   4.742  1.6592 -2.7599  1.4426
 2391SOL    HW218636   4.349   3.133   4.830 -0.3315  0.6130 -2.2218
 2392SOL     OW18637   0.283   3.730   6.495 -0.1202 -0.5167 -0.7585
 2392SOL    HW118638   0.206   3.699   6.447  0.1992 -0.2820 -1.4281
 2392SOL    HW218639   0.346   3.672   6.452  2.0326 -0.1067  1.8256
 2393SOL     OW18640   0.069   0.712   1.758  0.0296  0.1625  0.4639
 2393SOL    HW118641   4.724   0.734   1.697  0.2982 -0.8406 -0.1884
 2393SOL    HW218642   0.111   0.645   1.704  0.7055  0.3019  0.8106
 2394SOL     OW18643   4.085   1.971   5.775  0.0778 -0.0153  0.5737
 2394SOL    HW118644   4.098   1.938   5.686  1.5726  1.4867  0.2402
 2394SOL    HW218645   4.173   2.001   5.797  0.1153 -0.0485  0.4681
 2395SOL     OW18646   3.527   3.196  15.596  0.0707 -0.5406  0.1666
 2395SOL    HW118647   3.556   3.206  15.505  0.8419  3.2690  0.8135
 2395SOL    HW218648   3.533   3.288  15.624 -0.8619 -0.6396  0.6928
 2396SOL     OW18649   2.652   0.470  12.377 -0.5588 -0.5209 -0.1784
 2396SOL    HW118650   2.735   0.508  12.407 -1.2330 -1.0971  2.3595
 2396SOL    HW218651   2.646   0.391  12.430 -1.3801  0.5079  1.2705
 2397SOL     OW18652   4.288   2.310   1.056  0.1204  0.1345 -0.1680
 2397SOL    HW118653   4.267   2.218   1.073 -2.6306  0.7543 -0.1864
 2397SOL    HW218654   4.363   2.300   0.997 -0.0402  1.8104 -0.6510
 2398SOL     OW18655   4.713   4.335   3.419  0.4012  0.1759 -0.2182
 2398SOL    HW118656   4.657   4.270   3.462 -0.8095 -0.0046 -2.0382
 2398SOL    HW218657   4.681   4.328   3.329 -2.3295 -1.0707  0.8406
 2399SOL     OW18658   0.718   0.058  13.028 -0.7334  0.0632  0.3916
 2399SOL    HW118659   0.775   0.131  13.052 -0.6753  0.1417  0.0154
 2399SOL    HW218660   0.679   0.100  12.951 -0.7391 -0.3280  0.1829
 2400SOL     OW18661   1.310   0.407   9.803  0.2665  0.6773 -0.3736
 2400SOL    HW118662   1.236   0.402   9.863  0.8454  0.7031  0.3396
 2400SOL    HW218663   1.276   0.366   9.723 -0.9973 -1.1772  1.1154
 2401SOL     OW18664   0.203   1.581   5.080 -0.6284  0.4275 -0.2119
 2401SOL    HW118665   0.289   1.599   5.043 -1.3937  0.2227 -2.1316
 2401SOL    HW218666   0.145   1.553   5.009 -0.3772 -1.1133  0.1878
 2402SOL     OW18667   0.510   0.731   2.456 -0.3989 -0.1312 -0.3409
 2402SOL    HW118668   0.481   0.808   2.504 -1.7919 -0.7589 -0.1767
 2402SOL    HW218669   0.439   0.718   2.393 -0.0838 -0.3218 -0.6548
 2403SOL     OW18670   3.866   1.457  14.947  0.3492  0.5066 -0.2155
 2403SOL    HW118671   3.841   1.527  15.008 -0.6506  1.4453 -1.7037
 2403SOL    HW218672   3.927   1.404  14.999  0.3684 -1.8145 -2.6395
 2404SOL     OW18673   1.254   4.013   8.228 -0.7760  0.5779  0.4913
 2404SOL    HW118674   1.185   3.951   8.206  0.1940  0.8155 -3.2419
 2404SOL    HW218675   1.273   3.998   8.321 -0.4920  0.4239  0.4071
 2405SOL     OW18676   2.712   3.239   0.150  0.1976  0.1161  0.1618
 2405SOL    HW118677   2.695   3.182   0.075 -0.9610 -1.3845  1.5642
 2405SOL    HW218678   2.791   3.207   0.194  0.1122  0.2775  0.4295
 2406SOL     OW18679   3.996   2.993  12.790  0.1531  0.1699 -0.1102
 2406SOL    HW118680   3.917   2.954  12.752 -0.6835  1.6447  0.1104
 2406SOL    HW218681   4.065   2.937  12.754  2.0496  2.3752  0.1324
 2407SOL     OW18682   0.256   4.589   9.016 -0.1492 -0.1787  0.0261
 2407SOL    HW118683   0.179   4.542   8.985 -0.1639  0.4932 -0.9845
 2407SOL    HW218684   0.247   4.568   9.108 -0.2484 -0.3710 -0.0277
 2408SOL     OW18685   4.465   0.550   9.599 -0.1146  0.1330  0.3730
 2408SOL    HW118686   4.424   0.514   9.521 -1.0644 -0.8145  1.3239
 2408SOL    HW218687   4.549   0.504   9.604 -1.1686 -1.8863 -0.7492
 2409SOL     OW18688   3.430   1.168   2.261  0.4045  0.0538 -0.3095
 2409SOL    HW118689   3.371   1.094   2.267  1.4337 -0.4752  3.6030
 2409SOL    HW218690   3.430   1.175   2.165  0.5189 -1.9407 -0.4526
 2410SOL     OW18691   0.211   0.985  10.478 -0.3469  0.3902 -0.5932
 2410SOL    HW118692   0.124   1.015  10.506 -0.9548  0.7036 -2.7517
 2410SOL    HW218693   0.250   1.056  10.426  2.3582  0.9104  2.1993
 2411SOL     OW18694   4.098   4.561   3.153  0.1222  0.2337  0.3031
 2411SOL    HW118695   4.073   4.568   3.245 -0.2995 -2.8210  0.4329
 2411SOL    HW218696   4.071   4.471   3.134  1.6477  0.2905 -2.1043
 2412SOL     OW18697   2.707   1.750  15.755 -0.2994 -0.5607  0.0776
 2412SOL    HW118698   2.708   1.667  15.803  2.3770 -0.6644 -0.1765
 2412SOL    HW218699   2.798   1.773  15.770  0.4188 -1.8656 -2.3807
 2413SOL     OW18700   1.129   2.694   6.106  0.7811 -0.6707  0.1215
 2413SOL    HW118701   1.157   2.784   6.090 -3.4046  0.2938 -1.9031
 2413SOL    HW218702   1.212   2.655   6.080  0.1204 -0.1196 -2.8639
 2414SOL     OW18703   1.266   0.833   2.921  0.5086  0.5671 -0.0474
 2414SOL    HW118704   1.296   0.743   2.933  1.4910  0.8028 -0.7569
 2414SOL    HW218705   1.198   0.823   2.854  1.1980 -0.8276 -0.5292
 2415SOL     OW18706   3.262   0.956   2.282 -0.1070 -0.2005  0.1931
 2415SOL    HW118707   3.290   0.867   2.260 -0.1754 -0.2506  0.3070
 2415SOL    HW218708   3.180   0.974   2.236 -0.1891 -1.2054 -0.0656
 2416SOL     OW18709   0.385   1.042   0.011 -0.4147  0.5166 -0.2332
 2416SOL    HW118710   0.339   1.000  17.638  1.8253  0.6660 -1.7517
 2416SOL    HW218711   0.312   1.074   0.063  0.9013 -0.1863  2.1105
 2417SOL     OW18712   1.500   3.341  11.849 -0.1750 -0.2687 -0.3114
 2417SOL    HW118713   1.452   3.323  11.929 -2.0499  0.4045 -1.2826
 2417SOL    HW218714   1.493   3.437  11.844  2.2012 -0.0286  0.8481
 2418SOL     OW18715   3.300   1.428   3.749  0.3444  0.4848  0.1385
 2418SOL    HW118716   3.248   1.439   3.670 -0.7332 -2.2737  0.4692
 2418SOL    HW218717   3.229   1.400   3.807 -0.1960  1.0762 -0.2383
 2419SOL     OW18718   4.077   4.053   7.178  0.3743 -0.3846 -0.4174
 2419SOL    HW118719   4.096   4.145   7.193 -0.2541 -0.4851  0.9854
 2419SOL    HW218720   4.137   4.017   7.243  0.9572  1.6671  0.1803
 2420SOL     OW18721   0.587   3.663   9.204  0.4455  0.1393  1.0547
 2420SOL    HW118722   0.556   3.722   9.272 -1.9516 -0.5036  0.5138
 2420SOL    HW218723   0.682   3.674   9.208  0.5485  1.1006 -3.2484
 2421SOL     OW18724   3.385   2.029   6.788  0.4451  0.3353 -0.1859
 2421SOL    HW118725   3.401   2.085   6.864  0.6845 -0.8853  0.6706
 2421SOL    HW218726   3.342   2.085   6.724  0.9564  0.7912 -0.1271
 2422SOL     OW18727   4.709   4.187   5.789 -0.0237  0.2180 -0.1075
 2422SOL    HW118728   4.654   4.265   5.793 -2.9558 -1.8950  1.0786
 2422SOL    HW218729   4.713   4.168   5.883 -1.1765 -0.4297 -0.1938
 2423SOL     OW18730   2.917   3.342   3.184 -0.4035  0.1847  0.2600
 2423SOL    HW118731   2.848   3.408   3.187  0.2617  0.9967 -1.8104
 2423SOL    HW218732   2.989   3.391   3.143  0.3513 -1.8199 -0.8158
 2424SOL     OW18733   3.285   2.679  13.514 -0.3154  0.0620  0.7692
 2424SOL    HW118734   3.243   2.599  13.544  1.7654 -1.2210  0.2548
 2424SOL    HW218735   3.292   2.725  13.598  0.5206  1.1947  0.0836
 2425SOL     OW18736   2.531   1.865   1.777  0.7284  0.3817 -0.0839
 2425SOL    HW118737   2.621   1.887   1.752  1.5252 -1.8629  0.8065
 2425SOL    HW218738   2.543   1.784   1.826 -0.6905 -0.4317 -1.0601
 2426SOL     OW18739   1.500   2.868   4.272 -0.3403  0.3364 -0.0783
 2426SOL    HW118740   1.558   2.880   4.196 -0.6170 -1.3720 -0.5530
 2426SOL    HW218741   1.418   2.871   4.223 -1.4079  2.2621  1.8194
 2427SOL     OW18742   2.241   1.787  11.384  1.1042 -0.4620 -0.0137
 2427SOL    HW118743   2.324   1.794  11.430  1.4307  1.9231 -0.9423
 2427SOL    HW218744   2.229   1.693  11.393  0.4272 -0.4357 -0.6530
 2428SOL     OW18745   3.877   4.717   6.637 -0.2010 -0.3286  0.7806
 2428SOL    HW118746   3.926   0.043   6.702  1.3103  1.8287 -2.0303
 2428SOL    HW218747   3.786   0.013   6.660 -1.0513 -0.7467 -2.2078
 2429SOL     OW18748   1.520   4.714   2.908 -0.7960  0.1593  0.1927
 2429SOL    HW118749   1.480   0.035   2.982 -2.3487 -1.4823  0.3521
 2429SOL    HW218750   1.543   0.071   2.863 -2.1320  0.5894  0.3120
 2430SOL     OW18751   1.329   3.746   4.441  0.1472  0.3018 -0.0397
 2430SOL    HW118752   1.379   3.728   4.520  2.5412 -0.4433 -1.7345
 2430SOL    HW218753   1.397   3.750   4.374  0.5800 -1.5678  0.2828
 2431SOL     OW18754   0.765   2.504   5.356  0.1553  0.4591  0.0433
 2431SOL    HW118755   0.713   2.508   5.436 -1.3261 -1.7613 -0.8064
 2431SOL    HW218756   0.833   2.564   5.388  0.4182  1.2165 -1.9082
 2432SOL     OW18757   0.722   4.534   7.427  0.1571 -0.0298 -0.7682
 2432SOL    HW118758   0.815   4.558   7.416  0.3250 -0.7206 -0.8486
 2432SOL    HW218759   0.688   4.602   7.485  1.0807 -0.6771  0.5424
 2433SOL     OW18760   0.920   0.603   3.042 -0.2232  0.7784 -0.5982
 2433SOL    HW118761   0.969   0.566   2.969  0.2380  0.6133 -0.2038
 2433SOL    HW218762   0.984   0.663   3.080 -0.7273  1.7548 -1.2807
 2434SOL     OW18763   3.018   0.260   7.231  0.0134  0.1449 -0.0318
 2434SOL    HW118764   3.029   0.270   7.136  0.1460 -0.0114 -0.0333
 2434SOL    HW218765   3.076   0.329   7.263  3.6465 -2.0550 -1.8144
 2435SOL     OW18766   0.100   0.337   7.006  0.5534 -0.2555 -0.1006
 2435SOL    HW118767   0.044   0.336   6.928 -1.4210  0.6010  1.3257
 2435SOL    HW218768   0.056   0.408   7.052 -0.1713 -1.4786  1.0767
 2436SOL     OW18769   4.437   0.930  16.089  0.1965 -0.3288  0.2231
 2436SOL    HW118770   4.398   0.970  16.167  1.9157 -0.9901  1.4375
 2436SOL    HW218771   4.434   1.002  16.026  1.0139 -0.6218 -0.1473
 2437SOL     OW18772   2.933   3.950   2.381 -0.1298 -0.5179  0.1073
 2437SOL    HW118773   2.880   4.015   2.427 -1.0167 -1.1341 -0.0638
 2437SOL    HW218774   2.901   3.970   2.293 -0.3323  0.5334  0.4139
 2438SOL     OW18775   2.718   1.624  10.506  0.3149  0.3684 -0.5513
 2438SOL    HW118776   2.719   1.528  10.506 -3.2128  0.3170  0.3168
 2438SOL    HW218777   2.810   1.647  10.509  0.2403  0.3474  1.9081
 2439SOL     OW18778   4.678   1.085   2.952  0.0634  0.0769 -0.2222
 2439SOL    HW118779   4.692   1.024   3.024 -1.1641  1.2452  1.0137
 2439SOL    HW218780   4.584   1.107   2.951  0.0777  0.0854 -1.4402
 2440SOL     OW18781   3.586   1.321   8.685 -0.1287 -0.2520 -0.5476
 2440SOL    HW118782   3.540   1.304   8.767  0.7633  0.9040  0.1880
 2440SOL    HW218783   3.540   1.402   8.664  2.7669  0.8697 -2.5696
 2441SOL     OW18784   3.133   1.984   5.162  0.1384  0.5138 -0.5124
 2441SOL    HW118785   3.041   1.968   5.182  0.4610 -2.0475 -1.0986
 2441SOL    HW218786   3.145   2.066   5.209 -3.2206  0.9675 -0.3987
 2442SOL     OW18787   4.102   1.412   6.360 -0.5208  1.0330  0.2886
 2442SOL    HW118788   4.105   1.366   6.444 -0.3287  1.4198  0.4941
 2442SOL    HW218789   4.078   1.335   6.309 -2.1904  1.5237  0.3145
 2443SOL     OW18790   4.165   2.053  12.805 -0.3243  0.2580 -0.4012
 2443SOL    HW118791   4.252   2.013  12.817  0.6548  1.7149 -2.7343
 2443SOL    HW218792   4.129   2.012  12.884 -3.0582 -1.2393 -2.4258
 2444SOL     OW18793   2.958   3.776   3.196  0.4566  0.2566  0.0412
 2444SOL    HW118794   3.002   3.796   3.113 -1.2111  0.0076 -0.9213
 2444SOL    HW218795   3.003   3.835   3.256 -1.5683  0.8610  0.9394
 2445SOL     OW18796   0.394   4.103   2.783  0.1226  0.1673  0.4929
 2445SOL    HW118797   0.442   4.174   2.740 -0.0195 -0.1750 -0.2271
 2445SOL    HW218798   0.409   4.036   2.716 -3.5909 -0.5787  0.3958
 2446SOL     OW18799   0.967   2.674   8.653 -0.6265 -0.4017 -0.2245
 2446SOL    HW118800   1.027   2.694   8.581  0.0749 -0.8625  0.2260
 2446SOL    HW218801   0.889   2.729   8.648 -1.7224 -2.1134 -2.0552
 2447SOL     OW18802   0.278   2.139   6.937  0.2346 -0.0980 -0.0802
 2447SOL    HW118803   0.336   2.198   6.889  1.2619  0.0124  1.3115
 2447SOL    HW218804   0.284   2.182   7.022  1.8471 -0.3336 -0.0608
 2448SOL     OW18805   1.128   4.168   5.627 -0.1255 -0.5305 -0.4143
 2448SOL    HW118806   1.049   4.152   5.576 -0.6628 -0.4726  0.4006
 2448SOL    HW218807   1.180   4.215   5.563  2.9259 -0.7311  1.9105
 2449SOL     OW18808   4.119   2.704   5.523  0.0600  0.5851  0.2799
 2449SOL    HW118809   4.149   2.778   5.470  3.2869  0.7609  2.3595
 2449SOL    HW218810   4.201   2.668   5.557  0.1001  0.0253 -0.4237
 2450SOL     OW18811   1.832   1.354   7.808 -0.4247  0.1298  0.1176
 2450SOL    HW118812   1.791   1.405   7.739  0.8431 -0.9634 -1.4594
 2450SOL    HW218813   1.906   1.398   7.849 -0.8451  1.2750 -0.3457
 2451SOL     OW18814   4.633   0.805  13.130 -0.0398  0.3510 -0.1945
 2451SOL    HW118815   4.701   0.866  13.103  1.1742 -0.1526  1.7383
 2451SOL    HW218816   4.583   0.800  13.048  0.4389 -0.6057 -0.4260
 2452SOL     OW18817   3.826   1.140   0.542 -0.0268 -0.6385  0.1079
 2452SOL    HW118818   3.801   1.230   0.560  0.4425 -0.2795 -1.0689
 2452SOL    HW218819   3.765   1.083   0.590 -1.7240  1.2853  0.2499
 2453SOL     OW18820   0.590   0.927   5.463  0.2082  0.2731 -0.2966
 2453SOL    HW118821   0.557   0.879   5.538 -1.8497  0.1773 -1.2649
 2453SOL    HW218822   0.542   0.880   5.394  0.5789  1.3861 -1.3099
 2454SOL     OW18823   1.164   2.074   2.061  0.1438 -0.8816 -0.2474
 2454SOL    HW118824   1.219   2.015   2.113  1.8678 -0.9677 -2.1627
 2454SOL    HW218825   1.231   2.103   1.999  0.2840 -2.8499 -1.0163
 2455SOL     OW18826   0.724   0.279   6.298  0.3997  0.1227 -0.7286
 2455SOL    HW118827   0.720   0.322   6.212  1.1495  1.3867 -0.1300
 2455SOL    HW218828   0.812   0.293   6.332  0.7131 -0.6849 -1.2275
 2456SOL     OW18829   3.462   2.665   0.931 -0.8099  0.1370  0.0133
 2456SOL    HW118830   3.384   2.672   0.876 -0.1058  3.9961 -0.5066
 2456SOL    HW218831   3.417   2.697   1.010 -0.0338  1.3805 -0.0594
 2457SOL     OW18832   3.576   1.107  12.061 -0.0739  0.2388 -0.2936
 2457SOL    HW118833   3.660   1.127  12.021  0.2586 -0.3637  0.1080
 2457SOL    HW218834   3.510   1.154  12.009 -0.8889 -0.6302 -0.0369
 2458SOL     OW18835   3.371   3.413   5.227  0.1186  0.3094  0.5706
 2458SOL    HW118836   3.285   3.430   5.266  0.5068  0.6908  1.2446
 2458SOL    HW218837   3.369   3.472   5.151  2.1578  0.2137  0.4557
 2459SOL     OW18838   2.682   3.618   1.701 -0.2717 -0.3303  0.3385
 2459SOL    HW118839   2.761   3.565   1.708  0.5535  0.7876 -0.5201
 2459SOL    HW218840   2.706   3.694   1.647  1.8191 -0.9622  0.3685
 2460SOL     OW18841   3.041   2.637   6.825  0.3203 -0.1774  0.4189
 2460SOL    HW118842   3.125   2.623   6.869 -0.5007 -0.7439  1.8450
 2460SOL    HW218843   3.068   2.633   6.734 -1.9278  0.4567 -0.2789
 2461SOL     OW18844   0.064   4.337   9.072  0.2014  0.6797  0.0075
 2461SOL    HW118845   4.713   4.348   9.129  1.7758 -0.0213  2.2195
 2461SOL    HW218846   0.103   4.267   9.125 -0.8054  0.6342  0.6645
 2462SOL     OW18847   2.882   0.767   2.359  0.1894  0.1007 -0.1863
 2462SOL    HW118848   2.925   0.852   2.359 -0.6572  0.5383  1.9731
 2462SOL    HW218849   2.796   0.789   2.394 -0.3466 -0.0571 -1.3973
 2463SOL     OW18850   4.135   3.750  12.378  0.1455  0.0912  0.0263
 2463SOL    HW118851   4.126   3.707  12.293  2.0556 -0.2156 -0.0191
 2463SOL    HW218852   4.218   3.797  12.366  0.6483 -0.6079  0.8066
 2464SOL     OW18853   2.212   1.054  15.464  0.0360  0.4027  0.4039
 2464SOL    HW118854   2.153   1.038  15.391  1.0333 -0.4752 -0.2144
 2464SOL    HW218855   2.207   1.145  15.494 -2.6160  1.2378 -2.5652
 2465SOL     OW18856   2.835   0.639   4.911  0.5498  0.4153 -0.0958
 2465SOL    HW118857   2.839   0.732   4.890 -1.7988  0.4036 -0.5432
 2465SOL    HW218858   2.743   0.626   4.936  0.7226  0.4204  0.5432
 2466SOL     OW18859   0.712   2.066   6.990  0.1406 -0.0967 -0.1113
 2466SOL    HW118860   0.632   2.040   6.944  0.2085  0.4147 -0.5211
 2466SOL    HW218861   0.763   2.096   6.914  1.1445 -2.8455 -0.5065
 2467SOL     OW18862   4.228   4.503  17.095 -0.3293 -0.5057 -0.4011
 2467SOL    HW118863   4.185   4.564  17.154 -1.4425 -0.3593 -1.3581
 2467SOL    HW218864   4.240   4.564  17.023 -1.4659 -1.2033 -1.1883
 2468SOL     OW18865   0.814   2.259   6.033  0.1159 -0.7137  0.4865
 2468SOL    HW118866   0.902   2.231   6.057 -0.7652 -2.1039  2.1364
 2468SOL    HW218867   0.833   2.341   5.987  0.1369 -0.3613  1.1349
 2469SOL     OW18868   2.876   2.459   6.061  0.3469  0.5378 -0.1405
 2469SOL    HW118869   2.819   2.478   5.986 -1.3481  0.2357  1.0591
 2469SOL    HW218870   2.925   2.389   6.017 -0.1933  0.5675 -0.8013
 2470SOL     OW18871   4.374   4.153   7.299  0.2659  0.1404 -0.4250
 2470SOL    HW118872   4.365   4.236   7.253  4.8101  1.1502  0.4960
 2470SOL    HW218873   4.469   4.149   7.306  0.2816 -0.7061 -1.0655
 2471SOL     OW18874   0.904   1.928   3.806 -0.3374  0.2056 -0.4356
 2471SOL    HW118875   0.867   1.840   3.803 -0.1398  0.1410 -1.0017
 2471SOL    HW218876   0.985   1.916   3.756  0.9690  2.6162  1.1055
 2472SOL     OW18877   3.222   0.206   2.301  0.1882  0.0955 -0.1358
 2472SOL    HW118878   3.149   0.161   2.344 -1.9999  2.5195 -1.2769
 2472SOL    HW218879   3.219   0.174   2.211 -1.2203  0.1172 -0.1084
 2473SOL     OW18880   0.917   3.990   3.380  0.4661  0.3371 -0.0789
 2473SOL    HW118881   0.832   3.946   3.381  1.0761 -0.8033  0.3803
 2473SOL    HW218882   0.980   3.923   3.356 -0.0855 -0.9070  1.9688
 2474SOL     OW18883   3.360   1.594   3.424  0.1240 -0.4795  0.0368
 2474SOL    HW118884   3.440   1.544   3.443  0.4453 -0.9127 -2.4491
 2474SOL    HW218885   3.322   1.544   3.352  0.8800  0.0663 -0.7465
 2475SOL     OW18886   4.481   0.756  10.722 -0.0585  0.4005 -0.0347
 2475SOL    HW118887   4.573   0.766  10.696  0.8088 -3.9788  1.2564
 2475SOL    HW218888   4.468   0.810  10.800  1.3386 -0.2189  0.6302
 2476SOL     OW18889   3.731   3.972  11.808  0.4880  0.3272 -0.6808
 2476SOL    HW118890   3.744   3.914  11.883  1.5488 -0.1031 -1.1953
 2476SOL    HW218891   3.771   4.052  11.843 -1.7373  1.5111 -0.8170
 2477SOL     OW18892   1.727   4.328   9.527  0.0603  0.4205 -0.2992
 2477SOL    HW118893   1.745   4.389   9.599  0.1436 -1.6183  1.3970
 2477SOL    HW218894   1.646   4.283   9.551  0.3839  0.5511  1.0337
 2478SOL     OW18895   3.700   1.250  11.072 -0.3333 -0.0894 -0.5333
 2478SOL    HW118896   3.736   1.177  11.022  0.0693  1.3142 -2.3165
 2478SOL    HW218897   3.611   1.214  11.082 -0.7641  1.0741 -0.1541
 2479SOL     OW18898   1.483   2.015   7.425  0.7897  0.0664 -0.4415
 2479SOL    HW118899   1.453   1.961   7.498  0.9915 -1.5671 -1.5604
 2479SOL    HW218900   1.401   2.034   7.379  0.1553  0.3445  0.7956
 2480SOL     OW18901   0.998   1.848   1.964 -0.9984 -0.1405  0.1205
 2480SOL    HW118902   1.079   1.803   1.987  0.0960  1.3129 -0.8763
 2480SOL    HW218903   0.998   1.928   2.017  1.0038 -0.9528  1.3351
 2481SOL     OW18904   3.512   3.347   6.184  0.3179 -0.1300 -0.0949
 2481SOL    HW118905   3.473   3.261   6.199 -1.3894  0.6963  0.1961
 2481SOL    HW218906   3.456   3.387   6.118  0.5700  0.1103 -0.1661
 2482SOL     OW18907   1.602   3.471   3.782 -0.4657 -1.0020  0.4493
 2482SOL    HW118908   1.662   3.521   3.727  0.2245 -0.9932  1.2076
 2482SOL    HW218909   1.592   3.535   3.852 -1.8729  0.4363 -1.0659
 2483SOL     OW18910   1.901   4.058  16.677 -0.0354 -0.6109 -0.1567
 2483SOL    HW118911   1.889   4.079  16.769  1.2931  2.6054 -0.6914
 2483SOL    HW218912   1.992   4.028  16.677 -0.7700 -2.8305  0.5855
 2484SOL     OW18913   0.713   1.183   7.990 -0.4663 -0.3024 -0.0985
 2484SOL    HW118914   0.625   1.204   8.020 -0.6517 -0.5361 -0.4803
 2484SOL    HW218915   0.761   1.171   8.072  0.0089 -0.0751 -0.3447
 2485SOL     OW18916   1.686   3.779   8.770  0.7560  0.0449 -0.8439
 2485SOL    HW118917   1.722   3.769   8.858 -0.9822  2.3935  0.1360
 2485SOL    HW218918   1.722   3.864   8.745  0.6616  0.1312 -0.6884
 2486SOL     OW18919   2.483   1.784  11.508 -0.8667 -0.0722 -0.6702
 2486SOL    HW118920   2.526   1.862  11.476  1.0939  0.2715  2.8096
 2486SOL    HW218921   2.468   1.804  11.600 -1.8881 -0.2132 -0.7980
 2487SOL     OW18922   3.296   1.351  16.515 -0.4495 -0.2490 -0.3426
 2487SOL    HW118923   3.372   1.321  16.566  0.3937 -1.8196 -2.5299
 2487SOL    HW218924   3.289   1.434  16.563  1.5768 -0.4268  0.2539
 2488SOL     OW18925   0.527   0.870  17.470  0.0587  0.6496  0.1942
 2488SOL    HW118926   0.549   0.884  17.378 -0.4127  1.9042  0.2781
 2488SOL    HW218927   0.433   0.885  17.472  0.0947  0.9852 -0.6507
 2489SOL     OW18928   4.483   0.693   2.078 -0.0212 -0.7012 -0.4516
 2489SOL    HW118929   4.436   0.633   2.019 -0.8904  0.7061 -1.1852
 2489SOL    HW218930   4.429   0.676   2.155 -0.5131  0.6334 -0.5061
 2490SOL     OW18931   2.050   2.249   5.855  0.0892 -0.3740 -0.2381
 2490SOL    HW118932   2.052   2.259   5.760  1.5500  3.6200  0.2013
 2490SOL    HW218933   1.975   2.302   5.884  0.0427 -0.9188  0.6322
 2491SOL     OW18934   1.156   2.815   5.631 -0.0196 -0.1577  0.0497
 2491SOL    HW118935   1.166   2.910   5.639  0.1836 -0.0443 -1.6195
 2491SOL    HW218936   1.229   2.801   5.571 -0.2983  1.7172 -0.7421
 2492SOL     OW18937   3.348   2.708   5.277  0.1380  0.8173 -0.3158
 2492SOL    HW118938   3.344   2.698   5.182 -2.1857 -1.9169  0.0738
 2492SOL    HW218939   3.336   2.624   5.321  4.3522  1.9184  2.9699
 2493SOL     OW18940   3.380   3.670   3.367  0.4804  0.3752  0.1782
 2493SOL    HW118941   3.300   3.639   3.325 -0.3075 -0.8988  2.6076
 2493SOL    HW218942   3.447   3.631   3.312 -0.4628  0.7331 -1.2142
 2494SOL     OW18943   3.797   2.267   6.796  0.7453  0.2712  0.0580
 2494SOL    HW118944   3.850   2.230   6.725 -0.8859 -0.6776 -0.6655
 2494SOL    HW218945   3.808   2.208   6.871  1.3142  0.6652  0.2835
 2495SOL     OW18946   0.052   3.089  10.755 -0.4980  0.0055  0.7547
 2495SOL    HW118947   4.721   3.157  10.794  0.0186 -0.0750  1.6241
 2495SOL    HW218948   0.081   3.053  10.839  0.3367  0.9957  0.8906
 2496SOL     OW18949   1.812   1.621   0.887 -0.0806 -0.2802 -0.2871
 2496SOL    HW118950   1.781   1.622   0.977  1.1682 -1.2600  0.1533
 2496SOL    HW218951   1.855   1.706   0.878 -1.6149  0.4775 -0.3672
 2497SOL     OW18952   1.782   3.642   6.352 -0.3178 -0.0086  0.5506
 2497SOL    HW118953   1.865   3.639   6.305 -0.2469  1.4563  0.5961
 2497SOL    HW218954   1.749   3.729   6.330  1.9727  0.9111  0.7144
 2498SOL     OW18955   3.474   3.949  14.650 -0.0455  0.3413  0.0446
 2498SOL    HW118956   3.546   4.010  14.638  2.6302 -2.9470 -0.7051
 2498SOL    HW218957   3.399   3.997  14.687  0.9881  0.1538  2.4143
 2499SOL     OW18958   4.262   4.103   3.582  0.4889 -0.3104  0.4887
 2499SOL    HW118959   4.229   4.019   3.551  0.2174 -0.2001  0.4761
 2499SOL    HW218960   4.356   4.101   3.561  0.2351 -0.2636 -0.6489
 2500SOL     OW18961   3.280   1.290   8.015  0.1680  0.3841  0.8101
 2500SOL    HW118962   3.358   1.299   8.069  0.2053  3.4751  0.2233
 2500SOL    HW218963   3.314   1.219   7.959 -0.0146  0.4576  0.6061
 2501SOL     OW18964   0.343   4.061  12.037  0.0713 -0.3488 -0.3552
 2501SOL    HW118965   0.374   4.146  12.004 -0.2478 -0.5027 -1.0393
 2501SOL    HW218966   0.286   4.027  11.968 -1.0686  0.7002  0.0625
 2502SOL     OW18967   3.171   4.588   4.900 -0.4933 -0.1173  0.6867
 2502SOL    HW118968   3.194   4.643   4.825 -3.8248  0.1993 -0.0979
 2502SOL    HW218969   3.239   4.521   4.898 -1.2772 -0.9402  1.5869
 2503SOL     OW18970   0.503   3.808  12.081  0.7345  0.3847  0.2388
 2503SOL    HW118971   0.488   3.805  11.986  0.6095  0.6087  0.2526
 2503SOL    HW218972   0.452   3.885  12.104  0.3611  0.5669 -1.1773
 2504SOL     OW18973   0.874   1.635  14.176  0.0592 -0.5394  0.1290
 2504SOL    HW118974   0.942   1.599  14.119 -0.5681  1.0273 -1.6315
 2504SOL    HW218975   0.925   1.696  14.229 -0.4481  0.3828 -0.4326
 2505SOL     OW18976   2.155   3.869   7.563 -0.0635  0.1920 -0.1260
 2505SOL    HW118977   2.209   3.807   7.515  0.2027  0.7307 -0.5207
 2505SOL    HW218978   2.072   3.822   7.556  0.0535  0.2003 -1.5001
 2506SOL     OW18979   0.703   1.291   1.122  0.3084  0.0218 -0.6762
 2506SOL    HW118980   0.610   1.280   1.102 -0.5059 -0.5283  3.4108
 2506SOL    HW218981   0.705   1.360   1.189  0.9152 -0.4217 -0.2436
 2507SOL     OW18982   2.240   1.630   8.781 -0.4819  0.2365 -0.2453
 2507SOL    HW118983   2.272   1.665   8.865 -0.0188 -1.2598  0.1922
 2507SOL    HW218984   2.293   1.556   8.752 -2.8360 -1.1120 -1.0463
 2508SOL     OW18985   1.882   1.638   8.115  0.4644  0.6139  0.0187
 2508SOL    HW118986   1.901   1.556   8.160 -0.2744  0.3600 -0.1377
 2508SOL    HW218987   1.921   1.617   8.031 -0.2150 -0.8036  0.0708
 2509SOL     OW18988   3.199   4.694   2.085 -0.0654  0.4128 -0.3151
 2509SOL    HW118989   3.137   4.627   2.115  0.2132 -0.0445 -0.7632
 2509SOL    HW218990   3.286   4.658   2.102 -1.2823 -1.5039  1.9461
 2510SOL     OW18991   2.019   3.435   7.222 -0.2098  0.7654 -0.8568
 2510SOL    HW118992   1.934   3.408   7.187 -0.5572  0.6866  0.0471
 2510SOL    HW218993   2.035   3.362   7.281 -3.9445 -0.7633 -1.6924
 2511SOL     OW18994   4.077   1.883  13.000  0.2246 -0.3568  0.3013
 2511SOL    HW118995   4.072   1.804  12.946  2.5956 -0.0443 -0.3610
 2511SOL    HW218996   4.168   1.881  13.030 -0.9447  0.6159  3.9842
 2512SOL     OW18997   3.476   3.716   4.222 -1.1952  0.0225 -0.0750
 2512SOL    HW118998   3.381   3.720   4.233 -0.9525 -0.2998  2.0203
 2512SOL    HW218999   3.481   3.673   4.136 -1.2670  1.5314 -0.8357
 2513SOL     OW19000   1.053   3.946  11.156 -0.3052  0.1363 -0.2878
 2513SOL    HW119001   1.111   4.022  11.155  1.0399 -0.8925  0.0399
 2513SOL    HW219002   0.990   3.953  11.228 -1.1964 -0.5152 -1.0119
 2514SOL     OW19003   2.053   2.241   3.116  0.2264 -0.2652  0.3047
 2514SOL    HW119004   2.072   2.194   3.197 -1.0306 -0.4663  0.4863
 2514SOL    HW219005   2.002   2.314   3.152  1.1868  0.7429 -0.3749
 2515SOL     OW19006   2.407   1.765   1.230  0.3758 -0.6420 -0.6288
 2515SOL    HW119007   2.344   1.776   1.159 -0.4718  1.0782  0.3882
 2515SOL    HW219008   2.361   1.802   1.305 -0.3358  0.0834 -1.4184
 2516SOL     OW19009   2.026   0.794   9.558  0.1855  0.6364 -0.3392
 2516SOL    HW119010   1.948   0.785   9.613  1.7180  0.3844  1.8015
 2516SOL    HW219011   2.099   0.762   9.610 -0.0503  0.7753  0.0819
 2517SOL     OW19012   3.666   3.417   4.825 -0.1750  0.0290  0.6366
 2517SOL    HW119013   3.618   3.335   4.811  0.3703  0.4046 -3.2814
 2517SOL    HW219014   3.755   3.381   4.820 -0.2701 -0.2540  0.9504
 2518SOL     OW19015   0.107   1.162   4.354  0.5065 -0.4468  0.5494
 2518SOL    HW119016   0.090   1.071   4.330  0.7948 -0.4342  0.2870
 2518SOL    HW219017   0.054   1.172   4.433  1.5769  0.7037  1.1265
 2519SOL     OW19018   0.078   1.192   3.311 -0.4944 -0.2339 -0.0681
 2519SOL    HW119019   0.038   1.243   3.383  2.6554 -3.1083  3.7294
 2519SOL    HW219020   0.067   1.253   3.238 -0.2273  0.6358  0.6173
 2520SOL     OW19021   0.763   1.034   2.158 -0.4239 -0.2882 -0.0680
 2520SOL    HW119022   0.812   1.116   2.170  2.3397 -1.7900 -1.0031
 2520SOL    HW219023   0.687   1.061   2.209  0.5840 -0.5059  1.5535
 2521SOL     OW19024   3.113   1.523   4.712  0.2765  0.5672  0.0148
 2521SOL    HW119025   3.163   1.463   4.657 -0.5609 -1.8994  1.9404
 2521SOL    HW219026   3.045   1.553   4.651 -0.1499 -0.6934 -0.1424
 2522SOL     OW19027   2.913   1.482   8.903 -0.2661  0.0109 -0.2147
 2522SOL    HW119028   2.858   1.462   8.827 -0.0071 -1.0478 -0.1218
 2522SOL    HW219029   2.909   1.577   8.914  0.1440  0.1036 -0.8552
 2523SOL     OW19030   4.558   4.127   1.198 -0.2218  0.4774 -0.1243
 2523SOL    HW119031   4.516   4.046   1.227 -0.3127  1.3230  2.1261
 2523SOL    HW219032   4.632   4.129   1.259 -0.5150 -2.0233  0.2837
 2524SOL     OW19033   0.737   3.667  11.066  0.0070 -0.0615  0.1450
 2524SOL    HW119034   0.779   3.693  11.148  0.2125 -2.0331  0.6538
 2524SOL    HW219035   0.688   3.590  11.093  0.5188  0.7152  3.3005
 2525SOL     OW19036   1.198   0.064  15.433  0.3467  0.2071  0.1450
 2525SOL    HW119037   1.197   0.053  15.338 -0.6227  0.6460  0.1128
 2525SOL    HW219038   1.267   4.722  15.443 -1.2898 -1.3418  1.0537
 2526SOL     OW19039   4.385   3.081   8.811  0.2098  0.3816 -0.2679
 2526SOL    HW119040   4.431   3.032   8.743 -0.4854  1.8825 -1.7976
 2526SOL    HW219041   4.376   3.171   8.780 -0.2091  0.7088  0.8165
 2527SOL     OW19042   3.287   2.384   3.466  0.3904 -0.1121 -0.2727
 2527SOL    HW119043   3.195   2.368   3.485  0.5457  0.0660  0.6224
 2527SOL    HW219044   3.322   2.296   3.448 -1.5921 -1.1760  1.0867
 2528SOL     OW19045   4.425   4.311  17.170  0.0280 -0.7419  0.0571
 2528SOL    HW119046   4.416   4.341  17.260 -1.0030  0.3183 -0.3899
 2528SOL    HW219047   4.370   4.373  17.123  1.1068 -0.3166 -0.6629
 2529SOL     OW19048   3.773   0.048   5.245  0.1164  0.6088 -0.2332
 2529SOL    HW119049   3.685   0.032   5.212 -0.0810 -1.5051  1.2701
 2529SOL    HW219050   3.767   0.037   5.340 -0.2752 -2.6346 -0.6402
 2530SOL     OW19051   3.300   1.159   8.576  0.2114 -0.4104 -0.9750
 2530SOL    HW119052   3.342   1.133   8.494 -1.3650 -1.8826 -1.3187
 2530SOL    HW219053   3.350   1.115   8.645 -1.0169 -0.2046  0.0613
 2531SOL     OW19054   0.657   1.721  11.416 -0.1098  0.2883  0.2497
 2531SOL    HW119055   0.751   1.736  11.401 -1.1432  3.3323 -3.0845
 2531SOL    HW219056   0.623   1.810  11.408  0.3017  0.4936  0.7515
 2532SOL     OW19057   1.762   4.672   5.872 -0.0630 -0.1625 -0.0461
 2532SOL    HW119058   1.708   4.608   5.825  0.5995 -1.0059  0.3354
 2532SOL    HW219059   1.727   4.667   5.961 -2.2514  1.7488 -0.8053
 2533SOL     OW19060   2.750   0.765   0.984  0.3104  0.8875 -0.2676
 2533SOL    HW119061   2.690   0.839   0.972  1.5612  1.8127 -0.7352
 2533SOL    HW219062   2.740   0.738   1.076 -2.5511 -0.1582 -0.8594
 2534SOL     OW19063   0.654   1.063   2.758 -0.4952  0.2223  0.1369
 2534SOL    HW119064   0.743   1.035   2.736 -1.4199 -0.1476 -3.1151
 2534SOL    HW219065   0.651   1.012   2.839  2.6352  0.2598  0.2828
 2535SOL     OW19066   3.495   1.075   1.590 -0.2391 -0.4884 -0.2625
 2535SOL    HW119067   3.484   0.984   1.561 -1.4625 -0.0290 -1.2597
 2535SOL    HW219068   3.403   1.102   1.592  0.2936  1.3610 -0.9839
 2536SOL     OW19069   2.101   4.708   7.972 -0.6581 -0.3042  0.0019
 2536SOL    HW119070   2.125   0.022   8.056 -0.0268  0.6605 -0.6243
 2536SOL    HW219071   2.029   0.042   7.948 -1.0130 -1.2970 -1.3996
 2537SOL     OW19072   3.434   2.961  11.933  0.0137 -0.9296  0.1995
 2537SOL    HW119073   3.518   2.988  11.898  0.3955 -1.0495  1.0235
 2537SOL    HW219074   3.443   2.868  11.913 -1.8997 -0.7433 -1.5595
 2538SOL     OW19075   3.877   2.086  17.229 -0.1650 -0.2568  0.1606
 2538SOL    HW119076   3.888   2.090  17.324  1.1356  2.2421 -0.0986
 2538SOL    HW219077   3.781   2.082  17.221 -0.0229 -1.4108 -0.9841
 2539SOL     OW19078   4.391   2.316   3.185  0.4380 -0.1259  0.4278
 2539SOL    HW119079   4.457   2.330   3.117 -0.1067 -1.8272 -0.4788
 2539SOL    HW219080   4.380   2.396   3.235  0.6671 -1.4204  2.5597
 2540SOL     OW19081   3.959   1.666   9.561 -0.7509  0.7550  0.5459
 2540SOL    HW119082   4.021   1.737   9.578 -0.4755  0.1040  2.2370
 2540SOL    HW219083   3.968   1.657   9.466  1.3185  2.5129  0.5635
 2541SOL     OW19084   2.783   2.904  12.809 -0.5963 -0.5513  0.1621
 2541SOL    HW119085   2.706   2.882  12.757 -0.8189  1.7318 -0.4664
 2541SOL    HW219086   2.851   2.910  12.742 -0.2572 -1.1515  0.4542
 2542SOL     OW19087   2.898   2.422  11.587  0.1636 -0.3886 -0.5056
 2542SOL    HW119088   2.978   2.452  11.631  0.7208 -1.7686 -0.5836
 2542SOL    HW219089   2.831   2.417  11.655  0.8457 -1.1189  0.1171
 2543SOL     OW19090   3.459   4.678  15.479  0.0400  0.2584  0.0213
 2543SOL    HW119091   3.393   4.612  15.455 -0.1456  0.7368 -0.7825
 2543SOL    HW219092   3.413   0.031  15.445  1.1380  0.8287 -0.1568
 2544SOL     OW19093   2.801   2.991  17.267 -0.3683  0.4340  0.0232
 2544SOL    HW119094   2.795   2.936  17.188  0.6596  0.0396  0.2189
 2544SOL    HW219095   2.830   2.921  17.326  1.8129 -0.7759 -2.4755
 2545SOL     OW19096   2.751   2.546   7.692  0.4579  0.1399  0.1004
 2545SOL    HW119097   2.754   2.617   7.629 -0.1639 -0.2916 -0.4048
 2545SOL    HW219098   2.657   2.528   7.694  0.7046 -1.2097 -0.0746
 2546SOL     OW19099   2.250   3.255  16.991 -0.1492 -0.4575 -0.7640
 2546SOL    HW119100   2.221   3.167  16.968 -0.5992 -0.4355 -0.2599
 2546SOL    HW219101   2.231   3.266  17.084 -3.3092 -3.2754 -1.1003
 2547SOL     OW19102   2.707   3.107   5.347  0.0850  0.0727 -0.0408
 2547SOL    HW119103   2.774   3.042   5.366 -0.9432 -0.8691  0.3716
 2547SOL    HW219104   2.638   3.088   5.410  0.3348 -2.2229 -0.4930
 2548SOL     OW19105   0.503   3.907   5.273 -0.2064 -0.1609  0.2028
 2548SOL    HW119106   0.545   3.966   5.336  0.8309  0.6303 -1.2304
 2548SOL    HW219107   0.570   3.840   5.260 -0.9180 -0.5501 -1.4666
 2549SOL     OW19108   0.615   0.607  15.869 -0.0148  0.5139 -0.3951
 2549SOL    HW119109   0.574   0.644  15.948  0.4933 -3.0268  1.5302
 2549SOL    HW219110   0.692   0.663  15.859  0.1609  0.2258 -0.6417
 2550SOL     OW19111   1.676   4.628  16.690  0.1267  0.2262 -0.4905
 2550SOL    HW119112   1.582   4.644  16.694  0.2704  0.9521 -0.0482
 2550SOL    HW219113   1.707   4.663  16.607 -0.8948 -1.8896 -1.7626
 2551SOL     OW19114   0.734   2.147   3.789  0.2221  0.0297 -0.7761
 2551SOL    HW119115   0.739   2.212   3.859 -1.2606 -1.9933  1.2276
 2551SOL    HW219116   0.807   2.088   3.806 -0.0171  0.0153  0.2028
 2552SOL     OW19117   1.840   2.822   5.448  0.1881  0.1016  0.1384
 2552SOL    HW119118   1.814   2.811   5.539 -2.0513 -0.6517 -0.6026
 2552SOL    HW219119   1.928   2.859   5.457 -0.3589  1.2215  0.8765
 2553SOL     OW19120   1.557   4.702   9.910 -0.0166  0.2234  0.0125
 2553SOL    HW119121   1.519   4.669   9.829 -0.6233  0.0092  0.3817
 2553SOL    HW219122   1.638   4.651   9.915  0.3301  0.8768  1.2967
 2554SOL     OW19123   1.161   0.607   5.326  0.4007  0.1248 -0.3429
 2554SOL    HW119124   1.215   0.679   5.359  0.9198 -0.7341  0.6760
 2554SOL    HW219125   1.124   0.569   5.405 -1.3778  1.4848 -0.5186
 2555SOL     OW19126   2.921   4.491  11.382 -0.1675  0.7339  0.1649
 2555SOL    HW119127   2.850   4.526  11.435 -0.6366  1.7743 -1.1443
 2555SOL    HW219128   2.957   4.562  11.329  2.6157 -1.3339 -0.7192
 2556SOL     OW19129   1.919   3.791   5.002  0.0136  0.0220  0.3115
 2556SOL    HW119130   1.866   3.714   5.021 -0.8823  0.4585 -0.4322
 2556SOL    HW219131   1.857   3.861   5.023 -0.7798 -0.2852 -0.9996
 2557SOL     OW19132   0.141   4.468   1.683 -0.6008 -0.1151 -0.7274
 2557SOL    HW119133   0.078   4.531   1.718 -0.0559 -1.0129  1.8679
 2557SOL    HW219134   0.121   4.469   1.589  1.0329 -1.3756 -1.1009
 2558SOL     OW19135   1.277   2.996   7.012  0.2327 -0.3240 -0.2922
 2558SOL    HW119136   1.248   2.957   7.095 -2.6345  4.0899  0.7925
 2558SOL    HW219137   1.193   2.996   6.966  0.6916  0.2570 -1.1188
 2559SOL     OW19138   3.104   3.366  12.327 -0.1346 -0.2527 -0.4779
 2559SOL    HW119139   3.102   3.399  12.417 -0.9967 -1.6495  0.0069
 2559SOL    HW219140   3.200   3.365  12.317 -0.1108 -0.8396 -0.1607
 2560SOL     OW19141   4.036   2.654   4.975  0.3174  0.3927  0.3159
 2560SOL    HW119142   4.020   2.575   4.923 -1.0801  1.2805 -0.6142
 2560SOL    HW219143   4.123   2.673   4.942 -0.0858  2.2969  0.3487
 2561SOL     OW19144   4.603   0.389  11.359 -0.0368  0.1858 -0.1281
 2561SOL    HW119145   4.648   0.435  11.430  0.2148 -2.0135  1.1538
 2561SOL    HW219146   4.607   0.300  11.396  0.1008 -0.3285 -1.3885
 2562SOL     OW19147   2.196   2.852  12.192  0.0268  0.3494  0.5149
 2562SOL    HW119148   2.193   2.756  12.198  2.8742  0.2991  1.1881
 2562SOL    HW219149   2.127   2.861  12.126  2.4342 -1.1863 -2.2269
 2563SOL     OW19150   0.526   4.170   5.412 -0.2600  0.4597  0.4053
 2563SOL    HW119151   0.565   4.207   5.332  1.0657 -2.0820 -0.1229
 2563SOL    HW219152   0.444   4.218   5.413 -0.4859  0.0719  0.4299
 2564SOL     OW19153   1.978   3.442   5.192 -0.3036 -0.0342  0.3378
 2564SOL    HW119154   2.045   3.454   5.260  0.0986  0.4204 -0.1356
 2564SOL    HW219155   1.968   3.349   5.172  0.5607 -0.5391  2.2065
 2565SOL     OW19156   0.070   0.640   2.064 -0.4671  0.3708  0.9356
 2565SOL    HW119157   0.020   0.677   1.992  1.7944  1.3307 -0.1482
 2565SOL    HW219158   0.147   0.606   2.017 -1.8050 -1.1794 -0.1167
 2566SOL     OW19159   4.073   0.743  17.455  0.1873  0.2880  0.0586
 2566SOL    HW119160   4.084   0.792  17.537  2.6280  1.0717 -0.7334
 2566SOL    HW219161   3.980   0.721  17.463  0.6143 -1.6389 -0.2462
 2567SOL     OW19162   4.266   3.377   0.923  0.5921 -0.5160 -0.5501
 2567SOL    HW119163   4.301   3.453   0.875  2.5245 -1.1346 -0.1253
 2567SOL    HW219164   4.327   3.381   0.997  0.9275  0.5728 -0.8787
 2568SOL     OW19165   0.754   2.655   1.124 -0.2187 -0.2763  0.2139
 2568SOL    HW119166   0.682   2.606   1.085  0.6211 -1.1094 -0.2989
 2568SOL    HW219167   0.830   2.611   1.087 -1.4868 -2.1267 -0.1810
 2569SOL     OW19168   0.616   1.920   7.757  0.1186  0.2727  0.5854
 2569SOL    HW119169   0.678   1.888   7.691  0.7552  1.0678  0.7934
 2569SOL    HW219170   0.599   1.839   7.805  1.7103  0.5067  1.5476
 2570SOL     OW19171   0.688   3.892   2.727  0.1719 -0.4676 -0.2402
 2570SOL    HW119172   0.597   3.900   2.700  0.5114  0.0928 -1.2122
 2570SOL    HW219173   0.724   3.974   2.695  2.1955 -0.5074  1.9968
 2571SOL     OW19174   2.440   4.201   3.316  0.2412 -0.1016 -0.1881
 2571SOL    HW119175   2.347   4.192   3.295 -0.1868 -0.6849  2.0159
 2571SOL    HW219176   2.450   4.284   3.268 -0.2509  0.3635  0.5127
 2572SOL     OW19177   2.643   3.476   2.161  0.2266  0.3231  0.3138
 2572SOL    HW119178   2.678   3.564   2.171 -0.7213  0.5871  1.2512
 2572SOL    HW219179   2.645   3.469   2.065  0.0552  2.6132  0.1512
 2573SOL     OW19180   3.273   3.598  12.247  0.2741 -0.6575 -0.4685
 2573SOL    HW119181   3.257   3.647  12.327 -0.2343 -0.3673 -0.7458
 2573SOL    HW219182   3.309   3.517  12.282  1.3836 -0.4496 -1.1163
 2574SOL     OW19183   0.921   3.363   5.855  0.1176  0.4748 -0.7566
 2574SOL    HW119184   0.970   3.409   5.922  2.1929 -0.2703 -1.7418
 2574SOL    HW219185   0.874   3.439   5.821 -2.7730 -1.6471 -1.5022
 2575SOL     OW19186   4.270   1.612   3.564  0.3637 -0.4750 -0.0573
 2575SOL    HW119187   4.262   1.607   3.469  1.6413 -0.4647 -0.1647
 2575SOL    HW219188   4.179   1.617   3.594  0.2946  2.3933 -0.7890
 2576SOL     OW19189   3.744   0.663   1.490 -0.1045 -0.1060 -0.2380
 2576SOL    HW119190   3.791   0.746   1.502 -1.5678  0.6112  0.5200
 2576SOL    HW219191   3.698   0.661   1.574 -0.6434 -4.1650 -0.6627
 2577SOL     OW19192   0.179   4.506   7.274 -0.6365 -1.2238  0.3132
 2577SOL    HW119193   0.192   4.558   7.354 -1.5564 -1.1710  0.4334
 2577SOL    HW219194   0.142   4.428   7.316  0.1485 -0.8458  1.7343
 2578SOL     OW19195   2.420   4.406   7.675 -0.3040  0.1560  0.1185
 2578SOL    HW119196   2.350   4.461   7.709 -0.7328  0.8218 -1.8365
 2578SOL    HW219197   2.492   4.469   7.663 -0.7980  0.7264  0.1742
 2579SOL     OW19198   0.644   2.679   3.240  0.5049 -0.4845 -0.2074
 2579SOL    HW119199   0.597   2.759   3.264 -1.7241 -1.0468 -2.6555
 2579SOL    HW219200   0.730   2.719   3.228 -0.5700  1.1301 -2.4838
 2580SOL     OW19201   2.170   1.160  11.521 -0.0429  0.5206  0.5442
 2580SOL    HW119202   2.084   1.127  11.548  0.5562  0.1118  1.9169
 2580SOL    HW219203   2.224   1.088  11.553 -0.0955  1.3558  2.4653
 2581SOL     OW19204   0.799   0.726  10.781  0.0272  0.2546  0.1569
 2581SOL    HW119205   0.821   0.645  10.828 -1.9084 -0.3031  0.1120
 2581SOL    HW219206   0.704   0.717  10.775 -0.0231  0.5585  0.4625
 2582SOL     OW19207   4.486   2.494  10.094  0.0431  0.2583  0.0086
 2582SOL    HW119208   4.479   2.399  10.091 -1.4868  0.5023 -3.7594
 2582SOL    HW219209   4.399   2.514  10.130  0.3227  0.0173  0.8117
 2583SOL     OW19210   1.998   1.887   7.315  0.0671  0.3884  0.0198
 2583SOL    HW119211   1.947   1.928   7.385  0.0586 -1.1603  0.9223
 2583SOL    HW219212   1.944   1.887   7.236 -1.2303  0.2614  0.9057
 2584SOL     OW19213   1.403   3.837   2.273  0.0245  0.0631  0.0163
 2584SOL    HW119214   1.372   3.828   2.182 -2.2152 -0.2009  0.8036
 2584SOL    HW219215   1.320   3.819   2.318 -0.9527  0.6270 -1.5398
 2585SOL     OW19216   1.853   2.676   5.067  0.2027  0.6257  0.3986
 2585SOL    HW119217   1.817   2.603   5.016  2.9760  0.0101 -0.6536
 2585SOL    HW219218   1.945   2.654   5.051  0.7952  1.0623  3.2080
 2586SOL     OW19219   3.422   1.965   5.711 -0.4051  0.6154 -0.2550
 2586SOL    HW119220   3.452   2.044   5.756  1.7873 -0.1994 -0.2659
 2586SOL    HW219221   3.477   1.894   5.747  0.5043  1.6665  0.4455
 2587SOL     OW19222   1.419   4.329   8.792 -0.0997  0.3579  0.8175
 2587SOL    HW119223   1.367   4.373   8.858  0.1793 -0.3018  1.4835
 2587SOL    HW219224   1.504   4.360   8.823  0.8142 -0.5150 -0.8062
 2588SOL     OW19225   1.821   1.042   2.811  0.0237 -0.6101  0.0219
 2588SOL    HW119226   1.822   1.044   2.907 -1.0717 -1.0245  0.0545
 2588SOL    HW219227   1.761   0.969   2.793 -1.2891  1.0418 -2.2990
 2589SOL     OW19228   1.895   3.406   3.570 -0.2703  0.2879  0.1506
 2589SOL    HW119229   1.855   3.482   3.612 -0.2076  0.2262  0.3238
 2589SOL    HW219230   1.869   3.419   3.479  0.4011 -0.6338 -0.1764
 2590SOL     OW19231   3.677   0.035  13.831  0.6553 -0.0784  0.1553
 2590SOL    HW119232   3.615   0.107  13.843  0.7488  0.4147 -2.3200
 2590SOL    HW219233   3.689   0.019  13.925  2.2860 -0.9150 -0.1891
 2591SOL     OW19234   2.097   3.162   5.536  0.1677  0.0676 -0.2635
 2591SOL    HW119235   2.179   3.147   5.582  0.1757  0.2769 -0.2127
 2591SOL    HW219236   2.102   3.256   5.520  1.7320  0.2360  1.3155
 2592SOL     OW19237   1.754   4.540   9.695 -0.4653  0.3936 -0.2601
 2592SOL    HW119238   1.796   4.626   9.703  0.2684 -0.1494  1.6598
 2592SOL    HW219239   1.764   4.506   9.784 -1.0436 -0.5612 -0.5661
 2593SOL     OW19240   0.379   2.521   3.562 -0.1430  0.2939 -0.4899
 2593SOL    HW119241   0.295   2.502   3.604 -0.5581  1.9584 -0.5743
 2593SOL    HW219242   0.347   2.532   3.472  1.5214 -0.6356 -1.1888
 2594SOL     OW19243   3.453   2.474  12.824  0.6572  0.5127  0.5367
 2594SOL    HW119244   3.479   2.480  12.733  0.1676  1.7316  0.4752
 2594SOL    HW219245   3.423   2.384  12.831 -0.3664  0.6273 -2.3876
 2595SOL     OW19246   2.880   3.017   8.196 -0.2790  0.2276  0.6167
 2595SOL    HW119247   2.857   3.068   8.274  1.0366  2.3412 -0.4003
 2595SOL    HW219248   2.828   2.937   8.210 -2.6870  1.6133 -0.4072
 2596SOL     OW19249   3.259   4.720   6.742 -0.2690 -0.2677  0.1187
 2596SOL    HW119250   3.208   4.688   6.816 -1.3608  0.4542 -0.3174
 2596SOL    HW219251   3.261   4.636   6.696  0.6986 -0.1530 -0.0495
 2597SOL     OW19252   1.708   2.768   7.940 -0.4909  0.7534  0.4974
 2597SOL    HW119253   1.759   2.822   7.879 -1.1325  2.5260  1.5379
 2597SOL    HW219254   1.622   2.779   7.900 -1.1153  0.4542  1.7643
 2598SOL     OW19255   1.730   1.609   3.173 -0.1284  0.6986  0.4023
 2598SOL    HW119256   1.745   1.522   3.137  0.9235  0.8753  0.4211
 2598SOL    HW219257   1.818   1.626   3.207 -0.0288  2.1434 -0.5418
 2599SOL     OW19258   0.819   4.634   5.858  0.8000 -0.6991  0.0310
 2599SOL    HW119259   0.897   4.579   5.848  0.9494 -0.1128 -2.1388
 2599SOL    HW219260   0.856   4.722   5.852  1.0127 -0.8063 -0.2429
 2600SOL     OW19261   2.100   4.194   8.903  0.6785  0.1717  0.0741
 2600SOL    HW119262   2.065   4.112   8.939  0.4200 -0.0752 -0.7420
 2600SOL    HW219263   2.118   4.169   8.812 -3.5198  0.8804 -0.9624
 2601SOL     OW19264   4.618   3.299  10.815  0.1287  0.1424  0.0510
 2601SOL    HW119265   4.526   3.275  10.823  0.2182 -0.6208 -1.1791
 2601SOL    HW219266   4.603   3.386  10.854  0.1458 -1.0878  2.7555
 2602SOL     OW19267   0.351   4.059   5.119 -0.1804  0.7010 -0.4521
 2602SOL    HW119268   0.422   4.009   5.158  0.2173  0.3957 -1.5521
 2602SOL    HW219269   0.358   4.035   5.026  0.9127 -2.3010  0.4039
 2603SOL     OW19270   1.047   3.807   7.798 -1.0727 -0.5264  0.0148
 2603SOL    HW119271   1.121   3.768   7.752 -2.0655 -0.5670 -1.5262
 2603SOL    HW219272   1.084   3.806   7.887 -0.4112  0.7259 -0.2477
 2604SOL     OW19273   2.929   1.732  11.691 -0.4220 -0.3948  0.5270
 2604SOL    HW119274   2.935   1.637  11.683  0.9118 -0.3985  1.5134
 2604SOL    HW219275   2.943   1.751  11.784  0.9906  3.7894 -0.5382
 2605SOL     OW19276   1.800   0.609  14.764  0.4149  0.3396 -0.0500
 2605SOL    HW119277   1.867   0.568  14.711  1.7127 -0.2657  2.0546
 2605SOL    HW219278   1.741   0.635  14.693 -1.1205  0.4701  1.2601
 2606SOL     OW19279   2.453   4.615   5.664  0.1866  0.4692  0.4921
 2606SOL    HW119280   2.449   4.684   5.730  1.1753  2.1401 -1.1856
 2606SOL    HW219281   2.535   4.577   5.695  0.5469  0.1020 -0.8885
 2607SOL     OW19282   1.329   1.551  10.428 -0.3041  0.2813  0.3647
 2607SOL    HW119283   1.405   1.494  10.417  0.2510  1.2184 -0.7326
 2607SOL    HW219284   1.356   1.630  10.381  1.6183 -1.6539 -1.7921
 2608SOL     OW19285   3.833   3.605   5.900  0.3344  0.0172  0.1689
 2608SOL    HW119286   3.781   3.548   5.843 -0.7997  0.4210  0.8085
 2608SOL    HW219287   3.757   3.641   5.945  0.0219 -0.4103 -0.0162
 2609SOL     OW19288   2.588   3.340   8.186  0.1042  0.3725 -0.1515
 2609SOL    HW119289   2.601   3.408   8.120 -1.3140  1.7349  0.9562
 2609SOL    HW219290   2.651   3.273   8.160 -1.5602 -1.3556  0.2891
 2610SOL     OW19291   2.855   3.571  17.097 -0.0627  0.1109 -0.3963
 2610SOL    HW119292   2.805   3.582  17.016  1.4124  2.9604 -0.9178
 2610SOL    HW219293   2.925   3.634  17.082 -0.5577  1.3130  2.3597
 2611SOL     OW19294   1.780   1.936   8.798  0.6840  0.0214  0.0572
 2611SOL    HW119295   1.725   1.873   8.843  1.0991 -0.1127  0.3755
 2611SOL    HW219296   1.814   1.993   8.867 -0.3184 -0.4361  0.9340
 2612SOL     OW19297   0.836   4.484   2.051  0.6243 -0.5674 -0.9474
 2612SOL    HW119298   0.862   4.469   1.960  0.7931  1.8282 -1.3083
 2612SOL    HW219299   0.884   4.421   2.104  1.3700  0.5118 -0.3587
 2613SOL     OW19300   3.179   4.497   6.578  0.0711  0.7145 -0.3998
 2613SOL    HW119301   3.110   4.456   6.527 -1.9853  1.6417  1.6493
 2613SOL    HW219302   3.243   4.427   6.565 -1.8935 -0.7837 -1.9307
 2614SOL     OW19303   1.159   0.033   1.957  0.2284  0.1523  0.1547
 2614SOL    HW119304   1.201   0.117   1.978  0.9453 -0.1683 -0.0130
 2614SOL    HW219305   1.217   4.692   1.997  0.8052 -0.3567 -1.5276
 2615SOL     OW19306   4.137   2.029   7.712  0.1707  0.6934 -0.2089
 2615SOL    HW119307   4.168   1.939   7.702 -1.6928 -0.2434  2.3945
 2615SOL    HW219308   4.119   2.054   7.621 -2.3619  2.1652  0.6878
 2616SOL     OW19309   4.111   1.221   2.997  0.1663 -0.1663  0.4826
 2616SOL    HW119310   4.053   1.282   2.951  0.3259 -0.3592  0.0174
 2616SOL    HW219311   4.149   1.167   2.928 -1.3894  0.2865 -0.7341
 2617SOL     OW19312   0.716   1.464   5.059  0.2688 -0.1425 -0.1526
 2617SOL    HW119313   0.786   1.513   5.015  0.9629  0.1782  1.3113
 2617SOL    HW219314   0.753   1.464   5.147 -2.0618  2.0710  0.8274
 2618SOL     OW19315   1.643   2.417   3.193 -0.3171  0.1133  0.0866
 2618SOL    HW119316   1.653   2.323   3.187 -1.3128  0.0640 -0.8777
 2618SOL    HW219317   1.629   2.429   3.287  4.4575 -1.2973  0.9403
 2619SOL     OW19318   0.229   1.359  14.592 -0.2856  0.4396  0.2355
 2619SOL    HW119319   0.290   1.418  14.635 -1.3153  3.1511 -2.0516
 2619SOL    HW219320   0.155   1.414  14.566 -0.3000  1.1221  1.7156
 2620SOL     OW19321   4.700   2.316  10.769 -0.4742 -0.1172  0.1727
 2620SOL    HW119322   4.713   2.224  10.791 -1.9418 -0.5286 -0.6968
 2620SOL    HW219323   0.049   2.352  10.819  0.5097 -1.6200 -0.1827
 2621SOL     OW19324   3.934   0.041   5.831  0.0872  0.2541  0.3700
 2621SOL    HW119325   3.924   4.674   5.804  0.7422  0.2521  0.1403
 2621SOL    HW219326   3.921   0.085   5.746 -2.1038 -0.3507  0.3917
 2622SOL     OW19327   3.812   1.798   4.301  0.3596  0.4304 -0.7241
 2622SOL    HW119328   3.787   1.865   4.365 -1.9418 -0.0765 -1.0875
 2622SOL    HW219329   3.897   1.837   4.282  0.9136 -1.5795 -2.3373
 2623SOL     OW19330   1.797   1.303  16.600  0.6666 -0.2002  0.1014
 2623SOL    HW119331   1.787   1.363  16.674  0.2512 -1.4013  1.0210
 2623SOL    HW219332   1.708   1.286  16.570  0.5578 -1.0827  0.9092
 2624SOL     OW19333   0.418   0.314   7.079  0.0291  0.0528  0.4055
 2624SOL    HW119334   0.331   0.326   7.042 -1.2797 -1.8432  2.8812
 2624SOL    HW219335   0.410   0.362   7.162  0.7634  1.6390 -0.4439
 2625SOL     OW19336   1.515   1.038   5.812  0.1579  0.0649 -0.1819
 2625SOL    HW119337   1.427   1.022   5.775 -0.7068  0.3556  1.7521
 2625SOL    HW219338   1.494   1.092   5.888 -0.4176  1.2400 -1.1788
 2626SOL     OW19339   3.363   0.580  12.218  0.4348  0.6092  0.5107
 2626SOL    HW119340   3.412   0.534  12.150 -1.1161  0.9103 -0.8166
 2626SOL    HW219341   3.425   0.648  12.245  2.1546 -0.1798 -1.4773
 2627SOL     OW19342   2.618   4.247   2.975  0.0515  0.5194 -0.0862
 2627SOL    HW119343   2.672   4.296   3.038 -0.3262  2.1102 -1.0043
 2627SOL    HW219344   2.668   4.166   2.964 -0.6697  0.0847 -0.1337
 2628SOL     OW19345   4.582   0.921   5.211  0.5563 -0.4567 -0.2271
 2628SOL    HW119346   4.654   0.980   5.188  0.9611 -0.1738  1.8275
 2628SOL    HW219347   4.510   0.963   5.163 -0.9077 -1.9687  0.6558
 2629SOL     OW19348   0.149   0.662   3.569  0.1153 -0.2043  0.6324
 2629SOL    HW119349   0.178   0.583   3.524 -1.0764 -0.4390  0.2666
 2629SOL    HW219350   0.095   0.691   3.495  0.5284 -0.4910  0.2248
 2630SOL     OW19351   2.483   1.523   3.318  0.2513 -0.5098 -0.3956
 2630SOL    HW119352   2.406   1.475   3.290 -0.0338  0.9693 -2.1306
 2630SOL    HW219353   2.556   1.464   3.303 -0.2497 -1.6761  1.7382
 2631SOL     OW19354   1.714   4.649  11.770 -0.2748 -0.3309 -0.3902
 2631SOL    HW119355   1.760   0.007  11.785  0.3295 -0.7628  0.1198
 2631SOL    HW219356   1.667   4.652  11.687  0.3306  1.6786 -0.6635
 2632SOL     OW19357   4.096   0.059   3.597 -0.0498 -0.1021 -0.0288
 2632SOL    HW119358   4.036   0.126   3.567  0.7042  1.4015  1.8204
 2632SOL    HW219359   4.102   0.001   3.521  0.0805 -0.8074  0.5136
 2633SOL     OW19360   0.320   3.373   5.693  0.1813  0.0489 -0.4783
 2633SOL    HW119361   0.374   3.436   5.741 -1.5259  0.4837  0.9086
 2633SOL    HW219362   0.361   3.296   5.730  1.0400  0.5465 -0.3972
 2634SOL     OW19363   0.460   2.166   8.033 -0.5739 -0.5969  0.3490
 2634SOL    HW119364   0.390   2.218   7.994 -0.9737 -0.4587  1.2684
 2634SOL    HW219365   0.537   2.222   8.028  0.3538 -1.7925  1.1607
 2635SOL     OW19366   0.924   2.443   7.928  0.0488  0.1217 -0.9522
 2635SOL    HW119367   0.956   2.396   7.851  1.8751  0.0855 -0.1745
 2635SOL    HW219368   0.997   2.429   7.988 -2.3135 -2.8757  1.2556
 2636SOL     OW19369   4.134   4.538  15.736 -0.0654 -0.1703 -0.2688
 2636SOL    HW119370   4.148   4.577  15.650  2.3029  2.9076  1.4961
 2636SOL    HW219371   4.055   4.576  15.773 -0.4067  1.5746 -2.7934
 2637SOL     OW19372   0.891   4.231   6.879  0.4505  0.0618 -0.4154
 2637SOL    HW119373   0.842   4.287   6.940  0.3703 -0.4937  0.0317
 2637SOL    HW219374   0.879   4.273   6.794 -3.4166  1.7433  0.9665
 2638SOL     OW19375   0.199   3.063   3.077 -0.6296 -0.1940 -0.5521
 2638SOL    HW119376   0.150   3.134   3.119  1.2831  0.4049  0.6582
 2638SOL    HW219377   0.288   3.096   3.092 -0.6159  1.0536 -3.3937
 2639SOL     OW19378   0.356   0.279   0.093  0.0186  0.5167  0.2678
 2639SOL    HW119379   0.274   0.288   0.044  0.9861  1.8490 -1.0800
 2639SOL    HW219380   0.387   0.363   0.126 -0.9134  0.6002  0.9290
 2640SOL     OW19381   3.985   1.459   4.334  0.2939 -0.2386 -0.2819
 2640SOL    HW119382   4.060   1.506   4.297 -0.8902  2.7563  1.1284
 2640SOL    HW219383   3.988   1.490   4.425  1.2495 -0.5737 -0.1979
 2641SOL     OW19384   2.358   2.885   8.121 -0.3323 -0.1298  0.0136
 2641SOL    HW119385   2.274   2.898   8.078 -1.2916  0.4128  2.0596
 2641SOL    HW219386   2.323   2.835   8.195  1.4846  1.9225  2.2451
 2642SOL     OW19387   1.100   1.470   2.976  0.5587 -0.0652 -0.2777
 2642SOL    HW119388   1.017   1.451   2.934  1.4116  1.6093 -2.7133
 2642SOL    HW219389   1.078   1.455   3.068  0.5901  1.6798  0.0268
 2643SOL     OW19390   2.435   3.265   4.042 -0.7364  0.0890 -0.6010
 2643SOL    HW119391   2.374   3.267   3.968  0.6674  1.3604 -1.7461
 2643SOL    HW219392   2.502   3.302   3.984  0.3816 -2.7968 -1.1629
 2644SOL     OW19393   0.660   0.201  13.486  0.4635  0.3652  0.6453
 2644SOL    HW119394   0.734   0.194  13.426 -1.3685 -0.7047 -1.5117
 2644SOL    HW219395   0.646   0.110  13.512 -0.0499  0.6052  1.2080
 2645SOL     OW19396   2.043   4.049   7.288  0.4666 -0.3950  0.4759
 2645SOL    HW119397   1.994   4.034   7.369  1.9024 -0.3003  1.3568
 2645SOL    HW219398   2.123   4.077   7.330  0.7307 -1.7479  0.8511
 2646SOL     OW19399   2.577   1.979  15.759 -0.2262  0.4997  0.3182
 2646SOL    HW119400   2.614   1.891  15.744  0.5322  0.9281 -0.3013
 2646SOL    HW219401   2.549   1.978  15.850 -1.8866  0.8692 -0.1994
 2647SOL     OW19402   4.586   1.732   1.507  0.4548 -0.5956  0.6800
 2647SOL    HW119403   4.562   1.762   1.419 -0.8537 -1.4724  0.7273
 2647SOL    HW219404   4.674   1.767   1.509  0.0382  0.4322  0.9694
 2648SOL     OW19405   1.865   3.114   3.091 -0.9435  0.1947  0.2337
 2648SOL    HW119406   1.933   3.066   3.046 -1.5886  1.4897 -2.1404
 2648SOL    HW219407   1.900   3.111   3.180  1.3724 -1.2075 -0.7437
 2649SOL     OW19408   0.844   3.087  12.986 -0.0846  0.4338  0.6557
 2649SOL    HW119409   0.884   3.030  13.051  1.2332  1.5135  0.7775
 2649SOL    HW219410   0.810   3.023  12.923 -0.1429  0.2475  0.8779
 2650SOL     OW19411   1.288   2.845   3.471 -0.0061 -0.6260 -0.0708
 2650SOL    HW119412   1.363   2.795   3.439  0.7119  1.8523 -2.2633
 2650SOL    HW219413   1.302   2.936   3.444  0.1579 -1.0602 -1.4721
 2651SOL     OW19414   1.408   0.247   8.483 -0.7399 -0.2350  0.1452
 2651SOL    HW119415   1.417   0.262   8.577  0.7420 -0.7489  0.0874
 2651SOL    HW219416   1.355   0.322   8.457  0.9184  0.3099 -1.7075
 2652SOL     OW19417   0.303   0.354  11.847 -0.2999 -0.0035 -0.4016
 2652SOL    HW119418   0.244   0.372  11.921  0.2823 -1.6305  0.4532
 2652SOL    HW219419   0.278   0.267  11.815 -1.4920  0.7015 -1.4076
 2653SOL     OW19420   1.874   0.422   1.755 -0.2864 -0.3381 -0.1281
 2653SOL    HW119421   1.924   0.368   1.694 -0.0492  2.5850 -2.5011
 2653SOL    HW219422   1.831   0.480   1.693 -1.3700  0.5779  1.4652
 2654SOL     OW19423   1.012   1.173   7.081  1.0337 -0.2737 -0.0686
 2654SOL    HW119424   0.995   1.132   6.996  1.1393 -1.7602  0.6422
 2654SOL    HW219425   1.020   1.095   7.136 -2.9234  0.3990  1.4816
 2655SOL     OW19426   2.412   0.823  11.221  0.0737 -0.4161 -0.1982
 2655SOL    HW119427   2.430   0.917  11.230  0.4630 -0.5290  0.2398
 2655SOL    HW219428   2.333   0.817  11.274 -0.1711 -0.3506 -0.5587
 2656SOL     OW19429   3.319   1.214   5.596  0.7729  0.4996  0.4784
 2656SOL    HW119430   3.404   1.174   5.581  1.3428  1.2794  1.7165
 2656SOL    HW219431   3.266   1.143   5.559  3.6213 -0.0473 -2.5285
 2657SOL     OW19432   4.059   0.719   0.677  0.1329 -0.5896  0.5352
 2657SOL    HW119433   4.050   0.807   0.712  0.6328 -1.1581  2.0912
 2657SOL    HW219434   4.039   0.663   0.752  1.4559 -0.1069  1.2549
 2658SOL     OW19435   1.174   1.590   8.160 -0.0179 -0.2144  0.3196
 2658SOL    HW119436   1.174   1.549   8.074 -0.2296 -0.1910  0.3075
 2658SOL    HW219437   1.257   1.638   8.156 -1.1129  1.6454 -0.0617
 2659SOL     OW19438   3.803   2.697   2.020 -0.8286 -0.3600 -0.0147
 2659SOL    HW119439   3.879   2.727   1.970 -1.0048  2.2836  1.2795
 2659SOL    HW219440   3.732   2.742   1.973 -0.4744  0.8658  0.6210
 2660SOL     OW19441   0.565   0.245   8.265 -0.8010 -0.1747  0.1843
 2660SOL    HW119442   0.488   0.194   8.240 -1.4112  0.3194  1.0339
 2660SOL    HW219443   0.611   0.172   8.307 -0.9705 -1.4291 -1.8244
 2661SOL     OW19444   2.559   0.675   1.175 -0.6407 -0.7254 -0.7044
 2661SOL    HW119445   2.492   0.738   1.200  0.1476 -0.8352  1.6976
 2661SOL    HW219446   2.513   0.610   1.121 -1.1080 -0.6384 -0.4027
 2662SOL     OW19447   2.862   3.281   7.882 -0.5102 -0.4897  0.2699
 2662SOL    HW119448   2.858   3.272   7.787 -0.2456  0.6333  0.1473
 2662SOL    HW219449   2.921   3.210   7.909  0.3690  0.4056  0.6963
 2663SOL     OW19450   0.748   2.655   2.168  0.0413 -0.5587 -0.0238
 2663SOL    HW119451   0.710   2.704   2.096 -0.1116 -0.7134 -0.0487
 2663SOL    HW219452   0.675   2.601   2.198  0.0486 -1.6982 -2.0571
 2664SOL     OW19453   4.505   4.117   3.447 -0.1818  0.1915 -0.1372
 2664SOL    HW119454   4.545   4.049   3.501  0.1517 -0.9442 -1.8170
 2664SOL    HW219455   4.543   4.096   3.361 -0.8050  0.0752 -0.3863
 2665SOL     OW19456   1.838   0.699   5.684  0.4340 -0.0951 -0.4854
 2665SOL    HW119457   1.784   0.658   5.616 -0.0970 -0.2343  0.0239
 2665SOL    HW219458   1.873   0.621   5.727  0.2662 -0.3634 -0.8347
 2666SOL     OW19459   0.813   4.445   4.177  0.3278  0.3637 -0.0219
 2666SOL    HW119460   0.844   4.454   4.267 -0.0018 -1.4510  0.2836
 2666SOL    HW219461   0.719   4.441   4.193  0.3235  0.7233  0.0260
 2667SOL     OW19462   4.121   3.671   9.305  0.6921  0.1503  0.2477
 2667SOL    HW119463   4.147   3.654   9.396  1.5645  0.4557  0.0455
 2667SOL    HW219464   4.206   3.669   9.263 -0.0006  0.6548 -1.1622
 2668SOL     OW19465   4.064   1.781   3.160 -0.5442 -0.3857 -0.6309
 2668SOL    HW119466   4.059   1.844   3.088 -3.1344 -1.6370 -1.5551
 2668SOL    HW219467   3.974   1.751   3.168 -1.0396  1.2083 -0.1429
 2669SOL     OW19468   0.558   3.512   7.594  0.4269  0.1452  0.1993
 2669SOL    HW119469   0.490   3.455   7.630  1.3303 -1.0286  0.0540
 2669SOL    HW219470   0.512   3.550   7.519 -0.4155 -1.2935 -0.0253
 2670SOL     OW19471   0.378   0.865   3.129 -0.4481  0.1875 -0.7488
 2670SOL    HW119472   0.332   0.857   3.212 -1.3080  0.9975 -1.1365
 2670SOL    HW219473   0.412   0.777   3.114  1.3033  1.0213 -1.6605
 2671SOL     OW19474   1.239   0.303   9.369 -0.0228  0.5943  0.6430
 2671SOL    HW119475   1.143   0.304   9.371 -0.0356  1.3696 -0.2275
 2671SOL    HW219476   1.264   0.247   9.442 -0.3430  1.0409  1.0987
 2672SOL     OW19477   2.774   2.894   4.548  0.0987  0.4511 -0.0013
 2672SOL    HW119478   2.780   2.959   4.479 -2.8149  1.0794  0.3470
 2672SOL    HW219479   2.761   2.815   4.495 -1.6570  1.1445 -0.5895
 2673SOL     OW19480   1.688   1.215  15.705 -0.6223 -0.5154  0.6627
 2673SOL    HW119481   1.760   1.220  15.642 -1.6615 -1.4633 -0.5985
 2673SOL    HW219482   1.619   1.270  15.668  0.0742  0.0062  0.1546
 2674SOL     OW19483   1.844   1.355   6.557  0.1109 -0.1337 -0.0092
 2674SOL    HW119484   1.810   1.445   6.558 -3.4829 -1.5166  2.7259
 2674SOL    HW219485   1.896   1.354   6.476  0.7603  0.3122  0.4035
 2675SOL     OW19486   4.187   4.492   9.606 -0.1116  0.4654 -0.0767
 2675SOL    HW119487   4.149   4.544   9.535  0.4078 -0.1268 -0.7875
 2675SOL    HW219488   4.144   4.512   9.690  0.8963 -0.3630  0.6331
 2676SOL     OW19489   1.875   3.965  11.124  0.5605 -0.1199 -0.6586
 2676SOL    HW119490   1.896   3.960  11.031 -2.2740  0.0148 -1.3095
 2676SOL    HW219491   1.960   3.950  11.166  1.5246  1.0358 -2.1790
 2677SOL     OW19492   2.039   1.114   2.652  0.2072 -0.3224 -0.3613
 2677SOL    HW119493   2.025   1.020   2.643 -1.8263  0.1200 -1.8656
 2677SOL    HW219494   1.992   1.128   2.735  1.0499 -0.9969  0.2398
 2678SOL     OW19495   4.014   1.415   2.822 -0.4533  0.2911 -0.3588
 2678SOL    HW119496   4.067   1.404   2.742  2.5688 -0.1544  1.6904
 2678SOL    HW219497   3.970   1.498   2.804 -0.4485  0.4327  0.2868
 2679SOL     OW19498   4.319   2.385   8.863 -0.8850  0.5165  0.0695
 2679SOL    HW119499   4.369   2.467   8.861  0.9928 -0.6124  0.6399
 2679SOL    HW219500   4.244   2.423   8.817 -0.5258 -1.2573 -1.9621
 2680SOL     OW19501   2.287   0.642  11.943  0.6023  0.3416  0.1851
 2680SOL    HW119502   2.382   0.646  11.928  0.9162  0.3552  2.2385
 2680SOL    HW219503   2.250   0.665  11.857  1.7204 -2.2804 -1.0049
 2681SOL     OW19504   2.654   2.785   8.634 -0.1932  0.2862 -0.0127
 2681SOL    HW119505   2.560   2.779   8.653  0.0095 -0.6318  0.6948
 2681SOL    HW219506   2.653   2.859   8.573 -1.2665 -1.5147 -2.1913
 2682SOL     OW19507   1.069   2.122   6.497 -0.2553 -0.3295  0.4472
 2682SOL    HW119508   1.069   2.209   6.457  1.5944 -1.1716 -1.3847
 2682SOL    HW219509   0.981   2.119   6.534 -0.6097 -0.7869 -0.4331
 2683SOL     OW19510   0.874   2.327   5.725 -0.0518 -0.3186 -0.0301
 2683SOL    HW119511   0.952   2.329   5.781  0.4320  2.9335 -0.8226
 2683SOL    HW219512   0.914   2.328   5.638 -3.8825  3.4110 -1.7022
 2684SOL     OW19513   4.154   0.942   7.581  0.4524  0.0538  0.5931
 2684SOL    HW119514   4.220   1.000   7.544  0.5257 -0.1682  0.3810
 2684SOL    HW219515   4.158   0.870   7.519 -0.7147  0.0105  0.5602
 2685SOL     OW19516   4.697   3.321   3.681 -0.4022 -0.5940 -0.1918
 2685SOL    HW119517   4.648   3.277   3.611 -0.4644  0.0632 -0.5679
 2685SOL    HW219518   4.701   3.250   3.744  1.1963  0.9799  1.4831
 2686SOL     OW19519   2.629   0.187   3.922 -0.1649 -0.5503 -0.4030
 2686SOL    HW119520   2.649   0.233   4.004  1.8427 -0.9464 -0.6868
 2686SOL    HW219521   2.536   0.204   3.908  0.4550  0.2923 -3.4060
 2687SOL     OW19522   1.160   3.642   0.537  0.9095 -0.1703 -0.2129
 2687SOL    HW119523   1.208   3.692   0.603 -0.9700 -1.5334  2.1822
 2687SOL    HW219524   1.242   3.615   0.496  1.5849  1.1151  0.3035
 2688SOL     OW19525   4.391   0.179   2.613 -1.0016  0.2205 -0.0037
 2688SOL    HW119526   4.457   0.114   2.591  1.0715  2.0378  0.7960
 2688SOL    HW219527   4.325   0.118   2.647  0.7976 -1.0824  1.1441
 2689SOL     OW19528   0.064   1.640   9.268  0.2272 -0.6816  0.4836
 2689SOL    HW119529   0.021   1.579   9.329 -0.2726  0.8382  1.6794
 2689SOL    HW219530   4.707   1.666   9.224  1.2239 -0.1906 -1.0273
 2690SOL     OW19531   2.603   4.559   5.300  0.2736  0.2417 -0.0173
 2690SOL    HW119532   2.662   4.543   5.374  1.7068 -0.5801 -1.3483
 2690SOL    HW219533   2.669   4.598   5.243  1.1708 -1.3895 -0.0713
 2691SOL     OW19534   3.492   2.745  10.947 -0.6276 -0.1095 -0.3367
 2691SOL    HW119535   3.573   2.725  10.995  0.4279  1.8925 -1.2859
 2691SOL    HW219536   3.451   2.816  10.996 -0.7022 -0.5051  0.1790
 2692SOL     OW19537   2.895   4.261   7.049 -0.0937  0.0659 -0.0470
 2692SOL    HW119538   2.881   4.342   7.098  0.2753  0.2052 -0.1667
 2692SOL    HW219539   2.965   4.288   6.989  1.1514 -1.5009  0.6962
 2693SOL     OW19540   4.722   3.646   2.427 -0.0986  0.1038  0.3108
 2693SOL    HW119541   0.025   3.730   2.464  1.5569  0.0517 -0.8151
 2693SOL    HW219542   4.632   3.671   2.407 -0.1182  0.9295  1.4411
 2694SOL     OW19543   4.447   1.702   2.709 -0.4342  0.3582  0.1102
 2694SOL    HW119544   4.498   1.780   2.729 -0.3964  0.4863 -0.4804
 2694SOL    HW219545   4.387   1.713   2.783 -0.1326  0.4104  0.3480
 2695SOL     OW19546   2.741   1.757   3.362 -0.2750 -0.5445  0.0269
 2695SOL    HW119547   2.711   1.845   3.384  1.3254 -0.0595  0.2870
 2695SOL    HW219548   2.713   1.711   3.442  1.5398 -3.0535 -0.7726
 2696SOL     OW19549   3.487   2.175   3.953 -0.4129 -0.0864  0.0461
 2696SOL    HW119550   3.463   2.264   3.981 -3.1042 -0.2947 -1.6143
 2696SOL    HW219551   3.507   2.191   3.861 -1.9303 -0.0930 -0.2883
 2697SOL     OW19552   2.676   3.268   4.985 -0.5402 -0.5229  0.2512
 2697SOL    HW119553   2.649   3.319   4.908  0.0895  0.4014  0.6452
 2697SOL    HW219554   2.732   3.333   5.027 -0.2139 -1.0140  0.5689
 2698SOL     OW19555   1.209   4.419   2.981  0.1848 -0.7570 -0.1419
 2698SOL    HW119556   1.120   4.450   2.994  0.3052 -0.3284 -0.3457
 2698SOL    HW219557   1.202   4.407   2.886 -1.5676  1.5516 -0.2772
 2699SOL     OW19558   1.333   0.754   2.523 -0.2658 -0.5401 -0.4448
 2699SOL    HW119559   1.327   0.847   2.503  1.4442 -0.7759 -2.1156
 2699SOL    HW219560   1.284   0.750   2.605 -0.6569 -0.8570 -0.6924
 2700SOL     OW19561   2.669   4.316   2.209  0.2227 -0.1356  0.0549
 2700SOL    HW119562   2.574   4.307   2.214 -0.1815  2.6767 -2.7112
 2700SOL    HW219563   2.696   4.377   2.277 -1.1445  0.5196  0.0067
 2701SOL     OW19564   0.641   2.242  15.774 -0.2485 -0.1610  0.0040
 2701SOL    HW119565   0.588   2.172  15.736  1.5790 -2.0544  0.9184
 2701SOL    HW219566   0.684   2.281  15.698  0.7572  1.5061  1.4225
 2702SOL     OW19567   3.497   1.095   7.934 -0.1558 -0.2734 -0.1392
 2702SOL    HW119568   3.430   1.037   7.898  1.2347  0.0898 -3.2933
 2702SOL    HW219569   3.512   1.165   7.869  1.7214  0.6723  1.3408
 2703SOL     OW19570   4.278   4.391   9.110 -0.3547 -0.6329 -0.2613
 2703SOL    HW119571   4.288   4.435   9.026 -2.8417 -1.1162 -0.8242
 2703SOL    HW219572   4.211   4.444   9.152  2.0553  1.9871  0.2692
 2704SOL     OW19573   3.358   3.217   8.300 -0.0782 -0.0368 -0.1371
 2704SOL    HW119574   3.332   3.139   8.350  0.2304  0.1708  0.3467
 2704SOL    HW219575   3.282   3.234   8.245  0.7367  1.0448 -0.9186
 2705SOL     OW19576   1.079   2.091  11.433 -0.2304 -0.1085  0.0688
 2705SOL    HW119577   1.093   2.185  11.432  1.0646 -0.3594 -3.5176
 2705SOL    HW219578   0.985   2.094  11.418 -0.1380 -1.6168 -0.8792
 2706SOL     OW19579   2.024   4.004   2.437  0.6025 -0.3910  0.0728
 2706SOL    HW119580   2.048   4.044   2.520 -1.9091  0.5652  0.3417
 2706SOL    HW219581   2.100   3.950   2.415 -0.8824 -2.7301  0.7399
 2707SOL     OW19582   3.239   1.893  14.628  0.2192  0.4558 -0.3952
 2707SOL    HW119583   3.224   1.902  14.534 -1.1064 -0.3727 -0.2588
 2707SOL    HW219584   3.292   1.814  14.637 -1.9655 -0.9171  0.2299
 2708SOL     OW19585   1.232   1.843   5.378  0.1343 -0.2482 -0.3777
 2708SOL    HW119586   1.243   1.916   5.438  0.0506 -0.7343  0.2361
 2708SOL    HW219587   1.319   1.842   5.338  0.1487  0.1119 -0.3512
 2709SOL     OW19588   0.742   1.774   8.447 -0.6957  0.4591  0.6151
 2709SOL    HW119589   0.806   1.806   8.511  0.8732  1.8027 -1.6201
 2709SOL    HW219590   0.789   1.699   8.411 -2.0959 -0.2711  0.2834
 2710SOL     OW19591   2.994   2.201  16.442  0.1092 -0.1645  0.2306
 2710SOL    HW119592   2.989   2.144  16.365  0.8490  1.4018 -0.9589
 2710SOL    HW219593   2.969   2.134  16.506 -0.8134 -0.8000 -0.7933
 2711SOL     OW19594   4.606   0.612   4.217 -0.1038 -0.2844  0.3473
 2711SOL    HW119595   4.702   0.608   4.227 -0.0837 -0.1915  0.1823
 2711SOL    HW219596   4.575   0.539   4.272 -2.3021 -0.4689 -1.1586
 2712SOL     OW19597   0.578   2.827   7.056 -0.1526  0.6676 -0.0512
 2712SOL    HW119598   0.602   2.743   7.096  1.4901  0.9651 -0.3975
 2712SOL    HW219599   0.652   2.837   6.996 -1.2321 -2.3058 -1.8472
 2713SOL     OW19600   0.367   2.331   7.100  0.7002 -0.0133  0.3169
 2713SOL    HW119601   0.419   2.303   7.174 -0.6683  0.9527  1.6447
 2713SOL    HW219602   0.420   2.390   7.047 -2.3336  2.2202 -0.2658
 2714SOL     OW19603   4.640   3.025   9.772 -0.2005  0.4993 -0.3209
 2714SOL    HW119604   0.003   2.994   9.747 -0.3784 -0.6435  0.4443
 2714SOL    HW219605   4.600   3.047   9.688 -3.1194 -0.8798  0.6943
 2715SOL     OW19606   2.808   3.447   3.497 -0.2870 -0.4452 -0.2471
 2715SOL    HW119607   2.813   3.460   3.403 -1.8215 -1.1907 -0.4230
 2715SOL    HW219608   2.718   3.473   3.516 -0.0113  0.1104  0.3083
 2716SOL     OW19609   1.165   3.008  13.315  0.4880  0.4488  0.5037
 2716SOL    HW119610   1.124   3.089  13.345  3.7243  2.5900 -0.7992
 2716SOL    HW219611   1.256   3.038  13.318  0.7021 -0.2205  0.7925
 2717SOL     OW19612   4.356   1.230   5.299  0.3040 -0.5350  0.7376
 2717SOL    HW119613   4.435   1.180   5.316  0.3116 -0.9302 -0.4111
 2717SOL    HW219614   4.351   1.301   5.363  0.6078  0.8006 -0.6998
 2718SOL     OW19615   4.145   0.459  17.152 -0.0079 -0.3057  0.0870
 2718SOL    HW119616   4.058   0.470  17.115  0.7450 -1.4303 -2.0228
 2718SOL    HW219617   4.153   0.368  17.124  2.7369  0.3440 -1.3278
 2719SOL     OW19618   4.023   0.128   7.468  0.5491 -1.0194  0.3157
 2719SOL    HW119619   4.095   0.096   7.523 -1.0702 -0.8200  2.5473
 2719SOL    HW219620   4.043   0.221   7.473 -3.0185 -0.1938 -1.2647
 2720SOL     OW19621   1.916   3.952   7.060 -0.2651 -0.1841  0.5179
 2720SOL    HW119622   1.971   4.007   7.116  2.3720 -0.7435 -1.5438
 2720SOL    HW219623   1.958   3.967   6.976  1.6605 -0.2397  1.4628
 2721SOL     OW19624   1.648   0.600   5.410 -0.1297  0.5073  0.6398
 2721SOL    HW119625   1.673   0.586   5.319 -4.4969  0.3348 -0.5265
 2721SOL    HW219626   1.641   0.509   5.441 -0.1719  0.2613 -0.1095
 2722SOL     OW19627   2.462   3.081   5.005  0.5453  0.5616 -0.3643
 2722SOL    HW119628   2.509   3.164   5.013  0.5780  0.3347  1.7340
 2722SOL    HW219629   2.477   3.057   4.913  1.3536 -0.5835  0.0650
 2723SOL     OW19630   1.218   4.609   4.422  0.7294  0.1237  0.5412
 2723SOL    HW119631   1.224   4.544   4.352 -1.1855 -0.1817  0.6547
 2723SOL    HW219632   1.302   4.587   4.461  0.3643 -3.0190 -0.4873
 2724SOL     OW19633   3.927   3.272   3.684 -0.4466 -0.4870  0.7860
 2724SOL    HW119634   3.893   3.252   3.771 -0.4056  0.2650  0.9747
 2724SOL    HW219635   4.012   3.229   3.697 -0.2225 -0.5886 -1.0245
 2725SOL     OW19636   3.895   1.834  17.129  0.1028  0.2526 -0.5835
 2725SOL    HW119637   3.895   1.916  17.178 -3.9675 -1.4210  2.1605
 2725SOL    HW219638   3.875   1.854  17.038 -0.2345 -2.0298 -1.0089
 2726SOL     OW19639   1.782   3.315   2.250  0.4328  0.5256  0.0643
 2726SOL    HW119640   1.692   3.285   2.236  0.9221 -0.2706 -1.3648
 2726SOL    HW219641   1.760   3.405   2.275 -1.1068  0.3459 -0.6783
 2727SOL     OW19642   1.656   0.909  16.498 -0.3260  0.7297 -0.1533
 2727SOL    HW119643   1.620   0.934  16.583  0.6015  0.0295  0.4446
 2727SOL    HW219644   1.629   0.986  16.447 -0.6384  0.1258 -0.8904
 2728SOL     OW19645   3.142   2.970   4.175 -0.5471 -0.1742 -0.1759
 2728SOL    HW119646   3.055   3.008   4.170 -0.1571  0.8570  1.0897
 2728SOL    HW219647   3.147   2.937   4.265 -0.7676 -0.2063 -0.1758
 2729SOL     OW19648   3.456   0.252   4.765 -0.0384  0.1621  0.4878
 2729SOL    HW119649   3.364   0.230   4.771 -0.0847 -0.8843 -4.3797
 2729SOL    HW219650   3.493   0.164   4.775 -0.4480 -0.0087  0.4858
 2730SOL     OW19651   1.480   1.204   6.017 -0.5987 -0.0448 -0.1200
 2730SOL    HW119652   1.439   1.290   6.023  0.4528  0.7159 -3.6564
 2730SOL    HW219653   1.562   1.214   6.065  0.2220 -0.3646 -1.4598
 2731SOL     OW19654   2.403   3.784   8.633 -0.3574  0.0469 -1.0565
 2731SOL    HW119655   2.454   3.778   8.553  1.8690 -3.1231  0.6022
 2731SOL    HW219656   2.397   3.691   8.655 -0.4380  0.1810 -0.5078
 2732SOL     OW19657   0.885   4.125  11.964 -0.3164 -0.0192 -0.3949
 2732SOL    HW119658   0.819   4.164  12.022  0.3344 -2.8464  2.2423
 2732SOL    HW219659   0.839   4.041  11.957  0.1774 -0.2044 -1.3688
 2733SOL     OW19660   3.587   0.893   1.352 -0.1575  0.1083 -0.1223
 2733SOL    HW119661   3.549   0.854   1.430 -1.2706  3.8329  1.1795
 2733SOL    HW219662   3.672   0.909   1.394  0.4579 -1.3218 -0.8418
 2734SOL     OW19663   0.823   4.237   6.403 -0.1823 -0.0521 -0.0428
 2734SOL    HW119664   0.825   4.305   6.470 -3.0241  1.2698 -1.2961
 2734SOL    HW219665   0.775   4.167   6.448  0.0789 -0.6595 -0.7045
 2735SOL     OW19666   3.591   2.791   8.820 -0.0163 -0.0871 -0.4096
 2735SOL    HW119667   3.557   2.801   8.908  1.7930  0.5317  0.2199
 2735SOL    HW219668   3.520   2.744   8.777 -1.6404  2.5978 -0.6710
 2736SOL     OW19669   1.940   4.151  10.363  0.4132 -0.2186 -0.3182
 2736SOL    HW119670   2.026   4.146  10.403 -0.1540 -1.0751  0.7759
 2736SOL    HW219671   1.882   4.189  10.429  0.9062  0.6576 -0.3991
 2737SOL     OW19672   0.184   4.146  10.246 -0.6468  0.0974  0.1365
 2737SOL    HW119673   0.108   4.185  10.202 -1.0257 -0.2261  0.5001
 2737SOL    HW219674   0.149   4.102  10.323  0.3277  0.9765  1.0895
 2738SOL     OW19675   1.661   4.415   4.852 -0.3220  0.0136  0.0755
 2738SOL    HW119676   1.702   4.390   4.935  1.0507  1.0952 -0.2756
 2738SOL    HW219677   1.736   4.452   4.805 -0.9914  2.0766  0.6185
 2739SOL     OW19678   1.677   3.714   5.397 -0.2096  0.0499  0.1259
 2739SOL    HW119679   1.604   3.723   5.458  0.2894 -2.4064  1.1097
 2739SOL    HW219680   1.752   3.726   5.455 -0.6040 -3.5820  1.4146
 2740SOL     OW19681   0.777   0.759   3.448  0.3928 -0.0461 -0.3325
 2740SOL    HW119682   0.686   0.734   3.433 -0.2721  0.1502  3.2785
 2740SOL    HW219683   0.763   0.837   3.502 -0.9684 -1.1746  0.9365
 2741SOL     OW19684   4.686   0.455   1.279 -0.7499 -0.1878  0.2025
 2741SOL    HW119685   4.622   0.486   1.342 -1.2886  0.8103 -0.8339
 2741SOL    HW219686   4.717   0.535   1.237  4.0836 -1.5109  1.2196
 2742SOL     OW19687   4.540   3.311  14.985  0.1012 -0.2034 -0.7272
 2742SOL    HW119688   4.630   3.301  14.953  1.1292  0.4796  1.9054
 2742SOL    HW219689   4.558   3.350  15.071 -2.0983 -0.5631 -0.1001
 2743SOL     OW19690   0.263   4.274   3.131 -0.0703  0.6573  0.0472
 2743SOL    HW119691   0.253   4.179   3.126  1.1212  0.5758 -0.9761
 2743SOL    HW219692   0.344   4.279   3.181 -0.9383  0.2367  1.4966
 2744SOL     OW19693   0.236   2.079  12.927  0.4342 -0.4338 -0.0709
 2744SOL    HW119694   0.255   2.003  12.981 -0.8881 -1.1537 -0.6410
 2744SOL    HW219695   0.145   2.098  12.947  0.0598 -1.9633 -0.4063
 2745SOL     OW19696   2.389   1.613  13.045  0.0596  0.4981  0.2681
 2745SOL    HW119697   2.364   1.592  12.955 -2.3714  0.0704  1.0395
 2745SOL    HW219698   2.305   1.599  13.088  0.6162 -0.5405  1.0148
 2746SOL     OW19699   1.074   1.500   5.813  0.1918 -0.7357  0.0075
 2746SOL    HW119700   1.065   1.563   5.885  0.7425  1.3687 -1.7575
 2746SOL    HW219701   1.115   1.562   5.752  2.3848 -0.7724  1.4436
 2747SOL     OW19702   4.710   4.152   6.903 -0.7343  0.7269 -0.6505
 2747SOL    HW119703   0.061   4.165   6.846 -1.0214 -0.4703 -1.2921
 2747SOL    HW219704   4.655   4.222   6.870  2.3706  3.6901  0.3723
 2748SOL     OW19705   1.658   2.359  11.164  0.1651  0.0233 -0.2093
 2748SOL    HW119706   1.600   2.351  11.240 -2.3821  0.5849 -2.1069
 2748SOL    HW219707   1.736   2.404  11.197  0.3815  0.7214 -1.6576
 2749SOL     OW19708   0.708   1.349   5.730 -0.2977 -0.4682 -0.0045
 2749SOL    HW119709   0.713   1.296   5.650 -0.9404  0.5054 -0.6849
 2749SOL    HW219710   0.798   1.359   5.760 -0.6645  1.4573  0.4337
 2750SOL     OW19711   2.800   2.379   2.191 -0.3388  0.1395  0.0764
 2750SOL    HW119712   2.819   2.440   2.262 -1.1446  4.0606 -3.1042
 2750SOL    HW219713   2.717   2.414   2.160 -1.6954 -2.0875  1.2088
 2751SOL     OW19714   1.141   0.180   0.038 -0.0688 -0.2463  0.2050
 2751SOL    HW119715   1.108   0.182   0.128 -0.6174  0.7236 -0.0211
 2751SOL    HW219716   1.233   0.206   0.051 -0.6223  0.7976  2.0460
 2752SOL     OW19717   4.479   3.339  16.633  0.1217  0.1152  0.1515
 2752SOL    HW119718   4.516   3.316  16.718  2.7590 -1.0039 -1.2767
 2752SOL    HW219719   4.403   3.389  16.661  0.4289  0.5048  0.2975
 2753SOL     OW19720   3.746   2.330   4.455 -0.4897 -0.4568 -0.9613
 2753SOL    HW119721   3.705   2.412   4.428  0.9026  1.2810  2.3013
 2753SOL    HW219722   3.716   2.326   4.546  1.6751 -0.6700 -0.2624
 2754SOL     OW19723   4.437   0.645   6.034 -0.1969  0.0558  0.0485
 2754SOL    HW119724   4.513   0.589   6.017 -0.1085  0.4741 -0.9999
 2754SOL    HW219725   4.417   0.698   5.956 -0.0830 -0.5577 -0.4035
 2755SOL     OW19726   1.605   1.583  15.290 -0.2922 -0.5333  0.0633
 2755SOL    HW119727   1.545   1.577  15.215  1.3490 -1.1169 -1.1841
 2755SOL    HW219728   1.591   1.673  15.322 -0.4116  0.5813 -3.1365
 2756SOL     OW19729   0.955   2.781   4.847  0.2310  0.1412  0.2445
 2756SOL    HW119730   0.893   2.805   4.917 -0.1368  0.9332 -0.3564
 2756SOL    HW219731   0.938   2.686   4.849  0.0000  0.1343 -2.3462
 2757SOL     OW19732   0.245   2.024   7.885  0.1135  0.1987  0.3680
 2757SOL    HW119733   0.335   1.994   7.896  0.4519  1.0272 -0.1372
 2757SOL    HW219734   0.227   2.079   7.961 -2.4244 -1.7460  1.1741
 2758SOL     OW19735   3.316   3.392   5.974  0.3434 -0.1894 -0.2369
 2758SOL    HW119736   3.227   3.379   6.007  0.2821 -0.2997 -0.4450
 2758SOL    HW219737   3.308   3.417   5.882  1.7952  2.8383  0.4664
 2759SOL     OW19738   2.417   1.739   5.839  0.2063 -0.1385  0.0919
 2759SOL    HW119739   2.451   1.651   5.824 -0.0054 -0.1974 -0.0376
 2759SOL    HW219740   2.334   1.731   5.793 -0.0102 -0.3923  0.5238
 2760SOL     OW19741   1.147   1.316   1.162 -0.3116 -0.4341  0.0265
 2760SOL    HW119742   1.126   1.262   1.238 -1.5021 -0.4019 -0.2843
 2760SOL    HW219743   1.217   1.373   1.195  0.2633 -1.0259 -0.1803
 2761SOL     OW19744   2.146   1.798   4.052 -0.3832 -0.0430 -0.5787
 2761SOL    HW119745   2.174   1.877   4.097 -0.5686  0.7438 -1.8426
 2761SOL    HW219746   2.224   1.755   4.016  0.6833 -0.1682  1.8960
 2762SOL     OW19747   1.422   2.764   5.850 -0.3275 -0.3106 -0.0676
 2762SOL    HW119748   1.351   2.827   5.844 -0.4226 -0.4003  0.0967
 2762SOL    HW219749   1.450   2.780   5.940  2.1160  1.5305 -1.1636
 2763SOL     OW19750   0.648   0.255   7.797 -0.4918  0.4300  0.1122
 2763SOL    HW119751   0.679   0.172   7.761  1.2710  1.5200 -0.8927
 2763SOL    HW219752   0.725   0.271   7.850 -0.7126  1.8037  0.0192
 2764SOL     OW19753   1.725   2.291   9.303  0.2104  0.2575  0.2921
 2764SOL    HW119754   1.721   2.384   9.279  0.1686  0.1493 -0.1260
 2764SOL    HW219755   1.630   2.279   9.293  0.2262  1.8885 -1.6964
 2765SOL     OW19756   2.400   0.341   5.627  0.3723  0.7583  0.2354
 2765SOL    HW119757   2.371   0.415   5.574  0.7898  2.0522  1.8193
 2765SOL    HW219758   2.410   0.271   5.561 -0.3793 -0.7084  1.6798
 2766SOL     OW19759   1.723   1.400   9.589  0.1235  0.0237 -0.4777
 2766SOL    HW119760   1.633   1.429   9.580  0.0147 -0.4958 -1.0455
 2766SOL    HW219761   1.768   1.485   9.595  1.0926 -0.7544  3.5829
 2767SOL     OW19762   4.053   4.101   4.648 -0.5486  0.5623  0.1839
 2767SOL    HW119763   3.999   4.075   4.573  0.2811 -2.7432  0.7097
 2767SOL    HW219764   4.119   4.032   4.645 -2.6489 -1.4651  0.7259
 2768SOL     OW19765   1.487   1.939   4.885  0.9205  0.3285  0.3152
 2768SOL    HW119766   1.436   1.959   4.964  0.8451  0.2919  0.2754
 2768SOL    HW219767   1.415   1.956   4.824  1.3015  0.0543 -0.2141
 2769SOL     OW19768   3.015   3.106  11.965  0.0796 -0.3476  0.5912
 2769SOL    HW119769   2.993   3.112  11.872  0.3459 -0.6902  0.5078
 2769SOL    HW219770   3.111   3.100  11.967 -0.0076 -1.8725 -0.0885
 2770SOL     OW19771   1.847   4.633  14.176  0.3126  0.3029  0.1301
 2770SOL    HW119772   1.830   4.539  14.179  0.4100  0.2738 -0.3188
 2770SOL    HW219773   1.765   4.680  14.193  0.2550  0.1577  0.2511
 2771SOL     OW19774   0.713   0.144   3.956  0.7981  0.3339  0.1917
 2771SOL    HW119775   0.800   0.184   3.956  1.1623 -0.4691 -0.5405
 2771SOL    HW219776   0.738   0.054   3.977  2.0708  0.5694 -0.3209
 2772SOL     OW19777   1.368   1.224  11.112 -0.1341 -0.1813 -0.1817
 2772SOL    HW119778   1.411   1.308  11.096 -1.7531  0.4130 -1.4332
 2772SOL    HW219779   1.438   1.161  11.129 -0.8944 -1.0563 -0.3122
 2773SOL     OW19780   2.926   2.409  13.877 -0.0204  0.3373 -0.3613
 2773SOL    HW119781   2.871   2.447  13.809 -1.2410  0.3133  0.6236
 2773SOL    HW219782   2.953   2.492  13.917 -2.0737  0.4635  0.7280
 2774SOL     OW19783   3.373   0.707   3.010 -0.1896  0.2062  0.7974
 2774SOL    HW119784   3.339   0.638   2.953  0.0843  0.3868  0.4172
 2774SOL    HW219785   3.305   0.715   3.076  0.6878 -0.6723  1.7960
 2775SOL     OW19786   4.607   0.903   5.869  0.0074 -0.3593 -0.2680
 2775SOL    HW119787   4.522   0.858   5.861  1.1513 -2.8347  1.4862
 2775SOL    HW219788   4.582   0.995   5.860  1.4387 -0.2031 -2.4810
 2776SOL     OW19789   3.710   4.642   7.860 -0.0718  0.2728 -0.3566
 2776SOL    HW119790   3.738   4.647   7.769  4.9818  1.9585  1.3123
 2776SOL    HW219791   3.720   4.548   7.878 -1.2135  0.5866  1.8688
 2777SOL     OW19792   4.345   0.201   5.125 -0.8425  0.1621  0.1561
 2777SOL    HW119793   4.385   0.185   5.040 -0.3757 -2.5587  0.9114
 2777SOL    HW219794   4.336   0.115   5.166 -0.4082 -0.2556 -0.6362
 2778SOL     OW19795   0.831   2.968   3.859  0.1847 -0.1998  0.1198
 2778SOL    HW119796   0.863   3.052   3.825  0.1480 -0.9758 -1.8609
 2778SOL    HW219797   0.748   2.986   3.904  0.2542  1.3498 -0.3339
 2779SOL     OW19798   4.629   0.440   5.925  0.2432  0.2692 -0.8283
 2779SOL    HW119799   4.714   0.454   5.967 -0.1704 -0.6675  0.3220
 2779SOL    HW219800   4.640   0.374   5.856  0.2476 -0.0390 -0.5304
 2780SOL     OW19801   2.032   1.601   7.860  0.5431  0.0268  0.1045
 2780SOL    HW119802   2.004   1.632   7.774  1.4587  1.8218  0.4593
 2780SOL    HW219803   2.127   1.605   7.868  0.4389  0.9217  0.8357
 2781SOL     OW19804   3.756   3.356   3.249  0.5321  0.4530  0.7937
 2781SOL    HW119805   3.765   3.394   3.336  0.4775 -0.6979  1.3005
 2781SOL    HW219806   3.836   3.305   3.254 -1.7056 -3.2336 -0.7273
 2782SOL     OW19807   1.105   2.641   7.087 -0.8040  0.1903  0.3446
 2782SOL    HW119808   1.099   2.557   7.043 -0.5592 -0.2350  1.1216
 2782SOL    HW219809   1.057   2.700   7.029 -0.4076 -1.2167 -1.4209
 2783SOL     OW19810   2.798   1.679   3.101 -0.0255 -0.5957  0.1216
 2783SOL    HW119811   2.770   1.713   3.187  0.5825  2.1480 -0.7692
 2783SOL    HW219812   2.718   1.654   3.056  0.5106  1.4518 -1.9453
 2784SOL     OW19813   4.543   3.458   4.300  0.1504 -0.3436  0.6219
 2784SOL    HW119814   4.539   3.552   4.316  1.3014 -0.2737  0.5575
 2784SOL    HW219815   4.454   3.442   4.270  0.1827 -0.6344  0.6746
 2785SOL     OW19816   1.116   3.522   3.779 -0.0632 -0.1143  0.3706
 2785SOL    HW119817   1.193   3.574   3.756  0.2584 -2.0753 -2.9982
 2785SOL    HW219818   1.130   3.485   3.866 -1.4805  1.5435  1.3050
 2786SOL     OW19819   0.216   2.233   9.749 -0.3780  0.0141  0.4197
 2786SOL    HW119820   0.176   2.292   9.686 -1.2438 -1.9258 -0.8411
 2786SOL    HW219821   0.224   2.286   9.828 -0.3242  2.2272 -1.0897
 2787SOL     OW19822   1.093   0.958   1.729 -1.1240  0.4272  0.3020
 2787SOL    HW119823   1.163   0.966   1.795 -1.4367 -0.5425  0.7521
 2787SOL    HW219824   1.134   0.909   1.658 -1.5047 -1.5184  1.4301
 2788SOL     OW19825   3.135   4.237  12.522  0.4919  0.1232  0.1873
 2788SOL    HW119826   3.220   4.272  12.548  0.8411 -1.4616  1.1757
 2788SOL    HW219827   3.082   4.317  12.525  1.3174  0.7343 -2.0333
 2789SOL     OW19828   4.558   2.675   0.474  0.3458  0.1234  0.3242
 2789SOL    HW119829   4.493   2.632   0.419 -0.8062  0.9768  1.0478
 2789SOL    HW219830   4.639   2.640   0.435  0.2258 -0.4325  0.5589
 2790SOL     OW19831   2.999   1.423   0.786  0.2031 -0.0923 -0.5431
 2790SOL    HW119832   3.076   1.424   0.842  0.2553  0.4281 -0.6222
 2790SOL    HW219833   2.946   1.354   0.826 -1.3143  2.1808  1.4263
 2791SOL     OW19834   2.558   3.690  13.345  0.0224 -0.4541 -0.0386
 2791SOL    HW119835   2.561   3.595  13.357 -1.0370 -0.5645 -0.6489
 2791SOL    HW219836   2.565   3.698  13.250  4.8071 -0.2484  0.3602
 2792SOL     OW19837   2.360   2.166   3.002 -0.2299 -0.0281 -0.4869
 2792SOL    HW119838   2.322   2.119   2.927 -0.3429 -0.5177 -0.1279
 2792SOL    HW219839   2.281   2.192   3.050  0.1531  0.9325 -0.3908
 2793SOL     OW19840   3.640   2.467   2.169  0.0921 -0.4056  0.3590
 2793SOL    HW119841   3.668   2.376   2.181  1.6264  0.2791  1.9265
 2793SOL    HW219842   3.719   2.506   2.132  0.6326  0.8269  2.8065
 2794SOL     OW19843   3.957   2.800   6.610 -0.0387  0.3583  0.2915
 2794SOL    HW119844   4.038   2.803   6.559  0.1156  2.3880  0.6514
 2794SOL    HW219845   3.904   2.830   6.537 -0.4460  0.2880  0.5575
 2795SOL     OW19846   3.043   1.493  16.265  0.3520 -0.7569 -0.1731
 2795SOL    HW119847   3.004   1.524  16.183 -0.6775 -0.6117  0.3715
 2795SOL    HW219848   2.989   1.546  16.324  0.3592 -0.6175 -0.2915
 2796SOL     OW19849   1.637   1.030   4.944  0.2630 -0.1400  0.0853
 2796SOL    HW119850   1.732   1.027   4.932  0.2372  1.2074 -0.4442
 2796SOL    HW219851   1.615   1.123   4.936 -0.5562 -0.3463 -0.1352
 2797SOL     OW19852   2.445   1.480   1.640 -0.0912 -0.1284  0.0006
 2797SOL    HW119853   2.530   1.520   1.621 -0.3053  0.7394  0.8739
 2797SOL    HW219854   2.411   1.460   1.552 -0.6308 -0.5998  0.3190
 2798SOL     OW19855   0.180   1.641  11.052 -0.1803 -0.2505 -0.5229
 2798SOL    HW119856   0.137   1.572  11.102  1.4417 -1.9633 -1.5057
 2798SOL    HW219857   0.257   1.662  11.105 -0.0834  1.8375 -1.4965
 2799SOL     OW19858   3.159   4.297   3.009 -0.0982  0.0215 -0.1330
 2799SOL    HW119859   3.235   4.287   3.067 -0.0542 -0.0948 -0.2114
 2799SOL    HW219860   3.180   4.369   2.948  1.5867 -1.1595 -0.9563
 2800SOL     OW19861   3.137   1.918   4.706  0.1443 -0.3369  0.3396
 2800SOL    HW119862   3.070   1.856   4.677 -0.9296  0.7123  0.5822
 2800SOL    HW219863   3.178   1.939   4.622  0.3634 -1.5536  0.1476
 2801SOL     OW19864   4.529   0.092   7.923  0.5603 -0.3040  0.2582
 2801SOL    HW119865   4.538   0.079   8.018 -1.3200 -2.0264  0.2000
 2801SOL    HW219866   4.592   0.163   7.912 -2.2468  2.3449  1.0368
 2802SOL     OW19867   2.049   1.360   3.058  0.6145  0.3245 -0.1625
 2802SOL    HW119868   1.991   1.330   2.988 -0.7355  0.8815  0.7220
 2802SOL    HW219869   1.992   1.355   3.135  0.3756 -2.0231 -0.4695
 2803SOL     OW19870   0.008   0.972  16.122 -0.0433 -0.3737  0.1963
 2803SOL    HW119871   4.640   0.954  16.141 -0.6402  1.9175 -0.5729
 2803SOL    HW219872   4.723   1.056  16.077  0.9465 -0.4253 -0.1011
 2804SOL     OW19873   4.023   0.728   9.980  0.2287  0.2348  0.9193
 2804SOL    HW119874   4.072   0.659   9.936  1.0960  0.2765  1.8336
 2804SOL    HW219875   3.971   0.763   9.907 -0.6340 -0.1757  1.3348
 2805SOL     OW19876   1.421   1.945   9.421  0.4822  0.3034 -0.0538
 2805SOL    HW119877   1.334   1.986   9.411 -0.1098 -0.7631  0.7032
 2805SOL    HW219878   1.411   1.915   9.511  2.5578  0.5771  0.2557
 2806SOL     OW19879   2.078   0.925   9.317 -0.1212 -0.3251  0.0458
 2806SOL    HW119880   2.072   0.883   9.403 -0.2894 -0.6170 -0.1115
 2806SOL    HW219881   2.006   0.885   9.269  0.8111 -1.2108 -0.6224
 2807SOL     OW19882   1.475   0.711   1.711 -0.4397  0.0584 -0.0281
 2807SOL    HW119883   1.468   0.673   1.623 -0.3771 -1.1451  0.4847
 2807SOL    HW219884   1.569   0.699   1.723 -0.3725 -0.0602 -0.6759
 2808SOL     OW19885   1.571   4.191  10.299  0.4258  0.6105  0.4663
 2808SOL    HW119886   1.559   4.109  10.252 -1.2958 -0.5177  2.8281
 2808SOL    HW219887   1.488   4.211  10.344 -1.5926 -2.3544 -1.9675
 2809SOL     OW19888   2.664   0.124   5.303 -0.5490  0.3648  0.1183
 2809SOL    HW119889   2.717   0.071   5.244 -2.6459  0.0131 -1.4490
 2809SOL    HW219890   2.730   0.179   5.345  0.1894  0.5289 -1.2636
 2810SOL     OW19891   0.521   2.554   8.626  0.2798  0.7386  0.3587
 2810SOL    HW119892   0.557   2.611   8.694 -1.3907  1.4851  0.6115
 2810SOL    HW219893   0.457   2.612   8.585  0.6413  2.8513  2.7512
 2811SOL     OW19894   3.551   0.387  13.697 -0.0938 -0.1563  0.0890
 2811SOL    HW119895   3.540   0.336  13.777  0.1958 -1.4003 -0.6557
 2811SOL    HW219896   3.646   0.393  13.707  0.0604 -0.5485 -1.0277
 2812SOL     OW19897   2.179   1.029   1.431 -0.3016 -0.9066  0.1974
 2812SOL    HW119898   2.247   1.025   1.498  1.2209 -0.1598 -1.3216
 2812SOL    HW219899   2.231   1.069   1.361 -0.4981  0.4797  0.8435
 2813SOL     OW19900   4.148   0.163  17.505  0.2458 -0.9174  0.0386
 2813SOL    HW119901   4.069   0.114  17.486 -1.7082  2.1921  0.1675
 2813SOL    HW219902   4.116   0.207  17.583 -3.6858 -4.0473  0.1583
 2814SOL     OW19903   1.710   2.057   5.356  0.3197 -0.6108 -0.1567
 2814SOL    HW119904   1.755   2.080   5.275  2.1640 -0.1581  1.0087
 2814SOL    HW219905   1.713   2.136   5.410 -0.0044 -0.2191 -0.7121
 2815SOL     OW19906   3.682   4.131   2.350  0.0135  0.2390 -0.4790
 2815SOL    HW119907   3.596   4.129   2.308 -1.0365  3.9877  1.4808
 2815SOL    HW219908   3.718   4.189   2.283 -0.5853  3.5636  2.0398
 2816SOL     OW19909   4.675   1.929  15.298 -0.6404  0.1056  0.0547
 2816SOL    HW119910   4.719   1.921  15.213 -0.8397 -1.6268  0.1053
 2816SOL    HW219911   4.608   1.997  15.294 -1.4183 -0.7445 -1.2903
 2817SOL     OW19912   1.653   0.122  11.981 -1.0305 -0.4963  0.3096
 2817SOL    HW119913   1.657   0.176  12.061  0.1278  1.0561 -0.7939
 2817SOL    HW219914   1.733   0.150  11.935 -2.0779  3.1991  0.7589
 2818SOL     OW19915   2.301   2.599   6.474 -0.0226  0.3132  0.1577
 2818SOL    HW119916   2.375   2.596   6.534  0.4171  2.3012 -0.2816
 2818SOL    HW219917   2.242   2.533   6.511  0.6098 -0.6551 -0.5766
 2819SOL     OW19918   2.841   1.777   2.665 -0.2134 -0.1192  0.2308
 2819SOL    HW119919   2.838   1.858   2.613  1.2791 -0.6946 -0.7665
 2819SOL    HW219920   2.759   1.731   2.649 -0.9010 -0.2699  4.3433
 2820SOL     OW19921   4.719   1.979   7.621  0.2337  0.1527  0.3543
 2820SOL    HW119922   0.013   1.946   7.708  1.4184  0.3363  0.1886
 2820SOL    HW219923   0.077   1.958   7.576 -0.7170 -2.0831 -0.3057
 2821SOL     OW19924   3.056   4.439   1.953  0.2349  0.1461  0.1423
 2821SOL    HW119925   3.145   4.466   1.931 -0.1886  0.2675 -1.3945
 2821SOL    HW219926   3.073   4.410   2.043  0.8390  0.0367 -0.0083
 2822SOL     OW19927   0.988   1.535   4.966 -0.2276 -0.1661 -0.5626
 2822SOL    HW119928   1.049   1.464   4.944  2.2100  2.0160 -0.9611
 2822SOL    HW219929   1.048   1.581   5.025 -0.3390 -1.4916  0.5808
 2823SOL     OW19930   0.303   0.390   5.096  0.4300 -0.5475  0.2498
 2823SOL    HW119931   0.263   0.340   5.024 -1.3192  2.1286 -0.6688
 2823SOL    HW219932   0.380   0.430   5.055 -0.5825 -0.4639 -1.5827
 2824SOL     OW19933   2.117   1.391   7.632 -0.3141 -0.2036  0.0679
 2824SOL    HW119934   2.038   1.373   7.580  0.2549 -0.1239 -0.8161
 2824SOL    HW219935   2.091   1.483   7.638 -0.8011 -0.4318  1.5560
 2825SOL     OW19936   1.348   2.240   5.715  0.0006  0.1758 -0.5050
 2825SOL    HW119937   1.397   2.322   5.703  1.7401 -0.6072  1.1239
 2825SOL    HW219938   1.411   2.188   5.766  0.5019  0.0717 -1.2335
 2826SOL     OW19939   2.709   2.320   7.070 -0.0408  0.1884 -0.5400
 2826SOL    HW119940   2.750   2.387   7.016  1.6986 -1.0787 -0.7670
 2826SOL    HW219941   2.737   2.345   7.158  0.9456 -1.0877 -0.5058
 2827SOL     OW19942   2.058   0.947   7.185  0.3052 -0.4072 -0.7595
 2827SOL    HW119943   2.140   0.917   7.145  0.3051  1.9727 -2.5458
 2827SOL    HW219944   2.054   0.871   7.243  0.3691 -0.0949 -0.3510
 2828SOL     OW19945   2.082   4.507   6.386 -0.0593  0.2153  0.0226
 2828SOL    HW119946   2.128   4.450   6.324  1.1880  0.6993  0.5116
 2828SOL    HW219947   2.011   4.454   6.423  0.3311 -1.5367 -1.7255
 2829SOL     OW19948   2.706   3.921   9.547 -0.2048  0.1267  0.2744
 2829SOL    HW119949   2.741   3.876   9.471  1.1783  0.1165  0.9054
 2829SOL    HW219950   2.633   3.965   9.503 -0.8026 -1.1023  0.0658
 2830SOL     OW19951   3.969   1.410   7.353  0.1121 -0.7321  0.7535
 2830SOL    HW119952   4.042   1.426   7.294  0.5984  1.0061  1.8360
 2830SOL    HW219953   3.891   1.422   7.299 -0.1110  2.6299  1.8409
 2831SOL     OW19954   2.645   1.720   6.734 -0.1768  0.2699  0.0143
 2831SOL    HW119955   2.686   1.648   6.686 -0.5100 -0.3827  0.6999
 2831SOL    HW219956   2.555   1.687   6.735 -0.2067  0.3268 -0.9864
 2832SOL     OW19957   0.757   2.723   3.744  0.2196 -0.2320 -0.1189
 2832SOL    HW119958   0.790   2.809   3.769 -1.0599  0.3219 -0.3206
 2832SOL    HW219959   0.695   2.746   3.674 -0.1133  0.4236  0.3975
 2833SOL     OW19960   1.295   1.978   4.684  0.6712 -0.5114 -0.7761
 2833SOL    HW119961   1.236   1.920   4.636 -0.4152  0.7469 -0.9496
 2833SOL    HW219962   1.239   2.054   4.697 -3.1237 -3.5807  0.5886
 2834SOL     OW19963   3.210   3.716   7.021 -0.3410  0.1767 -0.2061
 2834SOL    HW119964   3.276   3.763   6.969 -0.4573  0.7139  0.1354
 2834SOL    HW219965   3.233   3.625   7.002  2.0583  0.5522  0.8607
 2835SOL     OW19966   1.816   0.412   0.615 -0.0567 -0.1235  0.2302
 2835SOL    HW119967   1.820   0.322   0.585  1.3678 -0.4688  1.4445
 2835SOL    HW219968   1.741   0.408   0.673  0.0983  0.6790  0.4966
 2836SOL     OW19969   3.768   1.913   0.552  0.1604 -0.7439  0.1302
 2836SOL    HW119970   3.754   1.910   0.646  2.3128  0.1188  0.4913
 2836SOL    HW219971   3.776   2.007   0.532 -0.2874 -0.9955 -1.2588
 2837SOL     OW19972   0.300   1.402   8.633 -0.3976 -0.5558 -0.0663
 2837SOL    HW119973   0.264   1.422   8.719  2.3719  3.3915  0.1627
 2837SOL    HW219974   0.375   1.348   8.659  1.5721  2.1569 -0.0900
 2838SOL     OW19975   1.075   0.345   8.983  0.1915  0.1464  0.0213
 2838SOL    HW119976   1.168   0.327   9.000  1.1680  3.1020 -2.1598
 2838SOL    HW219977   1.043   0.400   9.054 -0.2202 -1.3543  0.9966
 2839SOL     OW19978   1.313   3.610   0.097 -0.5631 -0.3305 -0.3855
 2839SOL    HW119979   1.298   3.689   0.148  0.8118 -0.8792  0.8785
 2839SOL    HW219980   1.405   3.617   0.072 -0.4380 -1.3482 -0.2266
 2840SOL     OW19981   2.390   1.236   6.970  0.1573  0.5413  0.3784
 2840SOL    HW119982   2.446   1.298   7.017  0.9484  0.1767 -0.0838
 2840SOL    HW219983   2.340   1.291   6.910 -2.3196 -0.5495  1.4835
 2841SOL     OW19984   3.860   2.089  13.586 -0.2379  0.1240 -0.1843
 2841SOL    HW119985   3.764   2.099  13.585  0.1235  3.7906 -0.7557
 2841SOL    HW219986   3.865   1.995  13.603 -1.0212  0.2793  0.8650
 2842SOL     OW19987   4.178   1.193   6.802 -0.1198  0.0944 -0.2692
 2842SOL    HW119988   4.240   1.130   6.767 -0.6337 -1.3504  1.4152
 2842SOL    HW219989   4.155   1.163   6.890 -3.0183  0.0587 -1.0206
 2843SOL     OW19990   1.043   4.020   2.769 -0.3649  0.2637  0.3131
 2843SOL    HW119991   1.052   3.927   2.746 -1.6329  0.6936 -1.8844
 2843SOL    HW219992   1.009   4.055   2.687 -1.5594 -0.6702  0.4204
 2844SOL     OW19993   0.546   0.441   4.265  0.4343  0.2550 -0.3619
 2844SOL    HW119994   0.637   0.439   4.235  0.8993  1.8997  0.9205
 2844SOL    HW219995   0.509   0.364   4.222 -2.0298  0.4735  1.3706
 2845SOL     OW19996   3.844   1.702  12.339 -0.0421  0.6818 -0.7639
 2845SOL    HW119997   3.934   1.710  12.307 -0.1544  0.7882 -1.0535
 2845SOL    HW219998   3.792   1.750  12.275  0.5299  0.3180 -1.4985
 2846SOL     OW19999   2.716   2.577   2.421 -0.5078  0.1838 -0.4173
 2846SOL    HW120000   2.701   2.657   2.472 -0.5546  0.0244 -0.1819
 2846SOL    HW220001   2.795   2.548   2.465 -2.7959 -2.8521  1.7455
 2847SOL     OW20002   1.285   3.317  13.248 -0.2223 -0.3596 -0.3109
 2847SOL    HW120003   1.218   3.286  13.187 -0.3658  1.2654 -0.9937
 2847SOL    HW220004   1.247   3.398  13.281  0.3031  0.7161 -2.3312
 2848SOL     OW20005   4.067   2.762   9.289 -0.1895 -0.6041  0.1302
 2848SOL    HW120006   4.072   2.690   9.226 -1.7230 -2.0414  1.6218
 2848SOL    HW220007   4.016   2.819   9.231 -0.4724 -0.3331  0.6501
 2849SOL     OW20008   3.576   4.490   0.042  0.1643  0.0911  0.2258
 2849SOL    HW120009   3.662   4.504   0.003 -0.6511  0.5429 -1.4471
 2849SOL    HW220010   3.557   4.404   0.005 -0.7155  0.0364  0.7985
 2850SOL     OW20011   2.426   4.138  17.475  0.2909 -0.2968 -0.5960
 2850SOL    HW120012   2.505   4.189  17.489  0.3348 -0.6395  0.4009
 2850SOL    HW220013   2.457   4.052  17.503 -1.3929 -0.9186 -0.6022
 2851SOL     OW20014   1.080   3.263  13.078 -1.0168  0.5413  0.0920
 2851SOL    HW120015   0.994   3.222  13.074 -1.6655  1.8658  0.3766
 2851SOL    HW220016   1.048   3.345  13.041 -1.0279  0.3392 -0.3490
 2852SOL     OW20017   0.108   0.422  15.808 -0.0252  0.2847  0.3628
 2852SOL    HW120018   0.129   0.508  15.772  1.3625 -0.6324 -1.0291
 2852SOL    HW220019   0.156   0.371  15.742  0.7795 -2.3735  2.9986
 2853SOL     OW20020   2.001   2.689   6.052  0.1709 -0.7011 -0.6345
 2853SOL    HW120021   1.958   2.630   6.115  0.4131 -0.9989 -0.7520
 2853SOL    HW220022   1.986   2.774   6.093 -2.2840 -0.9717 -0.9569
 2854SOL     OW20023   1.827   0.959   6.921  0.1395  0.2604 -0.2676
 2854SOL    HW120024   1.777   0.889   6.963  0.8626  0.0558  0.2517
 2854SOL    HW220025   1.764   0.989   6.855 -0.5609  0.4089  0.4607
 2855SOL     OW20026   3.262   4.677   7.436 -0.1461  0.3727 -0.0808
 2855SOL    HW120027   3.178   4.719   7.453 -0.4639  0.3219 -1.4824
 2855SOL    HW220028   3.327   4.707   7.499  0.3217  0.0705 -0.4196
 2856SOL     OW20029   3.718   1.383   4.308  0.2186  0.0267 -0.5851
 2856SOL    HW120030   3.811   1.398   4.323 -0.1600  1.7574  0.0545
 2856SOL    HW220031   3.705   1.293   4.337 -0.9647  0.0447 -1.0422
 2857SOL     OW20032   2.929   2.664   4.369 -0.3164  0.3986  0.2259
 2857SOL    HW120033   2.989   2.623   4.307  0.3273  2.7648 -0.7300
 2857SOL    HW220034   2.883   2.730   4.318 -1.6953 -0.8845 -0.1999
 2858SOL     OW20035   4.284   2.990   8.554  0.3655  0.2489  0.7278
 2858SOL    HW120036   4.342   2.922   8.587  0.5856 -0.7273 -1.6504
 2858SOL    HW220037   4.311   2.989   8.462 -0.8371 -1.8106  0.3881
 2859SOL     OW20038   2.561   2.625  15.731  1.0139  0.6312  0.1944
 2859SOL    HW120039   2.637   2.568  15.718 -0.3405 -1.0511 -0.3331
 2859SOL    HW220040   2.567   2.653  15.822  0.6430 -0.5075  0.5676
 2860SOL     OW20041   1.389   3.303   1.558 -0.6295  0.3418 -0.1134
 2860SOL    HW120042   1.452   3.234   1.535 -3.1176 -1.5320 -1.3527
 2860SOL    HW220043   1.434   3.337   1.635  1.3408  1.5051 -1.7971
 2861SOL     OW20044   1.655   1.431   0.382 -0.3887 -0.2126  0.3817
 2861SOL    HW120045   1.568   1.392   0.391 -0.3334 -0.2706  0.6475
 2861SOL    HW220046   1.680   1.438   0.474 -0.6385 -1.5380  0.5455
 2862SOL     OW20047   4.565   3.093   5.065 -0.0697  0.0609 -0.1140
 2862SOL    HW120048   4.556   3.171   5.010 -1.5987 -0.3588 -0.4749
 2862SOL    HW220049   4.621   3.122   5.136  0.6339 -1.6651  0.0257
 2863SOL     OW20050   4.322   3.758  16.806 -0.0416 -0.1500  0.1077
 2863SOL    HW120051   4.272   3.826  16.851 -1.0338 -0.9049  0.1524
 2863SOL    HW220052   4.339   3.800  16.721 -2.2267 -0.6222 -0.5657
 2864SOL     OW20053   1.991   3.737   8.769  0.1875  0.2679 -0.5851
 2864SOL    HW120054   1.946   3.733   8.854 -3.1425  0.6498 -2.3304
 2864SOL    HW220055   2.074   3.697   8.794  0.3855  0.4666 -0.9244
 2865SOL     OW20056   1.834   0.166   5.485 -0.8818  0.1997  0.8352
 2865SOL    HW120057   1.928   0.174   5.474 -0.9603  3.3192  2.3561
 2865SOL    HW220058   1.816   0.092   5.427 -2.2940 -0.5103  2.1742
 2866SOL     OW20059   2.021   4.370   2.786  0.4637  0.6356 -0.5145
 2866SOL    HW120060   2.110   4.349   2.814  0.7043  1.3739 -0.7139
 2866SOL    HW220061   1.961   4.321   2.842  0.2139  1.4183 -0.0915
 2867SOL     OW20062   1.595   2.259  12.756 -0.0750  0.3207 -0.8434
 2867SOL    HW120063   1.567   2.349  12.738 -2.0465 -0.0402  0.5069
 2867SOL    HW220064   1.567   2.204  12.683 -0.9503 -1.4297  0.8173
 2868SOL     OW20065   3.354   2.251   2.799  0.1519  0.4531  0.0281
 2868SOL    HW120066   3.337   2.345   2.788  0.6142  0.3010 -1.9375
 2868SOL    HW220067   3.278   2.212   2.843  0.1650  1.3154  0.8115
 2869SOL     OW20068   2.712   0.376   6.940 -0.1797 -0.2729 -0.0141
 2869SOL    HW120069   2.789   0.338   6.897  1.4201  2.8375  0.0846
 2869SOL    HW220070   2.746   0.452   6.987 -0.5206 -0.9793  1.3682
 2870SOL     OW20071   0.238   0.833  16.086 -0.0018  0.4565  0.3645
 2870SOL    HW120072   0.190   0.813  16.006 -1.3504  0.6247  1.1342
 2870SOL    HW220073   0.223   0.925  16.110  4.9336  1.0252  1.2562
 2871SOL     OW20074   2.990   4.643  12.098  0.3750 -0.6488 -0.1682
 2871SOL    HW120075   2.957   4.698  12.027  2.6342  2.0342  0.8607
 2871SOL    HW220076   2.951   4.558  12.078  0.1770 -0.4653 -0.5544
 2872SOL     OW20077   0.859   4.682  15.719  0.7048 -0.4022  0.8364
 2872SOL    HW120078   0.797   4.705  15.789 -2.3776 -1.9584 -1.3873
 2872SOL    HW220079   0.884   0.043  15.683  0.7757 -0.7199  0.1245
 2873SOL     OW20080   1.972   3.278  14.758 -0.3899  0.0532  0.1486
 2873SOL    HW120081   2.060   3.242  14.749 -1.0216 -1.1941 -1.0501
 2873SOL    HW220082   1.929   3.226  14.690 -2.4353  0.3570  1.2063
 2874SOL     OW20083   1.521   4.655  16.979 -0.0636 -0.3884  0.4213
 2874SOL    HW120084   1.514   4.644  16.884 -0.4950  0.2885  0.3764
 2874SOL    HW220085   1.560   4.571  17.005 -1.8048 -1.0542  0.9703
 2875SOL     OW20086   1.252   4.025   4.496  0.2129  0.4983  0.3606
 2875SOL    HW120087   1.243   4.021   4.592 -0.6049  0.5916  0.2890
 2875SOL    HW220088   1.289   3.938   4.483 -2.2692 -0.3009 -1.3036
 2876SOL     OW20089   1.701   4.593  16.233 -0.0077 -0.5598  0.3890
 2876SOL    HW120090   1.632   4.568  16.172  3.0186 -0.9071 -2.9401
 2876SOL    HW220091   1.676   4.537  16.306 -2.0479 -2.0335 -1.4393
 2877SOL     OW20092   3.256   1.774   4.139  0.5623  0.1353 -0.2617
 2877SOL    HW120093   3.260   1.738   4.050 -0.1121  1.6980 -0.9278
 2877SOL    HW220094   3.344   1.808   4.152 -0.1361  1.5385  0.8164
 2878SOL     OW20095   3.377   4.359  16.282  0.1404  0.4364 -0.3444
 2878SOL    HW120096   3.372   4.269  16.314 -0.9052  0.4493 -0.4731
 2878SOL    HW220097   3.452   4.389  16.334  1.5186 -2.9800 -0.3565
 2879SOL     OW20098   4.217   4.173   6.956  0.4297 -0.7821 -0.1621
 2879SOL    HW120099   4.284   4.120   6.912  2.3604  0.2648  1.5220
 2879SOL    HW220100   4.162   4.106   6.996 -0.4144 -0.6413 -1.0777
 2880SOL     OW20101   3.434   1.183  14.937 -0.0165 -0.4765 -0.3966
 2880SOL    HW120102   3.477   1.128  15.003  0.7029  0.7878  0.1786
 2880SOL    HW220103   3.412   1.262  14.986 -0.4805 -2.6555  2.8919
 2881SOL     OW20104   2.237   2.652   5.808  1.0276 -0.5757 -0.0262
 2881SOL    HW120105   2.142   2.654   5.814  0.9648 -0.7635 -1.0013
 2881SOL    HW220106   2.264   2.715   5.875  0.1224 -1.8181  1.5021
 2882SOL     OW20107   2.750   4.494   8.657 -0.8225  0.5653  0.9946
 2882SOL    HW120108   2.680   4.429   8.660  1.5170 -1.9752  1.2559
 2882SOL    HW220109   2.805   4.458   8.587  2.3430  2.5563  2.4668
 2883SOL     OW20110   3.042   2.773   5.026 -0.1807  0.2803 -0.6443
 2883SOL    HW120111   2.985   2.820   5.087  0.1058  1.1673 -1.0515
 2883SOL    HW220112   2.994   2.691   5.013 -2.5122  1.6687 -0.7695
 2884SOL     OW20113   1.636   0.915  15.447 -0.0321 -0.0230  0.0061
 2884SOL    HW120114   1.702   0.928  15.515  0.7693  1.2709 -1.0121
 2884SOL    HW220115   1.693   0.892  15.374  0.9431  0.1031  0.7255
 2885SOL     OW20116   4.238   3.210   7.131 -0.0970  0.0053 -0.5015
 2885SOL    HW120117   4.170   3.164   7.181  1.3811 -0.4616  1.0572
 2885SOL    HW220118   4.255   3.272   7.202  1.0807  1.3997 -1.9928
 2886SOL     OW20119   4.006   1.610   4.547 -0.2860  0.9433 -0.2752
 2886SOL    HW120120   4.039   1.695   4.576 -0.6624  1.2644 -0.7870
 2886SOL    HW220121   3.959   1.584   4.625  1.9488  0.1110  0.7920
 2887SOL     OW20122   3.665   1.817  13.966 -0.0790  0.5315  0.1696
 2887SOL    HW120123   3.749   1.852  13.995  1.2219 -2.3574 -0.0898
 2887SOL    HW220124   3.632   1.881  13.903 -0.8863  0.9956  1.0730
 2888SOL     OW20125   0.957   0.342   6.084  0.9206 -0.5216  0.0178
 2888SOL    HW120126   0.970   0.387   6.001 -0.5194 -0.2988 -0.0873
 2888SOL    HW220127   0.967   0.416   6.144  0.0079 -0.3231 -0.0811
 2889SOL     OW20128   0.387   1.370   6.381 -0.1172  0.5315  0.0848
 2889SOL    HW120129   0.366   1.277   6.393 -0.9634  0.8416  1.0443
 2889SOL    HW220130   0.380   1.401   6.471  2.6521 -1.0530  0.8547
 2890SOL     OW20131   1.246   2.495  15.141  0.3239  0.7508  0.3320
 2890SOL    HW120132   1.284   2.559  15.201 -1.1481 -1.2632  3.4539
 2890SOL    HW220133   1.320   2.434  15.144 -0.8132 -0.6824 -0.8535
 2891SOL     OW20134   0.084   0.505  14.860  0.5751 -0.4514 -0.1517
 2891SOL    HW120135   0.078   0.540  14.771 -1.5006  0.2529  0.2695
 2891SOL    HW220136   0.045   0.418  14.857  0.0840 -0.1930 -1.1496
 2892SOL     OW20137   2.743   4.222  10.729 -0.2197 -0.4523  0.3800
 2892SOL    HW120138   2.826   4.179  10.709  0.6169  1.3462  0.0433
 2892SOL    HW220139   2.765   4.311  10.757  0.3127 -1.0064  1.7106
 2893SOL     OW20140   4.374   2.456   7.180 -0.1040 -0.2776  0.0368
 2893SOL    HW120141   4.297   2.506   7.154  0.0333 -0.4337 -0.6779
 2893SOL    HW220142   4.359   2.367   7.149 -1.4220 -0.0510  0.0330
 2894SOL     OW20143   3.634   4.489   3.487  0.0117  0.1980 -0.0494
 2894SOL    HW120144   3.693   4.498   3.561 -2.1174  0.9390  1.5562
 2894SOL    HW220145   3.570   4.559   3.494 -1.0095 -0.5925 -1.3876
 2895SOL     OW20146   1.073   4.292  12.188 -0.6369 -0.0213  0.2795
 2895SOL    HW120147   0.979   4.306  12.192 -0.5645  0.3688  0.6346
 2895SOL    HW220148   1.089   4.203  12.218  1.7849  0.3517  0.1077
 2896SOL     OW20149   4.060   1.797  11.536 -0.1519 -0.2904  0.3920
 2896SOL    HW120150   4.125   1.730  11.556 -2.3361 -2.4885  0.1362
 2896SOL    HW220151   4.019   1.755  11.460  1.6292  0.8070 -1.1566
 2897SOL     OW20152   3.054   0.915  16.903  0.2925 -0.4749  0.3686
 2897SOL    HW120153   2.986   0.848  16.893  0.2415 -0.1937 -1.1294
 2897SOL    HW220154   3.095   0.889  16.985  3.0883 -1.1727 -1.2379
 2898SOL     OW20155   1.424   0.708   6.817 -0.3352  0.1351 -0.5689
 2898SOL    HW120156   1.423   0.635   6.879  0.8700  0.1895 -0.4771
 2898SOL    HW220157   1.516   0.725   6.798 -0.3105  0.5720 -0.0713
 2899SOL     OW20158   2.355   4.396  10.642  0.2222 -0.2754 -0.1634
 2899SOL    HW120159   2.417   4.465  10.615 -0.1415 -0.5130 -1.5832
 2899SOL    HW220160   2.373   4.399  10.736  2.3695 -1.0715 -0.5524
 2900SOL     OW20161   1.928   3.611   1.175 -0.1932  0.1844  0.2723
 2900SOL    HW120162   1.833   3.600   1.169  0.0983 -0.2776 -3.8024
 2900SOL    HW220163   1.941   3.615   1.269  0.0886 -0.5229  0.2616
 2901SOL     OW20164   0.795   3.317   8.135  0.0989 -0.5200 -0.1418
 2901SOL    HW120165   0.829   3.406   8.127 -0.5275 -0.3517 -1.0556
 2901SOL    HW220166   0.705   3.333   8.106  0.0853 -1.5969 -0.6888
 2902SOL     OW20167   3.060   2.619   2.124 -0.2608  0.1214  0.0589
 2902SOL    HW120168   3.059   2.553   2.194  0.3904  0.5044  0.4266
 2902SOL    HW220169   3.100   2.691   2.172  0.2263 -1.0283  1.3858
 2903SOL     OW20170   0.147   3.190   2.469 -0.3779  0.3069 -0.1627
 2903SOL    HW120171   0.177   3.272   2.510 -2.6533  0.8481  0.4895
 2903SOL    HW220172   0.209   3.179   2.398  0.0033  1.7005 -0.0422
 2904SOL     OW20173   3.710   2.898   7.504  0.0254 -0.2911  0.0417
 2904SOL    HW120174   3.666   2.946   7.434  1.0583 -2.3583 -2.0311
 2904SOL    HW220175   3.799   2.890   7.468 -0.6505 -0.4879 -1.6189
 2905SOL     OW20176   0.242   3.974   8.790 -0.3098  0.0926 -0.0290
 2905SOL    HW120177   0.159   3.944   8.828 -0.4258  0.1855 -0.2113
 2905SOL    HW220178   0.304   3.917   8.835  2.5925  3.5117  0.2624
 2906SOL     OW20179   3.328   3.530   4.737  0.1714 -0.0880 -0.3452
 2906SOL    HW120180   3.233   3.524   4.747  0.4572 -2.4174  1.0199
 2906SOL    HW220181   3.340   3.589   4.663  0.1274  0.9482  0.4598
 2907SOL     OW20182   3.371   1.392   4.411 -0.3884  0.4152 -0.8762
 2907SOL    HW120183   3.412   1.339   4.343  2.2673  0.3010  0.8254
 2907SOL    HW220184   3.414   1.474   4.389 -1.0786  1.0905  0.2706
 2908SOL     OW20185   2.727   4.585   3.637  0.0391  0.2379  0.3985
 2908SOL    HW120186   2.768   4.658   3.682  1.3452 -1.5147  2.0386
 2908SOL    HW220187   2.783   4.511   3.662 -1.3280 -1.2942 -1.0009
 2909SOL     OW20188   2.007   0.986  14.838 -0.3813 -0.5729 -0.4246
 2909SOL    HW120189   1.976   0.991  14.929  0.2185 -2.9838 -0.1010
 2909SOL    HW220190   2.001   1.070  14.792 -1.8778 -1.8899 -2.6363
 2910SOL     OW20191   4.719   4.241  11.457  0.8417  0.2011  0.1903
 2910SOL    HW120192   0.053   4.167  11.444  1.1154  0.4764 -0.1683
 2910SOL    HW220193   0.006   4.258  11.551  0.5582  0.6085  0.1512
 2911SOL     OW20194   4.122   2.539   9.107 -0.8435  0.2133  0.1801
 2911SOL    HW120195   4.199   2.484   9.118 -1.9618 -1.3831 -0.0349
 2911SOL    HW220196   4.142   2.579   9.023  1.1515 -1.2561 -0.0320
 2912SOL     OW20197   2.864   3.419   7.423 -0.2898 -0.2035 -0.3200
 2912SOL    HW120198   2.874   3.472   7.343 -0.9125  0.8356  0.2848
 2912SOL    HW220199   2.769   3.418   7.426 -0.1661 -1.8580  2.8941
 2913SOL     OW20200   1.463   2.588   3.378  0.0840 -0.4371 -0.0733
 2913SOL    HW120201   1.540   2.640   3.403 -0.4217  0.7050 -0.8794
 2913SOL    HW220202   1.475   2.507   3.426  0.3877 -0.8787 -0.8836
 2914SOL     OW20203   2.541   2.354   2.385 -0.0692  0.0577  0.3236
 2914SOL    HW120204   2.511   2.335   2.474  2.9210 -2.6290  0.7881
 2914SOL    HW220205   2.597   2.429   2.404  0.7025 -0.7798  1.4005
 2915SOL     OW20206   3.324   1.732   6.490  0.4821  0.0326 -0.5531
 2915SOL    HW120207   3.269   1.738   6.412  1.0228 -2.4087 -1.1503
 2915SOL    HW220208   3.259   1.685   6.542  1.7341 -0.9032  0.1671
 2916SOL     OW20209   4.469   3.330  17.507 -0.5314  0.1551 -0.3103
 2916SOL    HW120210   4.552   3.348  17.463 -0.1106  1.7327  1.1331
 2916SOL    HW220211   4.495   3.271  17.578 -2.1672 -0.2132 -0.0172
 2917SOL     OW20212   3.385   0.567   3.677 -0.0409  0.1130  0.8197
 2917SOL    HW120213   3.338   0.550   3.758 -0.0022  1.7755  1.1841
 2917SOL    HW220214   3.373   0.662   3.676  0.1840  0.1214 -1.5030
 2918SOL     OW20215   3.305   3.789  16.883 -0.1080  0.1705  0.2143
 2918SOL    HW120216   3.217   3.800  16.919 -0.5775  1.8514 -1.4173
 2918SOL    HW220217   3.272   3.777  16.794  0.1128  2.7101 -0.2155
 2919SOL     OW20218   2.486   0.467   6.536 -0.1861  0.1200  0.1420
 2919SOL    HW120219   2.399   0.483   6.501 -0.4959  0.0715  0.8968
 2919SOL    HW220220   2.467   0.486   6.628  1.0305 -2.0413  0.8492
 2920SOL     OW20221   0.636   0.139  14.730  0.6535  0.0331 -0.2699
 2920SOL    HW120222   0.667   0.181  14.650 -0.3295 -0.8787 -1.1389
 2920SOL    HW220223   0.715   0.089  14.752 -0.0377 -0.6252  0.7231
 2921SOL     OW20224   2.371   2.995   6.714 -0.0623 -0.0536 -0.4789
 2921SOL    HW120225   2.335   3.036   6.793  1.6257 -0.1978  0.3550
 2921SOL    HW220226   2.365   2.900   6.726  3.1377 -0.4873 -2.4357
 2922SOL     OW20227   1.152   2.203   4.205  0.0055  0.9456 -0.7091
 2922SOL    HW120228   1.110   2.272   4.154 -4.0868  0.8458  2.5118
 2922SOL    HW220229   1.122   2.126   4.157  2.5243  0.1269 -0.9409
 2923SOL     OW20230   1.452   1.474   2.344  0.2512  0.0976  0.2533
 2923SOL    HW120231   1.373   1.504   2.299  1.2797  2.3096 -0.0587
 2923SOL    HW220232   1.423   1.426   2.422 -2.9641  1.1302 -0.2765
 2924SOL     OW20233   1.473   3.323   8.318  0.0615  0.2170 -0.0710
 2924SOL    HW120234   1.420   3.392   8.357 -1.4385 -0.2058 -1.3770
 2924SOL    HW220235   1.532   3.305   8.391  1.0688  0.4504 -0.8283
 2925SOL     OW20236   1.270   0.811   5.456 -0.1881 -0.1191 -0.0174
 2925SOL    HW120237   1.354   0.815   5.503 -0.8868 -0.7011  1.2721
 2925SOL    HW220238   1.263   0.905   5.438 -1.5785  0.1858  2.1483
 2926SOL     OW20239   4.463   4.634   4.371  0.1624 -0.6065  0.3032
 2926SOL    HW120240   4.529   4.633   4.302  0.6872 -2.0363  0.8069
 2926SOL    HW220241   4.429   4.545   4.359  1.4628 -0.9680 -0.7094
 2927SOL     OW20242   2.297   3.637  13.914  0.1971  0.1804 -0.2196
 2927SOL    HW120243   2.272   3.729  13.907 -2.3401 -0.6571 -2.1820
 2927SOL    HW220244   2.391   3.640  13.929  0.1331  1.1860  0.0206
 2928SOL     OW20245   3.579   3.042   7.316 -0.1340  0.2909 -0.2804
 2928SOL    HW120246   3.620   3.127   7.300  1.4889 -0.5439 -0.5340
 2928SOL    HW220247   3.495   3.068   7.354 -0.8816 -2.2205 -0.2257
 2929SOL     OW20248   3.204   0.908   4.717 -0.4676  0.2458 -0.0979
 2929SOL    HW120249   3.123   0.953   4.691 -1.5637 -1.3979  0.5239
 2929SOL    HW220250   3.268   0.970   4.681 -0.2577  0.3132  0.3924
 2930SOL     OW20251   0.484   3.716   8.586  0.8014 -0.0940  0.4304
 2930SOL    HW120252   0.480   3.638   8.642 -1.5149 -0.5191 -0.3376
 2930SOL    HW220253   0.574   3.741   8.609  1.2956 -0.8527 -0.7002
 2931SOL     OW20254   2.965   1.220   3.131 -0.1972  0.0034 -0.0795
 2931SOL    HW120255   2.987   1.223   3.038  1.5072  1.3452  0.3666
 2931SOL    HW220256   2.999   1.304   3.162  1.1092 -0.3465 -0.5582
 2932SOL     OW20257   3.815   2.649   3.273 -0.9265  0.6295  0.3677
 2932SOL    HW120258   3.817   2.633   3.368  0.0604  1.1443  0.4361
 2932SOL    HW220259   3.774   2.569   3.243 -0.5126  0.6777 -0.3324
 2933SOL     OW20260   0.772   4.575   0.515 -0.3266 -0.2699  0.1856
 2933SOL    HW120261   0.742   4.642   0.453 -0.2337 -1.5772 -1.2568
 2933SOL    HW220262   0.860   4.609   0.530  0.7511 -2.9098 -0.3457
 2934SOL     OW20263   1.400   0.370  13.030  0.1646  0.1637 -0.4164
 2934SOL    HW120264   1.424   0.431  13.100  1.7067  0.6060 -1.3186
 2934SOL    HW220265   1.319   0.415  13.008  0.0937  0.1459 -0.1822
 2935SOL     OW20266   4.512   0.000   9.885  0.4299 -0.4950  0.3327
 2935SOL    HW120267   4.467   0.079   9.916 -0.7430 -1.3480  0.8100
 2935SOL    HW220268   4.484   4.719   9.794 -0.5988 -0.5072  0.6511
 2936SOL     OW20269   3.994   0.687   2.170  0.6217  0.0433 -0.1337
 2936SOL    HW120270   3.941   0.608   2.167  1.2949 -0.3914 -0.4654
 2936SOL    HW220271   3.947   0.735   2.102  1.1043 -0.5197 -0.8554
 2937SOL     OW20272   1.629   2.353   7.900  0.0839 -0.1327 -0.1595
 2937SOL    HW120273   1.627   2.263   7.868  1.5477  0.8963 -3.2210
 2937SOL    HW220274   1.545   2.380   7.863  0.0948 -0.1844 -0.2229
 2938SOL     OW20275   3.645   3.950  16.345  0.8661 -0.7988 -0.1356
 2938SOL    HW120276   3.672   4.033  16.383 -0.0688 -0.2385 -0.6805
 2938SOL    HW220277   3.705   3.953  16.270  2.1432  0.5218  0.9417
 2939SOL     OW20278   2.350   3.491   6.922  0.2639 -0.0867 -0.1616
 2939SOL    HW120279   2.376   3.407   6.961 -1.1829  0.5512  2.1744
 2939SOL    HW220280   2.322   3.535   7.002 -0.2140  1.7164 -1.3388
 2940SOL     OW20281   2.564   4.345  16.058  0.0869 -0.0319 -0.1274
 2940SOL    HW120282   2.651   4.317  16.086  0.7073  0.1123 -1.9031
 2940SOL    HW220283   2.548   4.283  15.987 -2.0167 -0.1475  0.4533
 2941SOL     OW20284   1.642   2.084   6.802 -0.1598  0.4289  0.0716
 2941SOL    HW120285   1.715   2.022   6.799  0.5610  1.2544  0.8456
 2941SOL    HW220286   1.684   2.165   6.772 -1.8906  1.0006 -0.7912
 2942SOL     OW20287   0.552   3.914  17.698  0.5386 -0.0728  0.0851
 2942SOL    HW120288   0.647   3.916   0.012  0.8704 -4.5603 -1.5748
 2942SOL    HW220289   0.547   4.003  17.661 -0.7802 -0.4953 -0.7497
 2943SOL     OW20290   1.011   3.083   9.863 -0.0207  0.4921  0.1988
 2943SOL    HW120291   0.992   3.148   9.795 -1.1707  1.0544  1.0647
 2943SOL    HW220292   1.031   3.136   9.940 -1.9466 -1.8726  2.3290
 2944SOL     OW20293   1.170   0.277   4.884 -0.1911 -0.2754 -0.6540
 2944SOL    HW120294   1.240   0.212   4.882 -0.8514 -0.9610 -1.3409
 2944SOL    HW220295   1.098   0.233   4.927 -0.4703  1.0435  0.2371
 2945SOL     OW20296   0.574   2.750  16.919  0.2066  0.2636  0.4073
 2945SOL    HW120297   0.613   2.675  16.963  0.3761  0.7115  1.0178
 2945SOL    HW220298   0.601   2.815  16.983  0.6113  0.4742  0.0256
 2946SOL     OW20299   0.982   0.210   5.056 -0.0019 -0.5409 -0.1722
 2946SOL    HW120300   0.913   0.155   5.093  0.2916  0.6475  2.1782
 2946SOL    HW220301   1.021   0.239   5.139 -2.0131  3.9102 -0.7763
 2947SOL     OW20302   0.089   1.778  16.764 -0.0052 -0.4559  0.3671
 2947SOL    HW120303   0.134   1.801  16.845  2.0534  0.6027 -1.0727
 2947SOL    HW220304   0.037   1.708  16.803  1.3422 -1.1145  0.9942
 2948SOL     OW20305   3.727   3.905   1.807 -0.2077 -0.4994 -0.0699
 2948SOL    HW120306   3.633   3.897   1.825  0.1112 -1.1297  1.2709
 2948SOL    HW220307   3.741   3.833   1.745  0.1187 -1.1917  0.8222
 2949SOL     OW20308   3.446   0.188   3.847  0.5780  0.1439 -0.1883
 2949SOL    HW120309   3.424   0.226   3.763 -0.8981 -0.2672  0.0159
 2949SOL    HW220310   3.396   0.107   3.845 -1.4195  1.3750  0.2776
 2950SOL     OW20311   2.999   0.105   0.328 -0.0531  0.4769  0.2597
 2950SOL    HW120312   3.088   0.071   0.319 -0.5236 -1.0187  1.2457
 2950SOL    HW220313   2.961   0.025   0.364  2.3017 -1.3263 -1.2502
 2951SOL     OW20314   1.264   4.605   3.496  0.0189 -0.1338  0.0514
 2951SOL    HW120315   1.329   4.549   3.454 -2.0741 -1.6289 -1.1451
 2951SOL    HW220316   1.178   4.585   3.460 -0.3272 -1.8850  1.8639
 2952SOL     OW20317   1.858   2.372   5.181 -0.6339  0.0659  0.1975
 2952SOL    HW120318   1.856   2.434   5.254  3.6838  1.6684 -1.0235
 2952SOL    HW220319   1.807   2.422   5.118 -0.3758 -0.9056 -0.7708
 2953SOL     OW20320   0.847   3.445   3.705  0.1999  0.2400  0.3833
 2953SOL    HW120321   0.814   3.509   3.641 -0.4223  0.5771  1.0437
 2953SOL    HW220322   0.931   3.491   3.711  1.2352 -1.6352  0.1397
 2954SOL     OW20323   2.183   2.214   6.311  1.0753 -0.4439 -0.7625
 2954SOL    HW120324   2.175   2.258   6.227 -3.2826 -0.2595 -0.2569
 2954SOL    HW220325   2.245   2.149   6.278 -0.0449 -1.6665 -0.4443
 2955SOL     OW20326   1.697   2.286   1.110  0.0068 -0.2342  0.0082
 2955SOL    HW120327   1.745   2.299   1.192 -0.0143  0.9794 -0.1748
 2955SOL    HW220328   1.760   2.234   1.060 -0.2714 -1.7001  1.1843
 2956SOL     OW20329   1.839   3.455   5.525  0.0762 -0.1956  0.2741
 2956SOL    HW120330   1.898   3.379   5.520  0.1671  0.0451 -2.4657
 2956SOL    HW220331   1.808   3.441   5.614  1.9404 -0.4100  0.8914
 2957SOL     OW20332   1.876   4.704   6.398  0.7172  0.1494  0.8251
 2957SOL    HW120333   1.940   4.651   6.444 -1.4354 -2.6290  0.6073
 2957SOL    HW220334   1.791   4.666   6.421  1.6921 -2.1807  0.5398
 2958SOL     OW20335   2.933   1.205   0.326 -0.1876  0.4355 -0.0418
 2958SOL    HW120336   3.009   1.183   0.380 -1.0494  0.6186  1.2536
 2958SOL    HW220337   2.896   1.283   0.367  1.5182  1.2360 -0.0614
 2959SOL     OW20338   3.239   1.221   6.969 -0.0233 -0.0334  0.1323
 2959SOL    HW120339   3.203   1.149   7.021 -3.7007  0.3816 -1.8486
 2959SOL    HW220340   3.253   1.290   7.035 -2.2417  0.3406  0.2200
 2960SOL     OW20341   4.188   0.455   6.587 -0.0940 -0.8214 -0.3584
 2960SOL    HW120342   4.271   0.449   6.634 -0.2550  2.5151  0.3817
 2960SOL    HW220343   4.123   0.450   6.658  0.5413  1.1525  0.3494
 2961SOL     OW20344   1.543   1.511   9.004 -0.2757  0.2044  0.4095
 2961SOL    HW120345   1.515   1.430   8.963  1.6773  0.5653 -1.5960
 2961SOL    HW220346   1.545   1.492   9.098  1.1483  1.1313  0.5675
 2962SOL     OW20347   1.400   3.524   7.277 -0.1519 -0.1852 -0.0146
 2962SOL    HW120348   1.402   3.462   7.204  1.3683  0.1499 -0.2437
 2962SOL    HW220349   1.462   3.591   7.249  0.4774 -0.9435 -0.4228
 2963SOL     OW20350   2.935   0.439   5.059  0.3563  0.2661  0.0471
 2963SOL    HW120351   2.901   0.509   5.003  1.0441  1.7207  1.4436
 2963SOL    HW220352   2.945   0.484   5.143 -1.0027 -0.7639  0.7601
 2964SOL     OW20353   1.944   4.232  17.460  0.3647  0.5215  0.0574
 2964SOL    HW120354   2.022   4.277  17.493  1.1356 -0.8665  0.1173
 2964SOL    HW220355   1.984   4.162  17.409 -1.3489 -0.2702 -0.2197
 2965SOL     OW20356   1.455   4.483   6.483  0.3220  0.4210 -0.2285
 2965SOL    HW120357   1.498   4.548   6.538  0.8886 -1.3562  1.4499
 2965SOL    HW220358   1.506   4.403   6.497 -1.3064 -0.8301 -1.4211
 2966SOL     OW20359   2.033   4.044   4.312  0.1968  0.0759 -0.7387
 2966SOL    HW120360   2.003   4.134   4.326 -1.2515 -0.5903  0.4164
 2966SOL    HW220361   2.015   4.033   4.219 -1.4395 -0.6216 -0.3333
 2967SOL     OW20362   1.770   4.270  10.513  0.4341 -0.4248  0.1526
 2967SOL    HW120363   1.734   4.349  10.472  0.1073  0.0010  1.2703
 2967SOL    HW220364   1.689   4.225  10.537  0.9695  0.0201  2.7278
 2968SOL     OW20365   0.049   2.112   5.119 -0.3282 -0.2192  0.1376
 2968SOL    HW120366   0.072   2.029   5.078  0.1330 -0.2760  0.5239
 2968SOL    HW220367   0.093   2.107   5.203  0.9713  1.2757 -0.4414
 2969SOL     OW20368   0.042   0.851  11.554 -0.5674  0.0053 -0.5314
 2969SOL    HW120369   0.039   0.859  11.650 -0.1947 -0.9221 -0.4439
 2969SOL    HW220370   0.115   0.789  11.555  2.3456  3.4205 -2.5383
 2970SOL     OW20371   4.079   1.428   1.996  0.0399  0.0892  0.5377
 2970SOL    HW120372   4.081   1.332   1.995  0.5529  0.1118 -1.1943
 2970SOL    HW220373   4.171   1.453   2.005 -0.3415  0.6467  2.8611
 2971SOL     OW20374   2.383   3.455   2.308  0.2341  0.5015  0.2293
 2971SOL    HW120375   2.339   3.538   2.326 -0.0823  0.3476  0.1582
 2971SOL    HW220376   2.429   3.470   2.226 -0.0359  0.2453  0.0350
 2972SOL     OW20377   0.681   0.503   7.092 -0.1992 -0.0051  0.6406
 2972SOL    HW120378   0.727   0.437   7.144  0.5691 -0.4420 -0.5946
 2972SOL    HW220379   0.750   0.536   7.035 -0.9564  1.3852  0.5344
 2973SOL     OW20380   0.848   4.295   4.776  0.3559 -0.4616 -0.6441
 2973SOL    HW120381   0.804   4.356   4.835  2.3684  0.5600 -0.1876
 2973SOL    HW220382   0.849   4.229   4.846 -0.5553 -2.2467 -2.3375
 2974SOL     OW20383   1.250   0.818   7.791  0.1899 -0.8826 -0.0703
 2974SOL    HW120384   1.168   0.777   7.764  0.1567 -1.1764  0.4751
 2974SOL    HW220385   1.252   0.887   7.725 -1.2830 -0.0814  0.7279
 2975SOL     OW20386   0.228   2.559   4.934 -0.2975  0.5219 -0.3008
 2975SOL    HW120387   0.226   2.465   4.919  2.0421  0.2221  1.2453
 2975SOL    HW220388   0.209   2.588   4.845 -0.8124 -0.6077 -0.5538
 2976SOL     OW20389   1.622   0.614   8.126  0.4354 -0.6569 -0.3928
 2976SOL    HW120390   1.659   0.528   8.102  1.6883 -0.0671 -0.5851
 2976SOL    HW220391   1.610   0.666   8.047  1.5358 -1.2308 -0.9385
 2977SOL     OW20392   3.982   2.600   7.223  0.0273 -0.1643 -0.8343
 2977SOL    HW120393   3.906   2.615   7.279 -0.6250 -1.7760 -1.3034
 2977SOL    HW220394   3.941   2.577   7.140 -1.2576 -0.8342 -0.0046
 2978SOL     OW20395   2.680   4.017   1.842  0.0649 -0.2671  0.0313
 2978SOL    HW120396   2.761   3.968   1.827 -1.7471 -2.3879 -2.8184
 2978SOL    HW220397   2.711   4.100   1.878  0.2326 -0.4921  0.4096
 2979SOL     OW20398   2.323   2.646  15.644  0.2814 -0.4125  0.6918
 2979SOL    HW120399   2.335   2.741  15.644  0.6496 -0.4590 -0.0771
 2979SOL    HW220400   2.395   2.614  15.698  0.0404  0.0039  1.2717
 2980SOL     OW20401   2.650   3.454  10.180 -0.0196  0.1387 -0.5123
 2980SOL    HW120402   2.699   3.403  10.244 -0.5043 -1.3349 -1.3030
 2980SOL    HW220403   2.694   3.441  10.096 -1.1972  1.1389 -1.2888
 2981SOL     OW20404   3.182   3.768   6.070  0.1563  0.0488 -0.3541
 2981SOL    HW120405   3.241   3.725   6.132  0.6967 -0.7278 -1.3981
 2981SOL    HW220406   3.218   3.731   5.989  2.2993  1.2529  0.0607
 2982SOL     OW20407   0.510   3.895   3.549  0.0928  0.5635  0.2623
 2982SOL    HW120408   0.556   3.824   3.595 -0.4431 -1.4086 -2.2360
 2982SOL    HW220409   0.522   3.968   3.609 -1.5852  0.4045  0.7878
 2983SOL     OW20410   0.293   0.637  11.999  0.0967  0.3363  0.6296
 2983SOL    HW120411   0.316   0.715  11.947  0.7705  1.9992  3.4314
 2983SOL    HW220412   0.324   0.581  11.928  2.6350  2.8292 -0.2754
 2984SOL     OW20413   1.753   1.009   7.434  0.3016  0.3193  0.8157
 2984SOL    HW120414   1.714   1.076   7.378 -0.1960  0.4643  1.3251
 2984SOL    HW220415   1.845   1.032   7.419  1.0665 -3.0955  0.4836
 2985SOL     OW20416   3.792   3.445   3.526  0.3347 -0.2425  0.2698
 2985SOL    HW120417   3.827   3.523   3.568  3.4171 -1.4695 -0.0563
 2985SOL    HW220418   3.833   3.369   3.567  1.4854  0.1214 -0.2207
 2986SOL     OW20419   4.406   4.156  10.473  0.2814 -0.6902  0.2268
 2986SOL    HW120420   4.319   4.177  10.505 -0.1572 -1.0784 -0.7181
 2986SOL    HW220421   4.392   4.086  10.410  0.4114 -1.9411  1.6098
 2987SOL     OW20422   3.929   2.647   8.190  0.0858  0.2946  0.2049
 2987SOL    HW120423   3.883   2.619   8.111  1.3070  0.2267 -0.4804
 2987SOL    HW220424   3.941   2.565   8.236 -3.8075  0.2581  1.1497
 2988SOL     OW20425   4.237   2.960   7.662 -0.5533  0.5470 -0.1340
 2988SOL    HW120426   4.145   2.947   7.641 -0.4306 -2.3899  1.2387
 2988SOL    HW220427   4.235   3.025   7.733  0.0558 -0.5107  0.8564
 2989SOL     OW20428   4.087   4.286   3.194  0.1509  0.3423  0.7749
 2989SOL    HW120429   4.167   4.298   3.245  0.0223 -0.8403  1.2456
 2989SOL    HW220430   4.109   4.220   3.128 -0.1406  0.4212  0.6018
 2990SOL     OW20431   4.121   4.596   8.516 -0.1525  0.2917  0.4736
 2990SOL    HW120432   4.119   4.507   8.483 -0.5278  0.1653  0.8338
 2990SOL    HW220433   4.038   4.635   8.488  0.8335  1.3640 -0.9215
 2991SOL     OW20434   3.772   2.227  11.754  0.3335  0.4481  0.8747
 2991SOL    HW120435   3.699   2.175  11.722 -0.6215  0.5914  2.8629
 2991SOL    HW220436   3.795   2.173  11.830  0.7544 -1.5660 -0.6812
 2992SOL     OW20437   1.107   1.691  15.162 -0.2827  0.1099  0.2858
 2992SOL    HW120438   1.082   1.605  15.195  1.1669  0.2565  1.7465
 2992SOL    HW220439   1.201   1.698  15.183  0.3567  1.0173 -2.8358
 2993SOL     OW20440   2.599   3.915   6.341  0.2165  0.1838 -0.3998
 2993SOL    HW120441   2.665   3.933   6.408 -0.1184  0.7350 -0.2245
 2993SOL    HW220442   2.542   3.845   6.373 -1.2521  2.0588  1.0820
 2994SOL     OW20443   1.508   3.170   4.025 -0.6582 -0.0909 -0.2173
 2994SOL    HW120444   1.593   3.156   3.984  0.2082  0.5607  1.3619
 2994SOL    HW220445   1.451   3.108   3.978  1.5164 -3.7962  2.0500
 2995SOL     OW20446   0.052   4.591  15.559 -1.1316 -0.8299  0.2371
 2995SOL    HW120447   4.683   4.578  15.574 -1.4492  2.1830  0.8903
 2995SOL    HW220448   0.046   4.596  15.464 -1.4307 -1.3761  0.2269
 2996SOL     OW20449   4.358   0.733   5.569  0.1095  0.4711  0.1421
 2996SOL    HW120450   4.265   0.711   5.557  0.4122  0.0577 -1.4935
 2996SOL    HW220451   4.383   0.749   5.478 -0.3957 -0.7644 -0.2201
 2997SOL     OW20452   3.681   1.141   4.048 -0.0830 -0.1260  0.1686
 2997SOL    HW120453   3.760   1.194   4.035  0.3862 -1.2590 -1.5076
 2997SOL    HW220454   3.617   1.186   3.994  1.4174  2.2417  0.3875
 2998SOL     OW20455   0.462   0.478   2.588  0.0717  0.2872  0.4190
 2998SOL    HW120456   0.477   0.572   2.574 -0.7164  0.4650  0.7947
 2998SOL    HW220457   0.368   0.478   2.601 -0.1877 -1.7498 -1.5166
 2999SOL     OW20458   4.655   4.282   5.526  0.2313  0.7151 -0.4039
 2999SOL    HW120459   4.705   4.249   5.601 -0.2594 -1.3231 -0.9708
 2999SOL    HW220460   4.699   4.228   5.460 -3.5741 -0.7366 -1.7271
 3000SOL     OW20461   1.333   1.863   6.706 -0.6474 -0.0512 -0.2001
 3000SOL    HW120462   1.333   1.768   6.719 -0.6183 -0.0200  0.0301
 3000SOL    HW220463   1.283   1.870   6.625  1.5734  1.8274 -1.3950
 3001SOL     OW20464   0.487   3.588   6.943 -0.0348 -0.3252  0.2018
 3001SOL    HW120465   0.410   3.553   6.899 -1.6048  1.3134  1.6699
 3001SOL    HW220466   0.457   3.627   7.025 -0.3374 -2.2463  1.0105
 3002SOL     OW20467   0.638   2.778   9.192 -0.3255 -0.6856 -0.1981
 3002SOL    HW120468   0.678   2.712   9.249 -1.0151 -0.2481  0.7945
 3002SOL    HW220469   0.554   2.793   9.237 -0.7557  0.4083 -1.3781
 3003SOL     OW20470   0.045   2.411   8.220 -0.5009 -0.3458  0.0456
 3003SOL    HW120471   0.094   2.465   8.159  0.0277  0.7775  1.4788
 3003SOL    HW220472   0.101   2.412   8.297 -0.2082 -0.2014 -0.1685
 3004SOL     OW20473   1.308   3.365   8.939 -0.0750  0.3548  0.1874
 3004SOL    HW120474   1.400   3.378   8.914  0.2335  1.1339  1.7357
 3004SOL    HW220475   1.292   3.278   8.902 -1.6159 -0.3187  2.3909
 3005SOL     OW20476   2.091   0.576   8.982 -0.0187  0.0047  0.3055
 3005SOL    HW120477   2.006   0.567   9.024 -0.0409 -1.1721  0.0013
 3005SOL    HW220478   2.093   0.498   8.927 -0.3670  0.2167 -0.0050
 3006SOL     OW20479   4.517   2.702   5.919 -0.3400 -0.5235 -0.1053
 3006SOL    HW120480   4.438   2.741   5.955  0.0214  0.1490 -0.0311
 3006SOL    HW220481   4.570   2.733   5.993  1.5288  1.1587 -2.1297
 3007SOL     OW20482   1.414   0.831   4.036  0.0162  0.2888 -0.4274
 3007SOL    HW120483   1.448   0.919   4.018  1.8484 -0.6070 -1.3521
 3007SOL    HW220484   1.489   0.781   4.005 -0.2420 -0.3056 -0.0891
 3008SOL     OW20485   3.731   3.096   3.554 -0.8191  0.0310  0.4538
 3008SOL    HW120486   3.756   3.018   3.603  0.7148 -0.5437 -1.2691
 3008SOL    HW220487   3.783   3.165   3.596 -1.1864  0.8871 -0.5119
 3009SOL     OW20488   3.651   4.443  12.990 -0.3924  0.3394 -0.3127
 3009SOL    HW120489   3.746   4.440  13.001 -0.2142  1.1038 -1.6590
 3009SOL    HW220490   3.632   4.354  12.960  2.6193  0.4025 -2.3516
 3010SOL     OW20491   1.511   1.908   4.523 -0.0465 -0.3519 -0.0102
 3010SOL    HW120492   1.504   1.926   4.429  1.3665 -0.7407 -0.1756
 3010SOL    HW220493   1.433   1.952   4.557 -1.2815 -0.2137 -2.9857
 3011SOL     OW20494   0.442   1.424  16.442  0.1439  0.2233 -0.3442
 3011SOL    HW120495   0.390   1.485  16.494  0.9079  0.7849 -0.2350
 3011SOL    HW220496   0.510   1.485  16.413 -0.1874  1.3216  1.2271
 3012SOL     OW20497   3.537   4.626  13.186 -0.2312  0.6753 -0.3611
 3012SOL    HW120498   3.443   4.611  13.189 -0.1765  0.2393 -0.9802
 3012SOL    HW220499   3.573   4.554  13.135  2.1188  1.8576 -0.4078
 3013SOL     OW20500   2.812   0.566   7.105  0.6872 -0.8606  0.4683
 3013SOL    HW120501   2.732   0.593   7.150  0.3602 -3.0127  1.1422
 3013SOL    HW220502   2.881   0.602   7.161 -0.0737 -0.1600  0.9714
 3014SOL     OW20503   0.770   3.339   9.049 -0.4626 -0.1230  0.3484
 3014SOL    HW120504   0.706   3.279   9.010  2.5526 -1.7723 -2.0281
 3014SOL    HW220505   0.720   3.419   9.032 -0.4357 -0.7857 -2.8734
 3015SOL     OW20506   2.612   2.091   3.176 -0.5693 -0.0194  0.1898
 3015SOL    HW120507   2.565   2.011   3.197  3.4970 -2.6514 -0.7625
 3015SOL    HW220508   2.543   2.143   3.134 -2.9056 -2.4882  1.0323
 3016SOL     OW20509   1.034   2.672   1.607 -0.1369 -0.2713 -0.0977
 3016SOL    HW120510   1.035   2.685   1.701  0.4183 -0.3527 -0.0935
 3016SOL    HW220511   0.958   2.719   1.572  2.3715  2.6493 -1.5924
 3017SOL     OW20512   1.655   0.380   0.908 -0.1352  0.2660  0.3528
 3017SOL    HW120513   1.648   0.308   0.971  0.6281 -0.9398 -0.9308
 3017SOL    HW220514   1.565   0.389   0.875 -0.0305  1.6444  0.4533
 3018SOL     OW20515   1.818   1.863   2.975  0.4538  0.0004 -0.2457
 3018SOL    HW120516   1.873   1.933   2.940 -0.3517  0.4628 -0.6140
 3018SOL    HW220517   1.866   1.784   2.954  0.4180 -0.2394  0.5655
 3019SOL     OW20518   4.571   0.841  10.976 -0.2744  0.5508  0.3424
 3019SOL    HW120519   4.626   0.870  11.049  0.0000  1.6707 -0.3045
 3019SOL    HW220520   4.531   0.767  11.022 -0.0609  0.1654 -0.0928
 3020SOL     OW20521   3.230   4.565  11.475 -0.3666 -0.5976 -0.6749
 3020SOL    HW120522   3.151   4.578  11.527  1.2569  0.4078  1.5737
 3020SOL    HW220523   3.261   4.656  11.474 -1.2063 -0.2707  1.8021
 3021SOL     OW20524   2.639   1.862   7.558 -0.1179  0.9506 -0.3811
 3021SOL    HW120525   2.670   1.939   7.509 -2.0283  2.9596  1.5530
 3021SOL    HW220526   2.586   1.896   7.630 -0.5203  3.0705 -1.6517
 3022SOL     OW20527   1.829   2.878   6.514  0.6682 -0.0313  0.0368
 3022SOL    HW120528   1.923   2.866   6.506  0.3361 -1.4750 -1.7536
 3022SOL    HW220529   1.830   2.942   6.585 -1.0832 -0.4397  0.4372
 3023SOL     OW20530   3.796   1.953  16.409  0.3268 -0.2426 -0.2016
 3023SOL    HW120531   3.793   1.883  16.475 -1.0485  2.9640  3.1308
 3023SOL    HW220532   3.891   1.955  16.392  0.3899 -2.0236 -0.0280
 3024SOL     OW20533   1.933   3.818  14.497 -0.1414 -0.5033  0.3051
 3024SOL    HW120534   1.914   3.728  14.470 -1.6899  0.1614 -0.8366
 3024SOL    HW220535   1.951   3.809  14.591  2.3646  2.8973  0.1401
 3025SOL     OW20536   1.766   3.169   8.093  0.1902 -0.4045  0.0312
 3025SOL    HW120537   1.781   3.079   8.122  1.0042 -0.1520  0.3945
 3025SOL    HW220538   1.681   3.173   8.049  1.4106 -1.6362 -2.4468
 3026SOL     OW20539   1.685   1.549   0.630  1.0042  0.4446 -0.1049
 3026SOL    HW120540   1.630   1.626   0.617  0.0395  0.0760  1.8149
 3026SOL    HW220541   1.740   1.579   0.702  2.8193 -0.6652 -1.0182
 3027SOL     OW20542   4.000   0.219   5.191  0.0647  0.0556  0.3452
 3027SOL    HW120543   3.937   0.198   5.260  0.4716 -1.1341  0.3501
 3027SOL    HW220544   4.074   0.241   5.246  1.0193  0.8862 -1.2665
 3028SOL     OW20545   2.230   0.990  12.675 -0.6914 -0.2168 -0.1011
 3028SOL    HW120546   2.295   1.059  12.676 -1.7820  0.8255 -0.7393
 3028SOL    HW220547   2.283   0.926  12.723  0.9507  1.7929  0.7234
 3029SOL     OW20548   1.767   1.597   6.513  0.7758  0.3444  0.0307
 3029SOL    HW120549   1.707   1.669   6.495  1.2689  0.4432 -1.2432
 3029SOL    HW220550   1.820   1.604   6.433  1.0188 -0.0923  0.1534
 3030SOL     OW20551   1.104   0.073   7.639 -0.0260 -0.2913  0.2794
 3030SOL    HW120552   1.137   0.036   7.720  3.3103  2.1765  0.0948
 3030SOL    HW220553   1.162   0.037   7.572  1.8262 -1.5192  2.5486
 3031SOL     OW20554   4.607   3.789   4.630  0.0359 -0.3296 -0.0033
 3031SOL    HW120555   4.569   3.785   4.718 -2.2184  1.0134 -0.9111
 3031SOL    HW220556   4.674   3.721   4.639 -0.7327 -0.7534  2.5261
 3032SOL     OW20557   3.987   3.528   8.364 -0.7466  0.2983 -0.4102
 3032SOL    HW120558   3.895   3.532   8.391 -1.2753 -1.5654 -1.9402
 3032SOL    HW220559   4.034   3.512   8.446  0.0679  0.7213 -0.7951
 3033SOL     OW20560   0.214   3.314   5.441 -0.3530  0.1871 -0.5277
 3033SOL    HW120561   0.236   3.321   5.534  1.8224 -0.4854 -0.9941
 3033SOL    HW220562   0.121   3.338   5.444 -0.3206  0.2905 -0.3803
 3034SOL     OW20563   3.987   2.236  12.694  0.3330  0.9468  0.6557
 3034SOL    HW120564   3.996   2.288  12.614  1.4798 -3.2862 -1.9218
 3034SOL    HW220565   4.070   2.197  12.720 -0.4397  1.1900  3.4861
 3035SOL     OW20566   4.405   2.174   7.511 -0.5656  0.3221  0.5295
 3035SOL    HW120567   4.434   2.266   7.513 -0.8395  0.4318 -0.4343
 3035SOL    HW220568   4.429   2.144   7.599 -1.9452 -0.2244  0.7139
 3036SOL     OW20569   3.251   0.997  12.542  0.2209  0.2289  0.6713
 3036SOL    HW120570   3.315   0.930  12.517 -2.1052 -0.9644 -2.1103
 3036SOL    HW220571   3.253   1.053  12.464 -1.3004 -2.7164 -1.5196
 3037SOL     OW20572   0.536   2.979   1.264  0.0954  0.1087 -0.3850
 3037SOL    HW120573   0.492   2.954   1.182 -0.6703  0.3938 -0.0602
 3037SOL    HW220574   0.470   3.020   1.320 -0.2091  2.3834 -2.4030
 3038SOL     OW20575   1.695   1.073  13.869  0.4187 -0.1357 -0.3373
 3038SOL    HW120576   1.761   1.137  13.894  1.2007 -0.8215 -0.6510
 3038SOL    HW220577   1.737   0.987  13.874  1.8429  0.5049 -1.4652
 3039SOL     OW20578   3.010   1.212  12.968  0.0004 -0.2361  0.2368
 3039SOL    HW120579   2.926   1.191  13.009 -0.4523 -0.0531 -0.6086
 3039SOL    HW220580   3.033   1.284  13.027  0.8746  0.1064 -0.5355
 3040SOL     OW20581   3.968   3.927   0.103  0.4598 -0.1953  0.6843
 3040SOL    HW120582   4.058   3.922   0.073 -0.0183 -0.8033 -0.6195
 3040SOL    HW220583   3.981   3.990   0.175 -2.4228 -0.1621  1.1878
 3041SOL     OW20584   2.885   3.676  13.212 -0.3315  0.2279 -0.8644
 3041SOL    HW120585   2.813   3.683  13.150  0.8870  0.8700 -2.2071
 3041SOL    HW220586   2.844   3.654  13.296  0.0258  0.0545 -0.7362
 3042SOL     OW20587   0.437   0.663   7.134 -0.0212 -0.0710 -0.0848
 3042SOL    HW120588   0.380   0.650   7.058  0.9788  0.9276 -1.0113
 3042SOL    HW220589   0.509   0.601   7.122  0.4250  0.5753 -0.6922
 3043SOL     OW20590   2.909   3.286  14.784  0.3069  0.8328 -0.2020
 3043SOL    HW120591   2.953   3.219  14.732 -0.7055 -0.4188  0.5224
 3043SOL    HW220592   2.820   3.250  14.795  1.0079 -0.6612  0.6829
 3044SOL     OW20593   3.127   4.137  13.289  0.2402  0.6939 -0.0565
 3044SOL    HW120594   3.216   4.171  13.295 -0.7089  2.8452  2.0942
 3044SOL    HW220595   3.130   4.044  13.264  0.4918  0.2623  1.5647
 3045SOL     OW20596   3.690   1.142   6.271  0.2345 -1.0508 -0.4136
 3045SOL    HW120597   3.776   1.101   6.285  1.2212  1.1403 -0.1450
 3045SOL    HW220598   3.648   1.106   6.350  2.6877 -1.3052  0.7747
 3046SOL     OW20599   0.038   1.835   9.589 -0.4010 -0.7245  0.2373
 3046SOL    HW120600   0.120   1.873   9.558 -1.3473  1.2374  0.1137
 3046SOL    HW220601   0.028   1.883   9.672 -1.3524 -0.3520 -0.0815
 3047SOL     OW20602   0.651   3.261   1.373  0.4381 -0.2024  0.2414
 3047SOL    HW120603   0.722   3.279   1.311 -1.4436  2.8922 -1.0789
 3047SOL    HW220604   0.593   3.214   1.313  2.2265  0.1129 -1.7229
 3048SOL     OW20605   1.019   1.398   3.896  0.0912  0.2135  0.2658
 3048SOL    HW120606   0.931   1.361   3.905 -1.0772  3.1678  1.0466
 3048SOL    HW220607   1.073   1.319   3.894 -2.8034 -1.7153 -1.4751
 3049SOL     OW20608   4.016   0.654   3.456  0.2240 -0.3655  0.8448
 3049SOL    HW120609   3.978   0.697   3.380 -2.2263 -0.1888  2.1555
 3049SOL    HW220610   3.948   0.672   3.521  0.9359  0.6113  1.3268
 3050SOL     OW20611   3.279   1.394  17.167  0.1681 -0.1266 -0.1959
 3050SOL    HW120612   3.185   1.381  17.181  0.5974 -3.0099 -0.1238
 3050SOL    HW220613   3.293   1.368  17.076 -1.7970  3.0006 -1.4283
 3051SOL     OW20614   3.767   3.648   3.959  0.3949  0.0201  0.7849
 3051SOL    HW120615   3.741   3.726   3.910  0.5017 -0.8427 -0.6384
 3051SOL    HW220616   3.694   3.587   3.948  0.2929 -0.0790  2.0260
 3052SOL     OW20617   4.453   3.327   5.696 -0.0614 -0.4387  0.2268
 3052SOL    HW120618   4.378   3.286   5.739 -2.3453  0.3044 -3.0501
 3052SOL    HW220619   4.486   3.259   5.637  0.1054 -0.8530  0.8069
 3053SOL     OW20620   3.052   1.756   7.022 -0.1053 -0.1390  0.6088
 3053SOL    HW120621   3.059   1.726   7.113 -1.0980 -1.1636  0.3472
 3053SOL    HW220622   2.960   1.743   6.998  0.1160  0.6748 -0.7133
 3054SOL     OW20623   4.101   2.153   2.707 -0.2539  0.0358 -0.8608
 3054SOL    HW120624   4.168   2.169   2.774 -1.0092 -0.2182 -0.0470
 3054SOL    HW220625   4.127   2.064   2.682  0.7818 -0.2633  1.2515
 3055SOL     OW20626   2.447   3.028   4.528 -0.1165  0.2432  0.2751
 3055SOL    HW120627   2.359   3.064   4.517 -1.2517 -2.2357  1.2933
 3055SOL    HW220628   2.469   3.064   4.613  1.1215 -1.6309  0.7275
 3056SOL     OW20629   4.644   1.879   0.565 -0.0144  0.1096 -0.3021
 3056SOL    HW120630   4.699   1.915   0.634  0.7411  0.4379 -1.0740
 3056SOL    HW220631   4.697   1.803   0.541 -1.3166 -0.8935 -0.0180
 3057SOL     OW20632   4.132   3.680  11.787  0.0117 -0.6284  0.4056
 3057SOL    HW120633   4.163   3.615  11.723  0.0027  0.1223 -0.3596
 3057SOL    HW220634   4.206   3.672  11.847 -0.7106  0.0092  1.3660
 3058SOL     OW20635   2.177   4.160   6.085  0.0157  0.2028  0.0453
 3058SOL    HW120636   2.231   4.152   6.164 -2.5359 -0.9508  1.6424
 3058SOL    HW220637   2.227   4.223   6.033  0.2984 -0.1275 -0.0883
 3059SOL     OW20638   1.876   0.662   0.741 -0.4833 -0.2265  0.2128
 3059SOL    HW120639   1.840   0.574   0.732 -0.2522 -0.3179  0.1870
 3059SOL    HW220640   1.868   0.689   0.650  0.0244 -2.1221 -0.4077
 3060SOL     OW20641   3.035   2.732  11.114  0.1586 -0.2392  0.7769
 3060SOL    HW120642   3.013   2.716  11.206  0.1653 -0.2022  0.7849
 3060SOL    HW220643   3.123   2.696  11.101 -0.1117 -0.3226 -0.8857
 3061SOL     OW20644   2.985   0.077   7.852  0.3495  0.7599  0.0294
 3061SOL    HW120645   3.075   0.111   7.850  0.9209 -0.7444 -0.1210
 3061SOL    HW220646   2.956   0.099   7.940 -0.2353  0.5369 -0.1122
 3062SOL     OW20647   4.387   2.805   3.044 -0.4357 -0.1650  0.4833
 3062SOL    HW120648   4.321   2.736   3.053 -1.0474  0.6144  1.9113
 3062SOL    HW220649   4.384   2.805   2.949 -1.7087  2.9093  0.5227
 3063SOL     OW20650   3.102   1.305  15.690  0.1175  0.5143  0.1920
 3063SOL    HW120651   3.135   1.334  15.775  0.1172 -0.9495  0.6796
 3063SOL    HW220652   3.153   1.372  15.644  1.3320  0.9463  2.1709
 3064SOL     OW20653   1.224   1.145   3.269  0.0412  1.0426  0.5925
 3064SOL    HW120654   1.165   1.112   3.336  0.6989 -0.0838  0.6086
 3064SOL    HW220655   1.276   1.066   3.259 -1.4166  0.0146  1.1532
 3065SOL     OW20656   4.417   0.474   6.974  0.1837 -0.0342 -0.0284
 3065SOL    HW120657   4.382   0.556   7.010 -0.8068 -0.3759 -0.2191
 3065SOL    HW220658   4.507   0.495   6.951 -0.3925  0.3497 -1.9181
 3066SOL     OW20659   3.534   1.262  17.466 -0.1044 -0.8491 -0.2444
 3066SOL    HW120660   3.520   1.228  17.554 -1.4518 -0.6201 -0.3802
 3066SOL    HW220661   3.594   1.334  17.485  0.0423 -0.8723 -0.6031
 3067SOL     OW20662   0.851   2.336   4.295 -0.0581  0.1112  0.3668
 3067SOL    HW120663   0.909   2.392   4.346 -1.4894  1.9260  0.0004
 3067SOL    HW220664   0.763   2.364   4.319 -0.3090  1.1991 -1.8245
 3068SOL     OW20665   0.939   3.495   1.515  0.3799 -0.5619 -0.0001
 3068SOL    HW120666   0.928   3.420   1.573 -0.9211 -1.6575 -1.6579
 3068SOL    HW220667   1.021   3.469   1.474  0.3147  1.7145 -1.5814
 3069SOL     OW20668   0.571   4.273   2.715  0.9301 -0.0592 -0.4786
 3069SOL    HW120669   0.646   4.311   2.670 -0.1238  3.0653  0.3772
 3069SOL    HW220670   0.594   4.262   2.807 -1.5433  1.5054  0.3395
 3070SOL     OW20671   3.853   2.380   7.955 -0.7042  0.2086  1.0232
 3070SOL    HW120672   3.867   2.436   7.879 -0.9220 -2.2787 -0.8884
 3070SOL    HW220673   3.935   2.331   7.954 -0.0612  1.3122 -1.0080
 3071SOL     OW20674   3.915   2.888   3.415 -0.6095 -0.1369 -0.2693
 3071SOL    HW120675   3.828   2.918   3.441 -0.7283 -2.1779  1.7339
 3071SOL    HW220676   3.976   2.933   3.474  2.1027 -3.3954 -0.5942
 3072SOL     OW20677   3.539   4.721  15.721  0.1367  0.3828 -0.1684
 3072SOL    HW120678   3.525   4.693  15.631  3.2452 -1.9248  0.0754
 3072SOL    HW220679   3.453   0.037  15.737 -0.0380 -0.6096  1.4739
 3073SOL     OW20680   4.057   0.285   7.913 -0.2374  0.6140  0.9221
 3073SOL    HW120681   4.067   0.261   8.005  0.4222  0.9288  0.9375
 3073SOL    HW220682   3.995   0.224   7.873 -1.2596  1.1476  1.6993
 3074SOL     OW20683   3.397   1.081   4.610 -0.0035 -0.4695  0.0332
 3074SOL    HW120684   3.426   1.051   4.524  0.6920  0.7917 -0.1735
 3074SOL    HW220685   3.466   1.133   4.650  1.0453 -0.6572 -1.5320
 3075SOL     OW20686   0.776   3.849   8.605 -0.0938 -0.1823  0.5098
 3075SOL    HW120687   0.782   3.847   8.700  1.0572  2.0898  0.4762
 3075SOL    HW220688   0.868   3.834   8.583 -0.3671  0.4621 -1.1109
 3076SOL     OW20689   4.607   1.853   2.471  0.6975  0.1129  0.4282
 3076SOL    HW120690   4.535   1.841   2.533  0.6956 -0.0587  0.3928
 3076SOL    HW220691   4.657   1.926   2.507 -1.5289  1.8240  0.0712
 3077SOL     OW20692   3.035   2.789   8.410  0.0705 -0.5182 -0.3146
 3077SOL    HW120693   2.956   2.772   8.359  0.0691 -1.1394 -0.1077
 3077SOL    HW220694   2.989   2.775   8.493 -0.5021 -1.0269 -0.7188
 3078SOL     OW20695   2.754   3.809  11.784  0.4544 -0.0342 -0.5789
 3078SOL    HW120696   2.798   3.852  11.711  1.1271 -0.2380 -0.2961
 3078SOL    HW220697   2.674   3.783  11.738  2.1428 -0.0210 -3.5167
 3079SOL     OW20698   2.973   4.372   5.068  0.3492 -0.4566 -0.5284
 3079SOL    HW120699   2.935   4.458   5.047 -1.4564 -1.5234 -1.7067
 3079SOL    HW220700   3.027   4.353   4.992 -0.9736  0.7491 -1.7813
 3080SOL     OW20701   4.281   3.409   9.122  0.7116 -0.3432  0.7018
 3080SOL    HW120702   4.355   3.358   9.088  1.4771  0.8944  0.4979
 3080SOL    HW220703   4.305   3.419   9.214 -3.3582 -1.7461  1.9181
 3081SOL     OW20704   2.836   1.748   1.488  0.5194  0.4673 -0.3053
 3081SOL    HW120705   2.786   1.667   1.487  1.7894 -0.3028 -2.5415
 3081SOL    HW220706   2.817   1.802   1.565  1.8170  0.4041  0.0659
 3082SOL     OW20707   3.588   2.800   7.160  0.7266  0.6030 -0.6108
 3082SOL    HW120708   3.657   2.835   7.105  0.2633  3.5113  0.6362
 3082SOL    HW220709   3.557   2.881   7.200  2.1964  0.2780  1.1845
 3083SOL     OW20710   2.266   3.924  10.774 -0.0295 -0.2398 -0.1913
 3083SOL    HW120711   2.309   3.965  10.849  1.2408  0.7234 -1.4454
 3083SOL    HW220712   2.338   3.941  10.714 -0.4592  1.4581 -0.2319
 3084SOL     OW20713   2.556   0.020   8.357 -0.2412  0.2952  0.3595
 3084SOL    HW120714   2.591   4.702   8.435 -1.0709  0.6598  0.9245
 3084SOL    HW220715   2.633   0.062   8.318  0.6311 -1.2929  0.3717
 3085SOL     OW20716   1.124   3.806   4.876  0.0800  0.2764  0.1209
 3085SOL    HW120717   1.037   3.767   4.866 -0.1686  1.3818 -1.9547
 3085SOL    HW220718   1.178   3.727   4.872 -0.9260 -0.4345  0.6152
 3086SOL     OW20719   3.032   1.730   7.600 -0.3719  0.5114 -0.4185
 3086SOL    HW120720   3.083   1.706   7.678 -0.2269  0.8004 -0.4242
 3086SOL    HW220721   2.951   1.679   7.603  0.0137 -0.1147 -0.5579
 3087SOL     OW20722   2.216   2.792   8.375  0.3783 -0.8062  0.2448
 3087SOL    HW120723   2.237   2.873   8.422 -1.0625  0.3462 -1.0935
 3087SOL    HW220724   2.199   2.735   8.450  0.9074  0.5080  1.3635
 3088SOL     OW20725   2.828   0.632   2.808  0.1901 -0.2010 -0.0883
 3088SOL    HW120726   2.832   0.542   2.775  2.1967 -0.0834 -0.2009
 3088SOL    HW220727   2.907   0.663   2.763 -0.3369 -0.5577 -1.2601
 3089SOL     OW20728   0.793   0.151  17.659  0.0722  0.3743  0.3878
 3089SOL    HW120729   0.770   0.186   0.046 -0.4726  0.8768  0.0466
 3089SOL    HW220730   0.847   0.077  17.686  0.4670  0.9601  1.1829
 3090SOL     OW20731   0.717   0.927   7.400 -0.3836  0.1839  0.3588
 3090SOL    HW120732   0.702   0.931   7.495 -1.7839 -0.4493  0.1675
 3090SOL    HW220733   0.640   0.970   7.363  0.0762 -0.2144 -1.0615
 3091SOL     OW20734   4.128   0.699   5.371 -0.2914 -0.0792  0.0375
 3091SOL    HW120735   4.145   0.658   5.286 -0.8725 -2.5834  1.1210
 3091SOL    HW220736   4.070   0.642   5.422 -2.2620  2.1369  0.2639
 3092SOL     OW20737   2.515   4.717  13.902  0.6508  0.4383  0.4395
 3092SOL    HW120738   2.448   0.056  13.929  1.7057  2.1094 -0.8082
 3092SOL    HW220739   2.455   4.648  13.927  2.0175 -0.9556 -0.1441
 3093SOL     OW20740   4.267   2.761   1.635 -0.2309  0.2784  0.9111
 3093SOL    HW120741   4.329   2.692   1.658  1.2567  1.4755  0.4482
 3093SOL    HW220742   4.293   2.830   1.696  1.8048 -1.0661  1.5554
 3094SOL     OW20743   3.301   2.280   1.978 -0.4867  0.5534  0.3070
 3094SOL    HW120744   3.366   2.307   1.913  0.3649 -0.0482  0.9148
 3094SOL    HW220745   3.253   2.214   1.927  0.8958 -0.3524  0.1979
 3095SOL     OW20746   2.674   0.531   4.268  0.1702 -0.1674  0.0201
 3095SOL    HW120747   2.703   0.615   4.304  2.0739 -0.8224  0.0465
 3095SOL    HW220748   2.726   0.531   4.187  1.7830 -1.0849  1.0535
 3096SOL     OW20749   3.466   3.415   7.192  0.7691  0.1868  0.2036
 3096SOL    HW120750   3.471   3.353   7.265 -0.6556 -1.0439 -0.7764
 3096SOL    HW220751   3.533   3.372   7.138 -1.2044  0.1142 -2.1614
 3097SOL     OW20752   0.867   0.575   6.895 -0.2799  0.2204  0.6190
 3097SOL    HW120753   0.883   0.656   6.944 -0.5117  0.2713  0.6117
 3097SOL    HW220754   0.955   0.541   6.884  0.8898  2.8578  1.8817
 3098SOL     OW20755   1.864   2.290   8.563  0.1978  0.3868  0.7241
 3098SOL    HW120756   1.947   2.310   8.606  0.3760  0.3034  0.4193
 3098SOL    HW220757   1.813   2.371   8.568 -1.4182 -0.5741 -0.3190
 3099SOL     OW20758   1.891   0.156   7.512  0.4396 -0.2292 -0.3884
 3099SOL    HW120759   1.947   0.111   7.449  0.0187  1.6417 -2.1198
 3099SOL    HW220760   1.845   0.220   7.457  0.1297 -0.1070  0.0111
 3100SOL     OW20761   2.159   2.857   4.252 -0.3085 -0.1196 -0.1233
 3100SOL    HW120762   2.199   2.940   4.229  0.4390  0.3860  2.9486
 3100SOL    HW220763   2.162   2.809   4.170  0.0682  0.9449 -0.7296
 3101SOL     OW20764   2.308   2.136   3.360 -0.1352  0.7174  0.1297
 3101SOL    HW120765   2.213   2.140   3.373 -0.5552  1.4009 -3.0935
 3101SOL    HW220766   2.324   2.042   3.368 -0.9175  0.5517 -0.2304
 3102SOL     OW20767   3.468   1.980  14.727  0.0884  0.0549  0.4910
 3102SOL    HW120768   3.378   1.963  14.701  0.6122  1.8671 -2.5729
 3102SOL    HW220769   3.475   1.938  14.813 -3.4670  1.1563  1.2998
 3103SOL     OW20770   2.782   0.763   1.758 -0.5677 -0.5240  0.6253
 3103SOL    HW120771   2.751   0.760   1.667 -0.9753 -1.9416  0.8049
 3103SOL    HW220772   2.831   0.681   1.767 -0.8485 -0.6716  0.8151
 3104SOL     OW20773   1.527   0.448   2.535  1.0679  0.1926 -0.4359
 3104SOL    HW120774   1.581   0.479   2.463  1.0412  0.3613 -0.3837
 3104SOL    HW220775   1.439   0.471   2.505  0.6958  0.8055  1.1266
 3105SOL     OW20776   1.072   1.461  13.414 -0.3299 -0.1160 -0.2205
 3105SOL    HW120777   1.130   1.388  13.393 -0.4091 -1.0701  2.9166
 3105SOL    HW220778   1.115   1.496  13.491 -0.1921  0.5148 -0.5861
 3106SOL     OW20779   4.705   3.945   3.579 -0.0988 -0.1150  0.0014
 3106SOL    HW120780   0.058   3.895   3.553 -0.5407 -1.5506  1.4397
 3106SOL    HW220781   4.643   3.876   3.603  0.2335 -1.1838 -2.2069
 3107SOL     OW20782   1.987   0.828   2.111 -0.0637  0.2888  0.1931
 3107SOL    HW120783   1.964   0.854   2.201  1.0911  0.7686  0.3434
 3107SOL    HW220784   2.072   0.787   2.127  0.0622 -1.4459 -4.8483
 3108SOL     OW20785   1.461   0.364   2.789  0.3043  0.1709  0.4950
 3108SOL    HW120786   1.534   0.306   2.809 -0.5715 -1.1749 -0.1998
 3108SOL    HW220787   1.488   0.390   2.701 -0.4742 -0.1697  0.1616
 3109SOL     OW20788   3.692   3.012   8.424 -0.1415  0.7440 -0.0887
 3109SOL    HW120789   3.602   2.981   8.410  0.2746  0.5238 -2.2400
 3109SOL    HW220790   3.728   2.924   8.439  1.4788  1.8714  2.5992
 3110SOL     OW20791   3.429   0.593   5.463 -0.2210  0.1270 -0.2237
 3110SOL    HW120792   3.364   0.526   5.441 -1.1527 -0.4119  4.2345
 3110SOL    HW220793   3.425   0.657   5.392  3.0023  1.3352  0.6987
 3111SOL     OW20794   3.518   1.443   6.786  0.0383  0.4287  0.9711
 3111SOL    HW120795   3.470   1.360   6.782 -0.0258  0.4518  1.2493
 3111SOL    HW220796   3.519   1.458   6.691 -3.2822  0.0886  0.8901
 3112SOL     OW20797   1.501   2.805   4.553 -0.8287 -0.5299  0.1610
 3112SOL    HW120798   1.486   2.824   4.460 -0.1384  0.7470  0.3134
 3112SOL    HW220799   1.414   2.804   4.593 -0.5876  1.7886  0.7189
 3113SOL     OW20800   0.724   2.893   2.011  0.0614 -0.5107  0.5954
 3113SOL    HW120801   0.748   2.951   2.083 -0.2492 -1.1149  1.1938
 3113SOL    HW220802   0.663   2.948   1.962 -0.8013 -1.2201  0.8515
 3114SOL     OW20803   4.591   2.479  11.365 -0.7294 -0.6807  0.2524
 3114SOL    HW120804   4.500   2.495  11.339 -0.1140 -0.4396 -1.7068
 3114SOL    HW220805   4.628   2.495  11.278 -1.7467  1.2357  0.1705
 3115SOL     OW20806   4.241   3.332   8.509  0.2093  0.0919 -0.1057
 3115SOL    HW120807   4.241   3.257   8.569 -1.7736 -1.6485 -2.2971
 3115SOL    HW220808   4.176   3.393   8.543  1.7462  0.8967  1.3959
 3116SOL     OW20809   2.804   3.964  15.979  0.2718  0.3716 -0.7845
 3116SOL    HW120810   2.876   3.902  15.971 -0.5500 -0.7532  0.3756
 3116SOL    HW220811   2.830   4.030  15.915  0.4395 -0.2351 -1.3477
 3117SOL     OW20812   0.223   4.034   7.914  0.1427  0.0534  0.6202
 3117SOL    HW120813   0.246   3.948   7.949 -0.6260 -0.5909 -0.4738
 3117SOL    HW220814   0.312   4.070   7.909  0.0647  0.1673  0.0199
 3118SOL     OW20815   0.281   4.699  16.887  0.1870  0.2915 -0.2017
 3118SOL    HW120816   0.218   0.042  16.913 -0.1541  0.8594 -2.4430
 3118SOL    HW220817   0.299   4.661  16.973 -1.9945 -0.2419  0.0297
 3119SOL     OW20818   3.572   1.112   5.620 -0.4197 -0.0136  0.4850
 3119SOL    HW120819   3.609   1.142   5.703  2.7502  1.3323 -1.3679
 3119SOL    HW220820   3.644   1.146   5.566  0.9445 -0.0347  2.2850
 3120SOL     OW20821   4.707   2.602   3.018 -0.2070  0.0312  0.4734
 3120SOL    HW120822   4.686   2.652   2.939 -1.0832  0.5464  1.0328
 3120SOL    HW220823   0.076   2.624   3.027 -0.0052  0.2695 -2.2626
 3121SOL     OW20824   3.124   4.286   8.396  0.3930  0.5174 -0.7500
 3121SOL    HW120825   3.127   4.287   8.492  0.6426  2.0223 -0.7670
 3121SOL    HW220826   3.194   4.346   8.372  0.6164  0.0033 -1.3901
 3122SOL     OW20827   3.038   3.789  16.997 -0.1073 -0.8690  0.0037
 3122SOL    HW120828   2.982   3.866  16.989  0.5327 -0.3107  0.9202
 3122SOL    HW220829   3.021   3.746  16.913 -1.6276  0.7150 -0.4836
 3123SOL     OW20830   0.228   4.636  10.069 -0.0409  0.1342  0.3233
 3123SOL    HW120831   0.301   4.617  10.010 -0.2834 -2.8072  0.9849
 3123SOL    HW220832   0.248   0.002  10.096 -1.0156  0.2910  0.5418
 3124SOL     OW20833   1.731   0.193   5.200 -0.1491 -0.1645 -0.7688
 3124SOL    HW120834   1.762   0.106   5.174 -0.0480  0.2921 -2.1847
 3124SOL    HW220835   1.671   0.213   5.128  1.0661 -0.8101 -1.9619
 3125SOL     OW20836   2.568   3.055  16.425 -0.1300  0.3388 -0.3828
 3125SOL    HW120837   2.619   3.095  16.354 -0.7512  2.5986  0.4508
 3125SOL    HW220838   2.492   3.112  16.424 -0.6076 -0.2913  0.0956
 3126SOL     OW20839   2.870   2.788   0.366  0.2656  0.4029  0.0505
 3126SOL    HW120840   2.841   2.748   0.448  1.2215 -0.3392  0.0231
 3126SOL    HW220841   2.781   2.792   0.330  0.0722  1.2417  0.6086
 3127SOL     OW20842   3.951   4.062   8.454 -0.2589  0.5114 -0.4737
 3127SOL    HW120843   3.861   4.050   8.423 -0.6525 -2.0224  1.6292
 3127SOL    HW220844   3.952   4.008   8.533  0.7401 -0.6433 -1.2733
 3128SOL     OW20845   1.415   1.638   7.621 -0.4372 -0.7417  0.0239
 3128SOL    HW120846   1.372   1.663   7.539  0.3047  0.4592  0.0049
 3128SOL    HW220847   1.496   1.685   7.605 -1.1354 -0.3770 -2.4437
 3129SOL     OW20848   2.389   3.552   5.975 -0.0709  0.6554  0.5032
 3129SOL    HW120849   2.338   3.473   5.955 -0.0944  1.2398 -1.7436
 3129SOL    HW220850   2.476   3.519   5.955 -0.8447 -2.1438  1.7270
 3130SOL     OW20851   4.391   1.478   6.456  0.1716 -0.2529  0.3840
 3130SOL    HW120852   4.340   1.398   6.439 -0.8058  0.2316  1.0638
 3130SOL    HW220853   4.351   1.552   6.411  2.0309 -0.1607 -1.1353
 3131SOL     OW20854   3.943   2.514   2.606 -0.1858 -0.5693 -0.8356
 3131SOL    HW120855   3.947   2.468   2.522  1.0220  0.9111 -1.5847
 3131SOL    HW220856   3.855   2.487   2.631  0.6501 -1.9394  0.6808
 3132SOL     OW20857   2.257   4.663  10.102  0.1637 -0.5657  0.2601
 3132SOL    HW120858   2.239   4.601  10.172 -3.4604  0.0864 -0.1293
 3132SOL    HW220859   2.287   0.021  10.141  0.9890 -0.7819  0.0850
 3133SOL     OW20860   4.330   1.577   2.060  1.0174 -0.1017  0.2057
 3133SOL    HW120861   4.301   1.667   2.043 -0.8493 -1.2712 -2.7851
 3133SOL    HW220862   4.399   1.560   1.995  1.3754  1.9272  0.0536
 3134SOL     OW20863   1.686   3.867   2.615  0.1462  0.5305  0.5446
 3134SOL    HW120864   1.596   3.891   2.593  0.1568 -1.6284 -1.9420
 3134SOL    HW220865   1.671   3.784   2.660  1.2944  0.2235  0.3793
 3135SOL     OW20866   4.561   0.410   3.913 -0.1976 -0.3877 -0.2188
 3135SOL    HW120867   4.522   0.493   3.886  0.3441 -0.8199 -2.3606
 3135SOL    HW220868   4.478   0.370   3.938  0.0668 -1.5785 -1.2565
 3136SOL     OW20869   2.402   1.730   4.822  0.7132 -1.1213  0.2047
 3136SOL    HW120870   2.387   1.691   4.735 -1.8453 -0.6576  0.4269
 3136SOL    HW220871   2.399   1.647   4.871  1.4658 -2.3699 -1.8525
 3137SOL     OW20872   1.203   2.552   4.004  0.1395  0.1232 -0.2644
 3137SOL    HW120873   1.144   2.517   3.937 -0.9146  0.6111  0.4041
 3137SOL    HW220874   1.189   2.646   3.997 -0.7498 -0.1319 -1.9213
 3138SOL     OW20875   2.542   1.659  17.617 -0.2532  0.2464 -1.0761
 3138SOL    HW120876   2.457   1.702  17.607 -1.2074 -0.8067  2.5441
 3138SOL    HW220877   2.528   1.609  17.697 -1.3816  1.1046 -0.7335
 3139SOL     OW20878   3.306   1.062   5.235 -0.2961  0.3559  0.1452
 3139SOL    HW120879   3.309   1.158   5.236  1.1872  0.3070  0.5085
 3139SOL    HW220880   3.314   1.036   5.144  0.8909 -2.2715  1.0200
 3140SOL     OW20881   1.306   3.094   8.902 -0.3552  0.3357  0.2560
 3140SOL    HW120882   1.275   3.007   8.877  0.3629  0.3480 -0.6673
 3140SOL    HW220883   1.386   3.072   8.949  0.3675 -0.9181 -1.5553
 3141SOL     OW20884   3.445   1.071   7.264 -0.1107  0.1448  0.0190
 3141SOL    HW120885   3.388   1.047   7.191  0.8350  0.4480 -0.8192
 3141SOL    HW220886   3.462   1.161   7.236 -0.6858  0.4629  0.7002
 3142SOL     OW20887   3.742   1.145  13.739  0.3594  0.2854  0.0148
 3142SOL    HW120888   3.720   1.223  13.790  0.8038  1.2981 -1.3284
 3142SOL    HW220889   3.728   1.188  13.655  0.8563 -1.5496 -1.0071
 3143SOL     OW20890   2.894   1.070   5.865  0.3131  0.1728  0.0259
 3143SOL    HW120891   2.962   1.133   5.841 -0.8533  0.5673 -2.2392
 3143SOL    HW220892   2.958   0.999   5.865 -0.1511 -0.2437  0.9184
 3144SOL     OW20893   1.341   4.353   7.881  0.7245  0.3101 -0.0293
 3144SOL    HW120894   1.378   4.363   7.969  0.2427  0.3544  0.1686
 3144SOL    HW220895   1.261   4.306   7.904  1.7560 -0.9771  0.9057
 3145SOL     OW20896   4.004   3.933   8.707 -0.0546  0.1363 -0.7292
 3145SOL    HW120897   3.972   3.970   8.790 -1.5023  0.5315 -1.4684
 3145SOL    HW220898   4.096   3.960   8.708  0.0330 -0.1694 -0.4719
 3146SOL     OW20899   0.663   0.559   8.379 -0.2715  0.0359  0.2696
 3146SOL    HW120900   0.741   0.603   8.345  1.0207 -2.1759  0.3302
 3146SOL    HW220901   0.707   0.501   8.441 -0.5116 -0.2667  0.1582
 3147SOL     OW20902   3.082   0.427   4.694 -0.6321  0.0047 -0.3633
 3147SOL    HW120903   2.995   0.387   4.692 -1.7108  2.3434 -1.2247
 3147SOL    HW220904   3.059   0.509   4.650 -0.2767 -0.3069 -1.1229
 3148SOL     OW20905   2.189   3.429   4.389  0.1479 -0.4594  0.3450
 3148SOL    HW120906   2.183   3.507   4.445 -2.5976 -0.1324 -0.3881
 3148SOL    HW220907   2.264   3.453   4.335 -1.6985  2.8035 -0.7744
 3149SOL     OW20908   2.310   1.282   3.919 -0.0188 -0.0921  0.5766
 3149SOL    HW120909   2.284   1.362   3.875  1.2457  0.0171  0.0344
 3149SOL    HW220910   2.366   1.253   3.847 -1.6898 -0.9551 -0.3815
 3150SOL     OW20911   2.708   1.989   7.032 -0.3719  0.2698  0.1543
 3150SOL    HW120912   2.663   2.074   7.032  0.2225  0.5925 -0.6569
 3150SOL    HW220913   2.766   1.979   6.957 -0.9089 -1.5016 -0.0151
 3151SOL     OW20914   1.691   4.307   1.055 -0.3193  0.0043  0.4255
 3151SOL    HW120915   1.758   4.373   1.071  1.2792 -0.8524 -2.8773
 3151SOL    HW220916   1.705   4.236   1.117  0.7008 -0.5537 -0.4587
 3152SOL     OW20917   2.045   3.221   6.977 -0.1776  0.1396 -0.1313
 3152SOL    HW120918   1.964   3.261   7.007  1.9758  3.6018  1.0780
 3152SOL    HW220919   2.036   3.255   6.888 -0.4790  0.1586 -0.0928
 3153SOL     OW20920   0.163   1.310  14.939  0.2030 -0.0071 -0.1275
 3153SOL    HW120921   0.236   1.367  14.915 -0.2708  0.6363 -0.0428
 3153SOL    HW220922   0.097   1.326  14.873 -1.9134  1.5124  2.3531
 3154SOL     OW20923   1.322   3.136   4.924  0.6120  0.0270 -0.1177
 3154SOL    HW120924   1.343   3.087   5.003 -0.5806 -1.3853 -0.6796
 3154SOL    HW220925   1.403   3.119   4.875  0.1360 -1.5323 -0.3661
 3155SOL     OW20926   2.620   3.160   7.924  0.6102 -0.1533  0.2275
 3155SOL    HW120927   2.668   3.088   7.882 -0.1700 -0.7336  0.3259
 3155SOL    HW220928   2.696   3.218   7.933  0.2260  0.5030 -0.8160
 3156SOL     OW20929   0.178   1.736   4.779 -0.2073 -0.1280 -0.8261
 3156SOL    HW120930   0.239   1.704   4.712  0.8029  0.4639 -0.1861
 3156SOL    HW220931   0.129   1.654   4.785 -0.1916 -0.0919 -0.2404
 3157SOL     OW20932   2.711   4.430   2.459 -0.0479  0.0843  0.3586
 3157SOL    HW120933   2.730   4.467   2.545 -0.4370 -1.5620  1.1589
 3157SOL    HW220934   2.635   4.478   2.427  0.2144  1.0249  1.1595
 3158SOL     OW20935   3.051   0.261   3.338  0.2506 -0.0350 -0.1482
 3158SOL    HW120936   3.065   0.354   3.355 -3.2797  0.6935 -1.1526
 3158SOL    HW220937   3.139   0.225   3.333  0.2943  0.2503 -1.5028
 3159SOL     OW20938   3.330   3.880   9.049 -0.2345  0.8225  0.8475
 3159SOL    HW120939   3.254   3.822   9.050  1.3345 -1.3065 -1.9572
 3159SOL    HW220940   3.288   3.960   9.080 -1.2366 -0.3555  2.5347
 3160SOL     OW20941   3.309   2.830   6.828 -0.4310  0.0920 -0.6539
 3160SOL    HW120942   3.385   2.824   6.770  0.1037 -0.0322  0.0524
 3160SOL    HW220943   3.302   2.925   6.833 -1.2505  0.1076 -2.1730
 3161SOL     OW20944   0.302   1.577   3.303 -0.1193  0.0281  0.3429
 3161SOL    HW120945   0.360   1.502   3.313 -1.2541 -0.8212  0.5921
 3161SOL    HW220946   0.302   1.580   3.207  0.6503 -0.1192  0.3440
 3162SOL     OW20947   0.820   0.441   2.007 -0.0912  0.1142  0.1130
 3162SOL    HW120948   0.804   0.392   1.926 -1.9756 -0.2123  0.6608
 3162SOL    HW220949   0.740   0.418   2.056  0.2615 -0.6421  0.3329
 3163SOL     OW20950   1.405   3.733   8.813  0.4431 -0.1989 -0.1055
 3163SOL    HW120951   1.500   3.739   8.804  0.5936 -0.9743  1.0269
 3163SOL    HW220952   1.384   3.821   8.846  5.1041  0.1191  2.0772
 3164SOL     OW20953   1.621   3.906   6.313 -0.6118 -0.4929  0.4111
 3164SOL    HW120954   1.689   3.971   6.331  0.3769 -0.7566 -2.3323
 3164SOL    HW220955   1.533   3.944   6.314  0.3675  1.7356  1.6877
 3165SOL     OW20956   1.742   1.156   2.442  0.0187 -0.3999  0.3732
 3165SOL    HW120957   1.659   1.111   2.454 -0.6611  0.8053  0.1793
 3165SOL    HW220958   1.736   1.227   2.506  2.8000  0.6581 -0.5609
 3166SOL     OW20959   4.235   4.380   5.258  0.5412  0.2756 -0.2340
 3166SOL    HW120960   4.178   4.336   5.321  0.0658  1.2964  0.0459
 3166SOL    HW220961   4.302   4.399   5.323  2.0515 -1.2519 -1.3362
 3167SOL     OW20962   1.648   3.140  11.087  0.3972  0.0261  0.0064
 3167SOL    HW120963   1.729   3.190  11.079 -0.7574  1.6422 -1.6703
 3167SOL    HW220964   1.631   3.161  11.178 -1.3029 -1.5241  0.0480
 3168SOL     OW20965   1.348   0.476   7.948 -0.4697  0.4445  0.8722
 3168SOL    HW120966   1.362   0.388   7.985  2.0957  0.9817  1.1403
 3168SOL    HW220967   1.428   0.485   7.895 -0.8941  0.9476  0.3219
 3169SOL     OW20968   2.948   1.578  16.041  0.9121 -0.0343  0.3345
 3169SOL    HW120969   2.877   1.535  15.994  1.8252 -1.0027 -0.1520
 3169SOL    HW220970   2.991   1.619  15.966  1.8069 -1.1007  0.2715
 3170SOL     OW20971   4.251   0.332   3.926  0.6373  0.1115  0.5451
 3170SOL    HW120972   4.174   0.344   3.870  0.3911  1.0872  1.0919
 3170SOL    HW220973   4.313   0.284   3.872 -0.8524 -1.3464  0.1371
 3171SOL     OW20974   3.369   3.270   4.756  0.3800  0.3559 -0.4366
 3171SOL    HW120975   3.358   3.363   4.739  0.1753  0.1940 -1.1762
 3171SOL    HW220976   3.325   3.264   4.842  0.4870 -2.2335 -0.5498
 3172SOL     OW20977   1.762   1.636   3.960  0.0708 -0.3202 -0.2849
 3172SOL    HW120978   1.725   1.596   4.039 -0.0689  0.1660 -0.1064
 3172SOL    HW220979   1.819   1.561   3.940  0.6506 -0.9932  3.7345
 3173SOL     OW20980   2.372   1.289   1.044 -0.4562 -0.2348  0.0665
 3173SOL    HW120981   2.346   1.279   1.136  1.1724  1.9928  0.7629
 3173SOL    HW220982   2.283   1.300   1.009 -0.4203 -1.0823 -0.2822
 3174SOL     OW20983   3.457   3.060  16.095 -0.0534 -0.1581 -0.2364
 3174SOL    HW120984   3.482   3.074  16.186 -1.6491 -0.8318  0.3191
 3174SOL    HW220985   3.506   3.130  16.052  2.2469 -1.6663 -0.0551
 3175SOL     OW20986   2.558   0.564  14.736 -0.6790  0.4663 -0.7823
 3175SOL    HW120987   2.639   0.542  14.782 -1.2454  1.9608  0.9448
 3175SOL    HW220988   2.537   0.654  14.761 -0.1118  0.4886 -0.3864
 3176SOL     OW20989   4.546   4.432  13.059  0.2521 -0.3565 -0.2502
 3176SOL    HW120990   4.609   4.401  13.123 -0.9964 -1.1655  0.5940
 3176SOL    HW220991   4.470   4.375  13.049 -0.0728  0.7107 -4.0238
 3177SOL     OW20992   0.945   2.296  11.278  0.3371  0.2466  0.0473
 3177SOL    HW120993   0.975   2.387  11.271 -1.1641  0.7133 -0.2290
 3177SOL    HW220994   0.871   2.288  11.219  0.0074  1.5215  0.2889
 3178SOL     OW20995   1.138   1.978  17.243  0.4970  0.0116  0.0327
 3178SOL    HW120996   1.121   1.990  17.150  0.2654  0.0923  0.0854
 3178SOL    HW220997   1.088   2.056  17.267 -0.2107 -0.1464 -0.9058
 3179SOL     OW20998   2.726   0.794   4.383  0.6899  0.0417  0.0781
 3179SOL    HW120999   2.700   0.820   4.472 -0.1391 -0.7143  0.0616
 3179SOL    HW221000   2.674   0.855   4.331  1.9813  1.4345  0.4117
 3180SOL     OW21001   0.358   4.216  11.474  0.6712  0.1287  0.1436
 3180SOL    HW121002   0.296   4.280  11.439  0.2915  1.1842  2.7441
 3180SOL    HW221003   0.398   4.176  11.397  2.0535  0.2035  0.8217
 3181SOL     OW21004   1.589   2.566   5.210  0.0948  0.1125  0.3095
 3181SOL    HW121005   1.676   2.558   5.250  1.6905  1.9660 -2.8075
 3181SOL    HW221006   1.606   2.572   5.116 -2.5235  0.2883 -0.1438
 3182SOL     OW21007   3.321   0.561  11.002 -0.0488  0.5913  0.3602
 3182SOL    HW121008   3.319   0.471  10.970  0.1406  0.6154  0.2832
 3182SOL    HW221009   3.361   0.548  11.088 -1.7280  2.9555  1.5143
 3183SOL     OW21010   2.905   4.586   4.909 -0.0886  1.0042  0.0608
 3183SOL    HW121011   2.868   4.552   4.827  0.8975 -2.0060  0.8526
 3183SOL    HW221012   3.000   4.590   4.899 -0.2008  1.5896 -0.8037
 3184SOL     OW21013   4.416   2.178   1.445 -0.2669 -0.4404 -0.0529
 3184SOL    HW121014   4.358   2.221   1.508  1.8761 -0.2349  1.7772
 3184SOL    HW221015   4.372   2.096   1.421 -2.2704  1.0842 -1.6166
 3185SOL     OW21016   4.708   0.913   2.575  0.3398  0.2677 -0.5693
 3185SOL    HW121017   0.021   0.997   2.603 -0.2245  1.4583 -3.3818
 3185SOL    HW221018   0.063   0.880   2.534  1.7995  2.3048  0.6164
 3186SOL     OW21019   0.038   3.892  17.242 -0.0160  0.2434  0.1568
 3186SOL    HW121020   4.703   3.925  17.309 -0.2465  1.2888 -0.5595
 3186SOL    HW221021   0.067   3.969  17.194  1.1934 -0.6770 -0.6161
 3187SOL     OW21022   4.304   2.672   0.072  0.3876  0.1115 -0.7858
 3187SOL    HW121023   4.294   2.716  17.686 -1.3645 -1.3835 -1.3577
 3187SOL    HW221024   4.343   2.588   0.046  0.2848  0.0056 -0.5940
 3188SOL     OW21025   3.788   2.245   7.658 -0.3372 -0.7033  0.2931
 3188SOL    HW121026   3.820   2.334   7.674 -2.1451 -0.0051  0.0444
 3188SOL    HW221027   3.775   2.210   7.747  2.2545 -0.1660  0.8882
 3189SOL     OW21028   3.209   3.248   8.075  0.1172 -0.3962  0.0848
 3189SOL    HW121029   3.273   3.262   8.005  1.1905  2.0525  1.5626
 3189SOL    HW221030   3.191   3.342   8.079  2.1548 -0.0164  0.3862
 3190SOL     OW21031   3.612   4.432   6.927  0.4196 -0.3366 -0.1028
 3190SOL    HW121032   3.618   4.525   6.907 -1.5937  0.0876  1.2948
 3190SOL    HW221033   3.641   4.428   7.018 -1.9401  2.7205  0.7829
 3191SOL     OW21034   0.030   3.996  11.947 -0.0355  0.5275  0.6246
 3191SOL    HW121035   4.686   3.992  12.013 -2.5374  1.6215 -1.9140
 3191SOL    HW221036   4.714   3.950  11.874  2.2909 -3.2350  1.7119
 3192SOL     OW21037   1.205   1.246  10.451 -0.1420  0.5753 -0.6386
 3192SOL    HW121038   1.225   1.255  10.544 -0.8972  0.9514 -0.5170
 3192SOL    HW221039   1.274   1.297  10.408 -0.8160  0.0615 -2.3314
 3193SOL     OW21040   0.248   0.966   7.166  0.5826  0.2522  0.1700
 3193SOL    HW121041   0.225   0.967   7.073  1.0328  0.2340  0.0587
 3193SOL    HW221042   0.263   1.058   7.187 -0.6340  0.5467 -0.2873
 3194SOL     OW21043   2.277   1.689  12.392 -0.7869  0.1308  0.3744
 3194SOL    HW121044   2.318   1.640  12.463  2.3593  0.7702 -1.0158
 3194SOL    HW221045   2.185   1.662  12.401 -0.5720 -1.0857 -1.1586
 3195SOL     OW21046   0.256   3.711  17.180  0.2258  0.2171  0.5795
 3195SOL    HW121047   0.187   3.757  17.228  0.6760  0.6323  0.8286
 3195SOL    HW221048   0.326   3.777  17.184 -1.3191  1.8694  0.4032
 3196SOL     OW21049   3.856   2.439  10.639 -0.5211 -0.1494  0.1456
 3196SOL    HW121050   3.809   2.405  10.714  2.7269  0.1185  2.2897
 3196SOL    HW221051   3.858   2.534  10.650 -1.6402  0.0544 -1.3779
 3197SOL     OW21052   2.959   1.208   6.908  0.2550 -0.0835 -0.5033
 3197SOL    HW121053   3.041   1.244   6.940  1.5302 -2.0794 -1.4941
 3197SOL    HW221054   2.991   1.130   6.862 -1.4393 -0.7732 -0.5232
 3198SOL     OW21055   0.085   3.371   6.971  0.2183  0.0064  0.0982
 3198SOL    HW121056   0.021   3.440   6.958 -1.0996 -1.6950 -2.3401
 3198SOL    HW221057   0.034   3.296   6.941  0.2901 -0.2609  0.6295
 3199SOL     OW21058   1.464   1.244   5.332  0.3889 -0.2379  0.1367
 3199SOL    HW121059   1.526   1.193   5.385  1.4411  0.2540 -0.6189
 3199SOL    HW221060   1.521   1.312   5.297 -1.4971  1.1838 -0.1547
 3200SOL     OW21061   2.275   0.530   6.392 -0.5134 -0.0387  0.0069
 3200SOL    HW121062   2.290   0.602   6.331 -0.6081  0.1756  0.2312
 3200SOL    HW221063   2.192   0.496   6.358 -1.5853  0.6224  1.9301
 3201SOL     OW21064   0.912   3.413   2.772 -0.1141 -0.0782  0.0049
 3201SOL    HW121065   0.827   3.433   2.811 -1.2607 -0.9920 -2.0006
 3201SOL    HW221066   0.895   3.444   2.683  3.6138 -0.1050 -0.7200
 3202SOL     OW21067   4.437   1.381   6.833 -0.3716 -0.2851  0.2856
 3202SOL    HW121068   4.520   1.340   6.860  0.1950 -0.1408 -1.2036
 3202SOL    HW221069   4.439   1.345   6.744 -1.0421  0.9750 -0.2356
 3203SOL     OW21070   0.419   1.226   7.870  0.3577  0.0781 -0.8481
 3203SOL    HW121071   0.446   1.312   7.837  2.0864  0.7871  2.4851
 3203SOL    HW221072   0.376   1.190   7.792 -0.8754 -2.2842  0.9579
 3204SOL     OW21073   3.916   0.173  11.940 -0.4590 -0.0806 -0.4172
 3204SOL    HW121074   3.868   0.110  11.994 -0.3780  3.8148  4.2007
 3204SOL    HW221075   3.969   0.107  11.895  1.3723  0.7000  0.6282
 3205SOL     OW21076   0.577   1.451  11.240 -0.2791 -0.1950  0.0162
 3205SOL    HW121077   0.660   1.412  11.214 -1.8743 -1.9304 -2.4604
 3205SOL    HW221078   0.521   1.411  11.173  0.1868 -0.5297 -0.1729
 3206SOL     OW21079   4.707   3.053  16.871 -0.4661 -0.0741 -0.1247
 3206SOL    HW121080   4.640   3.008  16.924  0.2309 -0.6126  0.3066
 3206SOL    HW221081   4.664   3.138  16.862 -0.0755  0.0591 -0.7186
 3207SOL     OW21082   1.294   2.553  14.597  0.7688  0.3076 -0.0178
 3207SOL    HW121083   1.378   2.568  14.639  2.0126 -1.9795 -1.7476
 3207SOL    HW221084   1.246   2.527  14.675  2.9316 -1.9029  0.5424
 3208SOL     OW21085   0.645   2.123   7.575  0.0374  0.8307 -0.1865
 3208SOL    HW121086   0.715   2.059   7.581 -0.3737  0.3941 -0.0507
 3208SOL    HW221087   0.587   2.107   7.650 -0.1410 -1.7985 -0.8798
 3209SOL     OW21088   2.356   1.668   3.516  0.5672 -0.0179  0.5515
 3209SOL    HW121089   2.315   1.584   3.534  1.6464 -1.2447 -2.6655
 3209SOL    HW221090   2.429   1.633   3.465 -0.0012 -0.5830  0.1378
 3210SOL     OW21091   4.677   0.365   3.131 -0.2286 -0.1428  0.2255
 3210SOL    HW121092   0.019   0.301   3.157  1.0494  0.7649 -0.7851
 3210SOL    HW221093   4.608   0.305   3.103 -0.0231 -0.1745 -0.2197
 3211SOL     OW21094   2.652   0.107  17.459 -0.2242  0.0292  0.6508
 3211SOL    HW121095   2.598   0.065  17.525 -1.1172 -0.6959 -0.5469
 3211SOL    HW221096   2.733   0.104  17.510  2.8568 -0.4013 -4.1955
 3212SOL     OW21097   3.906   2.876  14.642 -0.2817 -0.1254 -0.1215
 3212SOL    HW121098   3.827   2.822  14.647 -0.3472  0.0513  0.7274
 3212SOL    HW221099   3.887   2.909  14.554 -0.5699  0.1842  0.0568
 3213SOL     OW21100   4.113   0.057   9.157  0.0599 -0.6594  0.3788
 3213SOL    HW121101   4.094   0.143   9.194  0.4221 -0.8669  1.0437
 3213SOL    HW221102   4.152   0.006   9.228  0.4896  1.5754  1.7456
 3214SOL     OW21103   3.959   4.714   1.829  0.4505 -0.1409  0.0428
 3214SOL    HW121104   3.887   0.049   1.850  0.1200 -0.9373  1.1222
 3214SOL    HW221105   3.923   4.625   1.831 -2.2270  0.9121 -1.2586
 3215SOL     OW21106   3.425   3.383   8.543 -0.3465 -0.0003 -0.8870
 3215SOL    HW121107   3.367   3.414   8.612 -0.9154  0.6434 -1.6584
 3215SOL    HW221108   3.368   3.333   8.485 -1.8645 -0.4109  0.9601
 3216SOL     OW21109   2.292   1.413   6.458  0.0933 -0.2675  0.1608
 3216SOL    HW121110   2.385   1.417   6.437  0.3170  1.5522  1.5455
 3216SOL    HW221111   2.289   1.355   6.535 -1.4741  0.1937  0.4523
 3217SOL     OW21112   3.350   1.201  10.244  0.1980 -0.4709  0.2825
 3217SOL    HW121113   3.362   1.247  10.161 -1.4945 -0.1394  0.2144
 3217SOL    HW221114   3.429   1.148  10.245  0.3377 -0.2909 -2.5676
 3218SOL     OW21115   0.749   1.846   8.858  0.0437 -0.2598 -0.6086
 3218SOL    HW121116   0.707   1.899   8.790 -1.1788  1.0443  1.1473
 3218SOL    HW221117   0.676   1.795   8.894 -0.5025  0.6927 -0.3666
 3219SOL     OW21118   4.018   2.564  13.589 -0.5145 -0.4016 -0.1129
 3219SOL    HW121119   4.060   2.478  13.598  2.8504  1.1935 -0.3843
 3219SOL    HW221120   3.927   2.535  13.591 -0.4424 -0.5506  0.8767
 3220SOL     OW21121   1.686   4.096   7.119  0.1843  0.0968 -0.1942
 3220SOL    HW121122   1.756   4.032   7.108  0.6008  0.1876  1.9374
 3220SOL    HW221123   1.655   4.119   7.031 -0.1888 -1.3876 -0.4450
 3221SOL     OW21124   1.833   3.667   7.326 -0.6985  0.4135 -0.1097
 3221SOL    HW121125   1.908   3.721   7.302 -0.0541 -0.2534  0.4375
 3221SOL    HW221126   1.870   3.579   7.332 -0.9634  0.3760  1.0521
 3222SOL     OW21127   1.500   1.281   2.960  0.1772 -0.3616  0.2663
 3222SOL    HW121128   1.455   1.339   2.900  2.4455 -0.1367 -1.2017
 3222SOL    HW221129   1.468   1.314   3.044  0.2559 -0.9397  0.5266
 3223SOL     OW21130   1.148   3.535   5.584 -0.4559  0.1516 -0.0061
 3223SOL    HW121131   1.235   3.530   5.544  0.1564  0.0794  1.3135
 3223SOL    HW221132   1.099   3.480   5.523 -2.4319  1.2722  0.5802
 3224SOL     OW21133   0.085   1.120  11.235  0.1024 -0.5178 -0.1439
 3224SOL    HW121134   0.136   1.137  11.314 -0.6774  2.4824 -0.2880
 3224SOL    HW221135   0.058   1.030  11.254  0.1063 -0.4118  0.3694
 3225SOL     OW21136   1.692   2.075   8.587  0.5338 -0.3401 -0.4930
 3225SOL    HW121137   1.755   2.146   8.585  1.7337 -1.3898  0.1547
 3225SOL    HW221138   1.733   2.018   8.651  0.4048 -0.6178 -0.6582
 3226SOL     OW21139   4.188   1.584  15.800  0.3562  0.4921  0.3404
 3226SOL    HW121140   4.259   1.539  15.753  0.4668 -1.0825  1.9982
 3226SOL    HW221141   4.200   1.676  15.779 -4.0559  0.9995  0.0851
 3227SOL     OW21142   4.013   2.314   6.125  0.2299  0.0477  0.0835
 3227SOL    HW121143   3.957   2.349   6.055 -0.4146  0.0696  0.6117
 3227SOL    HW221144   4.082   2.379   6.114 -0.8274  1.3926  1.4427
 3228SOL     OW21145   0.419   2.368   8.919  0.0929 -0.0539  0.1625
 3228SOL    HW121146   0.438   2.457   8.948 -0.6221  0.9258 -2.4628
 3228SOL    HW221147   0.324   2.374   8.922  0.1348  0.6017  0.0284
 3229SOL     OW21148   2.141   4.511   5.855  0.0031 -0.2504 -0.1036
 3229SOL    HW121149   2.232   4.482   5.862 -0.5870 -1.6810  1.9474
 3229SOL    HW221150   2.132   4.496   5.761  2.5135  1.3404 -0.6157
 3230SOL     OW21151   3.057   3.040   7.712 -0.2139 -0.0862 -0.2385
 3230SOL    HW121152   3.137   3.005   7.674  1.2466  0.5740  2.2612
 3230SOL    HW221153   3.069   3.053   7.806  1.9835 -1.9686 -0.2519
 3231SOL     OW21154   2.260   1.891   8.553  0.4380 -0.5294  0.1452
 3231SOL    HW121155   2.164   1.889   8.553  0.4430 -0.6869  0.3220
 3231SOL    HW221156   2.272   1.914   8.645  1.4272 -0.6936  0.0553
 3232SOL     OW21157   1.292   2.965   2.958 -1.0444 -0.5277  0.2167
 3232SOL    HW121158   1.289   2.891   2.897 -0.1441 -0.9020  0.6215
 3232SOL    HW221159   1.379   3.003   2.946 -0.0799 -3.1853 -1.2302
 3233SOL     OW21160   2.162   0.840   7.837 -0.1876  0.1800 -0.5914
 3233SOL    HW121161   2.174   0.935   7.841  0.4670 -0.0131  2.0496
 3233SOL    HW221162   2.239   0.788   7.863 -1.0282  0.0686  1.6555
 3234SOL     OW21163   0.895   3.581   8.182 -0.2325 -0.2287  0.3076
 3234SOL    HW121164   0.926   3.671   8.172  0.7767 -0.7753 -1.5622
 3234SOL    HW221165   0.837   3.593   8.257 -0.2625  1.0106  0.0838
 3235SOL     OW21166   1.878   1.743  15.788  0.7145  0.0743  0.5760
 3235SOL    HW121167   1.943   1.744  15.718  0.6376 -1.6834  0.4718
 3235SOL    HW221168   1.804   1.712  15.737  1.6955  0.1908 -0.9313
 3236SOL     OW21169   3.371   1.449  13.149  0.3251  0.9194 -0.4296
 3236SOL    HW121170   3.424   1.502  13.089  0.5410  0.2942 -0.7837
 3236SOL    HW221171   3.350   1.375  13.093 -1.6044  1.7732 -0.8519
 3237SOL     OW21172   1.451   3.519   5.146 -0.2884  0.1897 -0.1751
 3237SOL    HW121173   1.450   3.553   5.236 -1.8853  0.5673 -0.3479
 3237SOL    HW221174   1.528   3.567   5.114 -0.4717  1.6194  1.5409
 3238SOL     OW21175   3.825   3.166  12.967 -0.1428  0.1877 -0.0455
 3238SOL    HW121176   3.857   3.118  12.891 -0.9642 -0.0796 -0.2252
 3238SOL    HW221177   3.876   3.124  13.037 -1.1406 -0.3959  0.3366
 3239SOL     OW21178   0.797   1.891   4.409  0.1179 -1.0098  0.0349
 3239SOL    HW121179   0.791   1.863   4.317  1.6606 -0.8616 -0.1180
 3239SOL    HW221180   0.851   1.822   4.448  1.6218  0.2605  0.2142
 3240SOL     OW21181   4.010   2.558   1.706 -0.1257  0.3026 -0.4265
 3240SOL    HW121182   3.927   2.510   1.704  2.2072 -3.5918 -2.5641
 3240SOL    HW221183   4.051   2.519   1.629 -0.7172 -0.3476 -0.4116
 3241SOL     OW21184   0.245   4.551  11.690 -0.0450  0.0769  0.0516
 3241SOL    HW121185   0.149   4.545  11.685  0.0632 -0.2783 -1.6567
 3241SOL    HW221186   0.274   4.482  11.750 -2.5340 -1.2751 -0.2850
 3242SOL     OW21187   3.788   4.488   7.612 -0.2924  0.3024 -0.2949
 3242SOL    HW121188   3.814   4.527   7.529  1.3163  0.9794  0.5195
 3242SOL    HW221189   3.845   4.411   7.610 -2.6508 -1.4815  1.2166
 3243SOL     OW21190   2.944   1.542   6.347  0.1113  0.0999  0.3742
 3243SOL    HW121191   3.036   1.558   6.371  0.0018 -0.7937  1.4016
 3243SOL    HW221192   2.952   1.528   6.253  1.5741  0.0917  0.4886
 3244SOL     OW21193   3.440   4.327   3.673 -0.0587  1.0810  0.2830
 3244SOL    HW121194   3.501   4.293   3.738  1.9618  0.8728 -1.7176
 3244SOL    HW221195   3.395   4.392   3.727 -0.0783  0.4753  1.0072
 3245SOL     OW21196   1.342   2.738   0.920 -0.2793  0.0202  0.0781
 3245SOL    HW121197   1.304   2.665   0.872  1.1057  0.4704 -1.6868
 3245SOL    HW221198   1.302   2.809   0.870 -0.2156 -1.8218 -2.5776
 3246SOL     OW21199   0.070   1.929   1.472 -0.4147 -0.6740  0.4819
 3246SOL    HW121200   0.139   1.937   1.406 -0.4897 -0.7770  0.3913
 3246SOL    HW221201   0.048   2.022   1.483  1.6485 -0.2499  1.0634
 3247SOL     OW21202   2.191   1.904   7.951 -0.0384 -0.9643  0.1067
 3247SOL    HW121203   2.125   1.890   8.018  1.7915  0.1305  2.1298
 3247SOL    HW221204   2.269   1.868   7.994 -0.0523 -1.0467  0.0629
 3248SOL     OW21205   3.968   1.724   7.265  0.0357  0.0895 -0.8361
 3248SOL    HW121206   3.933   1.705   7.352  0.1996 -0.2232 -0.8411
 3248SOL    HW221207   3.953   1.818   7.257  0.0171  0.2016  0.6641
 3249SOL     OW21208   0.543   4.478   4.264 -0.2180 -0.5355 -0.0836
 3249SOL    HW121209   0.520   4.386   4.280 -0.8096 -0.4254 -0.2981
 3249SOL    HW221210   0.569   4.492   4.355 -2.5675  0.2087  0.4686
 3250SOL     OW21211   0.259   4.222   5.772  0.1426 -0.3268 -0.1915
 3250SOL    HW121212   0.254   4.236   5.677 -1.5281  1.0896  0.1108
 3250SOL    HW221213   0.175   4.178   5.785  0.4547 -0.7689  0.3198
 3251SOL     OW21214   0.175   3.048   0.856  0.1700  0.0151 -0.6817
 3251SOL    HW121215   0.122   3.044   0.936 -1.0279 -2.2764 -1.5987
 3251SOL    HW221216   0.257   3.084   0.890 -1.7583  1.4755  2.4686
 3252SOL     OW21217   1.508   4.162   2.686  0.4212 -0.2010  0.2182
 3252SOL    HW121218   1.417   4.183   2.664  0.3814  1.4585  2.0124
 3252SOL    HW221219   1.507   4.075   2.646 -2.4687 -0.8347  1.6268
 3253SOL     OW21220   0.173   4.723   3.697 -0.4319  0.4865  0.4303
 3253SOL    HW121221   0.166   0.088   3.664 -1.4227 -0.0090 -0.7145
 3253SOL    HW221222   0.159   4.673   3.617  2.1333  0.3507  0.0797
 3254SOL     OW21223   1.859   0.521  12.896 -0.8552  0.5884 -0.0520
 3254SOL    HW121224   1.921   0.457  12.861  1.1461  2.5454 -0.1004
 3254SOL    HW221225   1.872   0.600  12.843 -2.8371 -0.4192 -2.0372
 3255SOL     OW21226   3.516   0.103   7.919 -0.4722 -0.2828 -0.1170
 3255SOL    HW121227   3.560   0.022   7.892 -1.5024  0.2091 -3.1969
 3255SOL    HW221228   3.502   0.134   7.830  1.6024  2.9157  0.6405
 3256SOL     OW21229   3.914   1.694  11.304 -0.2521 -0.1927  0.2529
 3256SOL    HW121230   3.846   1.673  11.367 -2.4994  1.1982 -1.7309
 3256SOL    HW221231   3.902   1.627  11.237 -1.5009  0.0374  0.2625
 3257SOL     OW21232   3.221   1.046   7.862  0.2819 -0.3754 -0.0496
 3257SOL    HW121233   3.168   1.082   7.790 -0.3819  0.2207  0.7465
 3257SOL    HW221234   3.155   1.022   7.927  1.6096  1.9689  2.1326
 3258SOL     OW21235   0.588   0.038   6.285  0.4784  0.1342  0.2801
 3258SOL    HW121236   0.623   0.124   6.309  2.7572 -0.1340 -2.0741
 3258SOL    HW221237   0.647   0.004   6.219  0.7425  1.3534 -0.1112
 3259SOL     OW21238   4.126   0.170   7.213  0.4388  0.3329  0.7082
 3259SOL    HW121239   4.064   0.128   7.152  0.7037  0.6142  0.2425
 3259SOL    HW221240   4.106   0.132   7.298 -3.5950  2.0229  0.5213
 3260SOL     OW21241   0.060   4.212   9.632 -0.4757  0.3907 -0.5008
 3260SOL    HW121242   0.015   4.196   9.715  3.0640  1.8592  1.7009
 3260SOL    HW221243   0.071   4.123   9.599 -1.0954 -0.1593  0.7828
 3261SOL     OW21244   4.482   4.651   2.912  0.4398 -0.0240  0.1279
 3261SOL    HW121245   4.567   4.693   2.926  1.1578 -1.5727  0.3407
 3261SOL    HW221246   4.431   4.709   2.969  1.5476 -0.2441  1.3209
 3262SOL     OW21247   0.372   2.302   5.862  0.2059  0.1236 -0.1741
 3262SOL    HW121248   0.393   2.225   5.915 -1.0311 -0.6487 -0.8088
 3262SOL    HW221249   0.388   2.265   5.776  0.4261  0.1805 -0.1574
 3263SOL     OW21250   1.634   4.323   6.244 -0.0024 -0.2397  0.3938
 3263SOL    HW121251   1.594   4.347   6.160  0.8751  3.0850  0.9027
 3263SOL    HW221252   1.723   4.354   6.228 -0.7776  1.5561 -0.4632
 3264SOL     OW21253   2.518   0.824  13.678  0.3176 -0.5900  0.3240
 3264SOL    HW121254   2.590   0.790  13.732 -0.2450 -0.6247  1.0587
 3264SOL    HW221255   2.466   0.746  13.659  2.6089 -2.0418 -0.0120
 3265SOL     OW21256   1.141   3.381   2.355  0.3837 -0.0199 -0.0175
 3265SOL    HW121257   1.093   3.336   2.285 -1.1565  0.7747  0.5451
 3265SOL    HW221258   1.190   3.318   2.407 -2.1858 -1.2215  0.9081
 3266SOL     OW21259   1.729   3.771   6.985  0.4992  0.5057 -0.2387
 3266SOL    HW121260   1.790   3.843   7.002  1.9734 -0.9841  0.7152
 3266SOL    HW221261   1.799   3.707   6.974 -1.7170 -1.7145 -1.2964
 3267SOL     OW21262   0.595   2.299   9.718  0.2594 -0.2817  0.5371
 3267SOL    HW121263   0.641   2.329   9.639  0.8152 -1.3113  0.4747
 3267SOL    HW221264   0.534   2.372   9.729  0.1886 -0.1315 -0.8005
 3268SOL     OW21265   0.629   1.560   8.156  0.1539  0.8366  0.1748
 3268SOL    HW121266   0.715   1.581   8.119 -0.9355  0.5696 -2.4706
 3268SOL    HW221267   0.632   1.465   8.171  3.4808  0.4876 -2.5319
 3269SOL     OW21268   0.477   0.732  16.073  0.3341  0.6175  0.2543
 3269SOL    HW121269   0.494   0.711  16.165  0.2883  1.1992  0.3914
 3269SOL    HW221270   0.383   0.749  16.078 -0.1152 -1.1501 -1.9956
 3270SOL     OW21271   2.589   4.005   3.411  0.1185  0.4275 -0.0187
 3270SOL    HW121272   2.551   4.075   3.358 -0.8431 -0.3399 -0.3459
 3270SOL    HW221273   2.681   4.032   3.417 -1.4053  5.2592  1.6751
 3271SOL     OW21274   2.403   3.937   7.144  0.3576  0.2652  0.0943
 3271SOL    HW121275   2.489   3.951   7.105  0.2711  1.8038  0.4699
 3271SOL    HW221276   2.388   4.022   7.185  0.3682  0.9118 -1.2324
 3272SOL     OW21277   0.272   2.074   9.516 -0.1931  0.0508  0.1332
 3272SOL    HW121278   0.283   2.095   9.609 -2.2054  0.2982  0.3249
 3272SOL    HW221279   0.356   2.105   9.483  0.4999 -2.0628 -0.0838
 3273SOL     OW21280   1.712   1.168  17.464  0.1194  0.6794  0.5290
 3273SOL    HW121281   1.746   1.176  17.553  1.5048  0.2766  0.0298
 3273SOL    HW221282   1.724   1.076  17.440  1.0447  1.4937 -2.1736
 3274SOL     OW21283   2.618   1.976   8.812  0.9268  0.3844 -0.0022
 3274SOL    HW121284   2.617   1.966   8.907  1.6530 -1.2813 -0.1753
 3274SOL    HW221285   2.710   1.996   8.798  1.0978 -0.8201 -0.5778
 3275SOL     OW21286   1.361   2.141  14.733 -0.6744  0.0629  0.2334
 3275SOL    HW121287   1.393   2.229  14.711  0.0819 -0.5082 -0.9684
 3275SOL    HW221288   1.404   2.121  14.816  0.8366  0.9745 -0.3119
 3276SOL     OW21289   3.304   1.597   1.880  0.0647  0.2522 -0.4575
 3276SOL    HW121290   3.379   1.653   1.857  0.4606 -0.0017  0.2212
 3276SOL    HW221291   3.283   1.629   1.968 -0.6860 -0.8899 -0.2171
 3277SOL     OW21292   2.329   1.233   9.716 -0.0827  0.2010 -0.4077
 3277SOL    HW121293   2.268   1.172   9.674  0.3274 -0.0955 -0.5691
 3277SOL    HW221294   2.412   1.199   9.683 -0.2851 -1.8582  1.2153
 3278SOL     OW21295   3.580   0.458   4.517 -0.4670 -0.4114 -0.7627
 3278SOL    HW121296   3.571   0.549   4.486  2.7197 -0.1741 -0.9602
 3278SOL    HW221297   3.491   0.450   4.552  0.2463 -1.4473  0.8195
 3279SOL     OW21298   1.453   3.481  16.215  0.0380 -0.1969  0.3038
 3279SOL    HW121299   1.473   3.537  16.140 -0.8115 -1.2257 -0.7022
 3279SOL    HW221300   1.508   3.518  16.284 -1.2730 -0.0681  1.2851
 3280SOL     OW21301   1.254   4.660   7.431 -0.3535 -0.2027 -0.2240
 3280SOL    HW121302   1.328   4.692   7.379 -0.9305  2.0299  0.3209
 3280SOL    HW221303   1.277   4.570   7.457 -0.3702  1.0893  4.2604
 3281SOL     OW21304   3.722   2.212   2.084  0.1772  0.4452  0.4986
 3281SOL    HW121305   3.776   2.133   2.091  0.3697  0.4159 -1.3643
 3281SOL    HW221306   3.633   2.179   2.077 -0.1713  2.0291 -2.7777
 3282SOL     OW21307   2.551   1.154  17.102 -0.2907 -0.0188 -0.3259
 3282SOL    HW121308   2.604   1.220  17.147 -0.2051 -0.4574  0.2094
 3282SOL    HW221309   2.613   1.081  17.103  0.6178  0.7504 -0.2975
 3283SOL     OW21310   2.884   3.379   4.599  0.0374  0.0789 -0.0480
 3283SOL    HW121311   2.821   3.436   4.644  0.2729  0.4431 -0.1867
 3283SOL    HW221312   2.966   3.419   4.627  0.7207  0.1353 -2.1447
 3284SOL     OW21313   3.197   1.229   4.882 -0.0331  0.2650  0.4879
 3284SOL    HW121314   3.199   1.322   4.904 -1.5882  0.4667 -0.1904
 3284SOL    HW221315   3.282   1.201   4.917 -0.2314 -1.1787 -0.1688
 3285SOL     OW21316   3.330   2.019   7.294 -0.2214  0.1514  0.0980
 3285SOL    HW121317   3.276   2.006   7.216 -0.8599  0.0063  0.5639
 3285SOL    HW221318   3.383   2.092   7.263  1.5150 -1.5067 -0.8266
 3286SOL     OW21319   1.933   0.879   4.204  0.1794 -0.7128  0.7384
 3286SOL    HW121320   1.864   0.927   4.250 -0.9183 -1.3188 -0.2595
 3286SOL    HW221321   2.010   0.914   4.249  1.3506 -0.5616 -1.3764
 3287SOL     OW21322   3.178   2.761   2.348  0.6411 -0.0357  0.1448
 3287SOL    HW121323   3.184   2.680   2.399 -1.1293  0.8574  1.7701
 3287SOL    HW221324   3.257   2.804   2.382 -0.4106  1.5273  0.6062
 3288SOL     OW21325   3.415   1.055   9.062 -0.2879 -0.0728 -0.7663
 3288SOL    HW121326   3.454   1.025   8.980 -0.8676  1.6162 -1.6621
 3288SOL    HW221327   3.491   1.047   9.119 -2.1323 -2.5387  1.3188
 3289SOL     OW21328   0.896   4.025  10.582 -1.1044 -0.3321  0.1002
 3289SOL    HW121329   0.990   4.038  10.593 -1.0261  1.2545 -2.4974
 3289SOL    HW221330   0.878   3.935  10.610 -2.1583 -0.1533  0.0229
 3290SOL     OW21331   3.845   2.023  13.890 -0.5949 -0.0781  0.2996
 3290SOL    HW121332   3.766   2.033  13.836 -0.6651 -2.1938  0.0002
 3290SOL    HW221333   3.884   1.945  13.851  1.2481  0.6461  0.6942
 3291SOL     OW21334   4.246   1.326   5.725 -0.2720 -0.1576  0.1836
 3291SOL    HW121335   4.166   1.277   5.703 -0.9541  0.2365  1.7923
 3291SOL    HW221336   4.230   1.359   5.813 -0.1537  1.4155 -0.3824
 3292SOL     OW21337   0.632   0.364   3.403  0.2226 -0.2263 -0.2109
 3292SOL    HW121338   0.712   0.359   3.456  0.6351  2.2277 -0.6198
 3292SOL    HW221339   0.566   0.349   3.470 -0.6187 -0.7016 -1.1523
 3293SOL     OW21340   2.871   0.738  16.633  0.1849 -0.1772  0.2346
 3293SOL    HW121341   2.814   0.704  16.565  0.7654  0.6405 -0.6559
 3293SOL    HW221342   2.923   0.800  16.582  1.2540  0.3127  1.8933
 3294SOL     OW21343   4.678   1.679   8.407 -0.0394 -0.4552  0.3250
 3294SOL    HW121344   4.633   1.677   8.492 -0.3528  1.8670  0.2195
 3294SOL    HW221345   4.719   1.593   8.410 -0.1237 -0.3986  2.9813
 3295SOL     OW21346   1.781   4.632   3.885  0.9044  0.6426  0.6129
 3295SOL    HW121347   1.792   4.699   3.817  0.5785  1.3181  1.2171
 3295SOL    HW221348   1.687   4.618   3.899  1.0282  0.0013  0.7809
 3296SOL     OW21349   1.666   1.850   7.561  0.2450 -0.7882  0.5670
 3296SOL    HW121350   1.619   1.876   7.482 -0.8747 -0.0554  1.4848
 3296SOL    HW221351   1.743   1.906   7.574  1.2609 -1.2599 -3.3994
 3297SOL     OW21352   1.135   2.407   6.954  0.1134  0.2003 -0.2457
 3297SOL    HW121353   1.154   2.314   6.965 -2.7638 -0.4158 -0.4523
 3297SOL    HW221354   1.094   2.408   6.867 -0.5968  0.3554  0.0891
 3298SOL     OW21355   0.614   4.169  17.615  0.2333 -0.4058 -0.9782
 3298SOL    HW121356   0.705   4.163  17.644  0.5275  1.3668 -1.4900
 3298SOL    HW221357   0.574   4.234  17.672  1.0280 -1.5008  0.8222
 3299SOL     OW21358   3.270   3.365   2.777  1.0040 -0.1377 -0.3780
 3299SOL    HW121359   3.272   3.290   2.718  0.5047 -0.4197 -0.0367
 3299SOL    HW221360   3.303   3.441   2.728 -0.6658  1.9122  1.6624
 3300SOL     OW21361   2.579   4.007  13.894  0.3121 -0.1076  0.0197
 3300SOL    HW121362   2.539   4.087  13.930 -0.0655 -0.6951  0.8922
 3300SOL    HW221363   2.604   3.958  13.971 -3.1419 -0.3384  0.9801
 3301SOL     OW21364   3.489   4.022   7.783  0.3297 -0.4635  0.1928
 3301SOL    HW121365   3.522   4.065   7.704  2.3294 -2.7812 -0.2555
 3301SOL    HW221366   3.502   3.933   7.748  2.4041  0.1634 -0.6196
 3302SOL     OW21367   3.016   3.787  16.446  0.0440  1.1253 -0.3075
 3302SOL    HW121368   2.934   3.738  16.445  1.1971 -0.8247 -0.2372
 3302SOL    HW221369   3.088   3.735  16.410 -0.0724  1.5218 -1.1303
 3303SOL     OW21370   2.558   0.318   7.809  0.0403  0.1851  0.0528
 3303SOL    HW121371   2.517   0.382   7.751  0.3681  3.2620  3.2019
 3303SOL    HW221372   2.648   0.320   7.778  0.2445  0.0059  0.6319
 3304SOL     OW21373   4.048   1.670   2.570 -0.4722 -0.1577  0.2860
 3304SOL    HW121374   4.003   1.594   2.535  1.8595 -0.4434 -2.0799
 3304SOL    HW221375   4.136   1.650   2.539 -1.0923  1.2060 -2.4096
 3305SOL     OW21376   4.536   1.593   4.045 -0.3741 -0.4402 -0.7948
 3305SOL    HW121377   4.516   1.524   4.108  2.6842 -0.2516  0.3781
 3305SOL    HW221378   4.580   1.655   4.103  0.3052 -0.9019 -0.8127
 3306SOL     OW21379   2.646   4.358   5.986  0.3545  0.3033  0.0042
 3306SOL    HW121380   2.676   4.371   5.896  0.3112 -0.3047 -0.0979
 3306SOL    HW221381   2.619   4.267   5.975  1.7807 -0.2894  1.3261
 3307SOL     OW21382   1.339   0.210   5.225 -0.0847  0.6594  0.0657
 3307SOL    HW121383   1.346   0.305   5.214 -1.2432  0.5025 -1.9809
 3307SOL    HW221384   1.245   0.210   5.242 -0.5375  0.4027 -2.4656
 3308SOL     OW21385   4.145   0.708   7.773  0.1790  0.1945 -0.6617
 3308SOL    HW121386   4.209   0.702   7.701  2.7508 -0.7254  1.6924
 3308SOL    HW221387   4.151   0.802   7.793  1.6074 -0.0390 -0.0221
 3309SOL     OW21388   0.206   0.830   4.640  0.3804 -0.1981  0.2331
 3309SOL    HW121389   0.236   0.921   4.639 -0.1519 -0.0183  0.6788
 3309SOL    HW221390   0.224   0.806   4.731 -0.8470 -0.4051  0.4228
 3310SOL     OW21391   1.431   2.135   4.006  0.5514 -0.2787  0.3349
 3310SOL    HW121392   1.515   2.136   3.961  1.5807  0.7211  2.2917
 3310SOL    HW221393   1.372   2.175   3.942 -1.3320  0.0835  2.2792
 3311SOL     OW21394   0.916   4.090  13.759  0.3025 -0.4785 -0.3046
 3311SOL    HW121395   0.909   4.181  13.785 -4.1458 -0.8055 -0.3420
 3311SOL    HW221396   0.979   4.096  13.687  0.6972 -2.2697 -0.1110
 3312SOL     OW21397   0.856   3.898  10.946 -0.4927  0.7238 -0.3957
 3312SOL    HW121398   0.821   3.942  11.023 -3.3550  0.8655 -1.7679
 3312SOL    HW221399   0.829   3.809  10.969 -1.7956  0.7947 -1.6460
 3313SOL     OW21400   1.242   4.536   5.501  0.7250  0.0608 -0.4362
 3313SOL    HW121401   1.278   4.598   5.565 -3.0428  0.7039  1.0183
 3313SOL    HW221402   1.295   4.460   5.525  0.7490  0.6248  1.3358
 3314SOL     OW21403   0.286   0.987  15.749 -0.0457 -0.1384  0.0933
 3314SOL    HW121404   0.241   1.065  15.781 -2.1593 -0.2064 -2.8169
 3314SOL    HW221405   0.340   0.966  15.826 -1.5467  0.9086  1.4276
 3315SOL     OW21406   3.139   0.146  13.592 -0.1209 -0.1074 -0.1232
 3315SOL    HW121407   3.062   0.089  13.588  0.8411 -1.5042  1.2243
 3315SOL    HW221408   3.195   0.106  13.658 -0.5626 -1.2990 -0.4500
 3316SOL     OW21409   4.265   0.765  11.482 -0.2460  0.1284  0.1523
 3316SOL    HW121410   4.199   0.803  11.540 -1.1596 -0.9219 -0.1872
 3316SOL    HW221411   4.217   0.689  11.449  0.3983  0.6992 -2.0583
 3317SOL     OW21412   3.737   1.329   8.443 -0.2064  0.2697 -0.4286
 3317SOL    HW121413   3.684   1.344   8.521 -1.6185 -1.3243 -1.0905
 3317SOL    HW221414   3.730   1.417   8.406  2.6674  0.7425  0.0883
 3318SOL     OW21415   0.126   4.540  13.718 -0.2559 -0.7659 -0.4852
 3318SOL    HW121416   0.044   4.498  13.746 -1.1650  0.5741 -1.1247
 3318SOL    HW221417   0.126   4.518  13.625  0.3511  0.4160 -0.7659
 3319SOL     OW21418   0.018   0.661   5.019 -0.4219 -0.4166 -0.6943
 3319SOL    HW121419   4.657   0.662   5.062  0.0231 -2.4677  0.2211
 3319SOL    HW221420   4.712   0.667   4.928 -0.4999 -1.5578 -0.7434
 3320SOL     OW21421   1.344   0.465  14.647  0.3687  0.1326 -0.5190
 3320SOL    HW121422   1.379   0.552  14.663  0.9545  0.1195 -1.7633
 3320SOL    HW221423   1.407   0.408  14.691  0.2781  0.3759 -0.0774
 3321SOL     OW21424   4.610   1.244  13.777 -0.2856  0.1785  0.5104
 3321SOL    HW121425   4.701   1.249  13.750  0.7963 -1.1892  3.8546
 3321SOL    HW221426   4.571   1.311  13.721 -1.2791  0.6964  1.8310
 3322SOL     OW21427   4.311   4.055   4.052 -0.1762 -0.2852 -0.0612
 3322SOL    HW121428   4.286   4.103   3.973 -2.7928 -0.6304  0.5411
 3322SOL    HW221429   4.330   4.121   4.118 -0.1128  1.0108 -1.3769
 3323SOL     OW21430   2.798   0.709  17.268  0.2026  0.0095 -0.5096
 3323SOL    HW121431   2.853   0.632  17.252  0.4056  0.0623 -0.0818
 3323SOL    HW221432   2.713   0.666  17.258  0.2343  0.0617 -0.9785
 3324SOL     OW21433   0.853   1.115   8.243 -0.1982 -0.0217  0.2094
 3324SOL    HW121434   0.846   1.133   8.337  0.3629 -1.8287  0.5832
 3324SOL    HW221435   0.788   1.047   8.226 -0.1939  0.4222 -1.5891
 3325SOL     OW21436   4.531   0.330   3.556  0.4539 -0.3643 -0.4614
 3325SOL    HW121437   4.508   0.419   3.583 -0.9312 -0.6979 -0.5112
 3325SOL    HW221438   4.489   0.276   3.623  0.4762  1.7315  1.2201
 3326SOL     OW21439   2.898   2.195   7.814  0.0650 -0.0846 -0.1419
 3326SOL    HW121440   2.921   2.141   7.739  0.6962 -1.3859  1.0013
 3326SOL    HW221441   2.953   2.156   7.882  3.8411  2.9849 -1.3845
 3327SOL     OW21442   0.556   2.307   8.474  0.6004 -0.2672 -0.1027
 3327SOL    HW121443   0.564   2.382   8.534 -1.1933 -0.4187  0.3183
 3327SOL    HW221444   0.636   2.304   8.421 -0.5461 -0.5625 -1.7884
 3328SOL     OW21445   0.712   2.391  13.246 -0.5379  0.1908 -0.0788
 3328SOL    HW121446   0.779   2.396  13.178 -2.2414  0.7320 -1.7181
 3328SOL    HW221447   0.647   2.456  13.217  0.9173  1.1127 -1.2659
 3329SOL     OW21448   3.765   3.425  17.232  0.2220  0.0059  0.0977
 3329SOL    HW121449   3.801   3.482  17.163  0.3596 -0.2510 -0.0395
 3329SOL    HW221450   3.846   3.374  17.233  0.2967  0.1658  2.0223
 3330SOL     OW21451   3.635   4.563   5.982 -0.0709 -0.2034  0.4136
 3330SOL    HW121452   3.722   4.598   6.002  0.3412 -1.6931  1.2090
 3330SOL    HW221453   3.628   4.516   6.065  2.6743 -2.6162 -0.7312
 3331SOL     OW21454   2.279   3.687   4.262 -0.6643 -0.0638 -0.2458
 3331SOL    HW121455   2.321   3.733   4.190 -0.0489  0.3062  0.3510
 3331SOL    HW221456   2.335   3.609   4.273  3.7898  3.1221 -0.3464
 3332SOL     OW21457   0.286   3.298   5.147 -0.4145  0.1409  0.2730
 3332SOL    HW121458   0.272   3.307   5.241 -1.4027 -2.1509  0.3454
 3332SOL    HW221459   0.253   3.208   5.136 -0.9629  0.2164  1.3463
 3333SOL     OW21460   2.412   1.129   3.136 -0.2555  0.7746 -0.1945
 3333SOL    HW121461   2.358   1.059   3.174  1.0070  0.2914  0.7131
 3333SOL    HW221462   2.404   1.110   3.042 -1.7668  1.8258 -0.2771
 3334SOL     OW21463   0.182   1.225  15.812 -0.4154  0.2585  0.4021
 3334SOL    HW121464   0.100   1.226  15.862  0.4914 -2.2543  1.9665
 3334SOL    HW221465   0.219   1.313  15.818 -1.9623  1.0682 -1.9783
 3335SOL     OW21466   1.808   1.577  16.713 -0.7255 -0.5503  0.2929
 3335SOL    HW121467   1.761   1.655  16.743 -0.1786  0.3783 -1.2086
 3335SOL    HW221468   1.879   1.618  16.663  0.4564 -0.7867  1.7841
 3336SOL     OW21469   0.641   0.678  12.891 -0.4440  0.1862  0.9869
 3336SOL    HW121470   0.731   0.693  12.863 -0.0111 -1.9219  1.2371
 3336SOL    HW221471   0.632   0.584  12.876  0.6179  0.0920  0.9616
 3337SOL     OW21472   0.985   3.684   2.603  0.5026 -0.6397  0.2193
 3337SOL    HW121473   1.067   3.683   2.553 -1.1535  2.4209 -2.5643
 3337SOL    HW221474   0.929   3.612   2.574  1.4602 -0.4621 -2.0269
 3338SOL     OW21475   4.149   0.252   2.968  0.4510  0.5575  0.0320
 3338SOL    HW121476   4.062   0.213   2.957  0.5141  0.0048  1.4673
 3338SOL    HW221477   4.159   0.277   2.876 -2.4714 -1.3794 -0.8142
 3339SOL     OW21478   3.844   2.013   5.121  0.1311  0.2080 -0.4212
 3339SOL    HW121479   3.838   2.106   5.141  1.6859  0.2510 -0.1511
 3339SOL    HW221480   3.774   1.978   5.176  0.2427 -0.3689 -0.6454
 3340SOL     OW21481   3.818   3.530   2.549 -0.0598  0.1810  0.9328
 3340SOL    HW121482   3.761   3.459   2.521  1.9152 -0.7318 -0.7618
 3340SOL    HW221483   3.774   3.602   2.504  1.7861  1.3259  0.9649
 3341SOL     OW21484   2.488   4.222   7.295 -0.8263  0.1833  0.0665
 3341SOL    HW121485   2.428   4.237   7.222 -1.5312 -0.0872  0.5912
 3341SOL    HW221486   2.536   4.298   7.326 -0.0167 -0.6316  0.8350
 3342SOL     OW21487   2.162   4.127   7.711 -0.2890 -0.1519 -0.0412
 3342SOL    HW121488   2.248   4.134   7.671 -0.6961 -2.5706 -1.3810
 3342SOL    HW221489   2.139   4.034   7.703  1.4558 -0.4927 -0.9993
 3343SOL     OW21490   2.402   4.600   1.332  0.3324 -0.6829 -0.1318
 3343SOL    HW121491   2.345   4.674   1.313  1.8150  1.2526  3.0918
 3343SOL    HW221492   2.357   4.532   1.382 -1.0984 -0.0833 -0.5982
 3344SOL     OW21493   1.471   2.316   6.361 -0.0015 -0.1823  0.1055
 3344SOL    HW121494   1.556   2.273   6.359 -1.2276 -2.4741 -2.7066
 3344SOL    HW221495   1.474   2.341   6.453 -1.4564 -2.1083  0.6730
 3345SOL     OW21496   1.790   0.272  12.652  0.0711 -0.0323  0.2013
 3345SOL    HW121497   1.852   0.343  12.639 -0.0508  0.2815  1.3103
 3345SOL    HW221498   1.724   0.309  12.710 -0.2421  1.8801 -1.3946
 3346SOL     OW21499   2.451   0.897   9.753 -0.0901 -0.3193  0.2832
 3346SOL    HW121500   2.379   0.940   9.799  0.4390  0.1384  0.6837
 3346SOL    HW221501   2.525   0.944   9.791 -2.0867  1.7969  1.5881
 3347SOL     OW21502   1.843   4.709   8.718  0.6327 -0.7610 -0.2246
 3347SOL    HW121503   1.927   4.663   8.729  0.4576 -0.7709  1.0235
 3347SOL    HW221504   1.831   4.701   8.623  1.2407 -1.5368 -0.2397
 3348SOL     OW21505   4.509   0.978   6.153 -0.0553  0.4772 -0.1297
 3348SOL    HW121506   4.425   0.973   6.109 -0.4643 -0.9032  0.8009
 3348SOL    HW221507   4.513   0.896   6.203  2.4309 -0.6939 -2.2794
 3349SOL     OW21508   4.269   0.439  15.916 -0.4161  0.3908  0.0560
 3349SOL    HW121509   4.359   0.434  15.948 -0.7919  0.9642  1.2073
 3349SOL    HW221510   4.282   0.494  15.838  2.1017  0.3002  0.4183
 3350SOL     OW21511   4.463   2.242  12.438  0.2079  0.2616  0.2968
 3350SOL    HW121512   4.395   2.229  12.373  0.6450  2.7994 -0.6987
 3350SOL    HW221513   4.424   2.214  12.520 -2.9848 -0.5153 -1.4971
 3351SOL     OW21514   0.484   2.484   3.859  0.3837  0.4826  0.4266
 3351SOL    HW121515   0.433   2.559   3.888 -0.5409  0.6484 -1.5692
 3351SOL    HW221516   0.460   2.477   3.766  1.5748  0.8384  0.0998
 3352SOL     OW21517   4.036   0.737  10.624  0.0074  0.0435  0.4653
 3352SOL    HW121518   4.014   0.678  10.552  0.2518 -1.8183  1.9186
 3352SOL    HW221519   4.107   0.781  10.578 -0.3732 -0.2867 -0.4381
 3353SOL     OW21520   4.714   4.704  15.029 -0.4490 -0.0538 -0.0911
 3353SOL    HW121521   4.658   4.650  14.973  0.2673 -0.4688 -0.3954
 3353SOL    HW221522   0.050   4.723  14.957 -0.8605  0.7836 -0.2148
 3354SOL     OW21523   3.722   0.837   6.084 -0.2379  0.0842  0.4455
 3354SOL    HW121524   3.632   0.849   6.054  0.6038  0.7473 -1.7594
 3354SOL    HW221525   3.732   0.745   6.060  1.1198  0.3292  0.1027
 3355SOL     OW21526   2.329   0.978   7.032  0.1728 -0.4482  0.6858
 3355SOL    HW121527   2.348   1.069   7.007  1.4058 -0.2461  2.3321
 3355SOL    HW221528   2.258   0.958   6.972  0.8817  0.6646 -0.5138
 3356SOL     OW21529   1.133   2.179   1.136 -0.0215 -0.0817 -0.3277
 3356SOL    HW121530   1.193   2.182   1.062  0.4825 -1.5704  0.0170
 3356SOL    HW221531   1.047   2.195   1.098 -0.9128  1.8582  2.5467
 3357SOL     OW21532   2.923   0.565   8.951  0.1899  0.4958  0.5778
 3357SOL    HW121533   3.014   0.560   8.921  0.6975 -0.4376  2.2547
 3357SOL    HW221534   2.916   0.660   8.944 -0.6701  0.5755  2.4685
 3358SOL     OW21535   3.732   2.420   6.429  0.2877 -0.2155 -0.2712
 3358SOL    HW121536   3.725   2.334   6.388  1.8508 -0.7951  0.6739
 3358SOL    HW221537   3.812   2.416   6.481 -1.1360  3.3866  2.2129
 3359SOL     OW21538   1.701   0.541   2.339  0.0505 -0.4435  0.1944
 3359SOL    HW121539   1.687   0.629   2.374  1.7454  1.3556 -3.6227
 3359SOL    HW221540   1.666   0.557   2.251  1.4761 -0.4649 -0.3780
 3360SOL     OW21541   4.471   2.941   2.784  0.6642  0.3842  0.0067
 3360SOL    HW121542   4.443   2.964   2.696 -0.6883 -0.5273  0.2030
 3360SOL    HW221543   4.558   2.904   2.767  1.5697  2.4001  0.1888
 3361SOL     OW21544   1.215   1.428   5.485  0.6039 -0.0452 -0.2253
 3361SOL    HW121545   1.298   1.435   5.437  0.9330  1.4457  0.5802
 3361SOL    HW221546   1.235   1.510   5.529 -0.8174  1.1192 -1.7585
 3362SOL     OW21547   1.712   3.580  11.056  0.3473 -0.0134 -0.1623
 3362SOL    HW121548   1.717   3.523  11.132  0.5949  0.6549  0.3244
 3362SOL    HW221549   1.619   3.599  11.059  1.1228  3.6599  0.2025
 3363SOL     OW21550   1.637   2.504  10.809  0.0826 -0.1836 -0.3192
 3363SOL    HW121551   1.630   2.425  10.755  2.2508 -0.4588 -0.1900
 3363SOL    HW221552   1.730   2.496  10.830 -1.0978 -2.6560  3.8305
 3364SOL     OW21553   1.625   4.283   4.239 -0.0644 -0.6153 -0.8262
 3364SOL    HW121554   1.583   4.363   4.270  1.5198  0.9570 -2.7720
 3364SOL    HW221555   1.558   4.240   4.186 -0.9834  0.5069 -0.5593
 3365SOL     OW21556   2.507   0.776   4.012  0.3078  0.2705 -0.1925
 3365SOL    HW121557   2.479   0.743   3.927  1.6556  1.0941 -0.9640
 3365SOL    HW221558   2.602   0.765   4.003  0.2500 -0.0877 -0.3513
 3366SOL     OW21559   1.424   4.507  16.101 -0.0137  0.1040 -0.0617
 3366SOL    HW121560   1.416   4.575  16.167  0.4327  0.3103 -0.2187
 3366SOL    HW221561   1.366   4.528  16.028  0.4689  0.3487 -0.3747
 3367SOL     OW21562   0.142   4.053   5.492 -0.2920  0.5571 -0.1606
 3367SOL    HW121563   0.217   4.112   5.495  0.6852 -0.7955  2.0334
 3367SOL    HW221564   0.176   3.965   5.474 -1.9239  0.2830 -1.8961
 3368SOL     OW21565   1.040   3.455   6.350  0.3928  0.2389 -0.4136
 3368SOL    HW121566   0.995   3.534   6.319 -2.6154 -1.6172 -0.8423
 3368SOL    HW221567   1.015   3.445   6.441  1.8687  1.2405  0.0988
 3369SOL     OW21568   2.054   2.528   7.567 -0.2641 -0.1814  0.5521
 3369SOL    HW121569   2.149   2.542   7.573 -0.8322  3.0724  1.7632
 3369SOL    HW221570   2.021   2.485   7.647  0.6715  0.3802  1.2433
 3370SOL     OW21571   1.965   1.171  16.402 -0.1929  0.7228 -0.3174
 3370SOL    HW121572   1.935   1.218  16.479 -0.4472  0.3577 -0.1898
 3370SOL    HW221573   1.887   1.168  16.346 -1.0848  1.4103  0.8979
 3371SOL     OW21574   3.357   3.833   6.579 -0.1714 -0.1547 -0.0305
 3371SOL    HW121575   3.338   3.749   6.622 -0.8015 -0.0568 -0.1153
 3371SOL    HW221576   3.431   3.869   6.628 -0.5470  0.7734 -0.1412
 3372SOL     OW21577   3.839   3.211   8.518 -0.3680  0.1526 -0.3648
 3372SOL    HW121578   3.786   3.143   8.477 -0.1252 -0.8055  0.8834
 3372SOL    HW221579   3.782   3.283   8.544  0.3719 -0.2059  2.3172
 3373SOL     OW21580   3.436   0.930   0.878 -0.2289 -0.3843  0.3095
 3373SOL    HW121581   3.514   0.926   0.933 -0.8959 -2.6238  1.0918
 3373SOL    HW221582   3.410   1.017   0.909 -0.8335  0.0635 -1.4422
 3374SOL     OW21583   1.742   1.760   0.297  0.6007 -0.5415  0.6031
 3374SOL    HW121584   1.758   1.852   0.277 -2.1916 -0.2349 -0.2618
 3374SOL    HW221585   1.791   1.756   0.379  1.5239 -0.4287  0.0560
 3375SOL     OW21586   2.742   1.085  17.436  0.5247  0.1915  0.3854
 3375SOL    HW121587   2.784   1.124  17.514  0.4787  1.6988 -0.3291
 3375SOL    HW221588   2.809   1.021  17.414 -0.1298 -0.4212  0.2126
 3376SOL     OW21589   3.501   3.329  10.031  0.6806 -0.3680  0.3744
 3376SOL    HW121590   3.464   3.270  10.097 -0.8399 -1.1611 -1.1887
 3376SOL    HW221591   3.422   3.339   9.977  0.1013 -1.1228  1.0830
 3377SOL     OW21592   3.851   2.996   5.863 -0.5340  0.2213 -0.2255
 3377SOL    HW121593   3.775   3.034   5.907 -0.7770 -2.1209  1.4099
 3377SOL    HW221594   3.806   2.973   5.782 -0.6541  0.7404 -0.3084
 3378SOL     OW21595   3.255   0.253   4.298 -0.4393 -0.3527  0.0487
 3378SOL    HW121596   3.349   0.250   4.285 -0.0996  0.1294  2.3331
 3378SOL    HW221597   3.236   0.161   4.317 -2.0499 -0.0812 -0.2667
 3379SOL     OW21598   0.671   1.596   7.262 -0.0967 -0.1003  0.3779
 3379SOL    HW121599   0.638   1.685   7.249 -0.3134  0.0553  1.9438
 3379SOL    HW221600   0.751   1.609   7.314  0.0960 -1.5318  0.4293
 3380SOL     OW21601   4.115   2.777   8.660 -0.1392 -0.1313  0.4200
 3380SOL    HW121602   4.145   2.865   8.684  1.5773 -0.1763 -1.5313
 3380SOL    HW221603   4.152   2.786   8.572 -0.2608 -0.4371  0.3375
 3381SOL     OW21604   0.559   0.124  11.477 -0.0795  0.0414 -0.3279
 3381SOL    HW121605   0.483   0.178  11.496  0.1660  0.4433 -0.4856
 3381SOL    HW221606   0.530   0.035  11.496 -2.9310  1.3472  1.5024
 3382SOL     OW21607   3.448   4.354  15.156  0.1775 -0.2406 -0.2241
 3382SOL    HW121608   3.409   4.307  15.083  0.3569 -0.3086 -0.2744
 3382SOL    HW221609   3.538   4.359  15.123 -0.3473 -0.8598 -1.7573
 3383SOL     OW21610   0.139   1.213   6.149  0.0421  0.1516 -0.4254
 3383SOL    HW121611   0.170   1.227   6.060 -1.2600  0.3756 -0.8496
 3383SOL    HW221612   0.093   1.295   6.166 -1.5127 -1.1762  1.8869
 3384SOL     OW21613   2.177   2.429   4.771 -0.8106 -0.1880 -0.1661
 3384SOL    HW121614   2.247   2.364   4.766 -0.8929 -0.1166 -2.0015
 3384SOL    HW221615   2.100   2.378   4.745 -1.9031  0.8726  1.0139
 3385SOL     OW21616   2.455   1.146   4.522 -0.9364  0.2234  0.3087
 3385SOL    HW121617   2.379   1.203   4.528 -0.1750  1.3595 -0.9734
 3385SOL    HW221618   2.425   1.073   4.469  1.6243  0.3420 -1.2659
 3386SOL     OW21619   3.614   3.076   5.988 -0.1228 -0.2100 -0.3444
 3386SOL    HW121620   3.530   3.067   5.943 -0.2837  0.1997 -0.1312
 3386SOL    HW221621   3.595   3.141   6.055  1.0827 -1.0212  0.7868
 3387SOL     OW21622   1.370   2.393  12.028  0.2870  0.0934 -0.8669
 3387SOL    HW121623   1.369   2.488  12.016  0.6379  0.2215  0.1264
 3387SOL    HW221624   1.463   2.371  12.030  0.0563 -0.8729 -0.5347
 3388SOL     OW21625   3.923   0.776   4.709  0.2650  0.3323 -0.1781
 3388SOL    HW121626   3.851   0.728   4.750 -0.9120  1.6213 -0.7427
 3388SOL    HW221627   3.993   0.712   4.703  1.3507  1.2520  2.2159
 3389SOL     OW21628   0.619   2.346   4.467 -0.1787 -0.4187 -0.0732
 3389SOL    HW121629   0.530   2.367   4.440 -0.7022 -1.5447  0.8122
 3389SOL    HW221630   0.601   2.258   4.499  2.1392 -0.5539  0.8574
 3390SOL     OW21631   3.459   2.536   0.542  0.0898 -0.0008  0.0151
 3390SOL    HW121632   3.540   2.545   0.493  0.7313 -0.8528  0.9102
 3390SOL    HW221633   3.404   2.492   0.477 -1.3323  1.4731  0.2284
 3391SOL     OW21634   1.510   3.910   1.150 -0.4007  0.2325 -0.2996
 3391SOL    HW121635   1.540   3.822   1.175 -0.1893  0.5540  0.5705
 3391SOL    HW221636   1.427   3.892   1.106 -1.3180  1.6000  0.8772
 3392SOL     OW21637   1.866   2.164  15.413  0.8513  0.0589  0.5571
 3392SOL    HW121638   1.821   2.228  15.468  1.8945 -0.3584  1.9041
 3392SOL    HW221639   1.909   2.233  15.362 -1.6276  1.7188  0.6922
 3393SOL     OW21640   1.445   3.764  10.063  0.3316  0.0863  0.1198
 3393SOL    HW121641   1.356   3.731  10.050  0.6293  0.3846 -2.7563
 3393SOL    HW221642   1.435   3.839  10.122 -1.3057 -0.4090  0.4513
 3394SOL     OW21643   4.248   0.716   2.258  0.5335  0.1356  0.1921
 3394SOL    HW121644   4.255   0.799   2.305 -0.5131 -0.6323  1.6727
 3394SOL    HW221645   4.155   0.695   2.248  0.0641  1.6769  1.2326
 3395SOL     OW21646   0.475   3.199   6.793 -0.1907  0.4741  0.1401
 3395SOL    HW121647   0.440   3.112   6.772  1.2930  0.1045 -0.7815
 3395SOL    HW221648   0.408   3.264   6.771 -0.9530  0.1098  1.3681
 3396SOL     OW21649   4.244   1.315   9.292  0.1707 -0.0045 -0.3768
 3396SOL    HW121650   4.172   1.294   9.351  0.3751  0.4464  0.0308
 3396SOL    HW221651   4.274   1.399   9.325  0.6392 -0.3415  0.0667
 3397SOL     OW21652   3.752   3.818   8.660 -0.3383  0.3827  0.2386
 3397SOL    HW121653   3.711   3.903   8.645  0.6476  0.9386  0.6620
 3397SOL    HW221654   3.843   3.850   8.663 -0.1018 -0.4902  1.9101
 3398SOL     OW21655   3.773   0.239   6.806  0.1367 -0.0679 -0.0623
 3398SOL    HW121656   3.695   0.201   6.844 -0.9187  1.4449 -0.6968
 3398SOL    HW221657   3.734   0.317   6.766 -0.5504 -1.6166 -2.4315
 3399SOL     OW21658   0.173   2.089   7.293 -0.2528 -0.1648 -0.6009
 3399SOL    HW121659   0.241   2.138   7.340 -1.7868  0.9988  0.4144
 3399SOL    HW221660   0.110   2.153   7.260 -1.2982  0.2539  2.1539
 3400SOL     OW21661   4.136   4.627   6.526 -0.1001 -0.5757 -0.2708
 3400SOL    HW121662   4.050   4.668   6.535 -0.4910 -1.5293  0.4532
 3400SOL    HW221663   4.120   4.545   6.574 -1.7932 -0.1264 -0.0559
 3401SOL     OW21664   1.147   3.691   2.358 -0.0062  0.0437  0.8886
 3401SOL    HW121665   1.151   3.596   2.373  0.8089 -0.0666 -0.0524
 3401SOL    HW221666   1.116   3.682   2.268  0.1207  0.6755  0.7835
 3402SOL     OW21667   0.479   2.191   9.393 -0.1009 -0.2707  0.2448
 3402SOL    HW121668   0.548   2.250   9.423  0.0622 -1.6691  2.5819
 3402SOL    HW221669   0.537   2.123   9.358  0.0650  0.7608 -1.4489
 3403SOL     OW21670   2.069   1.637   2.034  0.0155 -0.3012  0.0598
 3403SOL    HW121671   2.013   1.650   2.110 -1.0548  0.1008 -0.7962
 3403SOL    HW221672   2.157   1.670   2.050  0.5897 -2.0069  0.4193
 3404SOL     OW21673   0.677   1.590   2.116  0.1573 -0.2831  0.2266
 3404SOL    HW121674   0.634   1.600   2.031 -0.7569 -2.9026  0.3953
 3404SOL    HW221675   0.703   1.680   2.134 -0.9995 -0.3370  2.1291
 3405SOL     OW21676   1.874   2.597   4.011  0.5382 -0.2623 -0.0190
 3405SOL    HW121677   1.924   2.601   3.929 -0.8152  2.5717 -0.6961
 3405SOL    HW221678   1.784   2.573   3.990  1.0222 -2.3011  0.2455
 3406SOL     OW21679   3.457   0.719   0.410  0.0084  0.1247  1.0892
 3406SOL    HW121680   3.365   0.744   0.404 -0.4204 -1.3030  1.6910
 3406SOL    HW221681   3.450   0.624   0.420 -0.1765  0.0072 -0.1842
 3407SOL     OW21682   2.843   4.256   7.941  0.3558  0.1017 -0.7077
 3407SOL    HW121683   2.928   4.269   7.983 -0.3185  2.1600  0.0401
 3407SOL    HW221684   2.865   4.280   7.851 -0.6177 -2.1153 -1.5302
 3408SOL     OW21685   3.025   1.375   2.541 -0.2904 -0.4139 -0.1448
 3408SOL    HW121686   3.086   1.419   2.600 -0.3749 -2.8933  1.8048
 3408SOL    HW221687   3.085   1.368   2.467 -0.1268 -1.4090  0.0853
 3409SOL     OW21688   4.245   4.650   2.286  0.0957 -0.1614  0.2469
 3409SOL    HW121689   4.190   0.002   2.301  2.1847  1.2461  0.6769
 3409SOL    HW221690   4.201   4.628   2.204  0.6306  1.4235 -0.4542
 3410SOL     OW21691   1.406   3.578   9.632  0.0407 -0.1906  0.4808
 3410SOL    HW121692   1.495   3.548   9.611  0.4163  0.9970  0.3509
 3410SOL    HW221693   1.369   3.515   9.694  1.1539  1.0250  2.3739
 3411SOL     OW21694   2.853   0.263   7.466  0.0478 -0.1767 -0.3887
 3411SOL    HW121695   2.825   0.344   7.425 -1.5256 -1.1239 -1.1814
 3411SOL    HW221696   2.919   0.230   7.405 -0.4811 -0.0761 -1.0044
 3412SOL     OW21697   3.643   0.453   8.206  0.4736 -0.1797  0.4449
 3412SOL    HW121698   3.640   0.454   8.302  0.0509 -0.1349  0.4333
 3412SOL    HW221699   3.610   0.366   8.183  0.8702 -0.5724  1.3673
 3413SOL     OW21700   2.110   3.766  10.570  0.4399  0.0204 -0.7601
 3413SOL    HW121701   2.114   3.720  10.654 -0.7167 -0.3828 -0.9158
 3413SOL    HW221702   2.201   3.754  10.543  0.3393  1.1968 -1.6151
 3414SOL     OW21703   3.838   4.236  11.897 -0.2105  0.1773 -0.3910
 3414SOL    HW121704   3.875   4.243  11.809 -2.2110 -1.8140 -1.3794
 3414SOL    HW221705   3.916   4.263  11.946 -1.2550 -0.3337  1.5283
 3415SOL     OW21706   3.182   4.346   4.214 -0.4488  0.1905  0.7255
 3415SOL    HW121707   3.129   4.271   4.185 -0.0165 -0.6747  2.1430
 3415SOL    HW221708   3.235   4.306   4.283 -0.1013  0.0329  0.3640
 3416SOL     OW21709   0.991   1.795   4.792  0.0737  0.2634  0.1099
 3416SOL    HW121710   1.042   1.784   4.872  1.2015 -0.9060 -0.7761
 3416SOL    HW221711   1.064   1.812   4.732 -0.1764 -0.3370 -0.3689
 3417SOL     OW21712   2.677   0.939   6.982  0.1003  0.1809  0.4924
 3417SOL    HW121713   2.604   0.887   7.014  0.4477 -0.9114 -0.4738
 3417SOL    HW221714   2.718   0.969   7.063  0.0371  0.1200  0.5471
 3418SOL     OW21715   2.447   0.519   1.798 -0.1953  0.2277 -0.1867
 3418SOL    HW121716   2.381   0.547   1.734  0.9744  2.3546 -0.4585
 3418SOL    HW221717   2.512   0.475   1.744  1.3255  0.4371  1.4942
 3419SOL     OW21718   3.165   4.457   0.797  0.4146  0.0640 -0.5404
 3419SOL    HW121719   3.240   4.482   0.850  0.2839  1.0485 -0.8197
 3419SOL    HW221720   3.105   4.430   0.867 -1.4931 -1.2823 -2.7036
 3420SOL     OW21721   3.485   2.188   8.354  0.5741 -0.2234 -0.2806
 3420SOL    HW121722   3.405   2.229   8.321 -1.0733 -1.9389  1.5862
 3420SOL    HW221723   3.545   2.216   8.285  1.3436 -0.5257  0.2686
 3421SOL     OW21724   4.437   2.258   6.652 -0.7169  0.2709  0.5083
 3421SOL    HW121725   4.506   2.266   6.586 -2.6581  0.5950 -1.4850
 3421SOL    HW221726   4.382   2.186   6.621  1.1874 -0.4337 -1.2284
 3422SOL     OW21727   1.509   4.693  15.799  0.2481 -0.4755 -0.2420
 3422SOL    HW121728   1.552   0.015  15.728  1.0647 -0.2884  0.3748
 3422SOL    HW221729   1.526   4.605  15.767 -1.4192 -1.3492  1.2081
 3423SOL     OW21730   3.127   1.763   2.065 -0.5093 -0.5266  0.4785
 3423SOL    HW121731   3.089   1.683   2.102  1.4304 -1.3228  0.7264
 3423SOL    HW221732   3.056   1.775   2.001 -1.4393 -0.9796  1.4165
 3424SOL     OW21733   1.203   0.825   1.515  0.1848  0.3781 -0.1279
 3424SOL    HW121734   1.132   0.790   1.461  0.4238 -0.6898  0.2432
 3424SOL    HW221735   1.250   0.883   1.456  1.5667 -1.8917 -1.2452
 3425SOL     OW21736   1.745   3.896   3.274  0.4956 -0.1000 -0.6589
 3425SOL    HW121737   1.668   3.928   3.322  0.7583  1.8610 -1.5170
 3425SOL    HW221738   1.701   3.857   3.199 -1.1480  1.5744 -0.5641
 3426SOL     OW21739   3.990   4.134   4.926 -0.3142  0.6617 -0.1226
 3426SOL    HW121740   3.971   4.199   4.859 -0.5490  1.0632  0.3301
 3426SOL    HW221741   4.083   4.142   4.943 -0.1798 -3.8027  1.4215
 3427SOL     OW21742   1.628   3.083   7.155 -0.3087  0.1786 -0.1287
 3427SOL    HW121743   1.657   3.003   7.113 -0.4992  0.2990 -0.4882
 3427SOL    HW221744   1.537   3.059   7.174  0.2346 -0.2389  1.9541
 3428SOL     OW21745   3.470   0.505   6.565  0.1013 -0.0933  0.2698
 3428SOL    HW121746   3.455   0.411   6.570  0.2859 -0.1062  0.5211
 3428SOL    HW221747   3.379   0.530   6.581  0.9288  3.1395  0.0306
 3429SOL     OW21748   3.724   4.003   1.444  0.0218  0.4606 -0.4208
 3429SOL    HW121749   3.689   3.915   1.450  3.5406 -0.8774  0.7882
 3429SOL    HW221750   3.750   4.002   1.351 -1.4320 -0.5784 -0.8044
 3430SOL     OW21751   0.024   4.334  10.418 -0.0232  0.6838  0.4601
 3430SOL    HW121752   4.702   4.410  10.451 -1.2887 -0.9648  2.5111
 3430SOL    HW221753   4.700   4.313  10.338 -1.6421 -0.4701  1.7388
 3431SOL     OW21754   3.024   3.306   2.556  0.2183  0.2337  0.5485
 3431SOL    HW121755   3.072   3.226   2.577  1.4471  1.2229  1.5425
 3431SOL    HW221756   3.063   3.366   2.620 -0.7319  1.9181 -0.4464
 3432SOL     OW21757   2.773   3.178   2.610 -0.2499 -0.2177 -0.5270
 3432SOL    HW121758   2.852   3.225   2.581 -1.3120  0.7802 -1.8475
 3432SOL    HW221759   2.712   3.229   2.557  0.2083  1.7416  0.8179
 3433SOL     OW21760   2.098   2.148   4.979  0.4573  0.7755 -0.0888
 3433SOL    HW121761   2.117   2.211   4.909  0.7662 -1.3125 -1.8915
 3433SOL    HW221762   2.101   2.059   4.942 -0.0800 -0.0685  1.9136
 3434SOL     OW21763   2.227   3.996  14.719 -0.2614  0.0144 -0.1995
 3434SOL    HW121764   2.293   3.947  14.671  2.8460  0.3038  3.8651
 3434SOL    HW221765   2.167   3.928  14.752  2.0104 -0.9345  1.9415
 3435SOL     OW21766   0.230   3.179  14.428  0.1023  0.2537  0.8204
 3435SOL    HW121767   0.156   3.119  14.440  0.4330 -0.9619 -3.1046
 3435SOL    HW221768   0.178   3.248  14.386  0.3035 -0.0656  0.0350
 3436SOL     OW21769   0.290   3.433   6.788  0.1250 -0.1987  0.4098
 3436SOL    HW121770   0.218   3.439   6.725  1.2109  1.2128 -0.6949
 3436SOL    HW221771   0.241   3.422   6.870  0.9273  0.9555  1.0463
 3437SOL     OW21772   4.661   2.127   3.512  0.5237  0.5684  0.3495
 3437SOL    HW121773   4.690   2.090   3.595 -0.6549  0.2775  0.6360
 3437SOL    HW221774   4.719   2.075   3.457  0.5282  0.4562  0.4607
 3438SOL     OW21775   3.335   3.230  11.517  0.4836 -0.6091 -0.3665
 3438SOL    HW121776   3.365   3.267  11.434 -0.1301 -0.9414 -0.7339
 3438SOL    HW221777   3.260   3.177  11.489 -1.8911  1.9598  1.2012
 3439SOL     OW21778   2.843   0.469   8.324  0.2281  0.2815  0.5072
 3439SOL    HW121779   2.841   0.543   8.385  0.2164 -1.2166  2.3235
 3439SOL    HW221780   2.775   0.492   8.261 -0.1058 -1.0624  0.3625
 3440SOL     OW21781   3.443   4.367   2.558  0.1909 -0.0936 -0.1687
 3440SOL    HW121782   3.468   4.455   2.531  0.4686  0.0973  0.7305
 3440SOL    HW221783   3.350   4.378   2.578  0.7596  2.3878  1.1126
 3441SOL     OW21784   4.317   0.736   1.755 -0.6989  0.1688  0.2811
 3441SOL    HW121785   4.335   0.720   1.663 -1.5082 -0.3170  0.2106
 3441SOL    HW221786   4.285   0.654   1.792 -0.7975 -0.4079 -1.1016
 3442SOL     OW21787   1.116   2.294   5.840  0.0218 -0.4358  0.9840
 3442SOL    HW121788   1.130   2.388   5.850  3.8223 -0.5195 -3.7685
 3442SOL    HW221789   1.188   2.263   5.786 -1.2752 -1.1331 -0.3664
 3443SOL     OW21790   0.772   0.758   3.815 -0.2362 -0.5555 -0.7427
 3443SOL    HW121791   0.697   0.710   3.850  0.6374 -0.1242  1.7154
 3443SOL    HW221792   0.744   0.849   3.808  1.1804  0.1343  2.4205
 3444SOL     OW21793   1.766   3.336   9.187 -0.3752  0.2852 -0.0509
 3444SOL    HW121794   1.705   3.324   9.114 -0.5916  1.3439 -0.0445
 3444SOL    HW221795   1.821   3.409   9.158  1.2008 -1.4389 -1.3476
 3445SOL     OW21796   2.945   1.805   6.098 -0.2108 -0.2337  0.0653
 3445SOL    HW121797   2.893   1.725   6.094  0.9565 -1.1867  4.1901
 3445SOL    HW221798   2.876   1.867   6.074 -0.7576 -0.8018  0.2000
 3446SOL     OW21799   4.554   2.483   6.197  0.6817  0.1468  0.0607
 3446SOL    HW121800   4.539   2.578   6.195  0.6439  0.1371 -0.2501
 3446SOL    HW221801   4.507   2.450   6.120 -1.8205  1.1424  1.1498
 3447SOL     OW21802   3.401   2.691  13.266 -0.0997  0.4704 -0.0538
 3447SOL    HW121803   3.362   2.703  13.352  0.4214  0.3955  0.1974
 3447SOL    HW221804   3.467   2.624  13.286  0.7657  1.6012  0.8035
 3448SOL     OW21805   0.690   0.072   2.446  0.0753 -0.0189 -0.1024
 3448SOL    HW121806   0.627   0.143   2.458 -0.6370 -0.5330 -0.8405
 3448SOL    HW221807   0.772   0.116   2.472  0.6823 -0.3811 -1.4194
 3449SOL     OW21808   4.698   3.154   3.908 -0.0793  0.4844  0.3099
 3449SOL    HW121809   0.017   3.219   3.964  0.5218  1.0062 -0.7596
 3449SOL    HW221810   4.684   3.079   3.965  0.2592 -0.1459 -0.4306
 3450SOL     OW21811   3.499   1.258   7.073  0.4132  0.2133 -0.2233
 3450SOL    HW121812   3.564   1.328   7.073 -0.1609  0.7411  0.1875
 3450SOL    HW221813   3.528   1.195   7.006 -0.3011 -1.0925  0.7000
 3451SOL     OW21814   0.748   0.605   4.441  0.8013  0.3260  0.5002
 3451SOL    HW121815   0.739   0.600   4.346  1.7865 -1.4368  0.4810
 3451SOL    HW221816   0.657   0.607   4.470  0.4950  0.1193 -0.4559
 3452SOL     OW21817   2.196   3.796  15.646 -0.5767 -0.7702 -0.1034
 3452SOL    HW121818   2.206   3.738  15.722  1.5255  0.7290  0.7614
 3452SOL    HW221819   2.262   3.767  15.583 -0.1338  1.1051 -0.5003
 3453SOL     OW21820   1.916   1.535   4.625  0.2781  0.1978 -0.3821
 3453SOL    HW121821   1.937   1.493   4.542 -0.2456  1.4515 -1.1422
 3453SOL    HW221822   1.868   1.459   4.657  0.4448 -0.0698 -0.7635
 3454SOL     OW21823   3.194   2.836   9.822 -0.1335  1.0851  0.0867
 3454SOL    HW121824   3.214   2.822   9.730 -2.0800 -0.1439 -0.1456
 3454SOL    HW221825   3.101   2.811   9.825 -0.1761  1.0180 -1.7885
 3455SOL     OW21826   4.114   2.989   3.035 -0.4988  1.1294  0.2614
 3455SOL    HW121827   4.083   2.900   3.053 -2.5532  2.1991  2.0832
 3455SOL    HW221828   4.126   2.993   2.941  1.2528  0.1000  0.4355
 3456SOL     OW21829   0.195   2.256   3.543  0.4052 -0.7777  0.4384
 3456SOL    HW121830   0.147   2.174   3.547  2.9405 -2.3598 -1.1257
 3456SOL    HW221831   0.236   2.244   3.457  0.2060  1.6423  0.0105
 3457SOL     OW21832   1.889   3.859   4.505  0.3547  0.0876  0.2582
 3457SOL    HW121833   1.954   3.918   4.468  1.5942 -2.8286 -2.2207
 3457SOL    HW221834   1.925   3.862   4.594  1.4617  1.3016 -0.2270
 3458SOL     OW21835   1.395   4.330   5.573  0.3195  0.2428  0.1820
 3458SOL    HW121836   1.457   4.280   5.520 -0.4071 -2.6736  2.1228
 3458SOL    HW221837   1.402   4.286   5.658 -0.8660 -1.9160 -0.8567
 3459SOL     OW21838   3.972   1.208   1.743 -0.1685  0.4750  0.0357
 3459SOL    HW121839   3.877   1.219   1.740 -0.0362  1.8872  1.4624
 3459SOL    HW221840   3.983   1.225   1.836 -2.1112  3.0971 -0.2221
 3460SOL     OW21841   1.225   0.172   5.877 -1.1000 -0.5497  0.8010
 3460SOL    HW121842   1.253   0.122   5.800 -2.9844  0.6433 -0.6550
 3460SOL    HW221843   1.310   0.190   5.917 -1.1248  0.3334  0.4486
 3461SOL     OW21844   1.663   0.625  14.524 -0.0756  0.0735  0.1284
 3461SOL    HW121845   1.588   0.570  14.501 -0.2567  1.1891 -1.9401
 3461SOL    HW221846   1.724   0.590  14.459  2.5253  0.7473  2.1855
 3462SOL     OW21847   1.445   2.009   8.446  0.1207 -0.0110 -0.3901
 3462SOL    HW121848   1.483   2.080   8.497  0.8780 -0.0841 -0.8591
 3462SOL    HW221849   1.398   1.951   8.505  0.3699  1.6345  1.4311
 3463SOL     OW21850   4.421   4.038   4.418  0.1350  0.2205 -0.0341
 3463SOL    HW121851   4.467   4.083   4.347 -0.9443 -0.9197 -1.4559
 3463SOL    HW221852   4.493   4.044   4.481 -1.0919 -0.2938  1.4127
 3464SOL     OW21853   4.619   3.394   8.534  0.1559  0.6299  0.2677
 3464SOL    HW121854   4.581   3.476   8.502  2.4601  1.2171 -0.9788
 3464SOL    HW221855   4.664   3.368   8.453 -0.4008  0.1942  0.1003
 3465SOL     OW21856   0.848   1.832   4.162 -0.4953 -0.2110  0.4980
 3465SOL    HW121857   0.909   1.905   4.150  0.9303 -1.5761 -0.4938
 3465SOL    HW221858   0.883   1.773   4.095 -1.4812  0.1195 -0.2976
 3466SOL     OW21859   2.689   0.442   1.556 -0.0416  0.1534  0.3056
 3466SOL    HW121860   2.730   0.361   1.525  1.6247  0.7533  0.9531
 3466SOL    HW221861   2.754   0.471   1.620 -0.3067  1.2210  0.0890
 3467SOL     OW21862   2.739   0.761   8.746 -0.0524 -0.3421 -0.0695
 3467SOL    HW121863   2.749   0.768   8.841  0.5598  0.0035 -0.1595
 3467SOL    HW221864   2.649   0.794   8.744  0.1396  0.2278  0.7661
 3468SOL     OW21865   3.251   2.232   6.331  0.5295 -0.0181 -0.2020
 3468SOL    HW121866   3.157   2.246   6.320 -0.1932 -2.0036  3.4112
 3468SOL    HW221867   3.272   2.242   6.238  1.7920  1.7960  0.2730
 3469SOL     OW21868   1.727   1.925   6.129 -0.2606  0.3133  0.0755
 3469SOL    HW121869   1.660   1.860   6.111  0.6952 -1.2812  2.2273
 3469SOL    HW221870   1.680   1.996   6.172  0.9333  0.1060  1.7334
 3470SOL     OW21871   1.712   3.477   4.903 -0.0032 -0.8400  0.2559
 3470SOL    HW121872   1.648   3.543   4.877  1.7530  0.2731 -1.1943
 3470SOL    HW221873   1.700   3.493   4.997  0.6053 -1.3404  0.4168
 3471SOL     OW21874   1.632   2.090   7.777  0.4572 -0.0701  0.5727
 3471SOL    HW121875   1.678   2.053   7.702 -2.3083  0.3666 -1.3510
 3471SOL    HW221876   1.662   2.040   7.853  0.3018  0.6883  1.1254
 3472SOL     OW21877   0.411   0.411   3.622  0.4391  0.1796 -0.1997
 3472SOL    HW121878   0.474   0.469   3.663 -0.0834  1.9270 -1.8673
 3472SOL    HW221879   0.416   0.332   3.676 -2.3531 -0.9052 -1.4962
 3473SOL     OW21880   4.545   0.262   2.882  0.7367  0.2840 -0.5764
 3473SOL    HW121881   4.502   0.212   2.951 -0.8192 -0.3223 -1.9661
 3473SOL    HW221882   4.492   0.247   2.803 -0.0201 -0.1593  0.0106
 3474SOL     OW21883   1.296   3.861  15.719  0.1220  0.2599  0.0157
 3474SOL    HW121884   1.272   3.775  15.754 -0.0405 -0.0779 -0.9273
 3474SOL    HW221885   1.329   3.905  15.797  2.5157  1.1315 -1.4933
 3475SOL     OW21886   0.968   3.128   6.601  0.8050  0.0424 -0.5213
 3475SOL    HW121887   0.937   3.213   6.568 -0.0212  0.1157  0.4472
 3475SOL    HW221888   1.000   3.077   6.526 -0.9282  0.3327 -1.4578
 3476SOL     OW21889   2.394   3.810   3.788  0.5373  0.2820  0.1381
 3476SOL    HW121890   2.378   3.904   3.789 -2.6858 -0.2658  0.6218
 3476SOL    HW221891   2.461   3.798   3.720  0.7278  2.1393  0.0067
 3477SOL     OW21892   2.269   2.535  16.655  0.1667  0.3103  0.2580
 3477SOL    HW121893   2.301   2.625  16.652 -2.8046  1.3056 -0.7673
 3477SOL    HW221894   2.348   2.489  16.628  0.5827  1.4133 -0.4167
 3478SOL     OW21895   3.964   0.681  14.232  0.7483 -0.4848 -0.1180
 3478SOL    HW121896   3.912   0.619  14.181  1.2852  0.7871 -2.2052
 3478SOL    HW221897   3.935   0.762  14.192 -0.0649 -0.7486 -0.0600
 3479SOL     OW21898   1.049   1.901   3.383 -0.4960  0.4270  0.0488
 3479SOL    HW121899   0.990   1.972   3.411  0.2165  1.3196 -0.7129
 3479SOL    HW221900   1.044   1.927   3.291 -0.0511 -2.4701 -0.7739
 3480SOL     OW21901   2.115   4.178  14.507  0.3602 -0.0005  0.0164
 3480SOL    HW121902   2.154   4.165  14.594  0.2698  1.8641  0.3233
 3480SOL    HW221903   2.159   4.257  14.477  0.4601 -0.3670 -0.7994
 3481SOL     OW21904   3.900   4.139   5.527  0.1670  0.1210  0.0871
 3481SOL    HW121905   3.941   4.067   5.576 -0.5724  0.1746  0.7905
 3481SOL    HW221906   3.946   4.131   5.444  1.0472 -0.9893  0.6701
 3482SOL     OW21907   1.799   1.940   3.257  0.1298  0.3329 -0.3116
 3482SOL    HW121908   1.841   1.882   3.194 -0.7861 -1.0107  0.3252
 3482SOL    HW221909   1.750   1.869   3.299  0.9644 -0.7786 -1.2241
 3483SOL     OW21910   3.313   0.134   3.339  0.2505  0.1031  0.0637
 3483SOL    HW121911   3.319   0.043   3.370  0.2610 -0.1511 -0.6748
 3483SOL    HW221912   3.326   0.117   3.246 -0.8887 -1.4687  0.1932
 3484SOL     OW21913   3.476   4.505   9.742 -0.7300  0.1495  0.0632
 3484SOL    HW121914   3.412   4.436   9.724  0.9761 -1.4004 -0.1034
 3484SOL    HW221915   3.499   4.526   9.652  3.3168 -0.4201  0.9695
 3485SOL     OW21916   1.381   4.037  10.192  0.2287 -0.4778 -0.0439
 3485SOL    HW121917   1.347   4.023  10.281 -2.8183 -1.4082 -1.3750
 3485SOL    HW221918   1.297   4.043  10.147  0.7678  0.3117 -0.9363
 3486SOL     OW21919   1.735   1.940   4.160  0.3057 -0.1662 -0.4722
 3486SOL    HW121920   1.806   1.905   4.214 -1.8254 -1.4311  1.5275
 3486SOL    HW221921   1.784   2.016   4.129 -1.1099  1.0090  0.1928
 3487SOL     OW21922   4.714   1.489  15.737  0.3393 -0.4091  0.3288
 3487SOL    HW121923   4.623   1.461  15.730  0.3204 -0.5609  1.0731
 3487SOL    HW221924   4.694   1.574  15.776  1.0565  0.4079 -1.1133
 3488SOL     OW21925   2.263   0.944  17.368 -0.4010 -0.7392 -0.2925
 3488SOL    HW121926   2.197   0.946  17.299 -0.4119  1.3990 -0.2271
 3488SOL    HW221927   2.324   1.017  17.353  0.1639 -0.6364  2.4612
 3489SOL     OW21928   2.344   2.477   1.050  0.0329 -0.2096 -0.6698
 3489SOL    HW121929   2.377   2.390   1.030 -1.6410 -1.0291  0.1050
 3489SOL    HW221930   2.302   2.457   1.134 -0.4917 -0.1234 -0.9108
 3490SOL     OW21931   2.399   0.148   8.515 -0.2154  0.0537 -0.2139
 3490SOL    HW121932   2.458   0.219   8.539 -0.9396  0.6684 -0.2406
 3490SOL    HW221933   2.446   0.104   8.444  0.4421 -2.9085  2.0949
 3491SOL     OW21934   3.841   0.022  15.389 -0.6186  0.2488  0.0957
 3491SOL    HW121935   3.853   4.720  15.298  2.3027  0.8320  0.2869
 3491SOL    HW221936   3.796   0.105  15.376  1.1455  1.6580  2.9859
 3492SOL     OW21937   0.320   2.259   3.264  0.0365 -0.4253  0.4815
 3492SOL    HW121938   0.328   2.352   3.282  1.7128 -0.3055 -0.9295
 3492SOL    HW221939   0.412   2.237   3.249 -0.1520 -1.0068  0.1526
 3493SOL     OW21940   3.008   0.196   6.947 -0.1535 -0.4326 -0.1770
 3493SOL    HW121941   3.010   0.105   6.977 -0.0229 -0.3406  0.0902
 3493SOL    HW221942   2.981   0.179   6.857  0.0139  1.0623 -0.5206
 3494SOL     OW21943   3.798   2.579  16.495 -0.4213 -0.8604 -0.5905
 3494SOL    HW121944   3.844   2.505  16.455  0.7075 -0.4997  0.0382
 3494SOL    HW221945   3.756   2.625  16.422  1.3762 -0.8722 -1.6311
 3495SOL     OW21946   0.275   2.710  17.327 -0.3067  0.4283  0.2622
 3495SOL    HW121947   0.302   2.800  17.310  0.8255 -0.0790 -0.6717
 3495SOL    HW221948   0.220   2.725  17.404  0.6761 -0.2563  1.1106
 3496SOL     OW21949   2.065   0.384   8.807  0.1306 -0.5931 -0.5030
 3496SOL    HW121950   2.110   0.318   8.755  1.6001  0.8140 -1.0265
 3496SOL    HW221951   1.984   0.339   8.829 -0.0128 -1.1801 -2.2540
 3497SOL     OW21952   1.052   2.020   4.028 -0.3208 -0.2412 -0.2829
 3497SOL    HW121953   1.121   1.957   4.010 -0.0993 -0.3084  0.7708
 3497SOL    HW221954   1.003   2.014   3.947  2.4180  1.3763 -2.0625
 3498SOL     OW21955   1.812   4.130   1.697  0.1385  0.0779  0.2256
 3498SOL    HW121956   1.725   4.100   1.724 -0.1502  0.4460 -0.2936
 3498SOL    HW221957   1.863   4.050   1.682 -2.1401 -1.2237 -0.5214
 3499SOL     OW21958   2.651   0.487   9.268 -0.1624 -0.3483  0.9436
 3499SOL    HW121959   2.695   0.402   9.267 -0.5877 -0.5578 -0.3919
 3499SOL    HW221960   2.574   0.469   9.214  0.4092 -0.5263  0.1876
 3500SOL     OW21961   2.402   2.695   2.700 -0.2205  0.7518  0.3748
 3500SOL    HW121962   2.346   2.624   2.734  0.4561  0.2269  0.3884
 3500SOL    HW221963   2.356   2.708   2.618 -1.1622  2.2620  1.1416
 3501SOL     OW21964   3.494   4.689  12.465  0.9661  0.1788  0.0328
 3501SOL    HW121965   3.454   0.024  12.529  2.3244 -0.5063  1.5128
 3501SOL    HW221966   3.433   4.683  12.391  0.4354 -0.8802  0.5552
 3502SOL     OW21967   3.056   3.916   8.406 -0.1766 -0.2291 -0.1204
 3502SOL    HW121968   3.090   4.003   8.423 -0.7085  0.1243 -0.8716
 3502SOL    HW221969   2.979   3.942   8.355  0.1209  0.2068 -0.3462
 3503SOL     OW21970   3.039   1.051   5.317 -0.4458 -0.1807  0.2448
 3503SOL    HW121971   3.024   1.058   5.411  0.1134  0.8628  0.2562
 3503SOL    HW221972   3.130   1.024   5.314 -0.6478 -0.8911  0.5055
 3504SOL     OW21973   0.252   1.017   8.358 -0.7201  0.2405  0.5450
 3504SOL    HW121974   0.227   1.089   8.416  0.0363  1.1091 -0.2065
 3504SOL    HW221975   0.336   0.998   8.401 -0.0717 -0.6904 -1.1329
 3505SOL     OW21976   2.766   2.136   8.217 -0.2907 -0.4436 -0.0372
 3505SOL    HW121977   2.684   2.177   8.242 -0.4080 -0.4235 -0.4557
 3505SOL    HW221978   2.746   2.057   8.167  0.3914 -0.6109 -0.0453
 3506SOL     OW21979   3.060   1.057   9.427  0.2431 -0.0939 -0.0787
 3506SOL    HW121980   3.077   1.095   9.341 -0.3577 -2.3120 -1.1754
 3506SOL    HW221981   3.007   0.978   9.413 -1.0234  0.3628  2.0883
 3507SOL     OW21982   3.761   1.580  12.562 -0.3893  0.6715  0.0936
 3507SOL    HW121983   3.799   1.624  12.487  0.5443 -0.5951 -0.1802
 3507SOL    HW221984   3.680   1.544  12.525 -0.1809  0.5273 -0.2244
 3508SOL     OW21985   0.604   4.117  14.437 -0.6890 -0.1065  0.1148
 3508SOL    HW121986   0.536   4.057  14.468 -1.8166  0.3503 -1.5137
 3508SOL    HW221987   0.667   4.068  14.385 -0.2123  1.8670 -1.1617
 3509SOL     OW21988   2.714   1.564   5.390  0.1616  0.2736  0.3114
 3509SOL    HW121989   2.700   1.470   5.408 -1.6102  0.4546 -0.0857
 3509SOL    HW221990   2.801   1.572   5.428 -0.1224 -4.0246  1.9020
 3510SOL     OW21991   4.310   1.488   3.929 -0.0036 -0.1552 -0.1556
 3510SOL    HW121992   4.396   1.525   3.914  0.2276 -0.8694 -0.6194
 3510SOL    HW221993   4.306   1.440   3.846  1.8394 -1.4881  0.5299
 3511SOL     OW21994   1.690   3.519   2.535 -0.4584 -0.0434 -0.0255
 3511SOL    HW121995   1.598   3.528   2.557 -1.1132 -1.6363 -2.0722
 3511SOL    HW221996   1.729   3.531   2.621  0.0455 -1.1596 -0.0965
 3512SOL     OW21997   2.025   0.482   4.886  0.1215  0.5532 -0.2560
 3512SOL    HW121998   1.945   0.465   4.837 -0.9092 -1.0535  1.9382
 3512SOL    HW221999   2.041   0.394   4.921 -2.5288 -0.1908 -0.9586
 3513SOL     OW22000   0.816   3.633   4.272 -0.5372 -0.3730  0.6029
 3513SOL    HW122001   0.833   3.726   4.255  0.2684 -0.5447  0.5038
 3513SOL    HW222002   0.833   3.586   4.191  1.9608  2.8457 -0.7030
 3514SOL     OW22003   4.031   2.463  12.450 -0.7090  0.3785  0.6067
 3514SOL    HW122004   3.985   2.448  12.368  0.1385 -0.8636  0.3577
 3514SOL    HW222005   4.101   2.519  12.416 -1.6544 -0.4377 -2.7214
 3515SOL     OW22006   1.937   0.164   1.017 -0.0807  1.1567 -0.3598
 3515SOL    HW122007   1.930   0.259   1.023  0.8043  1.2050 -0.1043
 3515SOL    HW222008   2.008   0.144   1.079  0.7714 -0.9343 -1.9940
 3516SOL     OW22009   3.875   1.053   6.016 -0.4943  0.1820  0.0653
 3516SOL    HW122010   3.824   0.975   6.036  0.8387 -0.3880  1.2073
 3516SOL    HW222011   3.804   1.087   5.961 -0.6550  0.0524  0.1906
 3517SOL     OW22012   1.124   1.152   7.638  0.0141 -0.7409  0.2808
 3517SOL    HW122013   1.112   1.245   7.619  3.7246 -0.3150  0.0645
 3517SOL    HW222014   1.051   1.125   7.693  1.1573  2.1747  3.2208
 3518SOL     OW22015   3.658   0.552   3.549 -0.4907 -0.1753  0.0315
 3518SOL    HW122016   3.581   0.544   3.605 -1.0613  0.3635 -0.6838
 3518SOL    HW222017   3.712   0.611   3.602 -0.2005  0.9922 -1.5520
 3519SOL     OW22018   4.348   1.289   4.442 -0.0091 -0.7815  1.2819
 3519SOL    HW122019   4.341   1.339   4.523 -1.6001  3.3050 -1.3887
 3519SOL    HW222020   4.256   1.266   4.423  0.0360  0.2472 -0.1721
 3520SOL     OW22021   0.251   3.428   7.724  0.4753  0.2958 -0.2197
 3520SOL    HW122022   0.212   3.483   7.792  1.1198  1.7276 -1.0129
 3520SOL    HW222023   0.255   3.347   7.775 -0.4808  0.6356  0.3993
 3521SOL     OW22024   1.440   1.559   5.582 -0.6341 -0.0322 -0.6332
 3521SOL    HW122025   1.509   1.615   5.546  1.7920 -1.7300  1.3547
 3521SOL    HW222026   1.478   1.472   5.568  1.0068  0.6586 -0.3985
 3522SOL     OW22027   0.781   4.444   8.383  0.1434 -0.0437 -0.2630
 3522SOL    HW122028   0.841   4.397   8.326 -0.2621 -0.4578 -0.3469
 3522SOL    HW222029   0.706   4.442   8.324 -0.1027  0.1326  0.0392
 3523SOL     OW22030   0.882   0.480   6.408 -0.0399 -0.3914  0.0577
 3523SOL    HW122031   0.841   0.465   6.493 -0.3737 -0.4244 -0.1087
 3523SOL    HW222032   0.940   0.404   6.417  3.2016  1.8569 -1.6584
 3524SOL     OW22033   1.446   4.541   4.157  0.3447  0.1580 -0.7213
 3524SOL    HW122034   1.494   4.580   4.230 -0.4709 -0.2213  0.0196
 3524SOL    HW222035   1.436   4.614   4.096 -0.2176 -1.3893 -2.4809
 3525SOL     OW22036   0.842   4.280  10.469  0.4313  0.1502  0.1233
 3525SOL    HW122037   0.807   4.309  10.554 -0.4572  0.8717 -0.5015
 3525SOL    HW222038   0.872   4.192  10.491  0.1494  0.0455  0.0920
 3526SOL     OW22039   3.685   0.299   6.207  0.1289  0.8639  0.1664
 3526SOL    HW122040   3.761   0.257   6.167  1.1060  3.2297 -0.4518
 3526SOL    HW222041   3.711   0.349   6.284 -1.0421 -0.8595  1.6750
 3527SOL     OW22042   2.563   0.887   5.204  0.5378  0.1290  0.3546
 3527SOL    HW122043   2.643   0.895   5.255  0.3219 -0.4201  0.7817
 3527SOL    HW222044   2.598   0.856   5.120  1.8510 -1.0417  1.3362
 3528SOL     OW22045   0.936   3.011   1.671  0.5509  0.2036  0.2740
 3528SOL    HW122046   0.871   2.951   1.635  0.7917 -0.5463  1.0910
 3528SOL    HW222047   0.999   3.003   1.600  0.6396  0.4734  0.3211
 3529SOL     OW22048   2.350   1.602   2.681 -0.2142 -0.4907  0.9571
 3529SOL    HW122049   2.308   1.575   2.763  0.7687 -1.4979  1.1288
 3529SOL    HW222050   2.275   1.593   2.622  0.4774  2.6356 -0.4011
 3530SOL     OW22051   2.146   1.760   5.778 -0.4591 -0.4764 -0.2201
 3530SOL    HW122052   2.068   1.752   5.833  0.7633 -1.1786  1.4225
 3530SOL    HW222053   2.102   1.721   5.702 -0.8127 -0.4553 -0.0264
 3531SOL     OW22054   3.468   2.828   6.288  0.5502  0.5933  0.1558
 3531SOL    HW122055   3.489   2.769   6.361  1.6864 -0.2819 -0.8901
 3531SOL    HW222056   3.380   2.791   6.286  0.5661  0.4758  1.1760
 3532SOL     OW22057   4.301   1.191   2.212  0.6324  0.2953  0.1584
 3532SOL    HW122058   4.314   1.273   2.260 -2.5756  0.0175  1.5350
 3532SOL    HW222059   4.382   1.178   2.163 -0.1332  0.6149 -1.1851
 3533SOL     OW22060   3.708   2.800   4.756 -0.0873  0.0652  0.7434
 3533SOL    HW122061   3.615   2.821   4.755 -0.0702  0.0438 -2.3727
 3533SOL    HW222062   3.711   2.746   4.835 -0.9297 -1.8245 -0.5297
 3534SOL     OW22063   4.615   2.648   7.581  0.1571  0.2398 -0.5602
 3534SOL    HW122064   4.704   2.630   7.548 -0.1138  0.4093 -1.3831
 3534SOL    HW222065   4.601   2.740   7.558 -1.4863  0.2141  0.3838
 3535SOL     OW22066   4.412   4.499   7.751  0.2838 -0.2275 -0.7521
 3535SOL    HW122067   4.494   4.484   7.703 -0.6708  0.8380 -2.7022
 3535SOL    HW222068   4.384   4.408   7.765  0.2002 -0.2436 -1.0243
 3536SOL     OW22069   3.644   1.753  13.654 -1.0270 -0.7763 -0.1645
 3536SOL    HW122070   3.730   1.766  13.694 -0.9282 -1.1318 -0.2554
 3536SOL    HW222071   3.608   1.835  13.686  0.9421  0.3993 -0.9225
 3537SOL     OW22072   3.910   3.259   6.105  0.5121  0.2936 -0.2024
 3537SOL    HW122073   3.837   3.285   6.161 -0.2381 -0.2142 -0.9372
 3537SOL    HW222074   3.988   3.300   6.143  1.1089  0.0503 -1.1594
 3538SOL     OW22075   1.237   0.260   2.917  0.0873 -0.2647  0.1070
 3538SOL    HW122076   1.314   0.282   2.864 -0.4280  1.9305  0.2835
 3538SOL    HW222077   1.214   0.346   2.954 -1.9844 -0.4441 -0.7526
 3539SOL     OW22078   2.783   0.743   4.006 -0.4336 -0.7624  0.1595
 3539SOL    HW122079   2.789   0.675   3.938 -2.0729 -2.1883  1.4421
 3539SOL    HW222080   2.839   0.694   4.067  0.6658 -1.3054 -1.2927
 3540SOL     OW22081   4.722   0.647   3.952  0.3367  0.6630  0.7566
 3540SOL    HW122082   0.059   0.575   3.967  3.1658  3.2918  1.8009
 3540SOL    HW222083   4.632   0.620   3.967  0.7391 -1.5225 -0.7135
 3541SOL     OW22084   3.314   4.376   3.923  0.3390 -0.3265 -0.3889
 3541SOL    HW122085   3.372   4.312   3.965 -0.8051 -1.5199 -0.6225
 3541SOL    HW222086   3.282   4.429   3.995 -2.3290  0.5561 -2.2193
 3542SOL     OW22087   3.884   0.468   3.254 -0.5620 -0.0327 -0.2326
 3542SOL    HW122088   3.819   0.417   3.302  0.9745 -1.0809  0.7268
 3542SOL    HW222089   3.858   0.461   3.162  1.4704  1.0419 -0.8862
 3543SOL     OW22090   4.128   4.293   5.588 -0.1181  0.4671  0.0167
 3543SOL    HW122091   4.081   4.248   5.518  1.0654  0.6781 -0.9056
 3543SOL    HW222092   4.078   4.375   5.583  1.0623  1.1775 -0.0006
 3544SOL     OW22093   3.770   4.521  14.605 -0.3973  0.5086 -0.4930
 3544SOL    HW122094   3.685   4.486  14.631 -0.0561  0.2418  0.2410
 3544SOL    HW222095   3.760   4.612  14.633  1.3240  0.5622 -0.0450
 3545SOL     OW22096   0.301   2.083   6.275 -0.6264  0.3000 -0.0714
 3545SOL    HW122097   0.217   2.117   6.244 -1.0930 -0.7481  0.0510
 3545SOL    HW222098   0.280   1.993   6.299  0.0206  0.4353  1.0169
 3546SOL     OW22099   2.458   0.148  16.980 -0.3820  0.2555 -0.5197
 3546SOL    HW122100   2.494   0.186  17.061  0.5836 -0.1619 -0.7519
 3546SOL    HW222101   2.515   0.071  16.978  1.4277  1.5517  0.1056
 3547SOL     OW22102   4.699   3.404   2.800  0.3436  0.1303 -0.1242
 3547SOL    HW122103   0.008   3.314   2.792 -0.5879 -0.2123 -0.2016
 3547SOL    HW222104   4.707   3.403   2.895  1.1707  2.6551 -0.1848
 3548SOL     OW22105   2.767   0.448   6.469 -0.2379  0.0376 -0.4303
 3548SOL    HW122106   2.674   0.430   6.476  0.1655 -0.7240  3.3106
 3548SOL    HW222107   2.775   0.521   6.531  1.7502 -2.0465  1.7980
 3549SOL     OW22108   0.531   2.490  15.627  0.5129  0.0315  0.6266
 3549SOL    HW122109   0.565   2.421  15.569  0.2283  0.0956  0.3800
 3549SOL    HW222110   0.447   2.458  15.662  1.5427 -1.5459  1.6542
 3550SOL     OW22111   1.461   2.466   5.504 -0.0683 -0.4738 -0.0915
 3550SOL    HW122112   1.374   2.506   5.502 -0.7402 -1.9360 -0.8763
 3550SOL    HW222113   1.467   2.418   5.421  0.4788  2.5064 -1.7462
 3551SOL     OW22114   3.069   2.090   5.557  0.3789  0.0386 -0.6954
 3551SOL    HW122115   2.992   2.045   5.521  1.6132 -1.8269 -0.9912
 3551SOL    HW222116   3.026   2.151   5.617  2.5728  2.3167 -1.4559
 3552SOL     OW22117   0.977   2.298   7.685 -0.0211 -0.6278 -0.1069
 3552SOL    HW122118   0.934   2.260   7.609  0.5109  1.8196 -1.6447
 3552SOL    HW222119   1.043   2.232   7.705 -0.5067 -1.2253 -0.5176
 3553SOL     OW22120   0.873   3.419   1.979 -0.7435 -0.3715  0.1219
 3553SOL    HW122121   0.929   3.472   1.922  1.6691 -2.6818  0.2949
 3553SOL    HW222122   0.855   3.351   1.914  1.7564 -1.2631  0.3511
 3554SOL     OW22123   0.442   0.803   5.651  0.4950  0.4472 -0.0588
 3554SOL    HW122124   0.362   0.805   5.702  1.2464 -1.4863  1.1969
 3554SOL    HW222125   0.498   0.765   5.719 -2.0304 -0.5687  1.4635
 3555SOL     OW22126   1.260   0.626   9.090  0.4198  0.4814  0.2853
 3555SOL    HW122127   1.312   0.624   9.171  1.1131  0.2713 -0.1705
 3555SOL    HW222128   1.314   0.582   9.025  0.3546  1.8665 -0.7173
 3556SOL     OW22129   4.018   0.117   2.290  0.0958 -0.4463  0.1014
 3556SOL    HW122130   4.028   0.155   2.377  1.1166 -0.1624 -0.1327
 3556SOL    HW222131   3.931   0.080   2.302 -0.7819  1.1620 -1.3166
 3557SOL     OW22132   4.635   3.684   3.172 -0.7546 -0.6780 -0.4468
 3557SOL    HW122133   4.699   3.745   3.136  1.5077 -2.9752 -0.3394
 3557SOL    HW222134   4.692   3.610   3.196 -0.0701 -0.3372 -1.0425
 3558SOL     OW22135   4.529   0.361   1.004  0.1265  0.0523 -0.2780
 3558SOL    HW122136   4.584   0.289   0.974 -1.1592 -0.7910 -0.6053
 3558SOL    HW222137   4.587   0.380   1.078 -0.1391 -0.5151  0.0780
 3559SOL     OW22138   1.201   1.128   6.175  0.0857 -0.1678  0.1876
 3559SOL    HW122139   1.173   1.176   6.253  1.3182  2.4473 -0.9705
 3559SOL    HW222140   1.289   1.095   6.191  0.8137  0.7003 -2.0010
 3560SOL     OW22141   0.183   2.233   8.040  0.1374  0.7596  0.2935
 3560SOL    HW122142   0.112   2.282   7.998  0.7658  0.8569 -0.6535
 3560SOL    HW222143   0.180   2.283   8.122  1.0184  0.6188  0.4135
 3561SOL     OW22144   0.688   0.617   3.180 -0.0147 -0.3756  0.1482
 3561SOL    HW122145   0.719   0.690   3.235 -1.4519  0.4020 -0.0776
 3561SOL    HW222146   0.768   0.600   3.131  0.6719  1.1875  0.7122
 3562SOL     OW22147   1.915   3.956   7.820  0.2513  0.4325  0.5288
 3562SOL    HW122148   1.882   3.985   7.905 -2.3553 -0.1384 -0.3146
 3562SOL    HW222149   1.979   3.885   7.832  0.9022  0.5989 -2.0868
 3563SOL     OW22150   0.572   3.935   7.805 -0.9238  0.6008 -0.2513
 3563SOL    HW122151   0.593   4.028   7.812 -1.5529  0.6346  1.1607
 3563SOL    HW222152   0.539   3.908   7.890  1.0678 -1.1788 -0.0510
 3564SOL     OW22153   4.692   3.100   8.711  0.2679  0.5762  0.2648
 3564SOL    HW122154   4.668   3.031   8.772  0.7251 -0.2125 -0.4537
 3564SOL    HW222155   4.678   3.065   8.623  0.7418  2.0896 -0.4133
 3565SOL     OW22156   2.831   2.426   8.473  0.8064 -0.1470  0.2971
 3565SOL    HW122157   2.845   2.519   8.492 -0.0937 -0.0749  0.6142
 3565SOL    HW222158   2.834   2.422   8.377  0.2363  0.0135  0.2681
 3566SOL     OW22159   3.647   4.465  15.495  0.3217  0.3756  0.0508
 3566SOL    HW122160   3.737   4.499  15.497  0.5769 -0.2311 -0.9583
 3566SOL    HW222161   3.602   4.541  15.458  1.0474  0.2764 -1.0368
 3567SOL     OW22162   4.279   3.218   1.980  0.0413 -0.9069  0.4757
 3567SOL    HW122163   4.313   3.292   2.029 -1.0894 -0.1768  0.1574
 3567SOL    HW222164   4.270   3.248   1.890  0.0755 -1.3631  0.3183
 3568SOL     OW22165   0.055   1.844   8.949 -0.2804 -0.0948  0.4538
 3568SOL    HW122166   0.151   1.845   8.948 -0.2855 -0.7774 -0.4509
 3568SOL    HW222167   0.033   1.751   8.947  0.0046 -0.1583  0.2616
 3569SOL     OW22168   2.668   1.999  13.794 -1.2713 -0.1188 -0.3322
 3569SOL    HW122169   2.699   2.064  13.857 -0.4919 -1.8596  1.1172
 3569SOL    HW222170   2.599   2.041  13.743 -0.9485  1.0087  0.1792
 3570SOL     OW22171   1.287   3.093   3.829 -0.1982 -0.2663 -0.2103
 3570SOL    HW122172   1.226   3.057   3.764 -1.9296 -0.4266  1.4977
 3570SOL    HW222173   1.272   3.185   3.808  1.6632 -0.1306 -0.9424
 3571SOL     OW22174   4.272   2.023   6.624 -0.0777 -0.0805  0.2919
 3571SOL    HW122175   4.293   1.984   6.709  2.0501 -1.1784 -0.7250
 3571SOL    HW222176   4.274   1.951   6.562 -2.3135  0.0106  0.1311
 3572SOL     OW22177   0.350   4.377  13.401 -0.1281  0.6896 -0.3541
 3572SOL    HW122178   0.379   4.468  13.392  1.2038  0.2506 -0.4868
 3572SOL    HW222179   0.260   4.389  13.431  0.4408 -1.5603  2.2390
 3573SOL     OW22180   1.442   3.929   2.570  0.0148 -0.8743 -0.1901
 3573SOL    HW122181   1.370   3.902   2.627 -0.7956 -0.9261 -1.2352
 3573SOL    HW222182   1.413   3.904   2.483  0.3104 -2.1724  0.0735
 3574SOL     OW22183   0.934   1.363   7.546  0.3610  0.0168 -0.7066
 3574SOL    HW122184   0.899   1.330   7.464  1.5835 -1.1807 -0.7349
 3574SOL    HW222185   0.880   1.311   7.606 -1.0129  2.5158  0.2417
 3575SOL     OW22186   1.825   1.623   2.619  0.6959 -0.4186 -0.1846
 3575SOL    HW122187   1.784   1.695   2.572  3.3101  1.5116  0.5011
 3575SOL    HW222188   1.885   1.667   2.679  0.9808 -0.2829 -0.5672
 3576SOL     OW22189   0.273   3.594   8.919 -0.0505 -0.7139 -0.2061
 3576SOL    HW122190   0.197   3.580   8.863 -1.1431  2.1263  0.5736
 3576SOL    HW222191   0.337   3.547   8.866  2.6259  2.3567  0.3271
 3577SOL     OW22192   2.206   3.326   3.902  0.2792  0.4068  0.0571
 3577SOL    HW122193   2.201   3.416   3.871 -0.1811 -0.3223 -2.0354
 3577SOL    HW222194   2.153   3.325   3.982 -1.0707 -3.2023 -0.8550
 3578SOL     OW22195   1.447   4.591   4.829 -0.2915  0.4307  0.0333
 3578SOL    HW122196   1.512   4.533   4.867  0.9526  0.9298 -1.3140
 3578SOL    HW222197   1.390   4.531   4.781 -0.1452  0.3397 -0.0259
 3579SOL     OW22198   1.939   4.700   7.116 -0.2053 -0.1332  0.1424
 3579SOL    HW122199   1.978   4.677   7.200 -0.2676  1.7467  0.7000
 3579SOL    HW222200   2.014   4.701   7.057  0.2826  0.1995  0.7642
 3580SOL     OW22201   0.246   0.363   8.952  0.0825 -0.4554  0.0677
 3580SOL    HW122202   0.275   0.291   9.008 -0.5527 -0.9683 -0.2645
 3580SOL    HW222203   0.302   0.439   8.970 -0.6881 -0.1361  1.2010
 3581SOL     OW22204   4.365   0.516  10.791  0.1291  0.0823 -0.2581
 3581SOL    HW122205   4.439   0.492  10.847 -1.0797 -0.9017  0.9076
 3581SOL    HW222206   4.393   0.596  10.746 -0.2333  0.3909  0.0617
 3582SOL     OW22207   0.166   2.889   8.969 -0.3816  0.5719 -0.5886
 3582SOL    HW122208   0.132   2.961   9.023 -2.9361 -1.1026  0.0755
 3582SOL    HW222209   0.100   2.821   8.983 -0.6386  0.2550 -3.2629
 3583SOL     OW22210   2.542   4.569  10.558 -0.1566  0.2904 -0.6193
 3583SOL    HW122211   2.477   4.628  10.520 -1.7470 -0.5227  0.7811
 3583SOL    HW222212   2.622   4.621  10.557 -0.3540  0.6498  1.8526
 3584SOL     OW22213   2.555   2.502   7.348  0.4032 -0.5252  0.0922
 3584SOL    HW122214   2.567   2.592   7.316  0.3131  0.5612  3.1203
 3584SOL    HW222215   2.637   2.466   7.313  0.9469  0.3575  0.4733
 3585SOL     OW22216   1.539   3.167   7.659  0.3890  0.0100  0.0066
 3585SOL    HW122217   1.507   3.239   7.605 -0.0850  0.0284  0.3028
 3585SOL    HW222218   1.555   3.210   7.743  0.1305 -1.4967  0.8199
 3586SOL     OW22219   2.411   0.075   7.287 -0.0781  0.0750 -0.5342
 3586SOL    HW122220   2.432   0.093   7.379  2.6143  3.2298 -1.7711
 3586SOL    HW222221   2.447   0.152   7.243  0.0776 -1.0568 -2.3748
 3587SOL     OW22222   2.580   2.888   7.572  0.7213  0.2740 -0.1513
 3587SOL    HW122223   2.576   2.903   7.667  3.0492 -0.2909  0.0522
 3587SOL    HW222224   2.660   2.839   7.552  0.7724  0.8874 -1.4139
 3588SOL     OW22225   2.251   3.122   0.372 -0.4074 -0.2116  0.1207
 3588SOL    HW122226   2.244   3.183   0.299  1.7455 -0.9988 -0.7518
 3588SOL    HW222227   2.302   3.051   0.332 -1.6962 -1.9775  1.5998
 3589SOL     OW22228   1.495   0.495   4.459  0.0780 -0.3414  0.0387
 3589SOL    HW122229   1.498   0.513   4.553  0.2575  0.6658 -0.1565
 3589SOL    HW222230   1.444   0.565   4.418 -0.4892 -0.3298  0.7824
 3590SOL     OW22231   0.945   3.489  16.185 -0.2943  0.1001 -0.1987
 3590SOL    HW122232   0.890   3.477  16.263 -0.3318  1.4543 -0.0240
 3590SOL    HW222233   1.019   3.438  16.216 -0.2396 -0.8904 -1.9525
 3591SOL     OW22234   3.144   2.924  16.627 -0.0109  0.0931  0.3968
 3591SOL    HW122235   3.190   2.846  16.659  1.6975  0.5203 -0.9751
 3591SOL    HW222236   3.150   2.976  16.707  2.6045  0.0325  0.2573
 3592SOL     OW22237   2.704   3.090  17.612 -0.7414 -0.1465 -0.2342
 3592SOL    HW122238   2.668   3.159  17.556  0.9451  1.6200  0.8633
 3592SOL    HW222239   2.792   3.088  17.574 -2.3223  1.0122 -4.0179
 3593SOL     OW22240   3.231   1.084  17.620  0.2133 -0.3285 -0.3055
 3593SOL    HW122241   3.166   1.019  17.647  1.4419 -2.3407 -2.2234
 3593SOL    HW222242   3.208   1.104  17.529  0.1085  2.2706  0.2969
 3594SOL     OW22243   3.025   3.184   6.788 -0.0112  0.2740 -0.6502
 3594SOL    HW122244   2.967   3.217   6.856 -0.3202 -1.1312 -0.2277
 3594SOL    HW222245   3.041   3.095   6.820 -1.0032  0.4596  0.3541
 3595SOL     OW22246   2.249   0.965   3.826 -0.5446 -0.0861 -0.5033
 3595SOL    HW122247   2.286   0.881   3.801 -0.0694 -0.6126  1.9732
 3595SOL    HW222248   2.302   1.026   3.775  1.1407 -0.4351  0.8301
 3596SOL     OW22249   0.562   0.664   0.723 -0.1887  0.0620  0.1585
 3596SOL    HW122250   0.474   0.697   0.705  0.5292  1.4885 -0.7350
 3596SOL    HW222251   0.554   0.569   0.726  0.9969 -0.0644 -0.5584
 3597SOL     OW22252   2.197   4.422   1.136 -0.3293  0.2299 -0.1199
 3597SOL    HW122253   2.275   4.477   1.125  0.7896 -1.1805  0.7017
 3597SOL    HW222254   2.179   4.422   1.230  0.1249 -0.8986 -0.0336
 3598SOL     OW22255   4.014   3.623  15.865 -0.3708  0.0029  0.4277
 3598SOL    HW122256   4.013   3.649  15.773 -0.7446 -1.8744 -0.0804
 3598SOL    HW222257   4.106   3.628  15.889 -0.3145  0.1800  0.1786
 3599SOL     OW22258   3.359   2.302   5.191 -0.2841 -0.1967 -0.0917
 3599SOL    HW122259   3.307   2.339   5.119  3.1306  2.7526 -1.0778
 3599SOL    HW222260   3.283   2.262   5.233 -0.4429  1.5002  1.2318
 3600SOL     OW22261   2.716   3.398   6.160  0.1859  0.1535 -0.2224
 3600SOL    HW122262   2.696   3.456   6.086 -1.6437 -0.4604 -0.2201
 3600SOL    HW222263   2.781   3.453   6.203 -0.9370  1.5570 -0.3134
 3601SOL     OW22264   0.731   2.955  12.281 -0.2951  0.6937 -0.4032
 3601SOL    HW122265   0.731   2.895  12.206  2.0388  1.0321 -0.6994
 3601SOL    HW222266   0.650   3.002  12.266  0.0617 -0.1759 -4.9105
 3602SOL     OW22267   0.064   3.427   5.823  0.2075  0.1387  0.0788
 3602SOL    HW122268   0.086   3.518   5.807 -0.4653  0.1825 -0.5854
 3602SOL    HW222269   0.107   3.391   5.745  0.6414 -1.5914  1.1129
 3603SOL     OW22270   2.039   3.519  13.890 -0.1953 -0.7907 -0.0234
 3603SOL    HW122271   2.022   3.564  13.973 -2.4573 -2.4573  0.4194
 3603SOL    HW222272   1.949   3.507  13.862 -0.1426 -1.0916 -0.0588
 3604SOL     OW22273   1.678   4.667   6.585  0.1651  0.0396  0.2689
 3604SOL    HW122274   1.679   4.643   6.677  2.3418  0.1008  0.2613
 3604SOL    HW222275   1.669   0.037   6.592  1.1546  0.0863  0.8892
 3605SOL     OW22276   3.966   4.583   3.971  0.6658 -0.5331 -0.0093
 3605SOL    HW122277   3.988   4.503   3.924  1.7598 -0.0770 -0.2858
 3605SOL    HW222278   3.885   4.619   3.936 -0.1001 -1.4927  0.7658
 3606SOL     OW22279   2.793   1.911  16.403 -0.6022  0.1558  0.2641
 3606SOL    HW122280   2.826   1.934  16.490 -1.9980  0.0217  0.8228
 3606SOL    HW222281   2.833   1.826  16.383  0.8259  0.7895  0.4010
 3607SOL     OW22282   3.275   2.022   4.464  0.2716 -0.1052 -0.3100
 3607SOL    HW122283   3.305   1.963   4.395  0.8561  0.4763 -0.5507
 3607SOL    HW222284   3.346   2.039   4.526 -0.4043 -1.5961  0.8745
 3608SOL     OW22285   2.295   3.276   7.572 -0.0793  0.4153 -0.5764
 3608SOL    HW122286   2.249   3.266   7.488  1.1153 -1.5376 -0.9932
 3608SOL    HW222287   2.231   3.331   7.617  0.2479 -0.7096  1.2692
 3609SOL     OW22288   1.906   0.220  13.101 -0.0041  0.1677 -0.7305
 3609SOL    HW122289   1.937   0.310  13.113 -0.3749  0.4425 -1.8383
 3609SOL    HW222290   1.935   0.206  13.011  0.6678 -1.3921 -0.2874
 3610SOL     OW22291   0.943   0.015   3.194  0.0634  0.2718 -0.0399
 3610SOL    HW122292   0.854   0.029   3.160 -0.3550  0.3438  1.0897
 3610SOL    HW222293   0.971   4.687   3.119  0.6665  0.2478  0.2035
 3611SOL     OW22294   2.170   4.455   3.153 -0.3330  0.2501 -0.0246
 3611SOL    HW122295   2.259   4.421   3.152 -1.0501 -1.6096 -1.5620
 3611SOL    HW222296   2.183   4.549   3.157  2.1669 -0.1118  0.2033
 3612SOL     OW22297   2.534   4.122  11.351 -0.5053  0.6353  0.5944
 3612SOL    HW122298   2.509   4.214  11.342  1.5438  1.1134 -0.1818
 3612SOL    HW222299   2.629   4.125  11.355 -0.5286  1.3140  0.6666
 3613SOL     OW22300   3.613   4.103   7.535  0.2847 -0.3154  0.3921
 3613SOL    HW122301   3.575   4.132   7.452  0.4642 -0.7555  0.1521
 3613SOL    HW222302   3.632   4.010   7.520  1.3722 -0.2746  1.5187
 3614SOL     OW22303   3.721   4.049  17.303  0.8543  0.1995 -0.3915
 3614SOL    HW122304   3.749   4.038  17.212 -0.6121 -1.7178 -0.6180
 3614SOL    HW222305   3.766   3.971  17.335 -0.4020 -0.1147  0.6138
 3615SOL     OW22306   2.493   0.135   4.215  0.8012  0.3266 -0.2370
 3615SOL    HW122307   2.456   0.139   4.304  1.6481 -2.5722  0.2260
 3615SOL    HW222308   2.436   0.191   4.163  1.0823  1.2265  0.4169
 3616SOL     OW22309   0.737   0.288  11.950  0.0707 -0.4812 -0.0401
 3616SOL    HW122310   0.821   0.254  11.918 -0.3611  0.6375 -2.3105
 3616SOL    HW222311   0.742   0.376  11.912  1.2044 -0.4168  0.2525
 3617SOL     OW22312   0.979   3.009   9.127 -0.0765  0.0895 -0.1691
 3617SOL    HW122313   0.959   2.981   9.037  3.2436  0.1742 -0.9157
 3617SOL    HW222314   0.890   3.019   9.162 -0.9964  0.5202 -2.6420
 3618SOL     OW22315   4.576   3.555  11.718 -0.4625  0.0976 -0.3486
 3618SOL    HW122316   4.521   3.508  11.781  1.2026  0.2760  1.2208
 3618SOL    HW222317   4.635   3.485  11.691  0.8006  0.8857  0.3832
 3619SOL     OW22318   1.469   0.557   1.469 -0.4755 -0.2054 -0.7819
 3619SOL    HW122319   1.448   0.612   1.393  0.4589  0.7003 -0.3901
 3619SOL    HW222320   1.381   0.558   1.506 -0.2277 -0.2569 -0.1847
 3620SOL     OW22321   4.536   2.559   3.489 -0.1479 -0.4634  0.0522
 3620SOL    HW122322   4.523   2.593   3.401  0.8625  2.8434  1.1553
 3620SOL    HW222323   4.613   2.614   3.503  1.2352 -2.3293 -0.3120
 3621SOL     OW22324   1.395   3.338  17.119  0.1781  0.2062 -0.5081
 3621SOL    HW122325   1.460   3.398  17.156 -0.3487 -0.5058  1.5450
 3621SOL    HW222326   1.343   3.388  17.055 -0.5669 -0.0299 -0.0763
 3622SOL     OW22327   2.684   0.979   1.233 -0.5946 -0.3288 -0.0275
 3622SOL    HW122328   2.625   0.958   1.161  0.1681 -0.8219 -0.5022
 3622SOL    HW222329   2.700   0.895   1.276 -2.3098 -0.3380  0.6089
 3623SOL     OW22330   0.814   2.022   2.768  0.1153 -0.0024 -0.1617
 3623SOL    HW122331   0.730   2.068   2.770 -0.5076 -1.2277  1.7864
 3623SOL    HW222332   0.873   2.072   2.824 -0.4667  0.9426 -0.4023
 3624SOL     OW22333   3.753   3.685   8.186  0.2760  0.2224 -0.4644
 3624SOL    HW122334   3.680   3.738   8.219  0.1824 -0.8518  1.0547
 3624SOL    HW222335   3.732   3.652   8.098  0.5496 -2.6612  0.5463
 3625SOL     OW22336   0.322   2.148   7.612 -0.3207  0.1393 -0.5415
 3625SOL    HW122337   0.293   2.081   7.675  0.0133 -0.0461 -0.5848
 3625SOL    HW222338   0.263   2.223   7.622  3.3586  2.6015  2.3660
 3626SOL     OW22339   3.011   4.488   6.836  0.6742 -0.7067  0.1078
 3626SOL    HW122340   2.999   4.561   6.776 -1.0896 -0.9618  0.1559
 3626SOL    HW222341   3.076   4.437   6.789 -1.0237 -1.4084 -1.4622
 3627SOL     OW22342   0.482   2.605   8.292 -0.4128 -0.1513 -0.1533
 3627SOL    HW122343   0.562   2.625   8.342 -0.4196 -0.6883  0.0752
 3627SOL    HW222344   0.507   2.558   8.213 -1.1328 -1.9849  0.6948
 3628SOL     OW22345   2.666   4.720   1.340  0.3254 -0.7568  0.4592
 3628SOL    HW122346   2.727   4.647   1.346  1.3803  0.2136  1.7383
 3628SOL    HW222347   2.582   4.676   1.353 -1.6006  2.3080 -1.5605
 3629SOL     OW22348   3.929   2.288   0.751  0.8270  0.9104 -0.1202
 3629SOL    HW122349   4.022   2.282   0.729  0.4831 -1.5437 -0.9504
 3629SOL    HW222350   3.940   2.310   0.844 -3.1516  0.9429  0.3505
 3630SOL     OW22351   2.615   1.257   1.474  0.1594 -0.0308  0.3225
 3630SOL    HW122352   2.692   1.220   1.431  0.8349  1.7073  0.0460
 3630SOL    HW222353   2.615   1.205   1.554  0.2799  0.0318  0.3626
 3631SOL     OW22354   3.908   1.953   7.830 -0.1944 -0.8329 -0.1307
 3631SOL    HW122355   3.979   1.961   7.767 -0.6978  0.6717 -0.5138
 3631SOL    HW222356   3.827   1.944   7.780 -1.5680  1.3134  1.6943
 3632SOL     OW22357   3.180   3.659   2.046  0.1984 -0.6781 -0.0240
 3632SOL    HW122358   3.201   3.643   1.953  0.4273  1.3772 -0.3116
 3632SOL    HW222359   3.149   3.571   2.068 -0.3415 -0.4286  0.2034
 3633SOL     OW22360   0.536   0.848   4.040  0.0777 -0.2566  0.2961
 3633SOL    HW122361   0.555   0.904   3.965 -2.1919 -0.6781 -0.6027
 3633SOL    HW222362   0.615   0.860   4.093 -0.4828 -0.8303  1.2541
 3634SOL     OW22363   4.292   2.605   7.834 -0.1418  0.5180  0.0200
 3634SOL    HW122364   4.243   2.659   7.896  0.3246  0.5528  0.3577
 3634SOL    HW222365   4.349   2.560   7.896 -1.4217  0.5429  1.2241
 3635SOL     OW22366   0.333   0.091   4.878  0.3508  0.6585 -0.3210
 3635SOL    HW122367   0.350   0.025   4.810 -1.4406  0.0788 -0.2098
 3635SOL    HW222368   0.242   0.117   4.861  0.4859  2.2232  1.3421
 3636SOL     OW22369   2.433   4.599   8.800 -0.1301 -0.1682 -0.5530
 3636SOL    HW122370   2.470   4.526   8.750  1.5516  0.6497 -0.4995
 3636SOL    HW222371   2.352   4.552   8.824 -0.0835 -0.0295 -0.1280
 3637SOL     OW22372   3.110   1.772   1.437 -0.0976 -0.5667 -0.0238
 3637SOL    HW122373   3.014   1.772   1.432 -0.2134  0.7240  1.8961
 3637SOL    HW222374   3.118   1.771   1.533 -1.3151  1.5903  0.1194
 3638SOL     OW22375   0.099   3.731  15.542 -0.0170 -1.3774  0.4977
 3638SOL    HW122376   0.010   3.708  15.570 -0.6899 -0.0635 -0.6054
 3638SOL    HW222377   0.141   3.756  15.625 -0.7772  2.5151 -0.3233
 3639SOL     OW22378   1.321   3.060   4.546  0.7320 -0.0649  0.3438
 3639SOL    HW122379   1.260   3.097   4.610  0.3290  1.5727 -0.9864
 3639SOL    HW222380   1.399   3.042   4.598  0.2959  0.0736  1.0504
 3640SOL     OW22381   0.180   0.121  11.697  0.3805  0.0690  0.0805
 3640SOL    HW122382   0.200   0.036  11.657 -0.8018 -1.1087  1.9634
 3640SOL    HW222383   0.222   0.170  11.627 -0.7290  0.1439 -0.5313
 3641SOL     OW22384   3.388   3.106   9.860  0.0544  0.4716  0.0141
 3641SOL    HW122385   3.461   3.076   9.806 -1.8213 -2.0585 -1.0827
 3641SOL    HW222386   3.432   3.104   9.945  0.2866  0.0304 -0.1191
 3642SOL     OW22387   2.437   2.490   8.569 -0.2031 -0.6633  0.3916
 3642SOL    HW122388   2.449   2.429   8.496  0.9194 -1.7814  1.5006
 3642SOL    HW222389   2.517   2.472   8.617  0.0062 -1.7932 -0.3696
 3643SOL     OW22390   0.759   3.507  15.765 -0.1431 -0.2638  0.0680
 3643SOL    HW122391   0.715   3.425  15.740 -2.1781  0.5025  1.1349
 3643SOL    HW222392   0.721   3.533  15.849  1.7518  0.6419  0.6394
 3644SOL     OW22393   3.035   0.620   7.245 -0.1841 -0.4818 -0.0355
 3644SOL    HW122394   3.014   0.591   7.334 -1.6990  1.2763  0.1892
 3644SOL    HW222395   3.068   0.544   7.198 -1.3914 -1.6520  0.9793
 3645SOL     OW22396   1.232   0.382   4.178 -0.3022 -0.3223  0.2928
 3645SOL    HW122397   1.171   0.440   4.224 -1.3534 -1.3425  0.2024
 3645SOL    HW222398   1.222   0.302   4.230 -1.9003  0.2934  0.9318
 3646SOL     OW22399   0.647   3.281  15.664 -0.4696 -0.0187 -0.4356
 3646SOL    HW122400   0.694   3.254  15.586 -0.7033  0.2295 -0.6604
 3646SOL    HW222401   0.564   3.236  15.647 -0.9718  0.7123  0.0261
 3647SOL     OW22402   1.137   1.661  11.009  0.4711  0.3229  0.1057
 3647SOL    HW122403   1.123   1.567  10.997 -0.6640  0.5326 -0.1628
 3647SOL    HW222404   1.068   1.700  10.956 -0.1124  0.1585  0.7484
 3648SOL     OW22405   0.810   1.032   8.794 -0.1882  0.2347  0.6075
 3648SOL    HW122406   0.746   1.093   8.831 -0.9265 -0.6748  0.8593
 3648SOL    HW222407   0.832   0.980   8.872  2.8439  0.1707 -0.3147
 3649SOL     OW22408   4.171   3.955   5.109  0.0112 -0.3499 -0.0460
 3649SOL    HW122409   4.092   3.907   5.134 -0.9550  0.3532 -1.7351
 3649SOL    HW222410   4.171   3.957   5.013  1.5243 -0.3208 -0.0503
 3650SOL     OW22411   3.576   2.140  10.214 -0.1642 -0.0841 -0.0735
 3650SOL    HW122412   3.590   2.062  10.161  0.8938  0.9462 -1.3071
 3650SOL    HW222413   3.624   2.204  10.162  0.0834 -0.0918  0.1426
 3651SOL     OW22414   1.870   1.616   7.178  0.7051  0.7373  0.2911
 3651SOL    HW122415   1.779   1.599   7.204  0.3966 -2.3088 -2.7098
 3651SOL    HW222416   1.868   1.710   7.164 -0.8251  0.5298 -0.9498
 3652SOL     OW22417   3.740   1.380  13.861 -0.5108 -0.4043  0.0287
 3652SOL    HW122418   3.794   1.456  13.882  0.6590 -1.4471  0.8145
 3652SOL    HW222419   3.694   1.370  13.944  0.5480  0.2750  0.7026
 3653SOL     OW22420   1.726   0.409  15.968 -0.1366 -0.3271 -0.1044
 3653SOL    HW122421   1.680   0.325  15.960 -1.8929  0.5331  0.9683
 3653SOL    HW222422   1.666   0.450  16.030 -0.7851  0.9456 -1.5739
 3654SOL     OW22423   1.863   1.159   9.529 -0.0929  0.1464 -0.3550
 3654SOL    HW122424   1.795   1.203   9.579  0.6228  1.0787 -0.2070
 3654SOL    HW222425   1.803   1.137   9.458  0.7509 -0.7337 -0.8078
 3655SOL     OW22426   4.514   1.162   2.001 -0.5251 -0.0646 -0.1056
 3655SOL    HW122427   4.606   1.153   2.024 -0.1838  1.2667 -0.9368
 3655SOL    HW222428   4.502   1.088   1.943 -2.1114  0.3916 -0.3576
 3656SOL     OW22429   2.841   4.241   4.152 -0.0648  0.0775 -0.3411
 3656SOL    HW122430   2.922   4.191   4.160  0.4835  1.3044  1.8604
 3656SOL    HW222431   2.793   4.222   4.233 -1.1540 -3.6012 -1.8950
 3657SOL     OW22432   1.258   4.273   3.855 -0.2347  0.6187  0.2336
 3657SOL    HW122433   1.176   4.263   3.905  0.4102 -0.0163  1.1794
 3657SOL    HW222434   1.248   4.368   3.849 -1.5453  0.5637  1.2423
 3658SOL     OW22435   4.372   1.368   6.080  0.3717  0.1291  0.2043
 3658SOL    HW122436   4.279   1.388   6.091 -0.1951 -2.2625 -0.3141
 3658SOL    HW222437   4.390   1.421   6.002  0.6708  0.2875  0.3774
 3659SOL     OW22438   0.214   2.845   1.393 -0.2410  0.5382 -0.4021
 3659SOL    HW122439   0.219   2.869   1.486  0.7124  2.4932 -0.9684
 3659SOL    HW222440   0.281   2.777   1.396 -0.3514  0.3846 -1.7934
 3660SOL     OW22441   3.107   3.950   4.667 -0.0419  0.0976 -0.4868
 3660SOL    HW122442   3.041   3.923   4.731  1.1681  1.2254  1.2321
 3660SOL    HW222443   3.179   3.893   4.692  0.8713  1.0112 -1.0294
 3661SOL     OW22444   2.804   0.800  17.603  0.0571 -0.6820 -0.4226
 3661SOL    HW122445   2.781   0.708  17.615 -1.5623 -0.0404  1.3257
 3661SOL    HW222446   2.729   0.840  17.646 -0.2424 -1.8016  0.0910
 3662SOL     OW22447   2.787   1.716   2.141 -0.0529  0.0137  0.0649
 3662SOL    HW122448   2.824   1.804   2.134 -1.4177  0.5413 -0.5121
 3662SOL    HW222449   2.746   1.733   2.226 -1.2278  1.6442 -0.8239
 3663SOL     OW22450   2.466   0.307  14.346 -0.2742 -0.3498 -0.4465
 3663SOL    HW122451   2.545   0.252  14.348 -0.3647 -0.5198 -1.8535
 3663SOL    HW222452   2.490   0.362  14.272  0.1019  0.4939  0.2983
 3664SOL     OW22453   3.578   3.764   4.861 -0.3908  0.2755 -0.6032
 3664SOL    HW122454   3.594   3.851   4.897  0.6756  0.2888 -1.1170
 3664SOL    HW222455   3.662   3.721   4.844 -1.2656 -0.5913 -2.7745
 3665SOL     OW22456   1.950   2.595   5.782 -0.0437 -0.0069 -0.1148
 3665SOL    HW122457   1.890   2.521   5.769  0.7944 -0.6698 -0.2563
 3665SOL    HW222458   1.946   2.606   5.877 -0.7363 -1.1895  0.0007
 3666SOL     OW22459   1.879   4.481   4.672  0.0948 -0.0742  0.0929
 3666SOL    HW122460   1.975   4.483   4.674  0.1398  0.5152 -2.2716
 3666SOL    HW222461   1.866   4.392   4.640 -2.6117  1.4950 -3.1514
 3667SOL     OW22462   4.594   4.375   3.791  0.0254  0.5443 -0.0357
 3667SOL    HW122463   4.623   4.289   3.820 -1.3567  0.4327  1.0118
 3667SOL    HW222464   4.649   4.398   3.717  0.2433  1.4682  0.4088
 3668SOL     OW22465   2.436   4.113   3.867  0.3117  0.4482 -0.2533
 3668SOL    HW122466   2.373   4.091   3.936  1.4985  1.0470  1.0498
 3668SOL    HW222467   2.517   4.125   3.918 -0.9342 -0.7585  2.0146
 3669SOL     OW22468   0.601   1.176   7.016 -0.1106 -0.1404 -0.7258
 3669SOL    HW122469   0.692   1.201   7.003 -0.2353  0.1278 -1.0917
 3669SOL    HW222470   0.563   1.264   7.028 -0.2102 -0.4372  1.1630
 3670SOL     OW22471   2.950   0.463  11.899 -0.0702 -0.3035  0.1623
 3670SOL    HW122472   3.021   0.516  11.936 -0.7900 -0.6673  2.0564
 3670SOL    HW222473   2.875   0.518  11.920  1.4220  1.7994 -0.0129
 3671SOL     OW22474   1.539   2.468   9.008 -0.2396  0.1828 -0.0264
 3671SOL    HW122475   1.559   2.550   8.962  0.4947 -1.0909 -1.9306
 3671SOL    HW222476   1.594   2.408   8.958 -2.5199  0.3153 -2.6529
 3672SOL     OW22477   3.015   4.569   8.210  0.2786  0.4461  0.0920
 3672SOL    HW122478   3.055   4.641   8.161  1.0769 -0.4970 -0.6303
 3672SOL    HW222479   3.011   4.617   8.293  0.4220 -0.1498  0.4389
 3673SOL     OW22480   0.566   1.337   8.614  0.4034  0.1685 -0.5901
 3673SOL    HW122481   0.655   1.368   8.633  0.4936 -0.4375 -0.0274
 3673SOL    HW222482   0.548   1.394   8.539  2.2705  0.5548 -0.7610
 3674SOL     OW22483   3.275   3.961   3.150  0.1966  0.3260  0.3708
 3674SOL    HW122484   3.200   4.015   3.174 -1.1927 -1.0845 -0.8049
 3674SOL    HW222485   3.229   3.894   3.100  1.0904  0.8734 -1.2004
 3675SOL     OW22486   2.176   3.159   4.487  0.5524 -0.1064 -0.3861
 3675SOL    HW122487   2.096   3.129   4.445 -0.9440  0.8060  1.8289
 3675SOL    HW222488   2.178   3.254   4.476 -0.1965 -0.0515 -0.0540
 3676SOL     OW22489   4.680   2.555  16.975 -0.2111 -0.0330  1.0605
 3676SOL    HW122490   4.703   2.599  17.057  0.6698 -1.6973  1.7145
 3676SOL    HW222491   4.671   2.627  16.913  0.2264 -1.6743 -0.8947
 3677SOL     OW22492   2.413   2.581   2.301  0.4930  0.2561  0.4171
 3677SOL    HW122493   2.428   2.487   2.293 -0.6881 -0.0672  2.0231
 3677SOL    HW222494   2.506   2.602   2.313  1.2181 -2.6119 -0.2726
 3678SOL     OW22495   1.477   1.769  10.330 -0.3444  0.2108  0.2947
 3678SOL    HW122496   1.544   1.731  10.273  2.2887  2.1739  2.0401
 3678SOL    HW222497   1.463   1.854  10.288 -0.2305 -1.0591 -2.2797
 3679SOL     OW22498   3.780   2.355   3.296  0.4497 -1.0860 -0.2799
 3679SOL    HW122499   3.707   2.379   3.354  1.3629 -1.8869  1.2093
 3679SOL    HW222500   3.844   2.323   3.360  2.0003 -0.2724 -1.4347
 3680SOL     OW22501   2.036   4.695   4.002 -0.2013  0.7896  0.8225
 3680SOL    HW122502   2.111   4.671   3.947 -0.3643  0.8539  0.5724
 3680SOL    HW222503   1.965   4.661   3.948  0.9530 -0.2032 -0.0715
 3681SOL     OW22504   2.246   3.191  17.658 -0.0547  0.5845  0.2940
 3681SOL    HW122505   2.171   3.252  17.657  1.4562  2.4268 -1.1666
 3681SOL    HW222506   2.274   3.213  17.569  2.1268  2.2804  1.3940
 3682SOL     OW22507   2.592   0.770   6.470 -0.2150 -0.6427 -0.4068
 3682SOL    HW122508   2.648   0.695   6.490  1.4951  1.0746  1.1789
 3682SOL    HW222509   2.559   0.736   6.387 -0.9941 -0.5178 -0.1449
 3683SOL     OW22510   2.798   4.104   5.604 -0.1139 -0.2115  0.2232
 3683SOL    HW122511   2.734   4.140   5.543 -1.7615 -0.9674  1.4854
 3683SOL    HW222512   2.871   4.166   5.597  0.6835 -1.2936 -0.8549
 3684SOL     OW22513   0.911   4.237  11.146 -0.5675  0.3019  0.3445
 3684SOL    HW122514   0.932   4.217  11.237  0.9498 -1.9556 -0.5177
 3684SOL    HW222515   0.925   4.332  11.148  0.2874  0.1356  2.2472
 3685SOL     OW22516   2.655   0.010  11.267 -0.0594  0.1501 -0.1548
 3685SOL    HW122517   2.643   0.098  11.305 -2.8450  0.0531 -0.7718
 3685SOL    HW222518   2.675   4.676  11.340  0.3751  1.8364  1.0740
 3686SOL     OW22519   0.567   0.178   4.984  0.3932 -0.5627  0.4082
 3686SOL    HW122520   0.477   0.173   4.949  1.8980 -2.6553 -3.1739
 3686SOL    HW222521   0.572   0.126   5.064 -2.4813 -0.1215  0.9040
 3687SOL     OW22522   1.723   4.029   5.884  0.5026 -0.3967  0.1353
 3687SOL    HW122523   1.803   3.987   5.853  0.0545  0.1230 -1.7105
 3687SOL    HW222524   1.759   4.076   5.959 -0.8191 -0.5916  0.8992
 3688SOL     OW22525   2.396   3.492  11.342  0.0091 -0.2670 -0.3524
 3688SOL    HW122526   2.341   3.559  11.303 -0.2052 -1.0845 -1.4595
 3688SOL    HW222527   2.327   3.440  11.385  1.0745 -1.0803  0.3906
 3689SOL     OW22528   3.304   4.413  14.809  0.7030  0.0351 -0.3609
 3689SOL    HW122529   3.282   4.505  14.795  0.4381 -0.1859 -1.4172
 3689SOL    HW222530   3.239   4.389  14.874  1.2124 -0.8007 -0.1568
 3690SOL     OW22531   0.591   0.945   4.499 -0.1830  0.0647 -0.2541
 3690SOL    HW122532   0.567   0.853   4.484  1.0808 -0.1506 -0.9610
 3690SOL    HW222533   0.503   0.983   4.493  0.0808  1.0440  2.0767
 3691SOL     OW22534   1.464   4.587   7.129 -0.9862 -0.5240  0.4640
 3691SOL    HW122535   1.454   4.499   7.166  0.2109 -0.1409  1.6856
 3691SOL    HW222536   1.557   4.587   7.106 -0.8960 -0.9593  0.8290
 3692SOL     OW22537   2.386   1.171   1.308 -0.0604  0.1964  0.3599
 3692SOL    HW122538   2.473   1.185   1.346  0.0691  2.3750 -0.7742
 3692SOL    HW222539   2.341   1.236   1.361  1.8998  1.8283  0.0146
 3693SOL     OW22540   0.296   2.424   8.358 -0.0869  0.1103 -0.2953
 3693SOL    HW122541   0.344   2.342   8.371 -0.0665 -0.2982 -2.9812
 3693SOL    HW222542   0.348   2.473   8.295 -1.8446  0.1525 -1.7074
 3694SOL     OW22543   1.431   3.182   8.639 -0.2974  0.5310 -0.5973
 3694SOL    HW122544   1.349   3.230   8.627 -1.0138 -0.3975  0.5359
 3694SOL    HW222545   1.428   3.144   8.727  0.4882 -3.4376 -2.2623
 3695SOL     OW22546   1.833   4.106  16.951  0.3272 -0.5048 -0.5500
 3695SOL    HW122547   1.914   4.128  16.997 -0.9666 -0.4245  1.6808
 3695SOL    HW222548   1.763   4.120  17.015  0.8210 -0.2806 -0.0564
 3696SOL     OW22549   2.001   2.967  11.297 -0.3649 -0.6100 -0.3905
 3696SOL    HW122550   2.085   3.007  11.274 -0.5441 -1.5285 -2.6992
 3696SOL    HW222551   1.955   3.045  11.328 -0.8926 -0.7225 -0.9082
 3697SOL     OW22552   1.945   0.904   8.309  0.0414 -0.7858 -0.2408
 3697SOL    HW122553   1.896   0.973   8.353  0.2975 -0.8891  0.2027
 3697SOL    HW222554   2.026   0.903   8.360 -0.5588  0.3297  0.7360
 3698SOL     OW22555   0.094   1.042   7.771 -0.4609 -0.2567 -0.0247
 3698SOL    HW122556   0.135   1.056   7.686  1.3791  1.0483  1.0845
 3698SOL    HW222557   0.128   0.957   7.801 -1.1784 -0.5313  0.0165
 3699SOL     OW22558   0.442   1.898   8.158 -0.2295 -0.0157 -0.0984
 3699SOL    HW122559   0.473   1.977   8.114 -1.2090  0.4516  0.0463
 3699SOL    HW222560   0.510   1.889   8.225 -0.5553 -1.5410  0.0221
 3700SOL     OW22561   4.077   0.078  10.042 -0.0572 -0.0766 -0.0938
 3700SOL    HW122562   4.007   0.025  10.005 -0.0217  0.5904 -1.1277
 3700SOL    HW222563   4.055   0.076  10.135  0.0037 -0.1356 -0.0808
 3701SOL     OW22564   4.420   3.726   4.418  0.3275 -0.0774 -0.3136
 3701SOL    HW122565   4.470   3.729   4.499 -0.2630  1.9485 -0.0164
 3701SOL    HW222566   4.421   3.819   4.396  0.4606  0.0310  0.1439
 3702SOL     OW22567   1.003   2.652  10.591  0.1278 -0.1157 -0.0406
 3702SOL    HW122568   1.022   2.745  10.605  0.6752 -0.2851  0.3721
 3702SOL    HW222569   1.049   2.610  10.664 -3.0975 -0.3993  1.8374
 3703SOL     OW22570   0.440   2.861   8.996  0.3407  0.2223 -0.3561
 3703SOL    HW122571   0.438   2.814   9.079  1.9672 -1.4740 -1.2524
 3703SOL    HW222572   0.348   2.867   8.972 -0.1775  0.4803  1.7555
 3704SOL     OW22573   4.366   4.123   9.021 -0.3158  0.0528 -0.3068
 3704SOL    HW122574   4.437   4.108   9.082  0.0523  3.2156  0.0462
 3704SOL    HW222575   4.325   4.196   9.068 -2.1970  0.6132 -2.8106
 3705SOL     OW22576   3.863   0.772   1.921  0.0461  0.1466 -0.1411
 3705SOL    HW122577   3.918   0.827   1.865  1.3978 -0.6497  0.3842
 3705SOL    HW222578   3.789   0.752   1.865  0.1931 -3.0086  0.8265
 3706SOL     OW22579   2.812   1.455   1.741  0.3785 -0.2515 -0.3316
 3706SOL    HW122580   2.744   1.441   1.807  1.3979  1.9395  1.1692
 3706SOL    HW222581   2.762   1.467   1.661  3.3427 -0.3694 -2.2032
 3707SOL     OW22582   4.432   4.425   9.497  0.0314  0.0878 -0.5824
 3707SOL    HW122583   4.450   4.331   9.503 -1.1682 -0.0064  1.5030
 3707SOL    HW222584   4.351   4.426   9.548  0.3621 -0.4377 -0.0546
 3708SOL     OW22585   0.826   3.238   1.187  0.6003  0.2031 -0.6782
 3708SOL    HW122586   0.846   3.152   1.150  2.1242 -0.3911  1.5410
 3708SOL    HW222587   0.911   3.280   1.198  0.2515  1.0781 -1.3437
 3709SOL     OW22588   4.166   0.045   2.705 -0.2389 -0.1087  0.1684
 3709SOL    HW122589   4.116   0.046   2.787 -0.9141 -2.3720 -0.1983
 3709SOL    HW222590   4.152   4.675   2.694 -1.2485  0.1578 -0.7965
 3710SOL     OW22591   3.984   3.162   9.229  0.3674 -0.4615 -0.0584
 3710SOL    HW122592   3.990   3.225   9.156 -3.9655  1.1893  1.0264
 3710SOL    HW222593   3.984   3.082   9.177  1.1443 -0.2704 -0.3670
 3711SOL     OW22594   2.437   1.301   4.172  0.2002 -0.2514 -0.3601
 3711SOL    HW122595   2.411   1.217   4.209 -3.4481  0.3424 -1.6212
 3711SOL    HW222596   2.416   1.290   4.079 -0.9140  0.4200 -0.1858
 3712SOL     OW22597   4.348   1.767   1.665  0.0343 -0.1027 -0.2012
 3712SOL    HW122598   4.424   1.823   1.677  0.7267 -1.7530  2.9760
 3712SOL    HW222599   4.391   1.684   1.646 -0.6447 -0.5609  0.2656
 3713SOL     OW22600   0.791   2.150  13.364  0.1827 -0.1036 -0.5482
 3713SOL    HW122601   0.746   2.230  13.336  0.5846 -0.0807 -1.1279
 3713SOL    HW222602   0.733   2.117  13.433  0.7052  2.0323  0.9372
 3714SOL     OW22603   3.650   1.543   1.797  0.1043 -0.0942  0.1068
 3714SOL    HW122604   3.592   1.615   1.820 -0.1897 -0.3668  0.2187
 3714SOL    HW222605   3.738   1.565   1.827  0.9824 -2.1499 -0.9361
 3715SOL     OW22606   0.574   4.258   7.113 -0.5761  0.2766 -0.7099
 3715SOL    HW122607   0.577   4.247   7.208  1.3392  0.3677 -0.7563
 3715SOL    HW222608   0.645   4.319   7.094  0.5419 -0.6666  0.4071
 3716SOL     OW22609   2.898   3.087  16.892 -0.1767  0.0035  0.3252
 3716SOL    HW122610   2.887   3.149  16.965  1.0193  0.9662 -0.3089
 3716SOL    HW222611   2.993   3.093  16.885 -0.0626 -1.1869  0.8220
 3717SOL     OW22612   4.469   3.683   5.984 -0.0396  0.6124  0.4538
 3717SOL    HW122613   4.473   3.679   5.889  2.8752 -0.3073  0.6399
 3717SOL    HW222614   4.524   3.761   5.994  2.7253 -1.3598  0.3539
 3718SOL     OW22615   0.599   3.947   6.819  0.0097  0.1827 -0.0622
 3718SOL    HW122616   0.573   4.004   6.746  0.0272 -2.4352 -2.0873
 3718SOL    HW222617   0.601   3.863   6.774 -0.6393 -0.4627  1.1123
 3719SOL     OW22618   3.068   1.075   2.067 -0.1552 -0.2220  0.2869
 3719SOL    HW122619   3.004   1.065   1.997 -0.8426  0.0324  0.8824
 3719SOL    HW222620   3.105   1.159   2.038 -0.0292 -0.0953  0.8189
 3720SOL     OW22621   1.481   0.823   8.649 -0.0065  0.3973 -0.0679
 3720SOL    HW122622   1.418   0.751   8.656 -0.1311  0.6050  0.8229
 3720SOL    HW222623   1.551   0.801   8.709  0.6802  0.2033 -0.9350
 3721SOL     OW22624   3.716   0.867  11.787  0.0886  0.1550 -0.2905
 3721SOL    HW122625   3.650   0.810  11.749  1.8327 -0.7661 -1.9645
 3721SOL    HW222626   3.774   0.891  11.715  1.0410  2.0113  1.0687
 3722SOL     OW22627   2.133   3.634   4.553 -0.3855  0.1866 -0.4831
 3722SOL    HW122628   2.076   3.689   4.607  0.6703 -0.7214  1.5744
 3722SOL    HW222629   2.183   3.704   4.510  0.5376 -1.4086 -2.0313
 3723SOL     OW22630   4.136   0.969   8.498  0.7091 -1.0163 -0.4038
 3723SOL    HW122631   4.225   0.994   8.523  0.0668  0.8041  0.0578
 3723SOL    HW222632   4.152   0.977   8.404 -3.6817  2.1919 -0.8498
 3724SOL     OW22633   2.447   4.539   9.919  0.0674 -0.2425  0.2595
 3724SOL    HW122634   2.373   4.551   9.978  0.8368  1.5243  0.8758
 3724SOL    HW222635   2.418   4.466   9.864 -1.6695  0.1845  0.6199
 3725SOL     OW22636   2.540   0.593  11.801  0.0622  0.1502  0.2361
 3725SOL    HW122637   2.575   0.653  11.736  1.4815 -0.1008  0.7721
 3725SOL    HW222638   2.484   0.526  11.761  1.9065 -0.6067 -1.0555
 3726SOL     OW22639   1.849   4.504  16.833  0.1668  0.5049 -0.2949
 3726SOL    HW122640   1.793   4.471  16.904 -0.0885 -1.2026 -1.3065
 3726SOL    HW222641   1.786   4.559  16.787 -0.4796 -0.9348 -1.0995
 3727SOL     OW22642   3.142   3.731   8.595  0.5507  0.2689  0.0384
 3727SOL    HW122643   3.076   3.663   8.581  0.3594 -0.2396  3.2436
 3727SOL    HW222644   3.107   3.805   8.546  3.6272  1.5893 -0.1474
 3728SOL     OW22645   3.636   2.173   1.284 -0.1612  0.4596 -0.5697
 3728SOL    HW122646   3.657   2.254   1.236  1.1716  0.0087 -0.7649
 3728SOL    HW222647   3.552   2.152   1.245 -0.4275  0.7154 -0.1292
 3729SOL     OW22648   1.133   1.969  14.854 -0.6161  0.5474  0.3540
 3729SOL    HW122649   1.181   1.992  14.774 -1.8919  2.8023  0.2612
 3729SOL    HW222650   1.145   2.053  14.899 -1.9237  0.1213  1.4870
 3730SOL     OW22651   0.041   2.007   1.168  0.7506 -0.2681  0.2292
 3730SOL    HW122652   0.128   2.008   1.209  0.2045 -2.1210  1.4287
 3730SOL    HW222653   0.012   2.095   1.194  0.3161 -0.5753  0.7713
 3731SOL     OW22654   4.266   3.943   4.844  0.0269 -0.0366  0.3534
 3731SOL    HW122655   4.248   3.907   4.758 -0.3395 -2.1831  1.3380
 3731SOL    HW222656   4.331   3.886   4.885  1.8679  2.3298  0.7333
 3732SOL     OW22657   1.983   3.614  11.034 -0.1337  0.3536  0.0474
 3732SOL    HW122658   1.973   3.685  10.971 -1.7218 -1.2533 -1.5086
 3732SOL    HW222659   1.890   3.603  11.055 -0.2814  2.2051  0.3971
 3733SOL     OW22660   1.291   0.240   9.095 -0.0341 -0.5270  0.2703
 3733SOL    HW122661   1.323   0.154   9.120  1.8198  0.8061  2.5641
 3733SOL    HW222662   1.292   0.278   9.184  0.0814 -0.6712  0.3294
 3734SOL     OW22663   2.202   4.587   5.586 -0.6314 -0.0278  0.0691
 3734SOL    HW122664   2.294   4.593   5.610 -0.6814  0.2267  0.2071
 3734SOL    HW222665   2.182   4.680   5.600  1.9275  0.4680  0.3195
 3735SOL     OW22666   2.302   2.703   6.817 -0.8092  0.4542  0.1681
 3735SOL    HW122667   2.210   2.691   6.841 -1.2629 -1.3480 -2.5194
 3735SOL    HW222668   2.339   2.616   6.808 -2.5045 -0.2199 -0.2967
 3736SOL     OW22669   0.469   0.938   0.478 -0.0513 -0.7484  0.5659
 3736SOL    HW122670   0.525   0.978   0.544 -1.6104 -1.7310  2.4629
 3736SOL    HW222671   0.431   0.864   0.525 -1.2242 -0.2284  0.4360
 3737SOL     OW22672   4.533   2.848   5.401 -0.0178 -0.1257  0.7814
 3737SOL    HW122673   4.545   2.835   5.495  0.6097  0.0285  0.7209
 3737SOL    HW222674   4.603   2.799   5.358 -1.8289 -0.4893 -1.7565
 3738SOL     OW22675   0.191   1.491   4.423 -0.4160 -0.5178 -0.1667
 3738SOL    HW122676   0.257   1.505   4.491 -0.3652 -1.1915 -0.0732
 3738SOL    HW222677   0.121   1.536   4.469  0.5144  1.6387 -0.8570
 3739SOL     OW22678   0.764   3.149   2.269  0.0984 -0.2275 -0.0270
 3739SOL    HW122679   0.753   3.237   2.234 -1.6745 -0.5621 -0.3339
 3739SOL    HW222680   0.696   3.134   2.335  2.6860 -0.6150  2.5310
 3740SOL     OW22681   1.053   4.653   6.822  0.0712  0.2457  0.7038
 3740SOL    HW122682   0.982   4.657   6.887 -0.2682 -0.8746  0.3933
 3740SOL    HW222683   1.112   4.596   6.871  0.0476  0.5421  1.0811
 3741SOL     OW22684   1.071   1.239  10.104 -0.1492  0.3969  0.2661
 3741SOL    HW122685   1.024   1.185  10.168  0.7366 -1.0568 -0.3049
 3741SOL    HW222686   0.995   1.258  10.050 -0.1839  0.8294  0.4661
 3742SOL     OW22687   3.893   1.011   9.884 -0.2078  0.8526  0.8754
 3742SOL    HW122688   3.958   1.073   9.851 -0.9436  1.2675  0.2274
 3742SOL    HW222689   3.918   0.943   9.822  0.0082  0.0826  1.8023
 3743SOL     OW22690   0.028   0.339   4.299  0.0342  0.2312 -0.3028
 3743SOL    HW122691   0.028   0.313   4.207 -0.4208  0.9826 -0.5165
 3743SOL    HW222692   4.659   0.350   4.316  0.4223  0.5809  1.5890
 3744SOL     OW22693   1.341   0.459  10.772 -0.0185 -0.0737  0.5159
 3744SOL    HW122694   1.264   0.501  10.811 -0.3549 -0.0998 -0.1159
 3744SOL    HW222695   1.305   0.400  10.706  0.2205  1.5072 -1.0404
 3745SOL     OW22696   2.638   4.674  12.714  0.0571  0.2877  0.2528
 3745SOL    HW122697   2.567   4.689  12.652  0.9256  0.1383 -0.7896
 3745SOL    HW222698   2.715   4.686  12.658  0.0627  0.3196  0.2671
 3746SOL     OW22699   1.359   3.071  16.911  0.2064 -0.0023 -0.3675
 3746SOL    HW122700   1.329   2.982  16.892 -0.2542  0.1966 -0.5802
 3746SOL    HW222701   1.351   3.109  16.823 -1.0639  0.7128  0.0556
 3747SOL     OW22702   3.081   0.261   3.056 -0.3032 -0.9466  0.1511
 3747SOL    HW122703   3.088   0.294   3.146 -0.6095  1.3515 -0.6631
 3747SOL    HW222704   2.987   0.257   3.042 -0.5597  0.4463  1.4947
 3748SOL     OW22705   3.306   2.640   2.874  0.0608  0.2214 -0.1711
 3748SOL    HW122706   3.382   2.644   2.932 -1.4176 -2.0936  1.9172
 3748SOL    HW222707   3.308   2.722   2.825 -0.2673  0.7110  0.6374
 3749SOL     OW22708   0.538   2.925  13.954 -0.7540 -0.2907  0.0833
 3749SOL    HW122709   0.580   3.002  13.993 -1.7826  0.8141 -0.9944
 3749SOL    HW222710   0.610   2.862  13.956 -1.2114 -0.7734  1.3623
 3750SOL     OW22711   2.509   4.487   3.807 -0.3530 -0.0007 -0.5311
 3750SOL    HW122712   2.466   4.451   3.730  0.1293 -1.1680 -0.2572
 3750SOL    HW222713   2.567   4.550   3.765 -0.1170  0.2158  0.1077
 3751SOL     OW22714   3.785   1.809   1.876 -0.3748  0.4026 -0.6083
 3751SOL    HW122715   3.845   1.736   1.872  2.6694  2.7568  2.1926
 3751SOL    HW222716   3.796   1.862   1.797 -0.3033  0.7647 -0.3610
 3752SOL     OW22717   4.058   2.996   4.438 -0.2210 -0.4979  0.4681
 3752SOL    HW122718   4.058   3.058   4.365 -1.4374  0.0971  0.9659
 3752SOL    HW222719   4.112   3.049   4.497  0.8917  0.5758 -1.4889
 3753SOL     OW22720   0.107   0.398   8.666  0.5342  0.0652 -0.0116
 3753SOL    HW122721   0.027   0.354   8.640  1.6298 -0.9955 -1.5783
 3753SOL    HW222722   0.095   0.392   8.761  0.3687  0.0944 -0.0305
 3754SOL     OW22723   4.562   2.160   8.228 -0.0645 -0.1704  0.2926
 3754SOL    HW122724   4.636   2.221   8.222  1.4262 -1.9155  0.9567
 3754SOL    HW222725   4.610   2.097   8.282 -0.5352  0.5089  1.4961
 3755SOL     OW22726   4.331   3.196   8.263 -0.0314 -0.0226  0.1296
 3755SOL    HW122727   4.424   3.217   8.268 -0.1739  0.9726 -1.1743
 3755SOL    HW222728   4.301   3.233   8.346  2.3618  1.4435  0.3264
 3756SOL     OW22729   2.198   3.954   3.437  0.6384  0.0768 -0.5387
 3756SOL    HW122730   2.230   4.022   3.496 -0.5117 -1.1640  1.5137
 3756SOL    HW222731   2.114   3.994   3.413  0.5953  1.2586  1.6643
 3757SOL     OW22732   4.491   2.319   3.616 -0.0402 -0.1763  0.3230
 3757SOL    HW122733   4.556   2.268   3.569 -0.4353 -1.5013  1.2245
 3757SOL    HW222734   4.486   2.400   3.564  0.7408 -1.6004 -1.9913
 3758SOL     OW22735   3.551   4.402  14.730  0.2461 -0.5440 -0.2403
 3758SOL    HW122736   3.607   4.431  14.802 -2.2059  1.2935  0.8877
 3758SOL    HW222737   3.466   4.394  14.771 -0.3737  0.7880 -1.2816
 3759SOL     OW22738   0.175   2.234   3.053 -0.0719  0.5241 -0.1934
 3759SOL    HW122739   0.225   2.244   3.134  1.2253  2.0260 -1.1778
 3759SOL    HW222740   0.248   2.251   2.993  1.1095 -0.9573  0.7994
 3760SOL     OW22741   0.698   2.803   6.541  0.0624 -0.6813 -0.1351
 3760SOL    HW122742   0.785   2.764   6.533  0.9849  1.0473  1.4683
 3760SOL    HW222743   0.709   2.871   6.474  1.1233  0.0770  0.8115
 3761SOL     OW22744   4.640   2.263   2.699  0.6428  0.4108  0.3795
 3761SOL    HW122745   4.615   2.293   2.786  1.0860 -0.4674  0.8098
 3761SOL    HW222746   4.564   2.269   2.641  1.9647 -0.9352 -1.4982
 3762SOL     OW22747   2.175   3.741   5.762 -0.2581  0.3967  0.0206
 3762SOL    HW122748   2.232   3.814   5.738  1.4925 -0.7895  0.5779
 3762SOL    HW222749   2.175   3.749   5.858 -1.9012  0.4537  0.0133
 3763SOL     OW22750   2.231   4.720   7.576  0.7537  0.5373  0.1286
 3763SOL    HW122751   2.254   4.647   7.517  0.2188  1.0766 -0.7463
 3763SOL    HW222752   2.246   4.693   7.667  0.1944  2.1686  0.7004
 3764SOL     OW22753   3.583   2.385   6.712 -0.0525 -0.4219  0.0991
 3764SOL    HW122754   3.667   2.344   6.733  1.1570  2.4908  1.0300
 3764SOL    HW222755   3.577   2.366   6.619  0.1292  1.1011 -0.2330
 3765SOL     OW22756   2.123   1.626   1.407 -0.1204  0.0328  0.2650
 3765SOL    HW122757   2.122   1.591   1.318  1.8837 -0.8885  0.6245
 3765SOL    HW222758   2.203   1.675   1.421 -1.5733  1.2683  4.3859
 3766SOL     OW22759   4.662   0.241   2.452  0.2912  0.4914  0.6965
 3766SOL    HW122760   4.651   0.211   2.542  2.7090 -0.8734  0.5294
 3766SOL    HW222761   4.573   0.253   2.419  1.3797 -0.5918 -2.6465
 3767SOL     OW22762   3.927   2.474   7.706  0.2251 -0.6718  0.2769
 3767SOL    HW122763   3.944   2.568   7.713  1.5486 -0.6613 -2.7551
 3767SOL    HW222764   4.010   2.457   7.659  1.5695  2.2584  1.5875
 3768SOL     OW22765   2.300   3.672   2.566 -0.0455  0.3004 -0.3532
 3768SOL    HW122766   2.251   3.609   2.620  1.5323 -1.2307 -0.7085
 3768SOL    HW222767   2.354   3.707   2.637  0.3430 -2.6719  0.8174
 3769SOL     OW22768   3.070   3.929   3.382  0.2435  0.3187  0.6449
 3769SOL    HW122769   3.030   3.880   3.453 -1.0480  1.1475  0.4866
 3769SOL    HW222770   3.157   3.915   3.419  0.2317  1.5090  1.1028
 3770SOL     OW22771   0.623   2.117   8.955 -0.0750  0.0634  0.1809
 3770SOL    HW122772   0.609   2.191   8.895 -2.4901  1.4061  2.3979
 3770SOL    HW222773   0.542   2.068   8.949 -1.0036  1.7465 -0.9269
 3771SOL     OW22774   4.104   2.702   4.049 -0.1522 -0.4137  0.2485
 3771SOL    HW122775   4.107   2.791   4.014 -1.5453 -0.9700 -1.3309
 3771SOL    HW222776   4.069   2.708   4.138  2.1947 -1.4059  1.2196
 3772SOL     OW22777   2.234   2.699   4.670 -0.0588 -0.3621  0.0282
 3772SOL    HW122778   2.237   2.609   4.702  0.4107 -0.1844  0.4710
 3772SOL    HW222779   2.155   2.695   4.615 -1.1556  1.4682  1.4702
 3773SOL     OW22780   0.841   1.063   6.145  0.4379 -0.0329  0.4944
 3773SOL    HW122781   0.819   1.043   6.236 -2.8197 -0.6080 -0.4048
 3773SOL    HW222782   0.763   1.020   6.108  0.8263  0.0359 -0.4075
 3774SOL     OW22783   4.358   3.050   1.418  0.7758 -0.2285 -0.6556
 3774SOL    HW122784   4.408   2.970   1.397 -1.3757 -1.8474  0.4022
 3774SOL    HW222785   4.387   3.066   1.508  1.6695 -0.5509 -0.8792
 3775SOL     OW22786   2.196   3.952   1.784 -0.7237 -0.3781 -0.0552
 3775SOL    HW122787   2.123   3.945   1.722 -2.1561  0.6459  1.5096
 3775SOL    HW222788   2.161   3.906   1.861 -0.5620  0.3651  0.4702
 3776SOL     OW22789   4.025   2.373   0.998 -0.0428  0.0994  0.7315
 3776SOL    HW122790   4.103   2.352   1.049 -0.0049  2.7295  1.7885
 3776SOL    HW222791   4.053   2.462   0.975 -1.1353  0.3601  0.4169
 3777SOL     OW22792   4.103   2.999   4.931 -0.3095 -0.3272 -0.0570
 3777SOL    HW122793   4.047   2.968   4.860 -1.3502 -1.6363  1.3234
 3777SOL    HW222794   4.196   2.993   4.909 -0.7397 -0.5267 -1.7566
 3778SOL     OW22795   2.517   0.364   8.282 -0.8296  0.4045  0.0318
 3778SOL    HW122796   2.449   0.339   8.220 -1.4182  2.2633 -0.0698
 3778SOL    HW222797   2.576   0.290   8.273 -0.0324  0.8168  1.8288
 3779SOL     OW22798   4.400   4.032   8.454 -0.5444 -0.6814 -0.0021
 3779SOL    HW122799   4.354   4.033   8.538 -0.0042  0.2483  0.2863
 3779SOL    HW222800   4.325   4.016   8.397  0.4009 -0.4016 -1.3210
 3780SOL     OW22801   3.735   4.361   7.935  0.2995  0.0858  0.1425
 3780SOL    HW122802   3.754   4.281   7.885 -0.9183 -1.5926  2.3486
 3780SOL    HW222803   3.705   4.327   8.019  2.9170  0.5174  1.2416
 3781SOL     OW22804   2.338   4.260   8.402 -0.0696  0.3073 -0.1948
 3781SOL    HW122805   2.403   4.293   8.340  0.2118 -2.3485 -1.2732
 3781SOL    HW222806   2.283   4.197   8.356  2.2193 -1.6838 -0.1986
 3782SOL     OW22807   4.677   1.202  15.939  0.3842  0.1166  0.0579
 3782SOL    HW122808   4.633   1.287  15.948  2.5908  1.4018 -1.3128
 3782SOL    HW222809   4.608   1.148  15.901  0.8399  0.5227 -1.3796
 3783SOL     OW22810   2.487   3.585  12.474  0.4873 -0.3505  1.0683
 3783SOL    HW122811   2.531   3.530  12.409 -0.6754  0.9232 -0.8183
 3783SOL    HW222812   2.478   3.664  12.419  1.0063  0.2872  1.9006
 3784SOL     OW22813   0.655   1.387   3.843  1.2127 -0.0778  0.7997
 3784SOL    HW122814   0.648   1.479   3.817 -0.8626 -0.7241 -0.9435
 3784SOL    HW222815   0.575   1.358   3.887  0.8860 -2.6845 -1.5152
 3785SOL     OW22816   3.629   4.652   3.036 -0.2176 -0.0335  0.2203
 3785SOL    HW122817   3.663   0.016   3.022 -3.6023  1.3408  0.4561
 3785SOL    HW222818   3.698   4.620   3.094  0.0717  2.8711  1.4889
 3786SOL     OW22819   2.667   3.756   2.389  0.1951  0.0201 -0.4416
 3786SOL    HW122820   2.584   3.709   2.382  1.3593 -1.8403 -1.8170
 3786SOL    HW222821   2.726   3.708   2.331  0.8553 -2.1765  2.1067
 3787SOL     OW22822   3.580   0.929  10.809  0.4640  0.0119  0.7619
 3787SOL    HW122823   3.596   0.901  10.719 -1.0494  0.9281  0.1977
 3787SOL    HW222824   3.484   0.930  10.804  0.6089 -1.3290 -2.7079
 3788SOL     OW22825   3.565   3.221   0.578 -0.2212 -0.3518 -0.2757
 3788SOL    HW122826   3.559   3.314   0.602 -0.0528 -0.7455  1.2420
 3788SOL    HW222827   3.626   3.188   0.644 -1.4340 -0.5104  0.7577
 3789SOL     OW22828   3.821   4.427   4.938  0.1764 -0.6075  0.0702
 3789SOL    HW122829   3.797   4.368   4.866 -0.1286 -1.0099  0.4980
 3789SOL    HW222830   3.879   4.489   4.895  3.4138 -0.9600  3.9279
 3790SOL     OW22831   2.261   0.334   9.940  0.1233 -0.5522 -0.5318
 3790SOL    HW122832   2.256   0.416   9.989 -3.0831 -2.0419  1.5943
 3790SOL    HW222833   2.297   0.374   9.861  1.7438  1.4464  1.2276
 3791SOL     OW22834   3.475   3.658  15.484 -0.1346  0.8469  0.0599
 3791SOL    HW122835   3.492   3.741  15.440 -1.0299  0.3871 -1.1489
 3791SOL    HW222836   3.563   3.635  15.514 -0.5298 -2.4754 -1.3154
 3792SOL     OW22837   2.898   0.381  13.752  0.4304 -0.2797  0.0670
 3792SOL    HW122838   2.838   0.454  13.736  1.4384  0.8673  1.6074
 3792SOL    HW222839   2.902   0.345  13.663  1.2986 -0.2559  0.0964
 3793SOL     OW22840   1.201   4.389   6.570 -0.0807  0.2970  0.6484
 3793SOL    HW122841   1.162   4.304   6.550 -1.4748  1.5595 -1.9939
 3793SOL    HW222842   1.290   4.359   6.555 -0.7552 -0.6332 -1.5366
 3794SOL     OW22843   4.310   2.469   4.473 -0.8702  0.2904 -0.4341
 3794SOL    HW122844   4.292   2.472   4.379 -1.9176  1.0606 -0.2086
 3794SOL    HW222845   4.251   2.531   4.515 -2.5547 -0.9026 -1.0597
 3795SOL     OW22846   0.372   0.855  12.918  0.1477 -0.3845 -0.1320
 3795SOL    HW122847   0.317   0.814  12.852 -0.6133  1.1085 -0.4343
 3795SOL    HW222848   0.439   0.788  12.936  1.2880  0.2252 -2.0409
 3796SOL     OW22849   1.629   4.143  17.139 -0.4460  0.4706 -0.3570
 3796SOL    HW122850   1.679   4.127  17.218  1.1875  3.9549 -0.6647
 3796SOL    HW222851   1.567   4.205  17.177 -0.2751 -0.0132  0.7174
 3797SOL     OW22852   2.476   1.801   7.047 -0.9611  0.0976 -0.6990
 3797SOL    HW122853   2.484   1.846   6.963  0.0546  2.1152  0.4812
 3797SOL    HW222854   2.533   1.855   7.102  0.5243 -0.5403 -1.6411
 3798SOL     OW22855   4.694   3.611   8.358 -0.1940 -0.0985  0.4257
 3798SOL    HW122856   0.048   3.609   8.412 -0.3025  0.0767  0.5902
 3798SOL    HW222857   4.657   3.698   8.373  0.5431  0.3386 -0.3169
 3799SOL     OW22858   2.033   0.407  10.163 -0.1844  0.5996 -0.2979
 3799SOL    HW122859   2.124   0.436  10.175  0.2362 -1.2211  1.0883
 3799SOL    HW222860   1.994   0.491  10.141 -0.4172  0.6947  0.4572
 3800SOL     OW22861   3.068   3.463   2.986 -0.7214  0.0498  0.0412
 3800SOL    HW122862   3.139   3.439   2.926 -1.9619 -0.8882 -1.0613
 3800SOL    HW222863   2.996   3.494   2.930  0.5896  0.0800 -1.6409
 3801SOL     OW22864   3.359   1.182  13.043  0.1348  0.4508 -0.5750
 3801SOL    HW122865   3.309   1.141  12.972  0.1503 -0.8412  0.1712
 3801SOL    HW222866   3.295   1.201  13.111 -1.8115 -1.8201 -1.7548
 3802SOL     OW22867   4.376   0.567   8.333 -0.5715 -0.2844 -1.0178
 3802SOL    HW122868   4.328   0.620   8.398 -0.1685 -1.5244  0.2904
 3802SOL    HW222869   4.375   0.628   8.259  1.0620  0.1307 -0.7170
 3803SOL     OW22870   3.012   3.301   5.013  0.0566 -0.9574 -0.2323
 3803SOL    HW122871   2.966   3.218   5.005 -1.9906  0.3717 -1.9414
 3803SOL    HW222872   3.100   3.266   5.030 -0.2962 -2.1608 -0.9459
 3804SOL     OW22873   0.476   0.968   2.588 -0.1569 -0.0813 -0.3949
 3804SOL    HW122874   0.493   1.032   2.519 -1.9627  1.3355  0.4851
 3804SOL    HW222875   0.534   0.997   2.658 -1.2437  0.8798  0.1034
 3805SOL     OW22876   2.418   4.142   7.619 -0.2542 -0.3716 -0.0091
 3805SOL    HW122877   2.501   4.116   7.577  1.1386 -0.0784  2.5297
 3805SOL    HW222878   2.432   4.233   7.645 -2.2858  0.1453 -0.7796
 3806SOL     OW22879   2.896   4.675   9.816 -0.4954 -0.5608 -0.0862
 3806SOL    HW122880   2.878   0.007   9.741  0.8214 -1.1659 -0.8649
 3806SOL    HW222881   2.813   4.667   9.863 -0.3687  0.4168  0.2959
 3807SOL     OW22882   3.384   4.331   6.549 -0.3892 -0.1670 -0.5044
 3807SOL    HW122883   3.474   4.322   6.518 -0.7079 -2.2621 -0.7889
 3807SOL    HW222884   3.353   4.256   6.499  1.8698 -0.9500 -0.7054
 3808SOL     OW22885   4.670   0.577  15.580  0.6190  0.1326 -0.4796
 3808SOL    HW122886   4.657   0.653  15.636 -3.2602  0.0001 -1.1766
 3808SOL    HW222887   0.031   0.588  15.539  1.1370 -0.0801  0.5447
 3809SOL     OW22888   2.485   1.308  11.209 -0.9226 -0.1036  0.1523
 3809SOL    HW122889   2.473   1.386  11.262  0.4041  0.7007 -0.7310
 3809SOL    HW222890   2.439   1.322  11.126  0.1926  2.5216  0.0080
 3810SOL     OW22891   0.567   1.826   2.731 -0.0358  0.3190  0.0114
 3810SOL    HW122892   0.599   1.785   2.651  1.2884  0.8839  0.2538
 3810SOL    HW222893   0.546   1.916   2.704 -1.2481 -0.3606 -1.2872
 3811SOL     OW22894   2.803   0.951   6.556 -0.2806  0.6338 -0.5111
 3811SOL    HW122895   2.737   0.958   6.488 -1.9560 -0.7777  0.9715
 3811SOL    HW222896   2.769   1.005   6.627 -0.8459 -1.7181  1.0042
 3812SOL     OW22897   3.058   3.986   5.839  0.0014 -0.5141  0.6950
 3812SOL    HW122898   3.104   3.932   5.774 -1.7654 -0.2388 -0.7862
 3812SOL    HW222899   3.134   4.044   5.847  1.1545 -1.9203  0.1636
 3813SOL     OW22900   3.408   0.738   4.725  0.1660  0.5637  0.1695
 3813SOL    HW122901   3.330   0.791   4.712 -0.9672 -1.5611 -1.6723
 3813SOL    HW222902   3.372   0.655   4.756 -0.3898  0.4782 -0.7087
 3814SOL     OW22903   1.410   2.847   9.009  0.3519  0.3871 -0.0724
 3814SOL    HW122904   1.341   2.812   9.065 -0.2913 -0.7823 -1.5774
 3814SOL    HW222905   1.472   2.875   9.077  1.0650 -0.5424 -0.3319
 3815SOL     OW22906   3.215   4.078   2.084  0.1376 -0.1091 -0.6795
 3815SOL    HW122907   3.179   4.114   2.165  2.6117 -1.2806  0.9182
 3815SOL    HW222908   3.304   4.059   2.113 -0.5558  0.6794  2.0589
 3816SOL     OW22909   0.927   2.094   8.946  0.8466 -0.3460  0.8094
 3816SOL    HW122910   0.834   2.083   8.964  0.8970  0.7340  1.7691
 3816SOL    HW222911   0.974   2.048   9.016  0.1281 -0.0661  1.4712
 3817SOL     OW22912   2.996   3.982  16.657  0.8085 -0.8401 -0.4178
 3817SOL    HW122913   3.019   3.891  16.671 -0.1902 -1.0206  0.0353
 3817SOL    HW222914   2.966   3.974  16.566  1.6830  0.1004 -0.7992
 3818SOL     OW22915   3.442   0.809   6.166  0.1030  0.2272 -0.4980
 3818SOL    HW122916   3.468   0.756   6.241 -0.6544  0.4549 -0.0815
 3818SOL    HW222917   3.426   0.751   6.092 -0.1855  0.0716 -0.3115
 3819SOL     OW22918   3.488   2.077  17.498 -0.0367 -0.5259 -0.2162
 3819SOL    HW122919   3.487   2.019  17.575 -0.4179 -0.1080  0.0971
 3819SOL    HW222920   3.398   2.057  17.475 -0.5383  0.7746  0.6265
 3820SOL     OW22921   1.766   2.692  11.188 -0.6207 -0.3222 -0.9059
 3820SOL    HW122922   1.675   2.699  11.157 -1.2109 -1.3274  0.5952
 3820SOL    HW222923   1.765   2.762  11.252 -1.2252 -0.9532 -0.2284
 3821SOL     OW22924   0.756   4.375   0.334 -0.0378 -0.2629  0.1719
 3821SOL    HW122925   0.849   4.393   0.326 -0.6284  1.8305 -2.0692
 3821SOL    HW222926   0.733   4.437   0.403 -0.8724  1.4606 -1.6189
 3822SOL     OW22927   3.609   4.194   3.866 -0.4188  0.3335 -0.5823
 3822SOL    HW122928   3.695   4.155   3.850  0.0317  1.7889 -1.6734
 3822SOL    HW222929   3.617   4.235   3.953 -3.4168  0.7423 -0.5051
 3823SOL     OW22930   2.233   3.382  10.983 -0.6375  0.2307 -0.3307
 3823SOL    HW122931   2.181   3.437  11.041  0.7658  2.3674 -1.0914
 3823SOL    HW222932   2.301   3.355  11.045 -0.8836  0.4224  0.0237
 3824SOL     OW22933   2.654   1.671   0.835  0.1625  0.1035  0.1111
 3824SOL    HW122934   2.608   1.729   0.774  1.4251  0.7678 -0.2025
 3824SOL    HW222935   2.585   1.605   0.846  0.7286 -0.9706 -2.9205
 3825SOL     OW22936   3.704   1.033   7.365  0.1425 -0.0084  0.4370
 3825SOL    HW122937   3.612   1.010   7.353  0.4707 -0.8032 -0.5343
 3825SOL    HW222938   3.699   1.109   7.423  0.5140  0.4096 -0.0843
 3826SOL     OW22939   1.685   1.351   8.504 -0.2387  0.3082  0.1442
 3826SOL    HW122940   1.681   1.400   8.422  0.1643 -0.5235 -0.3718
 3826SOL    HW222941   1.691   1.414   8.575 -1.6139  0.3527  0.2168
 3827SOL     OW22942   0.800   0.688   8.941 -0.0969 -0.7880  0.0787
 3827SOL    HW122943   0.845   0.755   8.992 -1.2533  0.0720 -0.0429
 3827SOL    HW222944   0.854   0.611   8.961  1.5828  0.9290  2.2092
 3828SOL     OW22945   4.600   2.873   4.881 -0.0914  0.4316  0.2224
 3828SOL    HW122946   4.605   2.951   4.936  1.6362  2.0682 -2.2344
 3828SOL    HW222947   4.570   2.922   4.804 -0.1708  1.4621  0.9017
 3829SOL     OW22948   2.716   2.065  17.505 -0.2804  0.2998  0.1501
 3829SOL    HW122949   2.630   2.023  17.512 -0.4863  0.6999 -0.0013
 3829SOL    HW222950   2.764   1.989  17.472  0.6946 -0.0973  2.5130
 3830SOL     OW22951   1.943   1.763   5.966 -0.1727 -0.1348  0.4954
 3830SOL    HW122952   1.881   1.818   6.013  0.3645  1.6465 -0.9129
 3830SOL    HW222953   1.895   1.681   5.952 -1.7008  0.3898  2.6484
 3831SOL     OW22954   3.805   1.661   9.259 -0.5193 -0.4152  0.0622
 3831SOL    HW122955   3.785   1.593   9.323 -1.2153  0.3885  0.6850
 3831SOL    HW222956   3.768   1.625   9.178  0.5978  0.8158 -1.0105
 3832SOL     OW22957   4.530   3.755   3.655 -0.4739  0.2673 -0.1166
 3832SOL    HW122958   4.556   3.703   3.730 -1.8750 -0.5712 -0.2149
 3832SOL    HW222959   4.542   3.686   3.590 -0.7998 -0.6494  0.7974
 3833SOL     OW22960   1.904   0.406   6.726  0.0934  0.1909 -0.2836
 3833SOL    HW122961   1.998   0.389   6.733  0.0920  0.6173  0.8017
 3833SOL    HW222962   1.902   0.468   6.653 -1.6857 -0.1833 -0.5493
 3834SOL     OW22963   2.170   1.389   4.241 -0.4139  0.1798  0.4674
 3834SOL    HW122964   2.210   1.472   4.267  1.0622 -0.6771  0.9340
 3834SOL    HW222965   2.249   1.340   4.219 -0.7364 -0.3704  0.5478
 3835SOL     OW22966   4.171   1.304   8.696 -0.1241  0.1963  0.7257
 3835SOL    HW122967   4.195   1.394   8.716 -1.7260  0.6592  0.5499
 3835SOL    HW222968   4.131   1.319   8.610  0.1172  0.1797  0.6103
 3836SOL     OW22969   4.264   0.871   3.381 -0.0044  0.3927 -0.1846
 3836SOL    HW122970   4.241   0.941   3.319 -2.6480 -1.2915 -1.0931
 3836SOL    HW222971   4.276   0.929   3.456 -0.0923 -1.7826  1.5067
 3837SOL     OW22972   2.055   4.450   4.128  0.0513  0.1399  0.0821
 3837SOL    HW122973   2.121   4.391   4.092 -0.6910 -0.7603  0.1906
 3837SOL    HW222974   2.046   4.522   4.066  0.7146 -0.0558 -0.2399
 3838SOL     OW22975   3.148   4.202  16.734  0.3655  0.3418  0.2844
 3838SOL    HW122976   3.084   4.135  16.712 -0.0642  1.4948 -1.9488
 3838SOL    HW222977   3.105   4.263  16.794 -1.7575  0.6539 -1.5766
 3839SOL     OW22978   2.944   0.668   6.197 -0.3675  0.0097  0.1913
 3839SOL    HW122979   2.877   0.737   6.193 -1.1217 -0.6076  2.1524
 3839SOL    HW222980   3.000   0.709   6.131  1.0109  1.8224  2.5303
 3840SOL     OW22981   2.989   0.464  11.636 -0.4377 -0.5527  0.2744
 3840SOL    HW122982   2.975   0.460  11.730 -2.3684  1.0503  0.0650
 3840SOL    HW222983   3.003   0.557  11.617 -2.5570 -0.5751 -1.4648
 3841SOL     OW22984   1.302   1.210   7.883  0.3675  0.2763 -0.0272
 3841SOL    HW122985   1.391   1.214   7.848  1.2698  0.1061  2.2774
 3841SOL    HW222986   1.260   1.147   7.825  1.0315 -1.7999  1.7726
 3842SOL     OW22987   0.924   1.423   7.093 -0.0926 -0.4904 -0.0959
 3842SOL    HW122988   0.963   1.337   7.077  0.5035 -0.4822  1.3250
 3842SOL    HW222989   0.833   1.402   7.114  0.2013 -2.9562 -1.2789
 3843SOL     OW22990   1.789   3.293   7.098 -0.6795 -0.0350 -0.4345
 3843SOL    HW122991   1.722   3.318   7.034 -0.6582 -0.4043 -0.6023
 3843SOL    HW222992   1.737   3.224   7.140 -2.9629  1.2927 -1.0660
 3844SOL     OW22993   3.458   0.190  11.749 -0.0296 -0.0835 -0.2400
 3844SOL    HW122994   3.391   0.122  11.758 -0.6174  0.3032 -1.7626
 3844SOL    HW222995   3.419   0.260  11.801 -3.6916 -1.5813 -0.9854
 3845SOL     OW22996   3.898   1.622   7.867  0.0160  0.3260  0.1912
 3845SOL    HW122997   3.969   1.660   7.816 -0.9004 -0.1995 -1.4935
 3845SOL    HW222998   3.822   1.645   7.813  0.4576  1.2339 -0.0368
 3846SOL     OW22999   2.866   4.089   1.094 -0.2651  0.4789 -0.0519
 3846SOL    HW123000   2.812   4.168   1.084  1.0624  1.1047 -2.3796
 3846SOL    HW223001   2.858   4.073   1.188 -1.2966  0.9650 -0.0472
 3847SOL     OW23002   2.212   3.573   3.797  0.2220 -0.6861  0.8159
 3847SOL    HW123003   2.268   3.644   3.827 -1.1289  1.1738 -1.0257
 3847SOL    HW223004   2.134   3.629   3.790 -0.1156 -1.4836 -1.8822
 3848SOL     OW23005   0.184   4.710  14.833  0.3527  0.4445  1.0136
 3848SOL    HW123006   0.263   0.021  14.791 -0.7085  2.0454  0.3498
 3848SOL    HW223007   0.191   4.615  14.823  4.2371  0.9523 -0.9801
 3849SOL     OW23008   2.946   1.640   2.444  0.8081  0.1601  0.6486
 3849SOL    HW123009   2.921   1.552   2.470  1.3231  0.2061  1.3133
 3849SOL    HW223010   2.915   1.690   2.519  1.2080  0.5868  0.5291
 3850SOL     OW23011   1.154   2.552   2.791  0.7945  0.2794 -0.6869
 3850SOL    HW123012   1.061   2.558   2.771  1.0264  0.0547 -1.8420
 3850SOL    HW223013   1.153   2.563   2.886 -0.4856  1.7169 -0.8707
 3851SOL     OW23014   0.219   0.729  12.713  0.5777 -0.4437 -0.3892
 3851SOL    HW123015   0.231   0.644  12.756 -0.7621  0.4451  1.7256
 3851SOL    HW223016   0.263   0.709  12.630  0.3366 -0.3272 -0.5444
 3852SOL     OW23017   0.189   3.429   4.562  0.6700  0.7629  0.0180
 3852SOL    HW123018   0.125   3.492   4.594 -0.2001 -0.7194  1.2201
 3852SOL    HW223019   0.268   3.440   4.614 -0.1369  0.2974  1.3360
 3853SOL     OW23020   4.719   3.840   7.163  0.5115 -0.0106 -0.4019
 3853SOL    HW123021   4.632   3.839   7.123  1.1437  0.9626 -1.7865
 3853SOL    HW223022   0.045   3.883   7.094  2.4310 -1.3079  0.1757
 3854SOL     OW23023   0.961   0.246   3.939  0.8556 -0.1518 -0.4589
 3854SOL    HW123024   0.992   0.233   4.029  1.3964  0.7383 -0.5093
 3854SOL    HW223025   1.024   0.307   3.902  2.0196 -1.1206 -0.0559
 3855SOL     OW23026   0.752   3.686   1.559  0.3038 -0.6647 -0.5567
 3855SOL    HW123027   0.813   3.758   1.545 -0.3368 -0.0659 -0.2141
 3855SOL    HW223028   0.813   3.612   1.560  2.2397  0.9670  0.7502
 3856SOL     OW23029   2.603   1.579  11.836 -0.4310 -0.1031  0.2403
 3856SOL    HW123030   2.540   1.516  11.802 -0.2980 -0.5470  0.8239
 3856SOL    HW223031   2.682   1.527  11.850  0.3098  0.7313 -0.8700
 3857SOL     OW23032   2.479   1.014   0.987  0.4301  0.3884 -0.0614
 3857SOL    HW123033   2.507   1.010   0.896  2.2605  3.9834  0.3385
 3857SOL    HW223034   2.462   1.108   0.998  2.9447  0.9655 -1.1409
 3858SOL     OW23035   0.220   1.713   5.953  0.4321 -0.5849 -0.2662
 3858SOL    HW123036   0.244   1.748   6.039  0.9199  0.6135 -0.8851
 3858SOL    HW223037   0.232   1.618   5.952 -0.5536 -0.7405  2.3495
 3859SOL     OW23038   1.823   4.241   1.327 -0.6460 -0.0210 -0.1815
 3859SOL    HW123039   1.877   4.238   1.405 -0.4620 -0.4582 -0.3309
 3859SOL    HW223040   1.824   4.150   1.299  0.2524 -0.9738  2.9765
 3860SOL     OW23041   4.335   0.900   4.381 -0.3184  0.2418 -0.3114
 3860SOL    HW123042   4.257   0.916   4.327  0.0510 -0.1294 -0.9554
 3860SOL    HW223043   4.410   0.894   4.322  0.2689  0.9343  0.3735
 3861SOL     OW23044   0.713   1.097  11.909  0.2198  0.1572  0.9340
 3861SOL    HW123045   0.702   1.190  11.930 -4.3030 -0.1384  0.0177
 3861SOL    HW223046   0.729   1.097  11.815 -0.7757  0.9742  0.7597
 3862SOL     OW23047   0.723   2.835  17.567 -0.0145 -0.0802 -0.6880
 3862SOL    HW123048   0.749   2.917  17.526 -2.8070  0.2571 -1.7553
 3862SOL    HW223049   0.671   2.802  17.494 -1.4397  0.5106  0.0680
 3863SOL     OW23050   3.159   2.001   7.092 -0.1247 -0.3498  0.3243
 3863SOL    HW123051   3.149   2.031   7.001  1.6250  1.5827  0.7790
 3863SOL    HW223052   3.153   1.908   7.074 -3.8023  0.1007 -0.8565
 3864SOL     OW23053   2.889   3.891   4.831 -0.4378  0.2456 -0.2857
 3864SOL    HW123054   2.886   3.987   4.825  2.4124  0.1924 -2.3178
 3864SOL    HW223055   2.806   3.878   4.878  0.3110  0.1920  1.0109
 3865SOL     OW23056   3.036   1.219   4.007  0.0569 -0.1980  0.4346
 3865SOL    HW123057   3.023   1.313   4.016  3.5053  0.4557 -1.5191
 3865SOL    HW223058   3.090   1.202   4.084 -3.1212 -2.1091  2.2586
 3866SOL     OW23059   3.002   2.602  17.682  0.3744 -0.3916 -0.1268
 3866SOL    HW123060   3.019   2.604   0.077 -1.4625  0.5172  0.1845
 3866SOL    HW223061   2.909   2.582  17.687  0.6231 -1.3566  0.7430
 3867SOL     OW23062   0.840   1.066   1.129 -0.4290  0.3709  0.0147
 3867SOL    HW123063   0.811   1.157   1.123  1.9558  1.2036  1.2613
 3867SOL    HW223064   0.759   1.019   1.149 -0.4032  0.0962 -0.5187
 3868SOL     OW23065   1.603   3.669   2.771 -0.3158 -0.2972 -0.3421
 3868SOL    HW123066   1.548   3.599   2.736 -0.5702  0.9652 -2.4080
 3868SOL    HW223067   1.684   3.622   2.792 -0.6771 -1.3058 -1.2145
 3869SOL     OW23068   1.103   3.083   8.408 -0.6898 -0.0325  0.1424
 3869SOL    HW123069   1.152   3.143   8.352  0.1963  0.4888  1.4695
 3869SOL    HW223070   1.013   3.112   8.395 -0.9767 -0.2303  1.6418
 3870SOL     OW23071   2.613   3.427   4.776  0.3200 -0.2700  0.0864
 3870SOL    HW123072   2.643   3.517   4.759 -2.2903  0.6885  0.5982
 3870SOL    HW223073   2.529   3.429   4.731 -0.4185 -1.6923  1.4286
 3871SOL     OW23074   3.524   2.253  13.398  0.1620  0.0689  0.1846
 3871SOL    HW123075   3.582   2.218  13.331 -0.1566 -0.4880  0.2059
 3871SOL    HW223076   3.541   2.200  13.476  1.0167  1.6035  1.0444
 3872SOL     OW23077   0.952   2.953   8.867  0.4359  0.2223 -0.1845
 3872SOL    HW123078   1.032   2.956   8.815 -0.0234  1.1371 -0.8340
 3872SOL    HW223079   0.882   2.936   8.805 -1.1215  3.2900  0.7469
 3873SOL     OW23080   0.293   3.065   8.767 -0.5285  0.5255 -0.3934
 3873SOL    HW123081   0.235   3.000   8.806 -1.0476  1.1949 -0.0376
 3873SOL    HW223082   0.307   3.119   8.844 -0.7393 -2.2418  1.5486
 3874SOL     OW23083   1.872   2.192  14.502 -0.3159 -0.5277  0.0844
 3874SOL    HW123084   1.876   2.190  14.407 -1.1402  0.1941  0.0406
 3874SOL    HW223085   1.849   2.102  14.527  2.2019 -1.9328 -2.6372
 3875SOL     OW23086   0.573   1.520   4.177  0.1355  0.0922 -0.2119
 3875SOL    HW123087   0.542   1.430   4.182 -0.7032  0.4936  1.6870
 3875SOL    HW223088   0.515   1.557   4.110 -0.0150 -1.0970 -0.7335
 3876SOL     OW23089   2.775   1.614   5.133  0.1746  0.3723  0.5611
 3876SOL    HW123090   2.763   1.604   5.228  0.8383 -0.9102  0.5011
 3876SOL    HW223091   2.707   1.682   5.130 -0.8834 -0.6975  0.4690
 3877SOL     OW23092   1.471   2.399   1.690  0.0923  0.4410  0.1787
 3877SOL    HW123093   1.397   2.374   1.745  1.4382 -1.5242  1.0953
 3877SOL    HW223094   1.463   2.494   1.700  2.1712  0.9672 -3.0964
 3878SOL     OW23095   1.181   1.318  14.723 -0.5334  0.0645  0.2818
 3878SOL    HW123096   1.220   1.267  14.794 -0.0524  0.7374  0.4971
 3878SOL    HW223097   1.247   1.387  14.714 -0.0252 -0.3837  0.6081
 3879SOL     OW23098   0.583   0.711   6.376 -0.5524  0.0860 -0.1524
 3879SOL    HW123099   0.558   0.621   6.354  0.0075 -0.1551  0.1783
 3879SOL    HW223100   0.678   0.719   6.363 -0.5764 -0.1601 -0.4902
 3880SOL     OW23101   2.518   2.586   9.857  0.2379 -0.0947  0.0989
 3880SOL    HW123102   2.588   2.641   9.822  0.2065 -0.1549 -0.0605
 3880SOL    HW223103   2.551   2.568   9.945  0.6507 -0.1991 -0.0751
 3881SOL     OW23104   0.512   2.896   3.294  0.0709  0.0839  0.4891
 3881SOL    HW123105   0.495   2.961   3.226 -2.5344  0.2098  1.2536
 3881SOL    HW223106   0.424   2.903   3.331 -1.2338 -0.2633 -2.5898
 3882SOL     OW23107   4.013   4.144   2.951 -0.1663  0.1630 -0.0096
 3882SOL    HW123108   3.938   4.089   2.928 -0.9934  0.9071  0.8816
 3882SOL    HW223109   3.983   4.235   2.955  1.5690  0.7249  0.1562
 3883SOL     OW23110   1.240   0.029   0.432 -0.2239  0.4442  0.0206
 3883SOL    HW123111   1.328   4.717   0.442 -0.2511  1.1714  2.8549
 3883SOL    HW223112   1.264   0.122   0.437  0.4136  0.4120 -2.0689
 3884SOL     OW23113   0.206   0.104   2.424 -0.0266 -0.2199  0.1359
 3884SOL    HW123114   0.122   0.139   2.453 -0.4694  0.5250 -2.0382
 3884SOL    HW223115   0.227   0.043   2.495  1.6568 -1.8937 -1.7906
 3885SOL     OW23116   1.389   1.390   8.545  1.0187 -0.6989 -0.6673
 3885SOL    HW123117   1.417   1.299   8.543  0.9142 -0.7202 -1.4007
 3885SOL    HW223118   1.373   1.413   8.453  1.0888 -0.9573 -0.7430
 3886SOL     OW23119   4.676   1.276   4.164 -0.5284 -0.1815  0.1607
 3886SOL    HW123120   4.610   1.320   4.217 -0.2896 -0.2558  0.5178
 3886SOL    HW223121   0.010   1.235   4.228 -0.3982 -1.8980 -1.0540
 3887SOL     OW23122   0.385   3.373   1.359 -0.1563  0.0873  0.4952
 3887SOL    HW123123   0.377   3.467   1.378  1.3447  0.3771 -0.2423
 3887SOL    HW223124   0.476   3.356   1.385 -0.9110 -0.1550  2.9748
 3888SOL     OW23125   2.461   0.984   8.485 -0.7907  0.9057  0.5098
 3888SOL    HW123126   2.501   1.045   8.422  1.2604 -0.2707  0.6813
 3888SOL    HW223127   2.489   1.024   8.567  1.6548 -1.0548  0.6279
 3889SOL     OW23128   0.397   2.815  10.947 -0.1520  0.1105 -0.0696
 3889SOL    HW123129   0.305   2.833  10.965 -0.9215 -1.8308 -2.1300
 3889SOL    HW223130   0.386   2.769  10.864  2.3870 -0.6126 -0.0037
 3890SOL     OW23131   2.271   2.722   4.029 -0.2951 -0.8221  0.2293
 3890SOL    HW123132   2.260   2.635   3.989 -0.7366 -1.4551  1.7198
 3890SOL    HW223133   2.217   2.766   3.963  0.6727 -0.9197 -0.6318
 3891SOL     OW23134   3.583   2.354  17.455  0.0747  0.3970  0.0842
 3891SOL    HW123135   3.568   2.261  17.473 -0.2958  0.1644 -1.4449
 3891SOL    HW223136   3.636   2.351  17.375  2.4634  1.0835  1.6378
 3892SOL     OW23137   3.943   1.286   4.087  0.1011  0.3311  0.7135
 3892SOL    HW123138   3.942   1.316   3.996  5.8073  0.7219  0.8189
 3892SOL    HW223139   3.935   1.373   4.127 -1.0714 -0.0779  1.3666
 3893SOL     OW23140   2.601   3.126  16.091  0.7918 -0.0170 -0.4675
 3893SOL    HW123141   2.534   3.193  16.084  0.5160 -0.1872  0.5038
 3893SOL    HW223142   2.551   3.045  16.080 -0.1106  0.6251 -1.0663
 3894SOL     OW23143   3.830   0.468   4.025 -0.0349 -0.5451 -0.4565
 3894SOL    HW123144   3.742   0.440   4.000  1.1637 -1.2987 -3.8186
 3894SOL    HW223145   3.806   0.532   4.092  1.7006 -0.1016 -0.2669
 3895SOL     OW23146   4.373   3.688  11.948  0.7030  0.0880  0.2064
 3895SOL    HW123147   4.322   3.652  12.020  0.2028 -0.4815 -0.4367
 3895SOL    HW223148   4.457   3.648  11.971  0.8205  1.1033  1.5594
 3896SOL     OW23149   0.402   1.853   1.657 -0.1165  0.5375 -0.9688
 3896SOL    HW123150   0.346   1.776   1.654  0.0175  0.2793  3.6374
 3896SOL    HW223151   0.392   1.879   1.748  0.5290 -0.4143 -0.6133
 3897SOL     OW23152   2.580   3.872   5.356  0.0234  0.6084  0.2049
 3897SOL    HW123153   2.581   3.823   5.439 -2.0990 -0.7608 -0.5849
 3897SOL    HW223154   2.578   3.961   5.391  2.5237  1.2568 -1.3162
 3898SOL     OW23155   3.967   4.398   6.943 -0.5775  0.0797  0.8103
 3898SOL    HW123156   3.914   4.327   6.980 -2.0672  1.2757  0.9429
 3898SOL    HW223157   4.049   4.349   6.941  0.3622  1.6715  0.4477
 3899SOL     OW23158   2.637   4.703   4.903 -0.5399 -0.2373  0.4035
 3899SOL    HW123159   2.728   4.707   4.873 -1.3474  0.2736 -2.0089
 3899SOL    HW223160   2.648   0.041   4.976  1.4781  0.0762 -0.1722
 3900SOL     OW23161   2.732   1.199   8.944 -0.1597  0.1175  0.3425
 3900SOL    HW123162   2.695   1.133   9.003 -1.3728  0.0770 -0.4675
 3900SOL    HW223163   2.823   1.178   8.963  0.0017  1.7475  1.3918
 3901SOL     OW23164   2.217   0.677   7.116  0.2077 -0.0231 -0.7931
 3901SOL    HW123165   2.185   0.698   7.204  0.3318 -1.9499 -0.2814
 3901SOL    HW223166   2.136   0.655   7.070  0.2987 -0.8416 -0.5756
 3902SOL     OW23167   0.137   1.240   8.490  0.6812 -0.1331  0.2341
 3902SOL    HW123168   0.092   1.289   8.421  1.5646 -0.7958 -0.8044
 3902SOL    HW223169   0.193   1.305   8.531  0.3921  0.9281 -1.0389
 3903SOL     OW23170   2.339   0.621   8.249 -0.8257  0.2204 -0.7824
 3903SOL    HW123171   2.377   0.644   8.334  3.0063 -1.4421 -2.0541
 3903SOL    HW223172   2.335   0.527   8.265  1.0922  0.2799  0.0407
 3904SOL     OW23173   3.863   0.590   7.416  0.0336 -0.1013 -0.2001
 3904SOL    HW123174   3.942   0.544   7.443  0.5800  1.9087  1.7083
 3904SOL    HW223175   3.890   0.679   7.393  0.9025 -0.4224 -0.3930
 3905SOL     OW23176   1.079   0.768   5.925  0.0434 -0.1329  0.1983
 3905SOL    HW123177   1.069   0.858   5.955 -0.9479 -0.1830 -0.0011
 3905SOL    HW223178   1.101   0.784   5.833 -2.5677 -0.2252 -0.4389
 3906SOL     OW23179   1.492   2.161   8.745 -0.1813 -0.4884  0.5135
 3906SOL    HW123180   1.462   2.084   8.794  0.8567 -1.3481 -0.2093
 3906SOL    HW223181   1.561   2.119   8.694 -0.9490 -0.8894 -0.2174
 3907SOL     OW23182   3.453   1.571   1.125  0.2587  0.1306  0.2459
 3907SOL    HW123183   3.416   1.570   1.213 -1.8169  2.0321 -0.5950
 3907SOL    HW223184   3.444   1.479   1.102 -1.4847  0.3171  0.1540
 3908SOL     OW23185   0.864   4.656   0.127 -0.1910  0.1492  0.2589
 3908SOL    HW123186   0.871   4.564   0.101 -1.9196  0.2494 -0.5771
 3908SOL    HW223187   0.953   4.686   0.105  0.0001  0.0793  0.9493
 3909SOL     OW23188   0.210   2.180  13.940 -0.1489  0.3804 -0.1819
 3909SOL    HW123189   0.119   2.191  13.966  0.4379  2.5603  0.9889
 3909SOL    HW223190   0.245   2.259  13.980  1.0240 -0.0663 -0.3360
 3910SOL     OW23191   1.867   0.142   3.259 -0.1643 -0.1643 -0.3114
 3910SOL    HW123192   1.816   0.178   3.332 -3.0607  0.5719 -2.6787
 3910SOL    HW223193   1.807   0.076   3.223 -2.3944  1.3182  0.6682
 3911SOL     OW23194   4.227   3.205  17.398  0.0346 -0.6826  0.1146
 3911SOL    HW123195   4.271   3.154  17.331  0.3904 -1.9846  1.3470
 3911SOL    HW223196   4.303   3.259  17.421  0.0537 -0.8632  0.4767
 3912SOL     OW23197   1.517   4.308  10.667  0.8930  0.3852 -0.2784
 3912SOL    HW123198   1.461   4.368  10.619 -0.0018 -0.6870 -0.5657
 3912SOL    HW223199   1.472   4.306  10.752  2.1630  1.6062  0.4233
 3913SOL     OW23200   0.349   3.039  11.948 -0.7062  0.6277 -0.4297
 3913SOL    HW123201   0.414   2.969  11.940 -0.3898  0.7274  1.3799
 3913SOL    HW223202   0.319   3.006  12.033 -0.3228  1.0903 -0.1196
 3914SOL     OW23203   1.818   3.381   4.040 -0.6907  0.3561 -0.1439
 3914SOL    HW123204   1.826   3.295   4.080  0.0138 -0.6422 -2.4486
 3914SOL    HW223205   1.730   3.411   4.064 -0.3001  0.2091  1.4394
 3915SOL     OW23206   2.352   0.056   9.113 -0.3661 -0.2698 -0.7300
 3915SOL    HW123207   2.433   0.010   9.138  0.7921  1.4612 -1.2726
 3915SOL    HW223208   2.296   0.008   9.174 -1.8171  2.2688 -0.0552
 3916SOL     OW23209   0.585   2.911  17.144 -0.5756  0.5886  0.0533
 3916SOL    HW123210   0.670   2.950  17.126  0.1866 -0.3304  1.6445
 3916SOL    HW223211   0.609   2.851  17.214  1.1470  1.5849  0.3013
 3917SOL     OW23212   1.890   3.245   2.626  0.0411 -0.6697 -0.4377
 3917SOL    HW123213   1.871   3.335   2.650 -2.9026 -1.7064  1.1196
 3917SOL    HW223214   1.972   3.255   2.577  1.1794 -1.5945  1.2739
 3918SOL     OW23215   4.144   4.713  17.268  0.1194 -0.1691  0.0203
 3918SOL    HW123216   4.077   4.689  17.332  2.1315 -1.1335  1.7779
 3918SOL    HW223217   4.094   0.029  17.197  1.0131  1.0317  0.0828
 3919SOL     OW23218   1.817   1.690   1.470  0.1005 -0.1038 -0.0577
 3919SOL    HW123219   1.726   1.708   1.494 -0.0646  1.9206 -2.2302
 3919SOL    HW223220   1.819   1.677   1.376  1.6266 -1.0285  0.1007
 3920SOL     OW23221   0.321   1.031  14.833  0.1582 -0.0001 -0.0506
 3920SOL    HW123222   0.291   1.100  14.892 -1.1015 -1.2828  0.8024
 3920SOL    HW223223   0.341   0.961  14.895  2.0538  1.5186  1.0562
 3921SOL     OW23224   3.753   3.009  11.080 -0.2945  0.5262  0.7152
 3921SOL    HW123225   3.839   3.049  11.064 -0.2521  0.0555 -0.2048
 3921SOL    HW223226   3.696   3.085  11.090 -0.7137  0.3232 -0.1666
 3922SOL     OW23227   0.058   4.413   2.077  0.3163  0.7185  0.1223
 3922SOL    HW123228   0.144   4.454   2.068 -0.1167  1.3808 -1.0244
 3922SOL    HW223229   0.034   4.437   2.166 -0.0917  0.9153 -0.0408
 3923SOL     OW23230   3.141   2.207   5.309 -0.3060 -0.4049 -0.2121
 3923SOL    HW123231   3.113   2.173   5.394 -1.6364 -1.0583 -0.8997
 3923SOL    HW223232   3.064   2.260   5.286 -0.9311 -1.2361 -0.0348
 3924SOL     OW23233   3.510   4.698   4.072 -0.3538 -0.2115 -0.3748
 3924SOL    HW123234   3.547   4.673   3.987 -0.4152 -0.8298 -0.2149
 3924SOL    HW223235   3.553   0.060   4.071 -2.0234  0.6177 -0.4775
 3925SOL     OW23236   4.326   2.287   4.673 -0.2743 -0.4500 -0.2895
 3925SOL    HW123237   4.366   2.356   4.620 -1.2073  1.3653  1.3475
 3925SOL    HW223238   4.283   2.344   4.737 -0.7478  0.2895 -1.2742
 3926SOL     OW23239   0.469   1.014  12.001 -0.1701 -0.5775 -0.5323
 3926SOL    HW123240   0.451   0.939  11.945  1.3085  0.5938 -2.5527
 3926SOL    HW223241   0.564   1.020  11.995 -0.0131 -2.2953  0.3485
 3927SOL     OW23242   2.276   1.519   3.777 -0.1713  0.5361 -0.4639
 3927SOL    HW123243   2.323   1.595   3.810 -0.7694 -0.4503  2.6254
 3927SOL    HW223244   2.185   1.541   3.793  0.5306  1.5856  2.1530
 3928SOL     OW23245   4.234   3.545   2.563 -0.1334  0.7798 -0.9307
 3928SOL    HW123246   4.191   3.465   2.595  1.2280  1.2284  2.0030
 3928SOL    HW223247   4.193   3.545   2.476  0.4768  0.8046 -1.2193
 3929SOL     OW23248   1.258   4.553   0.811 -0.4404  0.2692 -0.1849
 3929SOL    HW123249   1.291   4.493   0.745 -1.4631  2.0832 -2.3479
 3929SOL    HW223250   1.301   4.639   0.811  0.2347 -0.0518  2.2704
 3930SOL     OW23251   3.139   1.828  16.278 -0.3492  0.2062 -0.2841
 3930SOL    HW123252   3.059   1.826  16.225 -0.5721  0.7534  0.0384
 3930SOL    HW223253   3.168   1.919  16.286  1.7114 -0.5768  1.1271
 3931SOL     OW23254   3.261   3.265   7.070  0.7934 -0.7048  0.6708
 3931SOL    HW123255   3.312   3.335   7.112  0.0425 -0.5741  1.3506
 3931SOL    HW223256   3.181   3.268   7.122  1.9546  1.9382  2.3520
 3932SOL     OW23257   2.519   0.184  10.900  0.7300 -0.2892 -0.1007
 3932SOL    HW123258   2.475   0.226  10.974  1.3497  0.8879 -0.3926
 3932SOL    HW223259   2.547   0.263  10.852  0.6315  0.0644  0.4250
 3933SOL     OW23260   3.238   3.128   2.601  0.4272  0.4440  0.8666
 3933SOL    HW123261   3.258   3.067   2.530 -0.6120  2.2649 -0.9682
 3933SOL    HW223262   3.321   3.116   2.649  1.4316 -1.7183 -1.4025
 3934SOL     OW23263   2.520   2.593  16.904 -0.7555  0.0841 -0.1527
 3934SOL    HW123264   2.519   2.642  16.987 -0.3736 -0.6821  0.3063
 3934SOL    HW223265   2.551   2.512  16.945 -0.6323  0.6138  0.8254
 3935SOL     OW23266   3.723   3.959  17.646 -0.4007 -0.2057 -0.1306
 3935SOL    HW123267   3.798   3.970   0.005  0.2049 -1.3208 -0.7121
 3935SOL    HW223268   3.709   3.865  17.643 -3.2972  0.1057  3.6748
 3936SOL     OW23269   2.833   4.687   5.874  0.3115 -0.0718 -0.0136
 3936SOL    HW123270   2.872   0.001   5.796 -0.1225  0.4775  0.0323
 3936SOL    HW223271   2.865   0.022   5.943 -1.0478  1.5389 -0.7667
 3937SOL     OW23272   0.487   3.488   9.734  0.1082  0.2174  0.5477
 3937SOL    HW123273   0.578   3.483   9.706 -0.6791  1.2688 -2.2446
 3937SOL    HW223274   0.476   3.395   9.715 -1.2368  0.9540 -2.3967
 3938SOL     OW23275   1.064   3.523   6.044 -0.4434 -0.0450 -0.0466
 3938SOL    HW123276   1.060   3.589   6.112  0.3990  0.0932 -0.1299
 3938SOL    HW223277   1.081   3.444   6.096 -0.4959 -0.5312 -0.7585
 3939SOL     OW23278   3.717   1.544   7.274  0.1536 -0.2525 -0.2579
 3939SOL    HW123279   3.736   1.503   7.189  0.8446  1.2445 -0.8233
 3939SOL    HW223280   3.698   1.636   7.254 -0.8549 -0.8507 -2.0798
 3940SOL     OW23281   1.497   2.311   7.517 -0.1423  0.4997  0.2346
 3940SOL    HW123282   1.592   2.309   7.528 -0.0368 -0.0960 -0.6847
 3940SOL    HW223283   1.475   2.227   7.475  0.2043  0.3768  0.2949
 3941SOL     OW23284   3.888   0.127   0.951 -0.6415  0.1704  0.4939
 3941SOL    HW123285   3.936   0.051   0.919 -1.8348 -2.2208  4.5302
 3941SOL    HW223286   3.932   0.138   1.035  0.7966 -0.9346 -0.1206
 3942SOL     OW23287   1.632   3.457   9.587  0.6531 -0.0475 -0.0768
 3942SOL    HW123288   1.602   3.367   9.595 -0.2898  0.0770 -2.1199
 3942SOL    HW223289   1.691   3.467   9.662  1.4356  0.7638 -0.7899
 3943SOL     OW23290   3.724   0.712   2.298  0.0252 -0.1629  0.1404
 3943SOL    HW123291   3.695   0.683   2.212 -0.4949  1.0363 -0.0754
 3943SOL    HW223292   3.650   0.700   2.358  0.3063  0.1376  0.5446
 3944SOL     OW23293   3.490   3.946   9.510 -0.6167 -0.4231  0.3703
 3944SOL    HW123294   3.558   3.919   9.572  2.3437  2.6288 -1.5437
 3944SOL    HW223295   3.489   3.864   9.462 -0.1705  0.5566 -1.3030
 3945SOL     OW23296   3.656   4.236  16.721  0.0980 -0.7653 -0.0169
 3945SOL    HW123297   3.669   4.145  16.749 -1.1694 -0.5855  1.1522
 3945SOL    HW223298   3.575   4.227  16.671  0.8506 -2.4457 -0.9346
 3946SOL     OW23299   0.146   0.270  10.039  0.5419 -0.9790 -0.4093
 3946SOL    HW123300   0.117   0.232  10.123 -1.0667  0.3240 -0.3593
 3946SOL    HW223301   0.241   0.269  10.050  0.6301 -1.9947 -1.3263
 3947SOL     OW23302   4.322   3.785   4.047 -0.1506 -0.3452 -0.2261
 3947SOL    HW123303   4.270   3.794   3.967  0.7746 -0.3270 -0.8325
 3947SOL    HW223304   4.335   3.879   4.059  0.1687 -0.3860 -0.2504
 3948SOL     OW23305   0.188   3.059   6.773 -0.0204  0.2691 -0.1749
 3948SOL    HW123306   0.201   2.972   6.812 -0.6697 -0.3167 -1.2975
 3948SOL    HW223307   0.118   3.078   6.835 -0.3359 -1.0971 -0.1098
 3949SOL     OW23308   1.595   0.538  10.376 -0.2661 -0.3357  0.1901
 3949SOL    HW123309   1.533   0.610  10.381  0.1113 -0.0042  0.0763
 3949SOL    HW223310   1.671   0.552  10.432 -0.6382 -1.1938  0.9077
 3950SOL     OW23311   1.243   3.753   3.693  0.3376 -0.0614 -0.1221
 3950SOL    HW123312   1.261   3.805   3.771 -1.0166 -0.5540  0.5273
 3950SOL    HW223313   1.282   3.800   3.620 -1.5736  0.9065 -0.5190
 3951SOL     OW23314   1.125   1.665  17.091 -0.6507 -0.4548  0.6628
 3951SOL    HW123315   1.150   1.757  17.107  0.9816 -0.7923  0.1286
 3951SOL    HW223316   1.039   1.662  17.132 -1.4112  1.9690 -0.7584
 3952SOL     OW23317   0.715   3.179   4.806 -0.1533 -0.0062  0.2978
 3952SOL    HW123318   0.710   3.134   4.891  1.3345 -0.3888  0.1862
 3952SOL    HW223319   0.789   3.127   4.775  0.9268  1.5663  0.2450
 3953SOL     OW23320   0.677   0.001   0.320  0.1748  0.0644  0.2028
 3953SOL    HW123321   0.654   0.089   0.290  3.6872  1.1239  0.6099
 3953SOL    HW223322   0.715   4.682   0.244  0.2177  2.1536 -0.9623
 3954SOL     OW23323   1.872   2.447  11.805 -0.4096  0.0156 -0.4181
 3954SOL    HW123324   1.942   2.497  11.763 -2.4970  3.6731  0.4856
 3954SOL    HW223325   1.906   2.394  11.878  0.5693  0.4122 -0.5874
 3955SOL     OW23326   0.215   0.822  15.438  0.6653 -0.0329  0.0607
 3955SOL    HW123327   0.236   0.744  15.489  0.9228 -0.8742 -1.3274
 3955SOL    HW223328   0.261   0.897  15.476  0.4602  0.6397 -1.0352
 3956SOL     OW23329   4.239   1.273   4.879 -0.6482 -0.1401  0.2728
 3956SOL    HW123330   4.195   1.284   4.795  2.5596 -0.9069 -1.5146
 3956SOL    HW223331   4.330   1.270   4.848 -0.7071 -0.7666  0.1616
 3957SOL     OW23332   0.212   1.802   8.222 -0.5068 -0.2287  0.1918
 3957SOL    HW123333   0.229   1.734   8.288 -1.1363 -0.0473  0.5357
 3957SOL    HW223334   0.304   1.811   8.197 -0.9407 -0.2904 -1.4327
 3958SOL     OW23335   3.776   1.952   0.844  0.0930 -0.2174 -0.6413
 3958SOL    HW123336   3.826   1.988   0.918  1.0361 -0.4331 -1.1743
 3958SOL    HW223337   3.722   1.889   0.891 -4.1181  1.7228 -2.8675
 3959SOL     OW23338   0.857   4.153   8.770  0.3177  0.0839 -0.8232
 3959SOL    HW123339   0.806   4.120   8.696  0.5668  0.0188 -0.9622
 3959SOL    HW223340   0.798   4.153   8.846  0.5725  1.0418 -0.6300
 3960SOL     OW23341   2.455   3.176   0.163 -0.2384 -0.0210  0.2984
 3960SOL    HW123342   2.433   3.189   0.071 -2.6562  1.6146  1.1346
 3960SOL    HW223343   2.548   3.199   0.166  0.8641 -4.2219 -0.8889
 3961SOL     OW23344   2.330   2.486   9.110  0.3473 -0.0272 -0.3023
 3961SOL    HW123345   2.348   2.415   9.048 -0.5680  0.4304 -1.1021
 3961SOL    HW223346   2.415   2.531   9.111  0.3415 -0.0601  1.2659
 3962SOL     OW23347   1.211   0.552   2.168 -1.0250 -0.3108 -0.1763
 3962SOL    HW123348   1.235   0.563   2.076 -0.5544  0.8333  0.0803
 3962SOL    HW223349   1.122   0.586   2.169 -1.4740 -1.4824 -0.2654
 3963SOL     OW23350   2.405   3.879   4.680  0.2658  0.3683 -0.4355
 3963SOL    HW123351   2.359   3.956   4.714 -1.1218 -1.2260  1.3128
 3963SOL    HW223352   2.371   3.884   4.591 -2.3129  1.5596  0.6154
 3964SOL     OW23353   3.660   0.846   0.528  0.8007 -0.0655 -0.2627
 3964SOL    HW123354   3.735   0.787   0.535  1.5391  0.8332 -0.5867
 3964SOL    HW223355   3.597   0.790   0.483  2.1571 -0.7761 -1.2774
 3965SOL     OW23356   4.286   0.998   3.646  0.1712 -0.2521  0.3176
 3965SOL    HW123357   4.349   1.006   3.717 -0.1259 -0.1615  0.5714
 3965SOL    HW223358   4.260   0.906   3.650  0.5062 -0.3520  0.2015
 3966SOL     OW23359   4.431   0.873   7.714  0.0608  0.0972 -0.3687
 3966SOL    HW123360   4.412   0.949   7.768  3.2835  1.2477 -0.8217
 3966SOL    HW223361   4.441   0.805   7.780 -3.2836  0.4180  0.4736
 3967SOL     OW23362   1.560   3.104   2.937 -0.5420  0.0900  0.4703
 3967SOL    HW123363   1.653   3.089   2.953 -0.4718  1.3369  1.1806
 3967SOL    HW223364   1.557   3.134   2.846 -0.9618  0.1690  0.5118
 3968SOL     OW23365   0.335   2.737   2.185  0.3728 -0.2364 -0.2212
 3968SOL    HW123366   0.377   2.660   2.222  1.0566 -0.2190 -0.9648
 3968SOL    HW223367   0.399   2.754   2.115  0.0658  0.8923 -0.2385
 3969SOL     OW23368   1.416   0.220   0.135  0.3614 -0.5554  0.3152
 3969SOL    HW123369   1.477   0.147   0.145  0.2885 -0.5703  0.6792
 3969SOL    HW223370   1.394   0.236   0.227  2.0401  1.1240  0.4195
 3970SOL     OW23371   2.980   1.781   2.921 -0.2199 -0.4522  0.0993
 3970SOL    HW123372   2.904   1.760   2.976 -0.2799 -0.8644 -0.1429
 3970SOL    HW223373   2.935   1.788   2.837  1.0207 -0.6434 -0.5731
 3971SOL     OW23374   0.395   1.828   3.424 -0.0962 -0.2987  0.2407
 3971SOL    HW123375   0.348   1.745   3.423 -0.8722  0.1312  0.4256
 3971SOL    HW223376   0.473   1.808   3.373  0.5564  0.0736  1.0985
 3972SOL     OW23377   3.553   0.660  11.716 -0.0307 -0.3666  0.2992
 3972SOL    HW123378   3.622   0.597  11.695  0.3513 -0.0359  0.5705
 3972SOL    HW223379   3.473   0.618  11.685 -0.6573  0.4537  0.8256
 3973SOL     OW23380   4.291   2.774   4.924 -0.1520 -0.4831 -0.3441
 3973SOL    HW123381   4.315   2.852   4.874 -1.7512  0.7230  0.7679
 3973SOL    HW223382   4.326   2.799   5.010  0.3551 -2.5693  0.0419
 3974SOL     OW23383   3.472   1.984  12.233  0.5097 -0.1536 -0.4179
 3974SOL    HW123384   3.379   1.989  12.211  0.4589  1.1471  0.0867
 3974SOL    HW223385   3.479   2.052  12.300  1.5479 -0.3140 -0.3634
 3975SOL     OW23386   0.728   1.952  11.976  0.3397  0.3072  0.1451
 3975SOL    HW123387   0.738   1.988  11.888 -1.1165  1.0103  0.2632
 3975SOL    HW223388   0.810   1.906  11.993 -1.0262 -1.5453  1.6480
 3976SOL     OW23389   2.689   3.574   5.967 -0.1728 -0.2962 -0.7674
 3976SOL    HW123390   2.654   3.662   5.954 -0.4445 -0.6661 -2.5198
 3976SOL    HW223391   2.778   3.594   5.939 -0.0616 -0.2001 -0.3440
 3977SOL     OW23392   3.018   4.069  14.646  0.0795 -0.0897 -0.0901
 3977SOL    HW123393   2.963   4.110  14.712  1.2115  1.5543 -0.1893
 3977SOL    HW223394   2.955   4.031  14.584  1.0341 -0.9806 -0.5043
 3978SOL     OW23395   4.585   0.625   1.602  0.3771 -0.2383 -0.2923
 3978SOL    HW123396   4.611   0.564   1.671  0.5975 -1.3027 -1.3353
 3978SOL    HW223397   4.535   0.566   1.547 -1.6391  0.1727  1.0999
 3979SOL     OW23398   3.834   2.800   2.383  0.2448  0.5779 -0.2214
 3979SOL    HW123399   3.870   2.715   2.356  2.4066  1.6378 -0.6668
 3979SOL    HW223400   3.882   2.860   2.326 -2.6208  1.1038 -2.0932
 3980SOL     OW23401   3.096   0.728   5.002 -0.2395  0.3059 -0.1771
 3980SOL    HW123402   3.010   0.738   4.963  0.4009  0.6785 -1.4917
 3980SOL    HW223403   3.066   0.681   5.080 -1.2863  1.8725  0.3568
 3981SOL     OW23404   0.999   2.401   0.704 -0.5474  0.2592 -0.0707
 3981SOL    HW123405   0.955   2.316   0.692 -0.6205  0.1700  0.8608
 3981SOL    HW223406   0.924   2.453   0.732 -2.3367 -3.6722  2.3856
 3982SOL     OW23407   4.382   3.363  11.873 -0.1860 -0.1302  0.2091
 3982SOL    HW123408   4.315   3.297  11.892  0.3301 -1.0652 -1.2181
 3982SOL    HW223409   4.432   3.318  11.805  1.7316  1.3676  0.6272
 3983SOL     OW23410   1.631   0.331   5.427  0.1699  0.0995  0.1467
 3983SOL    HW123411   1.663   0.300   5.342 -2.7517 -0.3739 -0.7821
 3983SOL    HW223412   1.701   0.285   5.473  0.1381 -2.6038 -2.4989
 3984SOL     OW23413   0.373   0.123  14.706  0.0323  0.1759  0.3576
 3984SOL    HW123414   0.368   0.126  14.610  3.1279 -1.3001  0.1492
 3984SOL    HW223415   0.466   0.123  14.725 -0.2300  2.1345  1.5919
 3985SOL     OW23416   1.706   0.042   0.870 -0.2087  0.0891  0.1101
 3985SOL    HW123417   1.746   0.115   0.919  1.7619 -2.0628  1.7023
 3985SOL    HW223418   1.777   0.008   0.816 -1.1494  2.6622 -2.7543
 3986SOL     OW23419   2.256   4.462  13.263 -0.2901  0.0732 -0.1898
 3986SOL    HW123420   2.198   4.538  13.260 -1.0127 -0.5249 -1.3838
 3986SOL    HW223421   2.294   4.462  13.351 -1.4739  2.1155  0.3160
 3987SOL     OW23422   3.826   0.536  14.880 -0.4478  0.2830  0.2869
 3987SOL    HW123423   3.753   0.584  14.919  0.9648  2.3864  0.3377
 3987SOL    HW223424   3.869   0.498  14.957 -1.7247 -0.9615  0.4001
 3988SOL     OW23425   1.180   0.176  11.020 -0.4035 -0.0327 -0.0018
 3988SOL    HW123426   1.096   0.218  11.038 -0.5569 -1.3173  2.3772
 3988SOL    HW223427   1.227   0.211  11.096 -1.8699  1.7237  0.0873
 3989SOL     OW23428   2.192   2.364   5.188  0.1543  0.0379 -0.5764
 3989SOL    HW123429   2.167   2.450   5.153  1.6326  0.0673 -1.5389
 3989SOL    HW223430   2.145   2.305   5.130 -0.3889 -0.0957 -0.0080
 3990SOL     OW23431   0.173   1.322  12.896  0.2311  0.4336 -0.4263
 3990SOL    HW123432   0.245   1.265  12.872 -0.3654  0.3993 -2.1499
 3990SOL    HW223433   0.200   1.414  12.903  1.2383  0.1609 -0.7166
 3991SOL     OW23434   2.913   2.678   8.630  0.5309 -0.4337  0.6341
 3991SOL    HW123435   2.922   2.601   8.687  2.6541 -1.3064 -0.8941
 3991SOL    HW223436   2.853   2.727   8.687  0.5146  1.2070 -0.7996
 3992SOL     OW23437   0.184   3.183   8.536  0.4208  0.4576 -0.3435
 3992SOL    HW123438   0.232   3.138   8.606 -0.3784 -0.6490 -0.5013
 3992SOL    HW223439   0.090   3.165   8.544  0.5965 -0.8843 -1.4229
 3993SOL     OW23440   2.866   4.352   3.702 -1.0244  0.0710  0.3110
 3993SOL    HW123441   2.923   4.310   3.766  1.8744  0.8753 -1.7667
 3993SOL    HW223442   2.786   4.300   3.701 -1.1047  0.2091 -1.0673
 3994SOL     OW23443   2.047   1.087   7.423  0.3476  0.1148 -0.0507
 3994SOL    HW123444   2.134   1.095   7.463 -0.1635 -0.7227  1.2329
 3994SOL    HW223445   2.076   1.035   7.349 -0.4580 -0.0112 -0.2742
 3995SOL     OW23446   0.468   3.890   0.648  0.0822  0.0790  0.1290
 3995SOL    HW123447   0.433   3.809   0.610 -0.5681  0.0902  0.7038
 3995SOL    HW223448   0.425   3.955   0.592  0.6643 -0.0881 -0.5143
 3996SOL     OW23449   2.398   3.987  13.315 -0.6890  0.6829 -0.2197
 3996SOL    HW123450   2.433   3.966  13.402 -0.5730  0.6432 -0.2762
 3996SOL    HW223451   2.393   4.083  13.316  1.8114  0.8043  1.1343
 3997SOL     OW23452   1.618   0.109  10.701  0.4495 -0.2792 -0.6826
 3997SOL    HW123453   1.523   0.101  10.700  0.3712  0.3151  1.2570
 3997SOL    HW223454   1.636   0.175  10.768  1.2034  1.1027 -2.2472
 3998SOL     OW23455   3.190   0.358   9.273 -0.2375 -0.4187 -0.3536
 3998SOL    HW123456   3.216   0.450   9.267 -0.6411 -0.2158  1.0797
 3998SOL    HW223457   3.099   0.367   9.244 -1.1439 -0.3970  2.5173
 3999SOL     OW23458   0.706   4.162  15.823  1.0763 -0.3308 -0.1853
 3999SOL    HW123459   0.707   4.206  15.738 -0.4933  0.6925  0.3252
 3999SOL    HW223460   0.612   4.176  15.838  0.9040 -1.4894 -0.1888
 4000SOL     OW23461   0.327   4.412   3.604 -0.0594  0.3085 -0.1556
 4000SOL    HW123462   0.274   4.469   3.548 -0.4114  0.5568  0.4348
 4000SOL    HW223463   0.297   4.328   3.569  4.9726 -0.7532 -1.9701
 4001SOL     OW23464   1.223   3.738  11.082  0.3887  0.1071  0.0663
 4001SOL    HW123465   1.174   3.817  11.102 -3.8292 -2.3141 -0.6873
 4001SOL    HW223466   1.166   3.669  11.115  1.5053  0.3084  2.3596
 4002SOL     OW23467   2.389   1.350   5.364  0.4136 -0.5145 -0.1860
 4002SOL    HW123468   2.351   1.318   5.446 -1.9205  0.8635 -0.7263
 4002SOL    HW223469   2.478   1.371   5.392  0.4065  0.7865 -1.1151
 4003SOL     OW23470   3.371   2.943   2.888  0.5764 -0.3691  0.6178
 4003SOL    HW123471   3.424   2.975   2.815 -0.3905  3.1634  1.4711
 4003SOL    HW223472   3.432   2.957   2.961  1.8375 -0.2860 -0.4377
 4004SOL     OW23473   1.079   2.182   6.092  0.1429 -0.2699  0.1493
 4004SOL    HW123474   1.114   2.202   6.004 -0.8476  2.0356  0.2864
 4004SOL    HW223475   1.162   2.181   6.139 -0.0918  0.2007  0.5656
 4005SOL     OW23476   1.690   1.369   2.242 -0.0510 -0.5961 -0.2774
 4005SOL    HW123477   1.718   1.327   2.324  0.4258  0.2323 -0.0231
 4005SOL    HW223478   1.606   1.403   2.273  1.4704  0.5354  2.6264
 4006SOL     OW23479   0.479   4.586   3.344 -0.3970 -0.3225 -0.7544
 4006SOL    HW123480   0.537   4.521   3.383 -0.4301 -0.1502 -0.4237
 4006SOL    HW223481   0.399   4.565   3.391 -0.3910  0.1422 -0.5344
 4007SOL     OW23482   0.195   1.356   8.089 -0.1577  0.3076 -0.9085
 4007SOL    HW123483   0.142   1.331   8.014 -1.6365 -3.0732  1.2951
 4007SOL    HW223484   0.235   1.275   8.121 -0.8184  0.1246 -0.5475
 4008SOL     OW23485   1.002   0.691   5.108 -0.0415 -0.0218 -0.7728
 4008SOL    HW123486   1.076   0.732   5.064  0.1832 -1.7283 -2.0094
 4008SOL    HW223487   1.046   0.661   5.188  3.5302  1.8419 -2.0597
 4009SOL     OW23488   2.046   4.698  17.639 -0.2171  0.2737 -0.2193
 4009SOL    HW123489   2.098   4.657  17.571  0.6024  1.2357 -0.1789
 4009SOL    HW223490   2.040   4.625   0.002  1.6322 -0.5600 -1.0505
 4010SOL     OW23491   1.320   4.447   1.308  0.0817 -0.3867 -0.0609
 4010SOL    HW123492   1.347   4.536   1.330 -0.6113  0.1171 -1.2650
 4010SOL    HW223493   1.387   4.422   1.243  1.0594  0.3443  0.6612
 4011SOL     OW23494   1.251   0.313  10.557  0.1721  0.6345  0.1393
 4011SOL    HW123495   1.306   0.324  10.479 -1.1510  1.4306 -0.6572
 4011SOL    HW223496   1.173   0.318  10.503 -1.2329  1.2759  2.2635
 4012SOL     OW23497   2.121   3.907  11.301 -0.0522 -0.2460 -0.5824
 4012SOL    HW123498   2.163   3.989  11.274 -0.5466  0.5657  1.0678
 4012SOL    HW223499   2.177   3.889  11.376  2.8989  1.3628 -2.4073
 4013SOL     OW23500   2.557   3.749   3.234  0.2869 -0.3156 -0.1438
 4013SOL    HW123501   2.568   3.818   3.299  2.0708  0.0213 -0.8153
 4013SOL    HW223502   2.461   3.744   3.228  0.2274  0.0013  0.4774
 4014SOL     OW23503   2.125   1.961  14.499  0.1106  0.0216  0.1899
 4014SOL    HW123504   2.155   1.962  14.409  0.1667 -0.9543  0.2001
 4014SOL    HW223505   2.052   1.899  14.497  2.1873 -2.4514  1.6989
 4015SOL     OW23506   3.039   3.934   6.952  0.0928 -0.2566 -1.2065
 4015SOL    HW123507   3.091   3.990   6.894  0.4419 -0.3065 -0.9379
 4015SOL    HW223508   3.099   3.859   6.956 -0.4285 -0.6788 -1.2073
 4016SOL     OW23509   4.337   4.269   5.794 -0.2444  0.0318 -0.5577
 4016SOL    HW123510   4.276   4.267   5.868 -1.2906 -1.9151 -1.4674
 4016SOL    HW223511   4.277   4.295   5.724  0.0221  2.1004 -0.0080
 4017SOL     OW23512   4.350   0.400  16.235  0.4138  0.4553  0.2331
 4017SOL    HW123513   4.397   0.415  16.317 -1.7401 -0.7982  1.7056
 4017SOL    HW223514   4.412   0.443  16.175 -1.2270  0.8094 -1.2234
 4018SOL     OW23515   3.241   3.694  16.172  0.6325 -0.1802  0.5147
 4018SOL    HW123516   3.299   3.744  16.229  0.8993 -1.3425  1.2564
 4018SOL    HW223517   3.239   3.610  16.217  0.5407  0.1012  1.0324
 4019SOL     OW23518   2.754   2.144  16.065  0.2073  0.2354  0.4518
 4019SOL    HW123519   2.701   2.081  16.114 -0.8477 -1.1553 -2.4963
 4019SOL    HW223520   2.738   2.229  16.106  0.4068  0.0258  0.9668
 4020SOL     OW23521   2.934   1.111   4.947 -0.1088 -0.0209  0.1325
 4020SOL    HW123522   3.019   1.114   4.992 -0.9657  1.0178  1.6794
 4020SOL    HW223523   2.959   1.142   4.860  1.6384  0.9038  0.9514
 4021SOL     OW23524   2.369   1.027   1.637 -0.3102  0.0724 -0.0405
 4021SOL    HW123525   2.339   0.961   1.701 -0.3222 -1.9409 -2.1271
 4021SOL    HW223526   2.433   1.076   1.689 -0.1755 -1.0403  0.8587
 4022SOL     OW23527   1.822   4.012   8.364  0.2505 -1.0167  0.2856
 4022SOL    HW123528   1.866   3.950   8.423  0.5038 -1.2583 -0.1604
 4022SOL    HW223529   1.791   4.080   8.424  0.2408 -0.8423  0.0831
 4023SOL     OW23530   3.476   1.939  12.885 -0.2550  0.3576 -0.0511
 4023SOL    HW123531   3.531   1.937  12.964 -1.5666  0.7356  0.8695
 4023SOL    HW223532   3.461   2.032  12.872  2.4293  0.8898  0.7014
 4024SOL     OW23533   0.873   4.411   6.614  0.0636  0.0657 -0.5557
 4024SOL    HW123534   0.821   4.492   6.621 -2.3461 -1.7676  2.9937
 4024SOL    HW223535   0.965   4.436   6.620  0.0034  0.1355  0.0426
 4025SOL     OW23536   1.100   0.884   6.334  0.0447  0.0004 -0.1495
 4025SOL    HW123537   1.054   0.951   6.285 -0.2949 -0.3575 -0.3192
 4025SOL    HW223538   1.179   0.928   6.364 -0.0382 -0.2198  0.3989
 4026SOL     OW23539   0.101   4.523   4.840 -0.2381 -0.1144 -0.1444
 4026SOL    HW123540   0.034   4.526   4.909 -0.5590 -1.3496 -0.4184
 4026SOL    HW223541   0.095   4.611   4.801 -2.4782 -0.1093  0.1756
 4027SOL     OW23542   0.150   2.104   6.624 -0.2637  0.3048 -0.6121
 4027SOL    HW123543   0.173   2.052   6.547  2.8406 -0.0742  0.5806
 4027SOL    HW223544   0.115   2.036   6.681 -2.4007  2.6324  0.8841
 4028SOL     OW23545   2.864   4.203   6.721 -0.4176 -0.5750 -0.5469
 4028SOL    HW123546   2.906   4.161   6.796  1.2459  0.5168 -0.8646
 4028SOL    HW223547   2.772   4.187   6.741  0.0536  0.3301  2.3657
 4029SOL     OW23548   4.597   2.251   1.809  0.1555 -0.1275 -0.0252
 4029SOL    HW123549   4.584   2.265   1.903 -2.1216 -0.6316 -0.2755
 4029SOL    HW223550   4.605   2.156   1.814  0.7878 -0.2045 -2.4026
 4030SOL     OW23551   1.577   2.708  10.085 -0.2196  0.3925 -0.1186
 4030SOL    HW123552   1.522   2.782  10.109 -0.4685 -0.4332  1.8476
 4030SOL    HW223553   1.655   2.744  10.042  1.7743 -1.5568  1.8916
 4031SOL     OW23554   0.255   1.717   6.234  0.0987 -0.3671  0.3910
 4031SOL    HW123555   0.313   1.766   6.292 -0.5294  1.1519 -0.2656
 4031SOL    HW223556   0.179   1.775   6.231  0.5270  0.1022 -1.9327
 4032SOL     OW23557   3.739   0.515   4.741 -0.8221 -0.2960  0.0380
 4032SOL    HW123558   3.719   0.478   4.654 -0.0590 -1.5971  0.4275
 4032SOL    HW223559   3.818   0.468   4.764 -1.7274 -1.2478  1.1681
 4033SOL     OW23560   0.897   3.079   8.209  0.1231  0.2748 -0.5949
 4033SOL    HW123561   0.859   3.160   8.176  0.4528  0.2626 -1.0061
 4033SOL    HW223562   0.902   3.030   8.127 -1.3928 -1.0099  0.0822
 4034SOL     OW23563   2.357   1.511   8.162 -0.0077 -0.0569  0.5696
 4034SOL    HW123564   2.358   1.419   8.188 -0.4778 -0.5400 -1.1275
 4034SOL    HW223565   2.327   1.508   8.072 -0.5123  1.5408  0.6850
 4035SOL     OW23566   1.197   0.930   0.666  0.7798  0.3994 -0.3058
 4035SOL    HW123567   1.138   0.915   0.593 -0.5065  0.7123  0.6813
 4035SOL    HW223568   1.206   1.025   0.659  0.1973  0.4636 -0.1398
 4036SOL     OW23569   0.425   0.453   4.609  0.1147  0.0738 -0.5925
 4036SOL    HW123570   0.462   0.376   4.565  1.2438 -0.8240  1.9088
 4036SOL    HW223571   0.350   0.415   4.654 -0.6421  2.2999 -0.0014
 4037SOL     OW23572   2.803   3.590  12.582 -0.8634  0.2385 -0.3385
 4037SOL    HW123573   2.740   3.640  12.529 -5.0141 -1.8432  2.6453
 4037SOL    HW223574   2.831   3.514  12.531 -1.5113 -0.3543  0.2024
 4038SOL     OW23575   1.176   1.653  14.699 -0.3837 -0.2159  0.3148
 4038SOL    HW123576   1.213   1.736  14.728  1.8136 -0.6288 -1.2857
 4038SOL    HW223577   1.261   1.610  14.708 -0.5222  0.0583  2.7128
 4039SOL     OW23578   4.374   2.641   9.383  0.5531  0.1581  0.3865
 4039SOL    HW123579   4.436   2.610   9.449 -1.6748  0.2851  2.5567
 4039SOL    HW223580   4.379   2.583   9.308 -0.9454 -1.3772  1.4604
 4040SOL     OW23581   1.739   2.076   7.301  0.6038 -0.0218 -0.1594
 4040SOL    HW123582   1.659   2.026   7.320  0.3463  0.4129 -0.0967
 4040SOL    HW223583   1.736   2.147   7.365  0.2780  0.5420 -0.8010
 4041SOL     OW23584   3.692   4.407   7.190  0.2350  0.4691  0.2704
 4041SOL    HW123585   3.731   4.320   7.197  0.2152  0.5566  1.5894
 4041SOL    HW223586   3.627   4.402   7.261 -0.8677  0.6254 -0.7260
 4042SOL     OW23587   2.261   1.365   4.606 -0.4506  0.2089 -0.2345
 4042SOL    HW123588   2.174   1.405   4.598 -0.5650 -0.4880 -2.5898
 4042SOL    HW223589   2.230   1.286   4.650 -0.7417  1.0163  1.0037
 4043SOL     OW23590   2.550   0.601   4.852  0.2096 -0.5268  0.3062
 4043SOL    HW123591   2.551   0.575   4.944  3.4866  1.1974  0.7358
 4043SOL    HW223592   2.459   0.574   4.836  0.5228 -1.7281  0.5630
 4044SOL     OW23593   1.027   4.522   1.477  0.1343  0.0664 -0.0614
 4044SOL    HW123594   0.942   4.511   1.436 -0.1272  0.6298  0.3397
 4044SOL    HW223595   1.080   4.547   1.401 -0.2967  3.4759  0.7514
 4045SOL     OW23596   1.062   2.134   2.863 -0.4595 -0.1576  0.3391
 4045SOL    HW123597   1.132   2.180   2.909  0.2309 -0.0899 -0.7938
 4045SOL    HW223598   1.107   2.122   2.779 -1.7639  2.0733 -0.6873
 4046SOL     OW23599   0.548   4.416  16.867 -0.4611 -0.0225 -0.4225
 4046SOL    HW123600   0.595   4.420  16.950  0.4286  2.3667 -1.0331
 4046SOL    HW223601   0.460   4.383  16.883  0.2787 -0.6899  2.3312
 4047SOL     OW23602   3.372   3.056   5.874  0.1667  0.3643  0.7402
 4047SOL    HW123603   3.354   2.986   5.811 -0.0537  0.1024  1.0915
 4047SOL    HW223604   3.319   3.029   5.949  1.8483 -1.7932  1.1322
 4048SOL     OW23605   2.786   3.683   1.273  0.0939 -0.1272  0.1188
 4048SOL    HW123606   2.786   3.597   1.316  0.6573 -0.5585 -0.7329
 4048SOL    HW223607   2.708   3.716   1.318  0.6040 -0.1093  0.9746
 4049SOL     OW23608   4.149   2.546   6.043 -0.4038 -0.4687  0.0762
 4049SOL    HW123609   4.157   2.597   5.962 -0.0241  0.0225  0.4197
 4049SOL    HW223610   4.079   2.589   6.092 -0.6233  0.5018 -1.0901
 4050SOL     OW23611   0.798   1.771   5.588  0.5478 -0.1732  0.1874
 4050SOL    HW123612   0.784   1.773   5.682  0.2129  0.6008  0.1142
 4050SOL    HW223613   0.757   1.854   5.565  0.6640 -0.6438 -1.7957
 4051SOL     OW23614   0.383   2.595   9.105 -0.1521  0.3508  0.7071
 4051SOL    HW123615   0.319   2.525   9.117 -0.5881  0.6062 -0.1048
 4051SOL    HW223616   0.384   2.632   9.193  2.9130 -0.3217  0.9498
 4052SOL     OW23617   4.155   4.257   2.425 -0.4151 -0.1344  0.6634
 4052SOL    HW123618   4.169   4.189   2.359  1.4939 -0.6094  1.5571
 4052SOL    HW223619   4.181   4.197   2.496  1.4616 -1.0078 -0.7662
 4053SOL     OW23620   1.060   2.422   6.694  0.0789 -0.3301 -0.6204
 4053SOL    HW123621   1.037   2.383   6.610 -2.0225  0.4664 -0.4416
 4053SOL    HW223622   1.133   2.479   6.672 -1.6797  1.6723 -1.2370
 4054SOL     OW23623   2.115   0.781   3.005 -0.3448  0.6611  0.1531
 4054SOL    HW123624   2.071   0.806   3.087 -0.2450  0.5024  0.2540
 4054SOL    HW223625   2.142   0.694   3.033 -0.7397  0.5918  0.3215
 4055SOL     OW23626   4.025   1.107   7.015 -0.3286  0.1182 -0.5202
 4055SOL    HW123627   4.038   1.151   7.099  0.2220  1.7664 -1.4782
 4055SOL    HW223628   3.966   1.035   7.039  0.1803 -0.7091 -1.8056
 4056SOL     OW23629   3.820   4.600   3.297  0.4124  0.0361 -0.5658
 4056SOL    HW123630   3.743   4.591   3.353 -0.0152  1.3642 -0.9399
 4056SOL    HW223631   3.828   4.508   3.270  1.4915 -0.2444  0.7204
 4057SOL     OW23632   2.130   1.861   3.126  0.4116  0.1112  0.2400
 4057SOL    HW123633   2.200   1.802   3.099  1.6861  1.2964  1.0034
 4057SOL    HW223634   2.115   1.921   3.054 -0.0825  0.9929  1.0715
 4058SOL     OW23635   0.439   2.100   6.038  0.5993 -0.0862 -0.1747
 4058SOL    HW123636   0.533   2.086   6.039  0.3423 -1.8199  1.6068
 4058SOL    HW223637   0.421   2.072   6.128  0.6851  0.8632  0.1358
 4059SOL     OW23638   2.639   2.665   3.662  0.4706  0.2243  0.2962
 4059SOL    HW123639   2.666   2.757   3.655  0.2118  0.1592 -1.6289
 4059SOL    HW223640   2.712   2.614   3.627  1.8124  1.9311  0.5889
 4060SOL     OW23641   0.452   4.190  13.222  0.2556 -0.0559 -0.1848
 4060SOL    HW123642   0.495   4.117  13.267 -2.5322 -0.3120  2.0576
 4060SOL    HW223643   0.403   4.236  13.290 -0.8151 -0.2572 -0.8131
 4061SOL     OW23644   0.906   3.250  11.540  0.1195  0.3437  0.0295
 4061SOL    HW123645   0.871   3.179  11.486  0.7778  0.7104 -0.8831
 4061SOL    HW223646   0.995   3.216  11.539 -1.4864 -3.8613  0.2869
 4062SOL     OW23647   0.234   2.370  11.313 -0.5708 -0.7295  0.3432
 4062SOL    HW123648   0.295   2.389  11.383 -0.6853  2.2545 -0.3839
 4062SOL    HW223649   0.242   2.275  11.322  3.1277 -0.3267  1.0745
 4063SOL     OW23650   0.730   0.750   2.290 -0.0136 -0.7917  0.3067
 4063SOL    HW123651   0.679   0.780   2.215  1.3806  1.3148  0.2156
 4063SOL    HW223652   0.665   0.742   2.360 -0.6227 -1.4693 -0.3418
 4064SOL     OW23653   1.495   4.206  14.976 -0.5730  0.0379 -1.4308
 4064SOL    HW123654   1.546   4.199  14.895 -1.6916  1.2181 -2.2417
 4064SOL    HW223655   1.401   4.195  14.957 -0.6596 -0.8424 -0.5092
 4065SOL     OW23656   3.931   0.131   9.427  0.2822 -0.2188 -0.7036
 4065SOL    HW123657   3.863   0.115   9.493  1.2726  0.2309  0.4265
 4065SOL    HW223658   3.872   0.137   9.352 -1.6291 -0.9480  0.7380
 4066SOL     OW23659   2.395   0.814   7.537  0.2218 -0.4062 -0.5089
 4066SOL    HW123660   2.346   0.743   7.496 -2.1239  0.1830  1.2641
 4066SOL    HW223661   2.378   0.883   7.473 -0.8448 -0.7053 -0.5532
 4067SOL     OW23662   1.174   3.362  11.759  0.1926  0.6153  0.6966
 4067SOL    HW123663   1.198   3.349  11.668  2.0609  1.5283  1.0517
 4067SOL    HW223664   1.213   3.449  11.771  0.2357  0.4783  1.5954
 4068SOL     OW23665   2.154   1.559   6.725 -0.6210 -0.0172 -0.3883
 4068SOL    HW123666   2.110   1.474   6.726  0.2313 -0.4281  1.4142
 4068SOL    HW223667   2.078   1.616   6.712  0.5491  1.7984  0.8007
 4069SOL     OW23668   3.024   3.989   7.209 -0.5960 -0.7576 -0.2122
 4069SOL    HW123669   2.987   4.075   7.191  2.2397  1.1381  3.0882
 4069SOL    HW223670   3.035   3.958   7.120  0.5691  1.1027 -0.6989
 4070SOL     OW23671   2.536   3.524   5.116 -0.6019  0.1811  0.1108
 4070SOL    HW123672   2.629   3.546   5.125 -0.4884  0.0137 -0.6638
 4070SOL    HW223673   2.512   3.573   5.038 -2.2661 -0.7937  0.0043
 4071SOL     OW23674   2.794   2.117   8.612  0.9463  0.2637 -0.0502
 4071SOL    HW123675   2.809   2.034   8.566 -0.0577  0.7630 -1.2514
 4071SOL    HW223676   2.878   2.158   8.592  2.0829 -1.9304  0.1416
 4072SOL     OW23677   0.734   3.452   9.623 -0.7579  0.3620  0.1807
 4072SOL    HW123678   0.736   3.392   9.548  2.1061 -1.7627  2.0038
 4072SOL    HW223679   0.816   3.498   9.636 -1.1825  0.6364  1.9030
 4073SOL     OW23680   2.309   4.315   9.763 -0.3709 -0.0141  0.1824
 4073SOL    HW123681   2.259   4.344   9.839  0.9602  0.6614  0.7913
 4073SOL    HW223682   2.316   4.221   9.774  2.4144  0.1192 -0.4734
 4074SOL     OW23683   3.464   4.269   6.138 -0.4155 -0.1697 -0.8601
 4074SOL    HW123684   3.534   4.213   6.105 -0.9701 -0.4562 -1.5559
 4074SOL    HW223685   3.518   4.338   6.176  0.2752 -1.2774  0.1569
 4075SOL     OW23686   1.093   0.782   5.671 -0.3244  0.2336  0.6590
 4075SOL    HW123687   1.161   0.803   5.608 -0.4217  1.1554  0.8730
 4075SOL    HW223688   1.033   0.731   5.617 -0.2053  0.9367 -0.1288
 4076SOL     OW23689   0.574   0.710   5.895 -0.0818 -0.5426 -0.8806
 4076SOL    HW123690   0.574   0.634   5.953 -0.2467 -0.9529 -1.4165
 4076SOL    HW223691   0.653   0.707   5.841 -0.4285 -1.3405 -1.3410
 4077SOL     OW23692   3.121   4.034   6.154  0.0709 -0.9251 -0.2693
 4077SOL    HW123693   3.144   3.967   6.091 -1.6401 -0.0543 -1.8222
 4077SOL    HW223694   3.109   3.982   6.234 -1.2671  0.3484  0.3804
 4078SOL     OW23695   3.022   1.343   8.146 -0.0467  0.3504 -0.2624
 4078SOL    HW123696   3.113   1.339   8.118  0.1756  0.9107  0.4018
 4078SOL    HW223697   3.018   1.305   8.233  1.4814  0.6279 -0.0882
 4079SOL     OW23698   3.431   1.988   7.852 -0.5424  0.1313  0.8158
 4079SOL    HW123699   3.450   1.925   7.921  0.7655 -0.9662 -0.5415
 4079SOL    HW223700   3.384   1.935   7.788 -1.0733 -0.5340  1.7499
 4080SOL     OW23701   4.208   0.415  11.124  0.4558 -0.1211 -0.0887
 4080SOL    HW123702   4.201   0.407  11.029  0.1899  1.9905 -0.2657
 4080SOL    HW223703   4.279   0.360  11.154  0.3685 -0.6794 -0.8915
 4081SOL     OW23704   1.377   3.313   3.711 -0.5595  0.0632 -0.4638
 4081SOL    HW123705   1.448   3.370   3.741 -0.4761  0.2106 -0.9463
 4081SOL    HW223706   1.335   3.371   3.647 -1.5857  0.0129  0.1568
 4082SOL     OW23707   0.293   1.890   8.828  0.8420  0.4773 -0.3959
 4082SOL    HW123708   0.386   1.871   8.839  0.5108 -0.0214  1.4559
 4082SOL    HW223709   0.303   1.976   8.786 -0.2999  0.3954 -0.8502
 4083SOL     OW23710   2.471   0.440   6.834  0.0400 -0.3914 -0.0053
 4083SOL    HW123711   2.439   0.356   6.868  2.1900 -0.8630  0.8145
 4083SOL    HW223712   2.558   0.442   6.873  0.2311  0.3513 -0.4749
 4084SOL     OW23713   1.423   0.180  16.983 -0.4554  0.1303 -0.2132
 4084SOL    HW123714   1.440   0.088  17.003  0.3548  0.4190  0.4187
 4084SOL    HW223715   1.357   0.204  17.048 -1.8311 -2.1823 -0.7437
 4085SOL     OW23716   0.089   3.707   9.142 -0.0869  0.5066 -0.2529
 4085SOL    HW123717   0.104   3.691   9.049 -0.6938 -0.2999 -0.2140
 4085SOL    HW223718   0.147   3.647   9.189  0.3844  0.2952 -1.1026
 4086SOL     OW23719   0.120   0.643   8.546 -0.2990  0.8773  0.2363
 4086SOL    HW123720   0.105   0.549   8.561  0.4227  0.9738  1.6238
 4086SOL    HW223721   0.185   0.667   8.612 -0.5651  3.3629 -0.4003
 4087SOL     OW23722   2.214   3.895  13.131 -0.1173 -0.7268  0.3207
 4087SOL    HW123723   2.286   3.933  13.181 -1.5154  2.2623  0.0730
 4087SOL    HW223724   2.236   3.922  13.042 -1.7211 -0.2791  0.0581
 4088SOL     OW23725   4.621   3.482   6.789 -0.6931  0.1423 -0.1300
 4088SOL    HW123726   4.681   3.446   6.724 -1.7465 -1.3125 -0.2936
 4088SOL    HW223727   4.674   3.558   6.813  0.7313 -1.2811  1.2453
 4089SOL     OW23728   1.371   2.775   2.752  0.2622  0.0975  0.1058
 4089SOL    HW123729   1.437   2.706   2.746  2.5099  2.1597  0.7077
 4089SOL    HW223730   1.291   2.736   2.716  0.2364 -0.2995  0.5937
 4090SOL     OW23731   4.279   1.895   4.300 -0.5235  0.1040  0.3414
 4090SOL    HW123732   4.333   1.930   4.228  1.5621 -1.8891  0.9463
 4090SOL    HW223733   4.280   1.965   4.366 -1.0204 -0.8812  1.3733
 4091SOL     OW23734   2.752   3.866   6.991  0.0256  0.2783  0.3087
 4091SOL    HW123735   2.835   3.894   6.953 -1.0011 -0.7259 -2.6684
 4091SOL    HW223736   2.731   3.951   7.030  0.3733  0.6909 -0.4062
 4092SOL     OW23737   0.934   4.344  13.857  0.2781 -0.6206 -0.1027
 4092SOL    HW123738   0.895   4.316  13.939 -0.5806 -3.0583 -1.3235
 4092SOL    HW223739   0.982   4.424  13.878 -2.5609  1.1484 -0.4403
 4093SOL     OW23740   2.218   4.565   3.855 -0.4368  0.2189 -0.1678
 4093SOL    HW123741   2.299   4.525   3.826  0.3943  0.4320  1.8340
 4093SOL    HW223742   2.158   4.504   3.811 -0.3354  1.5302 -2.1035
 4094SOL     OW23743   0.450   4.675   6.504 -0.1481 -0.6672 -0.6515
 4094SOL    HW123744   0.493   0.012   6.563  0.2777 -0.3054 -1.3381
 4094SOL    HW223745   0.507   4.685   6.427  1.1861 -0.1283  0.4068
 4095SOL     OW23746   3.516   2.760   4.220  0.9438 -0.0865 -0.5270
 4095SOL    HW123747   3.469   2.804   4.150  1.9010  0.1254 -1.0404
 4095SOL    HW223748   3.448   2.723   4.276  1.8371 -1.6614 -0.4738
 4096SOL     OW23749   0.894   1.660   9.311  0.1051 -0.1260  0.1557
 4096SOL    HW123750   0.806   1.669   9.347  0.6655 -0.4395  1.6264
 4096SOL    HW223751   0.944   1.691   9.387 -1.2009  2.5407 -0.0940
 4097SOL     OW23752   0.719   0.152   9.501  0.2444  0.2704 -0.0360
 4097SOL    HW123753   0.693   0.136   9.411 -1.5306  1.5974  0.2350
 4097SOL    HW223754   0.720   0.064   9.538 -2.8914 -0.0156 -0.6490
 4098SOL     OW23755   0.784   1.758   6.520 -0.4736  0.1349 -0.0873
 4098SOL    HW123756   0.749   1.797   6.439 -0.2183  1.8761  0.6326
 4098SOL    HW223757   0.713   1.701   6.550 -0.4403  1.0252  1.6741
 4099SOL     OW23758   2.507   1.077   2.826 -0.0742 -0.2099 -0.8555
 4099SOL    HW123759   2.414   1.071   2.848  0.0361  1.9290  0.1698
 4099SOL    HW223760   2.539   0.987   2.836 -0.8925 -0.2442  1.4970
 4100SOL     OW23761   2.048   3.105   8.247 -0.4845  0.1154  0.7703
 4100SOL    HW123762   2.077   3.025   8.291 -0.2461 -1.3515 -2.0665
 4100SOL    HW223763   2.050   3.070   8.158  1.0066  1.8017  0.1514
 4101SOL     OW23764   1.902   1.105  11.608  0.6870  0.1216  0.0552
 4101SOL    HW123765   1.852   1.081  11.686 -0.8227 -0.5727 -1.1420
 4101SOL    HW223766   1.853   1.179  11.571 -0.4699 -0.0305  1.3122
 4102SOL     OW23767   2.510   0.961  17.647  0.1850 -0.0454  0.1134
 4102SOL    HW123768   2.415   0.964  17.661  0.1935 -2.0116  0.6039
 4102SOL    HW223769   2.543   1.029   0.007  1.6660  2.1704 -3.2811
 4103SOL     OW23770   3.953   4.386  17.199 -0.2369 -0.4979 -0.2016
 4103SOL    HW123771   4.032   4.384  17.252  1.2301  0.0306 -2.3492
 4103SOL    HW223772   3.936   4.480  17.192 -1.5524 -0.7519 -0.4132
 4104SOL     OW23773   1.903   2.793  10.952 -0.2580 -0.2156  0.2590
 4104SOL    HW123774   1.891   2.745  11.034 -0.9231  0.8604  0.7817
 4104SOL    HW223775   1.813   2.808  10.926 -0.4007  0.6694  1.2648
 4105SOL     OW23776   1.544   1.429   1.297  0.4778  0.1413  0.4260
 4105SOL    HW123777   1.579   1.349   1.336  0.4468 -0.5645 -0.9983
 4105SOL    HW223778   1.480   1.445   1.367  2.4550  0.7637  2.0997
 4106SOL     OW23779   1.541   1.278  16.506 -0.0061 -0.2520  0.5945
 4106SOL    HW123780   1.479   1.265  16.578  0.4911  0.3002  1.1205
 4106SOL    HW223781   1.497   1.236  16.432  0.5207  0.1059  0.0767
 4107SOL     OW23782   3.842   3.121  13.537  1.1413  0.0715 -0.2304
 4107SOL    HW123783   3.866   3.192  13.596 -3.2750  1.2009  0.1668
 4107SOL    HW223784   3.898   3.049  13.568 -0.5579 -1.1517  0.0338
 4108SOL     OW23785   2.543   0.367  13.848 -0.2193 -0.1378 -0.7011
 4108SOL    HW123786   2.596   0.368  13.768  1.1745 -0.8843  0.2009
 4108SOL    HW223787   2.467   0.421  13.826  0.0692  0.8998  0.8804
 4109SOL     OW23788   4.002   2.741   3.094 -0.1882  0.7853  0.8688
 4109SOL    HW123789   3.990   2.672   3.029 -0.3146  0.7298  0.9518
 4109SOL    HW223790   3.936   2.707   3.153 -0.0353  1.6713  1.5585
 4110SOL     OW23791   2.803   4.220  11.361 -0.3856 -0.6760 -0.1841
 4110SOL    HW123792   2.897   4.214  11.344 -0.5048  0.0368 -1.0916
 4110SOL    HW223793   2.801   4.316  11.356 -1.8625 -0.5677  2.4707
 4111SOL     OW23794   0.724   4.069   6.100  0.3542  0.1104 -0.7037
 4111SOL    HW123795   0.670   4.100   6.173  0.0074 -0.5570 -0.6669
 4111SOL    HW223796   0.677   4.106   6.025 -0.5201 -0.4196 -0.4239
 4112SOL     OW23797   4.085   3.802   8.153  0.2927  0.0834  0.6181
 4112SOL    HW123798   4.086   3.861   8.078 -1.4005 -0.1148  0.4554
 4112SOL    HW223799   4.134   3.864   8.209 -1.7356  1.3245  1.0090
 4113SOL     OW23800   3.329   1.020   0.367 -0.0435 -0.6531  0.0141
 4113SOL    HW123801   3.359   1.030   0.458  0.0783  0.9321 -0.2017
 4113SOL    HW223802   3.408   0.992   0.320  1.3170 -1.0098  2.4987
 4114SOL     OW23803   2.048   3.984   3.753 -0.2477 -0.4379  0.5537
 4114SOL    HW123804   2.009   4.033   3.825  0.4399  0.7638  0.0968
 4114SOL    HW223805   1.975   3.952   3.699  0.5830 -0.6269 -0.4441
 4115SOL     OW23806   0.302   0.219   5.963  0.1244 -0.0306 -0.2659
 4115SOL    HW123807   0.349   0.261   5.891  0.2455 -1.0480 -0.7798
 4115SOL    HW223808   0.247   0.154   5.919  0.6062 -0.9130  0.4303
 4116SOL     OW23809   0.671   3.815   4.042  0.0690 -0.5905 -0.4377
 4116SOL    HW123810   0.766   3.825   4.052 -0.0724  1.0689 -0.8201
 4116SOL    HW223811   0.677   3.727   4.004  0.3979 -0.9516  0.4247
 4117SOL     OW23812   1.410   1.825  14.715  0.3107 -0.8336 -0.1828
 4117SOL    HW123813   1.404   1.920  14.726 -1.9646 -1.0054  0.0712
 4117SOL    HW223814   1.497   1.811  14.676  0.4244 -0.4273 -0.0733
 4118SOL     OW23815   3.643   1.673  14.767 -0.7050  0.5360 -0.4253
 4118SOL    HW123816   3.610   1.618  14.838  0.4390  0.9957  0.4490
 4118SOL    HW223817   3.574   1.660  14.701 -1.3326  1.8963 -0.0527
 4119SOL     OW23818   1.837   1.897   7.086  0.1597  0.2113  0.3951
 4119SOL    HW123819   1.824   1.866   6.997  2.8207  1.0310 -0.2679
 4119SOL    HW223820   1.747   1.897   7.119 -0.0800 -0.5498 -0.2489
 4120SOL     OW23821   0.630   2.476   5.647 -0.0080  0.8559  0.1929
 4120SOL    HW123822   0.700   2.421   5.683 -0.7216  0.8060  1.4761
 4120SOL    HW223823   0.577   2.493   5.725  0.8456  1.2622  0.6902
 4121SOL     OW23824   2.048   1.113   6.611  0.0372  0.0872  0.5372
 4121SOL    HW123825   1.963   1.071   6.596  0.6836 -0.8919 -0.3350
 4121SOL    HW223826   2.023   1.200   6.642 -0.9527 -0.0992  0.2840
 4122SOL     OW23827   3.117   2.177  12.128 -0.0434  0.0258  0.3884
 4122SOL    HW123828   3.035   2.147  12.088  1.5527 -1.9287 -1.4113
 4122SOL    HW223829   3.149   2.098  12.169 -1.0709 -0.0512  1.0329
 4123SOL     OW23830   2.472   0.068   4.708 -0.5397  0.3781 -0.3176
 4123SOL    HW123831   2.404   0.101   4.767  2.3554 -0.9637  3.7253
 4123SOL    HW223832   2.543   0.043   4.766  0.1588  0.8028 -0.9968
 4124SOL     OW23833   4.393   3.630   9.265 -0.6322 -0.0835 -0.8105
 4124SOL    HW123834   4.471   3.672   9.302 -0.4395 -0.2217 -1.0640
 4124SOL    HW223835   4.390   3.548   9.314  0.3902 -0.0261 -0.6413
 4125SOL     OW23836   2.990   3.398   6.077 -0.0335 -0.3807  0.6139
 4125SOL    HW123837   2.963   3.472   6.022  1.1743 -1.2617 -1.1676
 4125SOL    HW223838   2.993   3.448   6.158  3.9704  0.7631 -0.2258
 4126SOL     OW23839   3.282   4.571  10.341  0.0624  0.5059  0.2301
 4126SOL    HW123840   3.187   4.571  10.337  0.0283 -0.1368  0.9557
 4126SOL    HW223841   3.303   4.594  10.251 -0.0265  1.9196  0.5689
 4127SOL     OW23842   2.699   4.108   5.102 -0.0846 -0.0801 -0.3149
 4127SOL    HW123843   2.736   4.021   5.115  0.3568 -0.0963 -1.7277
 4127SOL    HW223844   2.673   4.086   5.013 -0.4231  0.8674 -0.4549
 4128SOL     OW23845   1.206   3.595   2.936  0.7086 -0.6183 -0.3073
 4128SOL    HW123846   1.241   3.522   2.884 -0.4699  0.4398 -2.5845
 4128SOL    HW223847   1.159   3.550   3.007  0.2965 -0.9721 -0.8025
 4129SOL     OW23848   1.832   2.569   5.369  0.2328 -0.4699  0.0314
 4129SOL    HW123849   1.901   2.545   5.431  1.6314 -1.9177 -2.1137
 4129SOL    HW223850   1.821   2.661   5.396  2.1039 -0.4393  0.6411
 4130SOL     OW23851   3.654   0.285   2.717  0.4321  0.1764  0.2813
 4130SOL    HW123852   3.585   0.306   2.654 -0.5144 -2.8568  0.3055
 4130SOL    HW223853   3.727   0.268   2.658 -1.6370  1.7300 -2.6830
 4131SOL     OW23854   0.721   1.970   6.058 -0.2420 -0.7929  0.0959
 4131SOL    HW123855   0.757   1.904   5.999  1.3990  1.0918 -1.0140
 4131SOL    HW223856   0.760   2.050   6.021 -0.8059 -0.6784 -0.2512
 4132SOL     OW23857   1.005   2.182   7.190 -0.0505 -0.2759 -0.0153
 4132SOL    HW123858   1.018   2.274   7.210 -0.3144 -0.2849  0.2027
 4132SOL    HW223859   1.032   2.164   7.100 -1.6958 -0.2169 -0.5299
 4133SOL     OW23860   2.560   2.482   4.011 -0.3031 -0.3111 -0.4897
 4133SOL    HW123861   2.611   2.563   4.020 -0.7782  0.0191 -0.7865
 4133SOL    HW223862   2.624   2.412   4.027  0.5250  0.0292 -2.2982
 4134SOL     OW23863   0.765   1.034   6.409 -0.4718 -0.5645 -0.0927
 4134SOL    HW123864   0.812   0.986   6.477 -0.6335 -0.3311  0.1800
 4134SOL    HW223865   0.676   1.034   6.445 -1.1311 -0.0708 -1.7006
 4135SOL     OW23866   3.171   2.444   5.824  0.3106  0.0510  0.0833
 4135SOL    HW123867   3.245   2.502   5.805 -1.5710  1.9291 -1.5697
 4135SOL    HW223868   3.100   2.479   5.771  1.4010  2.0504 -0.0371
 4136SOL     OW23869   1.031   3.244   9.652 -0.4338 -0.1979  0.2616
 4136SOL    HW123870   1.101   3.209   9.597  1.9271  1.8221  1.9538
 4136SOL    HW223871   1.018   3.328   9.608  0.5005 -1.1431 -1.7901
 4137SOL     OW23872   2.109   0.010   3.199  0.3952  0.4029  0.3755
 4137SOL    HW123873   2.038   0.075   3.197 -0.7764 -0.8739  0.4551
 4137SOL    HW223874   2.087   4.683   3.276  1.5345  0.1217  0.5130
 4138SOL     OW23875   4.044   4.315   3.892  0.0713 -0.5973  0.2155
 4138SOL    HW123876   4.128   4.276   3.868  0.1718 -1.0709  1.3749
 4138SOL    HW223877   4.016   4.270   3.971  2.4594 -1.0122  0.8389
 4139SOL     OW23878   3.915   3.872   7.092  0.0021 -0.1757  0.2177
 4139SOL    HW123879   3.968   3.928   7.149  1.1636  1.0527 -2.0904
 4139SOL    HW223880   3.950   3.785   7.113 -2.5949 -1.5329 -1.1141
 4140SOL     OW23881   0.289   3.827   5.403  0.2520 -0.5098  0.4642
 4140SOL    HW123882   0.359   3.850   5.343 -0.4571  1.6140  0.4743
 4140SOL    HW223883   0.281   3.732   5.389  0.8875 -0.6012  0.7225
 4141SOL     OW23884   4.343   0.681   0.657 -0.8483  0.5100 -0.1748
 4141SOL    HW123885   4.325   0.723   0.741  1.4022 -2.2317  1.7224
 4141SOL    HW223886   4.261   0.688   0.609 -0.7988  0.9043 -0.2021
 4142SOL     OW23887   4.069   2.169   3.164  0.6122 -0.0630  0.2100
 4142SOL    HW123888   3.975   2.153   3.158  0.5847  0.4329 -0.7532
 4142SOL    HW223889   4.079   2.155   3.258  1.0410  1.6589  0.4069
 4143SOL     OW23890   2.923   0.167   2.145  0.7818 -0.1313 -0.6360
 4143SOL    HW123891   2.952   0.116   2.069  0.7143 -0.4455 -0.4478
 4143SOL    HW223892   2.936   0.256   2.111  1.5229  0.0444  0.1035
 4144SOL     OW23893   3.053   3.260   5.438  0.5558  0.2063  0.0357
 4144SOL    HW123894   2.989   3.286   5.505 -0.5829  0.5701 -1.2042
 4144SOL    HW223895   3.091   3.342   5.407 -1.0212  1.3380  1.1429
 4145SOL     OW23896   0.387   0.136   9.616 -0.1992  0.0737 -0.1944
 4145SOL    HW123897   0.405   0.096   9.701 -0.6856 -0.6530 -0.4274
 4145SOL    HW223898   0.309   0.083   9.596  0.5735 -0.3945 -1.9312
 4146SOL     OW23899   1.849   1.492   6.901 -0.0355 -0.5004  0.2200
 4146SOL    HW123900   1.851   1.522   6.992 -1.7588 -1.5553  0.6233
 4146SOL    HW223901   1.864   1.574   6.854 -0.5648 -0.4725  0.0933
 4147SOL     OW23902   1.333   3.981   5.450 -0.0183  0.0659 -0.3594
 4147SOL    HW123903   1.270   4.006   5.382 -1.2107  2.1787  1.5147
 4147SOL    HW223904   1.273   3.962   5.522  1.3003  2.7411  1.4385
 4148SOL     OW23905   0.949   4.258  13.158  0.1649 -0.4967  0.2235
 4148SOL    HW123906   0.982   4.324  13.097  0.3221 -1.2467 -0.4991
 4148SOL    HW223907   0.856   4.258  13.134  0.2970 -0.4507 -0.2864
 4149SOL     OW23908   4.287   1.358   3.661  1.0492 -0.0441  0.0761
 4149SOL    HW123909   4.363   1.328   3.610  0.8594 -1.9679  0.9264
 4149SOL    HW223910   4.282   1.435   3.606 -1.1604  0.1229  0.5201
 4150SOL     OW23911   3.248   0.647   6.603 -0.0349  0.9689  0.0523
 4150SOL    HW123912   3.181   0.618   6.665  0.0613  0.3225 -0.1503
 4150SOL    HW223913   3.199   0.662   6.522  0.4898 -1.0182 -0.6264
 4151SOL     OW23914   4.406   2.818   4.246  0.0007  0.1393 -0.2438
 4151SOL    HW123915   4.453   2.785   4.169 -1.2929 -1.9099 -0.1584
 4151SOL    HW223916   4.441   2.906   4.256 -0.0663  0.0423  0.8070
 4152SOL     OW23917   4.356   3.560  16.187 -0.4718 -0.0888  0.0206
 4152SOL    HW123918   4.302   3.580  16.110 -0.0397  2.7170  0.4705
 4152SOL    HW223919   4.428   3.515  16.143 -1.5204 -1.5643 -0.2159
 4153SOL     OW23920   1.597   4.501   5.715  0.3085  0.8637  0.1046
 4153SOL    HW123921   1.610   4.411   5.748  1.1004  0.8857 -0.1442
 4153SOL    HW223922   1.628   4.497   5.625 -1.5812 -0.0167 -0.5019
 4154SOL     OW23923   3.153   3.264   4.389  0.3049 -0.0247  0.5581
 4154SOL    HW123924   3.081   3.206   4.413  0.4925 -0.3737  0.2681
 4154SOL    HW223925   3.229   3.208   4.405  0.1416 -0.2350  0.5908
 4155SOL     OW23926   3.211   1.779  12.993 -0.6449  0.1022 -0.3728
 4155SOL    HW123927   3.256   1.755  13.074 -1.0832  3.2391  0.7915
 4155SOL    HW223928   3.279   1.757  12.928 -1.0718 -1.5555 -0.2599
 4156SOL     OW23929   0.931   2.524  12.367 -0.4998  0.4160  0.4213
 4156SOL    HW123930   0.954   2.432  12.356  0.1376  0.7470 -1.0506
 4156SOL    HW223931   0.876   2.536  12.290  0.1671  0.9578  0.0293
 4157SOL     OW23932   3.461   1.198  17.210 -0.2156  0.0177 -0.5342
 4157SOL    HW123933   3.482   1.198  17.303  3.8917  0.0787 -1.4495
 4157SOL    HW223934   3.372   1.231  17.203  0.2247  1.4968  1.0016
 4158SOL     OW23935   2.288   3.659   7.810 -0.6211 -0.4166 -0.5037
 4158SOL    HW123936   2.354   3.716   7.771 -1.1895  1.2948  1.0040
 4158SOL    HW223937   2.273   3.591   7.744 -0.0374  0.6481 -1.7347
 4159SOL     OW23938   3.004   1.103   5.591  0.1269  0.9234 -0.4295
 4159SOL    HW123939   3.044   1.053   5.661  1.0376  1.1953 -0.7519
 4159SOL    HW223940   2.916   1.064   5.595  1.3298 -1.8251 -0.6824
 4160SOL     OW23941   2.720   1.421   8.654  0.0643 -0.0507 -0.6995
 4160SOL    HW123942   2.676   1.418   8.569 -1.6049 -0.8019  0.2026
 4160SOL    HW223943   2.659   1.483   8.694 -1.3709 -1.3260 -0.9071
 4161SOL     OW23944   1.293   4.011  13.762 -0.2161  0.4890  0.1903
 4161SOL    HW123945   1.242   4.070  13.818 -0.7334 -0.9451  1.2076
 4161SOL    HW223946   1.228   4.012  13.692  0.9852 -0.5170 -0.9529
 4162SOL     OW23947   4.027   0.925   1.774 -0.2523 -0.4945  0.4179
 4162SOL    HW123948   4.034   1.020   1.761  0.0131 -0.5140  0.4187
 4162SOL    HW223949   4.112   0.898   1.739 -0.5525  0.2781 -0.9179
 4163SOL     OW23950   2.563   4.641   4.472  0.3208 -0.5406  0.0138
 4163SOL    HW123951   2.627   4.705   4.501 -1.5556  1.4617 -0.3232
 4163SOL    HW223952   2.513   4.625   4.552 -1.6508 -2.1362 -1.5065
 4164SOL     OW23953   1.927   1.544  12.689 -0.1580 -0.1207 -0.5069
 4164SOL    HW123954   1.942   1.505  12.775 -0.0777  1.4664  0.2098
 4164SOL    HW223955   2.000   1.503  12.642  0.3602  0.1740  0.0361
 4165SOL     OW23956   4.072   0.454   8.241 -0.4565 -0.0956 -0.2017
 4165SOL    HW123957   4.164   0.451   8.270 -0.3855 -1.4391 -0.5820
 4165SOL    HW223958   4.060   0.361   8.223  0.0039 -0.1013 -0.4900
 4166SOL     OW23959   3.105   2.154   3.249 -0.0606 -0.8677 -0.2088
 4166SOL    HW123960   3.151   2.087   3.299  0.3410 -0.9680 -0.7125
 4166SOL    HW223961   3.020   2.155   3.292  0.9078 -0.7156  1.6975
 4167SOL     OW23962   1.786   0.348  14.865 -0.2860 -0.1602 -0.5902
 4167SOL    HW123963   1.774   0.438  14.835 -1.5238  0.7694  2.6550
 4167SOL    HW223964   1.841   0.307  14.799 -0.2022 -0.3272 -0.4182
 4168SOL     OW23965   1.918   1.194  15.488  0.8676 -0.0695 -0.0410
 4168SOL    HW123966   1.916   1.119  15.547 -0.2631  1.1393  1.4523
 4168SOL    HW223967   1.936   1.272  15.541  2.4429  0.5179 -1.4197
 4169SOL     OW23968   1.889   2.787   0.609  0.0240  0.2560 -0.2406
 4169SOL    HW123969   1.954   2.849   0.578  0.8073 -0.6042 -0.3016
 4169SOL    HW223970   1.806   2.835   0.606 -0.2115 -0.2384 -1.5483
 4170SOL     OW23971   4.498   0.815   2.777 -0.2256 -0.1445  0.2599
 4170SOL    HW123972   4.553   0.853   2.709  0.9823 -1.3705  0.5435
 4170SOL    HW223973   4.407   0.838   2.757  0.1635  1.5117  0.4289
 4171SOL     OW23974   0.438   4.229   4.231  0.1422  0.3483  0.0960
 4171SOL    HW123975   0.401   4.255   4.315 -2.7766 -1.1795 -0.7210
 4171SOL    HW223976   0.384   4.151   4.216 -0.3468  0.4750  1.2035
 4172SOL     OW23977   1.589   3.381   8.857  0.2625  0.1184  0.1794
 4172SOL    HW123978   1.614   3.401   8.767 -0.7031  0.7153  0.0424
 4172SOL    HW223979   1.610   3.457   8.911  0.1297  1.0054 -1.0148
 4173SOL     OW23980   0.497   1.817   5.303  0.0504 -0.0565 -0.0381
 4173SOL    HW123981   0.542   1.899   5.325 -0.1745  0.1788 -0.4566
 4173SOL    HW223982   0.460   1.845   5.219  0.2928  2.2007  0.6183
 4174SOL     OW23983   1.863   1.082   1.514 -0.7858 -0.3173 -0.1197
 4174SOL    HW123984   1.896   1.116   1.431  0.9545  0.3146  0.8276
 4174SOL    HW223985   1.943   1.072   1.566 -0.8830 -3.3949 -0.5197
 4175SOL     OW23986   1.702   1.862  14.931  0.0303  0.0647  0.2318
 4175SOL    HW123987   1.651   1.942  14.918  1.2848  0.7745 -0.3666
 4175SOL    HW223988   1.791   1.882  14.903  0.2699  1.9648  2.3633
 4176SOL     OW23989   0.061   2.707   6.339  0.1072  0.0672 -0.1031
 4176SOL    HW123990   0.058   2.681   6.431  0.4370 -0.6444 -0.2962
 4176SOL    HW223991   0.140   2.665   6.305 -0.3365  0.5987 -1.7958
 4177SOL     OW23992   1.087   1.005  12.333  0.1798  0.6517 -0.0692
 4177SOL    HW123993   1.150   1.068  12.298  1.7799 -1.3453 -0.7765
 4177SOL    HW223994   1.119   0.981  12.420 -3.4489 -0.3581  1.0138
 4178SOL     OW23995   1.772   1.359   9.275 -0.0209 -0.9311  0.0329
 4178SOL    HW123996   1.699   1.409   9.311  1.4839  1.5641 -0.3863
 4178SOL    HW223997   1.730   1.273   9.285 -0.2430 -0.4607  3.0502
 4179SOL     OW23998   3.363   2.562   3.188 -0.5219 -0.2155  1.0140
 4179SOL    HW123999   3.284   2.596   3.230 -2.1480 -0.9461 -1.4390
 4179SOL    HW224000   3.342   2.469   3.176 -3.6825  1.0852 -3.5679
 4180SOL     OW24001   2.523   1.399   9.008  0.3364  0.2044  0.2580
 4180SOL    HW124002   2.615   1.373   9.013 -0.2144 -1.4737  1.4006
 4180SOL    HW224003   2.488   1.310   9.016  0.0403  0.4862  2.0201
 4181SOL     OW24004   2.018   4.041   6.805  0.2065  0.1558 -0.3162
 4181SOL    HW124005   1.985   4.131   6.801  0.3618  0.1058 -2.7474
 4181SOL    HW224006   2.081   4.046   6.733  0.8713 -1.5923  0.1456
 4182SOL     OW24007   4.208   1.295   2.608  1.1640  0.3617  0.0560
 4182SOL    HW124008   4.303   1.303   2.624  0.9505  0.8137  1.1072
 4182SOL    HW224009   4.194   1.347   2.529 -0.8515  3.2109  2.3111
 4183SOL     OW24010   2.033   1.750  16.942  0.2275 -0.2789 -0.1120
 4183SOL    HW124011   1.954   1.772  16.892  0.1040  0.3427  0.3468
 4183SOL    HW224012   2.091   1.805  16.889  0.9717  0.2785  1.2823
 4184SOL     OW24013   3.115   3.871   6.418 -0.0102 -0.0471  0.2985
 4184SOL    HW124014   3.053   3.812   6.461 -1.7734  0.0003 -2.2179
 4184SOL    HW224015   3.199   3.841   6.455 -0.7984  2.5204  4.1939
 4185SOL     OW24016   4.580   3.587   7.490  0.4035  0.9097  0.2531
 4185SOL    HW124017   4.663   3.596   7.443  0.2531  0.4483 -0.0955
 4185SOL    HW224018   4.544   3.509   7.449 -0.4328  0.0413  2.6797
 4186SOL     OW24019   1.968   4.273   7.846 -0.1314 -0.0208  0.0105
 4186SOL    HW124020   2.027   4.313   7.909  0.2993  0.5709 -0.7686
 4186SOL    HW224021   2.039   4.231   7.796  1.5149  1.1132  1.4034
 4187SOL     OW24022   2.387   2.283  13.125 -0.5794 -0.0382 -0.0350
 4187SOL    HW124023   2.426   2.198  13.105  2.0172  1.4726 -1.4232
 4187SOL    HW224024   2.452   2.343  13.087 -0.7915  0.0572 -0.2506
 4188SOL     OW24025   2.147   3.937  16.696 -0.3874  0.5896  0.6053
 4188SOL    HW124026   2.230   3.972  16.727 -0.8722  0.9574  1.4843
 4188SOL    HW224027   2.184   3.926  16.608  1.1781 -0.5269  1.4012
 4189SOL     OW24028   4.443   1.803   5.026  0.6687 -0.4296  0.0364
 4189SOL    HW124029   4.348   1.804   5.033  0.6546 -2.1804 -0.0654
 4189SOL    HW224030   4.471   1.890   5.057  1.6139 -0.5968 -0.3379
 4190SOL     OW24031   0.544   3.659   6.674 -0.5325  0.3395  0.0856
 4190SOL    HW124032   0.526   3.589   6.737 -0.5247 -0.5393 -0.9045
 4190SOL    HW224033   0.475   3.658   6.607  0.2064  0.3716 -0.6725
 4191SOL     OW24034   3.312   0.113  15.753  0.1808  0.1000 -0.1781
 4191SOL    HW124035   3.307   0.208  15.760  1.8906  0.1340  0.4883
 4191SOL    HW224036   3.220   0.087  15.754  0.6118 -1.4038  0.1771
 4192SOL     OW24037   0.402   2.184  11.424 -0.6524 -0.3166  0.6769
 4192SOL    HW124038   0.452   2.266  11.433 -1.1779 -0.2582  3.1475
 4192SOL    HW224039   0.475   2.122  11.427 -1.4721 -1.3024  0.1377
 4193SOL     OW24040   0.305   1.309   4.241  0.0688  0.0893 -0.4107
 4193SOL    HW124041   0.249   1.242   4.281  1.2218 -1.6157 -1.7170
 4193SOL    HW224042   0.290   1.384   4.299 -1.0252  0.2310 -0.8782
 4194SOL     OW24043   1.509   1.754   5.282  0.3439 -0.3420 -0.5553
 4194SOL    HW124044   1.464   1.680   5.242 -1.5613  0.5863 -0.1019
 4194SOL    HW224045   1.529   1.805   5.203  0.9958 -1.3361 -1.0284
 4195SOL     OW24046   0.953   0.723   2.459 -0.1249 -0.4785 -0.0763
 4195SOL    HW124047   0.884   0.732   2.393 -1.1162  0.4945  1.0917
 4195SOL    HW224048   0.940   0.629   2.476  0.8835 -0.7192 -0.6434
 4196SOL     OW24049   2.106   1.087   9.615 -0.1576 -0.6269  0.3385
 4196SOL    HW124050   2.070   1.024   9.678  0.3844  1.1015  2.3575
 4196SOL    HW224051   2.028   1.121   9.572  0.1239  0.6755  0.8900
 4197SOL     OW24052   4.412   3.139   7.822 -0.2866  0.4667  0.1780
 4197SOL    HW124053   4.501   3.167   7.802 -0.5056  0.8080 -0.3135
 4197SOL    HW224054   4.429   3.052   7.856  2.4435  0.3119 -1.6585
 4198SOL     OW24055   1.688   2.242   2.286  0.1235 -0.4471 -0.0354
 4198SOL    HW124056   1.770   2.227   2.334  0.3351 -0.3729 -0.3785
 4198SOL    HW224057   1.688   2.335   2.306  1.1254 -0.4202 -0.1622
 4199SOL     OW24058   2.133   3.240  10.767  0.5508 -0.1636  0.4336
 4199SOL    HW124059   2.194   3.275  10.833 -0.4275  1.1862  0.6280
 4199SOL    HW224060   2.072   3.192  10.824 -0.3797 -0.5337 -0.8831
 4200SOL     OW24061   1.490   1.008   5.158 -0.1501  0.9080 -0.3773
 4200SOL    HW124062   1.532   1.032   5.075  1.2586 -0.3307 -0.0207
 4200SOL    HW224063   1.458   1.092   5.190 -0.5744  0.0436  1.4766
 4201SOL     OW24064   3.301   1.340   5.175  0.1528 -0.4680  0.5285
 4201SOL    HW124065   3.267   1.399   5.109 -2.0566  1.5244  3.4616
 4201SOL    HW224066   3.336   1.405   5.235  1.1866 -0.6922  0.1751
 4202SOL     OW24067   0.940   1.653   4.450  0.0223 -0.1252 -0.5957
 4202SOL    HW124068   0.954   1.600   4.371  0.4744 -0.2024 -0.4661
 4202SOL    HW224069   0.906   1.587   4.510  0.6329 -1.5559 -1.8096
 4203SOL     OW24070   1.880   2.033   7.584 -0.4572  0.0864  0.4255
 4203SOL    HW124071   1.901   2.002   7.672  0.6824 -1.2508 -0.3028
 4203SOL    HW224072   1.963   2.044   7.539 -1.0792 -1.2837 -1.0925
 4204SOL     OW24073   3.608   4.183   9.092  0.0198  0.4268 -0.2074
 4204SOL    HW124074   3.617   4.091   9.067 -1.5495  0.4484 -0.8162
 4204SOL    HW224075   3.544   4.174   9.163 -0.3920  0.3749 -0.5860
 4205SOL     OW24076   1.210   1.556   4.179 -0.3908  0.0634  0.1057
 4205SOL    HW124077   1.239   1.623   4.241 -0.1761 -0.6022  0.7264
 4205SOL    HW224078   1.266   1.480   4.191 -0.4693  0.1231  0.8539
 4206SOL     OW24079   4.400   0.336   6.739  0.3523  0.3329  0.3469
 4206SOL    HW124080   4.475   0.388   6.712 -0.1702  0.9888  0.1711
 4206SOL    HW224081   4.395   0.366   6.830 -2.0654 -1.7760  0.9110
 4207SOL     OW24082   2.339   3.861   8.006  0.1901 -0.1232  0.4236
 4207SOL    HW124083   2.275   3.798   8.038  1.5700 -1.7530 -0.0190
 4207SOL    HW224084   2.401   3.806   7.958  1.3115  0.7389  0.8850
 4208SOL     OW24085   3.305   4.181   1.857 -0.2747 -0.3053  0.4365
 4208SOL    HW124086   3.279   4.146   1.942  0.6001 -0.7569  0.5112
 4208SOL    HW224087   3.228   4.197   1.802  0.2755  1.5670  0.1976
 4209SOL     OW24088   3.434   0.298   5.585 -0.2430  0.5675  0.2443
 4209SOL    HW124089   3.438   0.209   5.619  0.2322 -0.8379 -3.4201
 4209SOL    HW224090   3.529   0.302   5.572  0.0666 -0.6883  2.2736
 4210SOL     OW24091   1.177   0.193   3.307  0.0743 -0.1063  0.2274
 4210SOL    HW124092   1.106   0.162   3.250  1.0473 -0.7371 -0.6334
 4210SOL    HW224093   1.125   0.232   3.378  0.9242 -1.1598  1.4278
 4211SOL     OW24094   0.422   0.892   3.462  0.2702  0.1152 -0.5247
 4211SOL    HW124095   0.345   0.896   3.405  0.7539 -0.3805 -1.2070
 4211SOL    HW224096   0.452   0.802   3.457 -0.8322 -0.3238  0.7304
 4212SOL     OW24097   1.824   3.824   4.105  0.0091 -0.3927  0.1103
 4212SOL    HW124098   1.786   3.845   4.190  0.8666  0.0043  0.3932
 4212SOL    HW224099   1.893   3.767   4.139  0.8682 -0.2918 -1.4385
 4213SOL     OW24100   0.563   4.305   3.385  0.3631 -0.2456 -0.1633
 4213SOL    HW124101   0.568   4.279   3.477  1.3037  2.7005  0.6017
 4213SOL    HW224102   0.556   4.225   3.332  1.8792 -1.9248  2.1463
 4214SOL     OW24103   4.098   3.605   4.834 -0.0955 -0.2490 -0.8127
 4214SOL    HW124104   4.046   3.650   4.900  0.6330 -1.0313  0.3142
 4214SOL    HW224105   4.163   3.580   4.900 -0.3337  1.0436 -0.0910
 4215SOL     OW24106   4.246   2.951   1.841 -0.0064 -0.1885  0.7385
 4215SOL    HW124107   4.336   2.979   1.824  0.5938 -3.8076 -2.1079
 4215SOL    HW224108   4.234   3.021   1.905 -1.9088 -1.0332  1.2849
 4216SOL     OW24109   4.352   3.413   9.388 -0.1769  0.2388 -0.6702
 4216SOL    HW124110   4.320   3.323   9.378 -1.9780  0.8908 -0.7695
 4216SOL    HW224111   4.399   3.396   9.470 -2.2543 -1.4262  0.1950
 4217SOL     OW24112   4.643   2.273   7.669 -0.2054 -0.3728  0.7073
 4217SOL    HW124113   4.581   2.230   7.727 -1.1075 -2.7928 -2.0672
 4217SOL    HW224114   4.665   2.197   7.616  0.0863 -1.0118  1.7246
 4218SOL     OW24115   4.218   0.990   6.337  0.0285 -0.2316  0.1618
 4218SOL    HW124116   4.249   0.933   6.408  0.2273  0.3067  0.5067
 4218SOL    HW224117   4.189   0.928   6.270  0.4224 -0.1699 -0.0698
 4219SOL     OW24118   2.873   0.751  10.482 -0.5423 -0.0280  0.4601
 4219SOL    HW124119   2.958   0.793  10.498  1.1764 -3.4974  0.4262
 4219SOL    HW224120   2.833   0.776  10.565 -1.1213 -0.3773  0.2861
 4220SOL     OW24121   3.165   4.622   2.529  0.0738 -0.0282  0.1594
 4220SOL    HW124122   3.197   4.579   2.609  0.8881  0.7243  0.2413
 4220SOL    HW224123   3.115   4.553   2.486 -0.1854 -0.0684  0.5209
 4221SOL     OW24124   0.286   3.063   5.350  0.1481  0.9766  0.1503
 4221SOL    HW124125   0.249   2.992   5.402 -0.8523  1.6145  0.2958
 4221SOL    HW224126   0.277   3.143   5.401  0.3765  0.6032  0.7813
 4222SOL     OW24127   0.212   4.661   7.488  0.0064  0.1280 -0.4967
 4222SOL    HW124128   0.203   0.016   7.436  0.7910  0.3533 -0.2865
 4222SOL    HW224129   0.181   4.693   7.573 -1.4095 -3.6458  0.4539
 4223SOL     OW24130   0.665   1.352   1.805  0.4821  0.1476 -0.6562
 4223SOL    HW124131   0.580   1.308   1.816  1.2669 -1.5617 -1.4309
 4223SOL    HW224132   0.635   1.440   1.828  0.1102  0.5917 -2.8155
 4224SOL     OW24133   4.199   2.664   0.374 -0.5087 -0.0268 -0.3916
 4224SOL    HW124134   4.217   2.753   0.405 -0.5038  0.0904 -0.7333
 4224SOL    HW224135   4.281   2.654   0.327 -0.3425 -0.1373 -0.0732
 4225SOL     OW24136   2.854   1.418   7.508  0.2608  0.2671 -0.5543
 4225SOL    HW124137   2.793   1.492   7.515 -0.4688 -0.3638 -0.2826
 4225SOL    HW224138   2.803   1.347   7.469  1.4011 -0.5306 -0.5808
 4226SOL     OW24139   3.592   3.271  15.946 -0.5809 -0.0268 -0.0513
 4226SOL    HW124140   3.579   3.230  15.861 -0.3996 -3.3944  1.5422
 4226SOL    HW224141   3.673   3.321  15.936 -1.7857  1.7326 -1.1542
 4227SOL     OW24142   1.033   3.015   5.108 -0.0111  0.0108  0.3020
 4227SOL    HW124143   1.013   2.945   5.046  3.2509 -0.7048  0.0637
 4227SOL    HW224144   1.127   3.028   5.103 -0.1192  0.3457 -0.9844
 4228SOL     OW24145   3.028   2.834   3.206  0.4218  0.0153 -0.2074
 4228SOL    HW124146   3.059   2.854   3.117  0.2843 -0.3029 -0.3273
 4228SOL    HW224147   2.970   2.907   3.229  1.6500  0.4344  1.5443
 4229SOL     OW24148   0.878   4.061  15.210 -0.5437 -0.0202 -0.2622
 4229SOL    HW124149   0.865   4.022  15.296 -0.4873 -2.3779 -1.3178
 4229SOL    HW224150   0.877   4.151  15.241 -1.0367 -0.2505  0.4073
 4230SOL     OW24151   3.100   2.611   3.332 -0.0658 -0.4837 -0.2956
 4230SOL    HW124152   3.053   2.556   3.269  3.1913 -1.0148 -2.2435
 4230SOL    HW224153   3.077   2.692   3.286 -0.8455  0.0559  1.0229
 4231SOL     OW24154   1.871   4.021   7.491 -0.5803  0.3901  0.5280
 4231SOL    HW124155   1.875   4.008   7.585 -1.1940 -1.0335  0.3468
 4231SOL    HW224156   1.788   3.978   7.472  2.0001 -3.5645 -1.7203
 4232SOL     OW24157   2.314   2.432   5.419  0.1375 -0.4603 -0.4420
 4232SOL    HW124158   2.243   2.488   5.451  2.1261  1.7559  0.1356
 4232SOL    HW224159   2.282   2.409   5.332 -1.5561 -1.3098  0.4060
 4233SOL     OW24160   2.420   4.496   7.006 -0.2347  0.4261  0.1196
 4233SOL    HW124161   2.375   4.411   7.002  2.5038 -1.0576  0.8899
 4233SOL    HW224162   2.437   4.513   7.098 -0.9172  1.5328  0.0364
 4234SOL     OW24163   1.203   2.666   7.957  0.0648  0.0236  0.3303
 4234SOL    HW124164   1.215   2.691   8.048 -0.5858  0.8141  0.1991
 4234SOL    HW224165   1.221   2.573   7.973  0.7960  0.0008 -0.5944
 4235SOL     OW24166   3.669   4.146   1.685 -0.6101 -0.3712 -0.4121
 4235SOL    HW124167   3.702   4.066   1.726  1.5142  1.2385  1.0368
 4235SOL    HW224168   3.694   4.127   1.595  0.9886 -0.9488  0.1613
 4236SOL     OW24169   4.519   2.519  10.740 -0.3957  0.2842 -0.3588
 4236SOL    HW124170   4.508   2.523  10.645 -2.5078 -0.3162 -0.1358
 4236SOL    HW224171   4.580   2.446  10.752 -1.4503 -0.7140 -1.0611
 4237SOL     OW24172   3.461   4.371   5.304 -0.7430  0.4968  0.2059
 4237SOL    HW124173   3.490   4.403   5.219  1.4558  0.7676  1.0630
 4237SOL    HW224174   3.447   4.278   5.283 -0.4308  0.8215 -1.4849
 4238SOL     OW24175   0.398   3.782   3.258 -0.4067  0.3597 -0.6771
 4238SOL    HW124176   0.455   3.798   3.183  0.9266 -1.3489 -0.0246
 4238SOL    HW224177   0.416   3.693   3.288 -0.1823  1.2338  1.7562
 4239SOL     OW24178   4.059   0.985   9.288  0.0819 -0.4352 -0.6235
 4239SOL    HW124179   4.072   0.989   9.194 -0.7533 -0.1325 -0.7287
 4239SOL    HW224180   3.977   1.033   9.301  0.2928 -1.1914  3.4300
 4240SOL     OW24181   3.064   0.587   5.252  0.0616  0.6146  0.4949
 4240SOL    HW124182   3.067   0.635   5.334  1.1443  0.7860  0.3548
 4240SOL    HW224183   3.123   0.516   5.275  0.1556  1.0399  1.5650
 4241SOL     OW24184   1.481   1.256   8.890 -0.1068 -0.1510 -0.1834
 4241SOL    HW124185   1.478   1.217   8.803 -2.7949 -0.6602  0.1199
 4241SOL    HW224186   1.404   1.216   8.932  0.0033  0.6780  0.8080
 4242SOL     OW24187   4.352   4.466   3.595 -0.2931 -0.3372  0.1455
 4242SOL    HW124188   4.331   4.493   3.685  0.9074  3.9555 -0.8564
 4242SOL    HW224189   4.421   4.527   3.568 -1.3685  0.9864  0.4176
 4243SOL     OW24190   2.863   1.694   8.655 -0.3890  0.1281 -0.3117
 4243SOL    HW124191   2.830   1.729   8.572 -1.9288 -0.8930 -0.1326
 4243SOL    HW224192   2.830   1.605   8.649 -1.7222  0.7837 -2.8985
 4244SOL     OW24193   4.124   0.564   1.898  0.7100  0.6454 -0.1719
 4244SOL    HW124194   4.083   0.629   1.954  0.1938  1.4081 -1.4225
 4244SOL    HW224195   4.052   0.504   1.880 -0.3189  1.2950  1.8207
 4245SOL     OW24196   1.754   0.288  16.738  0.1968  0.1248  0.3791
 4245SOL    HW124197   1.725   0.223  16.674  0.9201  0.7305 -0.5757
 4245SOL    HW224198   1.834   0.244  16.765 -0.5951 -0.1776  2.2272
 4246SOL     OW24199   1.036   2.243  17.276  0.3627  0.7280  0.4157
 4246SOL    HW124200   1.079   2.228  17.360  0.7372  1.7012  0.3991
 4246SOL    HW224201   1.110   2.284  17.230  1.9198 -3.7385 -1.0961
 4247SOL     OW24202   1.672   3.847   4.327 -0.1555  0.8320 -0.1866
 4247SOL    HW124203   1.630   3.766   4.299  1.2921  0.2995 -0.8424
 4247SOL    HW224204   1.733   3.832   4.400 -1.5043  0.5335  0.8854
 4248SOL     OW24205   2.410   1.903   0.428 -0.4896 -0.0567  0.0513
 4248SOL    HW124206   2.499   1.901   0.392 -0.3578 -3.7745  0.5818
 4248SOL    HW224207   2.365   1.849   0.362  0.6238 -0.0046 -0.7546
 4249SOL     OW24208   3.400   3.750  14.482 -0.4334 -0.2666 -0.4919
 4249SOL    HW124209   3.420   3.807  14.556  0.3105 -0.3806 -0.6119
 4249SOL    HW224210   3.380   3.808  14.409 -0.7127 -0.5328 -0.6317
 4250SOL     OW24211   4.651   0.619   6.924 -0.0008 -0.3364  0.5607
 4250SOL    HW124212   4.646   0.664   6.840  1.0165 -0.6506  0.3305
 4250SOL    HW224213   4.658   0.686   6.991 -1.4599  1.3335 -0.9750
 4251SOL     OW24214   2.205   4.144   3.145  0.0400  0.0778  0.1506
 4251SOL    HW124215   2.258   4.179   3.074 -0.0449 -0.1112 -0.0067
 4251SOL    HW224216   2.115   4.167   3.122  1.1235  2.1581 -1.9503
 4252SOL     OW24217   3.762   4.659   8.628 -0.5803  0.2468 -0.3140
 4252SOL    HW124218   3.677   4.620   8.609  0.1965 -0.8022 -1.6764
 4252SOL    HW224219   3.791   4.673   8.538  2.0027  0.5162  0.5515
 4253SOL     OW24220   4.168   2.840   6.422  0.0444  0.2658  0.1339
 4253SOL    HW124221   4.147   2.900   6.351 -0.8656 -0.2324 -0.0226
 4253SOL    HW224222   4.244   2.888   6.455  0.6056 -0.0630 -0.6732
 4254SOL     OW24223   4.160   1.559   4.161  0.2114  0.4428  0.0179
 4254SOL    HW124224   4.213   1.526   4.088  0.1518 -0.9842  0.6268
 4254SOL    HW224225   4.221   1.591   4.227 -1.2826  0.9034  1.1715
 4255SOL     OW24226   3.128   1.455   7.499 -0.2990  0.6292 -0.4623
 4255SOL    HW124227   3.150   1.512   7.425  1.7085 -0.2826 -0.5584
 4255SOL    HW224228   3.036   1.441   7.476 -0.2463  0.2060 -0.4000
 4256SOL     OW24229   0.653   4.266  13.077  0.3846  0.3287  0.8964
 4256SOL    HW124230   0.612   4.335  13.024 -0.4994 -0.2287  0.8404
 4256SOL    HW224231   0.588   4.246  13.144  1.1630 -0.3537  1.4431
 4257SOL     OW24232   2.447   0.126   5.464  0.6837  0.0608 -0.3360
 4257SOL    HW124233   2.452   0.057   5.530 -2.0778 -0.7542 -0.9645
 4257SOL    HW224234   2.522   0.098   5.411  2.1205  0.8357  1.2954
 4258SOL     OW24235   0.648   4.002  10.014  0.1706 -0.0313  0.5522
 4258SOL    HW124236   0.605   4.067   9.959 -0.2982 -0.1314  0.7989
 4258SOL    HW224237   0.729   3.985   9.966  0.2980 -1.8100  1.3564
 4259SOL     OW24238   3.367   1.500   7.635  0.1110  0.6503  0.5014
 4259SOL    HW124239   3.411   1.481   7.553  0.4120 -0.1226  0.8371
 4259SOL    HW224240   3.276   1.478   7.613 -0.7860  4.6006  0.2799
 4260SOL     OW24241   2.972   1.415   0.506 -0.8282  0.3238 -0.5225
 4260SOL    HW124242   3.006   1.328   0.527 -1.2467  0.4621  0.7149
 4260SOL    HW224243   2.969   1.452   0.594 -1.5819  0.5602 -0.6414
 4261SOL     OW24244   3.452   0.203   6.332  0.2578  0.4419 -0.2166
 4261SOL    HW124245   3.404   0.279   6.299 -0.2382 -0.2165 -1.0218
 4261SOL    HW224246   3.533   0.195   6.282  0.1654  2.1907 -0.6246
 4262SOL     OW24247   2.421   0.147   6.891 -0.5454  0.9086  0.0525
 4262SOL    HW124248   2.435   0.128   6.798 -1.2600 -1.4031  0.4178
 4262SOL    HW224249   2.362   0.078   6.920  2.4370 -1.7807 -0.3596
 4263SOL     OW24250   1.032   1.697   6.025 -0.5751  0.3746 -0.4021
 4263SOL    HW124251   1.077   1.771   6.065 -0.9256 -0.3994  1.4353
 4263SOL    HW224252   1.064   1.625   6.079 -0.4464 -1.1728 -2.5240
 4264SOL     OW24253   3.567   2.532   3.017  0.0582  0.2358  0.9395
 4264SOL    HW124254   3.519   2.565   3.093 -2.9631  0.2359 -0.9811
 4264SOL    HW224255   3.509   2.479   2.963  0.6380 -1.2608  1.8109
 4265SOL     OW24256   0.316   3.618   4.385  0.2669 -0.5329  0.2563
 4265SOL    HW124257   0.257   3.549   4.416  1.7494 -0.6726  2.7480
 4265SOL    HW224258   0.288   3.625   4.294 -1.1503  0.0324  0.7260
 4266SOL     OW24259   0.306   0.121   6.213  0.1220 -0.4814 -0.0398
 4266SOL    HW124260   0.395   0.097   6.241 -0.7783 -2.0368  1.4979
 4266SOL    HW224261   0.312   0.129   6.118  2.4606  3.0105  0.4153
 4267SOL     OW24262   0.173   2.020   4.176 -0.0181  0.0138 -0.2616
 4267SOL    HW124263   0.152   2.105   4.216  0.6029 -0.4618  1.0660
 4267SOL    HW224264   0.232   1.976   4.238  1.0640 -1.2911 -2.2255
 4268SOL     OW24265   1.776   1.289  14.646 -0.0606  0.0052  0.5094
 4268SOL    HW124266   1.870   1.269  14.649  0.4016  2.2523  0.5228
 4268SOL    HW224267   1.745   1.199  14.655  0.3196 -0.1335  0.4311
 4269SOL     OW24268   3.478   0.882  15.167 -0.4906  0.1866 -0.1328
 4269SOL    HW124269   3.520   0.965  15.142  0.8047 -0.7098 -0.9932
 4269SOL    HW224270   3.539   0.847  15.232 -0.5071 -2.5392 -1.5848
 4270SOL     OW24271   1.127   1.796   5.045  0.0741 -0.2712  0.7135
 4270SOL    HW124272   1.213   1.830   5.070  0.3695 -2.1273  2.2223
 4270SOL    HW224273   1.097   1.731   5.108  1.1373 -2.4740 -1.0449
 4271SOL     OW24274   0.449   3.167   8.157  0.4820  0.0965  0.0420
 4271SOL    HW124275   0.438   3.106   8.083 -1.6256  0.4516  0.0610
 4271SOL    HW224276   0.507   3.225   8.108  0.0244 -0.2062 -0.8525
 4272SOL     OW24277   3.207   0.906   7.558  0.4617 -0.1152  0.4322
 4272SOL    HW124278   3.246   0.992   7.544 -0.6330  0.7442  2.8281
 4272SOL    HW224279   3.280   0.866   7.605 -0.3171 -2.6999 -0.5145
 4273SOL     OW24280   0.462   3.312   6.152  0.2516  0.5081 -0.2058
 4273SOL    HW124281   0.398   3.277   6.089  1.2554 -1.9716  0.1601
 4273SOL    HW224282   0.475   3.240   6.214  0.9030  0.2961 -0.5863
 4274SOL     OW24283   1.203   1.862   2.742  0.1383 -1.0014 -0.1179
 4274SOL    HW124284   1.263   1.816   2.801  2.7717  1.1376 -1.1450
 4274SOL    HW224285   1.251   1.941   2.717 -0.1492  0.2058  3.0524
 4275SOL     OW24286   0.517   0.619   3.404 -0.4222  0.0296  0.2994
 4275SOL    HW124287   0.445   0.560   3.426  0.4850 -1.3629 -0.4236
 4275SOL    HW224288   0.565   0.569   3.337 -3.3052  0.3598 -1.9782
 4276SOL     OW24289   2.302   0.601  15.595 -0.6046  0.0077  0.6008
 4276SOL    HW124290   2.291   0.613  15.501 -3.2962 -0.2210  0.9040
 4276SOL    HW224291   2.396   0.589  15.612 -0.1435 -1.4331 -3.0873
 4277SOL     OW24292   3.851   0.753   5.774  0.2737 -0.9063  0.2408
 4277SOL    HW124293   3.903   0.678   5.804  0.7661  1.2300  4.7333
 4277SOL    HW224294   3.881   0.821   5.833  0.3209  0.9713 -1.9573
 4278SOL     OW24295   1.913   1.000   0.873 -0.0791  0.4306 -0.3362
 4278SOL    HW124296   1.924   0.933   0.806 -1.5821 -0.3066  0.1400
 4278SOL    HW224297   1.854   1.062   0.831  1.1083  1.2617 -0.7522
 4279SOL     OW24298   3.415   4.015   4.617 -0.3027  0.3499 -0.1733
 4279SOL    HW124299   3.380   4.103   4.631  0.8521  0.9850 -1.2879
 4279SOL    HW224300   3.376   3.999   4.531 -0.8450 -1.0268  0.3315
 4280SOL     OW24301   0.984   0.487   2.751  0.2496 -0.1198  0.0444
 4280SOL    HW124302   0.896   0.507   2.721  0.2942  1.4473  0.9714
 4280SOL    HW224303   0.983   0.392   2.740 -0.1099 -0.1062 -0.0281
 4281SOL     OW24304   0.634   4.430   4.529 -0.5437 -0.0801  0.3699
 4281SOL    HW124305   0.729   4.436   4.543 -0.7110 -2.7989  2.7824
 4281SOL    HW224306   0.622   4.343   4.568 -1.9833  1.2143  2.8191
 4282SOL     OW24307   0.081   3.128   2.854 -0.2027  0.8252  0.0402
 4282SOL    HW124308   0.131   3.110   2.934 -0.8305 -3.7049 -0.6056
 4282SOL    HW224309   4.722   3.120   2.900 -1.6622 -0.5665 -2.9009
 4283SOL     OW24310   1.258   2.546   9.471  0.4275  0.4186  0.2029
 4283SOL    HW124311   1.282   2.461   9.506  0.0710  0.1266 -0.2631
 4283SOL    HW224312   1.347   2.579   9.453  1.3706 -2.7576 -0.8326
 4284SOL     OW24313   1.785   3.413  11.307 -0.1311  0.4579  0.3085
 4284SOL    HW124314   1.727   3.360  11.362  0.1451  0.9941  1.1115
 4284SOL    HW224315   1.825   3.462  11.379  0.4546 -1.7887  1.5258
 4285SOL     OW24316   3.571   0.943   5.097 -0.3753  0.2787 -0.4265
 4285SOL    HW124317   3.525   1.024   5.074 -0.3623 -0.0404 -1.5854
 4285SOL    HW224318   3.568   0.904   5.010 -0.4205 -0.7070  0.0164
 4286SOL     OW24319   1.215   0.458   6.638 -0.4575 -0.0976  0.7320
 4286SOL    HW124320   1.149   0.510   6.683  0.4011  2.0035 -0.4439
 4286SOL    HW224321   1.288   0.473   6.698  0.3261 -0.6992 -0.0795
 4287SOL     OW24322   3.457   0.298   6.846  0.4148 -0.1132  0.0438
 4287SOL    HW124323   3.475   0.210   6.878 -0.3514 -0.2995 -0.0542
 4287SOL    HW224324   3.409   0.268   6.769  0.8745 -0.8410  0.0402
 4288SOL     OW24325   2.400   4.108   0.477  0.1080  0.0746  0.1508
 4288SOL    HW124326   2.447   4.161   0.542  0.7434 -1.1069  0.6603
 4288SOL    HW224327   2.327   4.093   0.537 -0.4297 -1.9306 -0.9830
 4289SOL     OW24328   2.855   4.292   2.734  0.2342  0.4987 -0.1012
 4289SOL    HW124329   2.801   4.292   2.813 -0.0490 -1.6467 -0.2933
 4289SOL    HW224330   2.914   4.220   2.758  1.0007  1.6534  1.4773
 4290SOL     OW24331   2.248   2.277  13.864  0.0285  0.4524  0.3838
 4290SOL    HW124332   2.289   2.196  13.834 -0.6180 -0.6033  2.3324
 4290SOL    HW224333   2.277   2.343  13.801  0.4182  0.8594  0.9943
 4291SOL     OW24334   4.691   0.523   9.404 -0.3651 -0.3682 -0.5422
 4291SOL    HW124335   4.691   0.618   9.389 -3.2068 -0.2681  0.1430
 4291SOL    HW224336   0.006   0.529   9.490 -1.5588  0.5565 -0.0579
 4292SOL     OW24337   3.318   0.792   3.888 -0.4366 -0.1754 -0.3941
 4292SOL    HW124338   3.228   0.814   3.862 -1.3638  1.0838  3.8420
 4292SOL    HW224339   3.314   0.703   3.923 -2.0424  0.6545  1.5591
 4293SOL     OW24340   2.738   0.987  12.753 -0.2901 -0.9345 -0.0428
 4293SOL    HW124341   2.723   0.933  12.676  1.5648  0.7858 -1.6349
 4293SOL    HW224342   2.831   1.006  12.742 -0.0779 -0.7845  1.9512
 4294SOL     OW24343   4.524   1.423  15.985  0.1245  0.7681 -0.3796
 4294SOL    HW124344   4.436   1.457  15.969  0.2905  1.9629  1.2966
 4294SOL    HW224345   4.552   1.486  16.051  3.6724 -0.2759 -0.8778
 4295SOL     OW24346   0.751   0.252  12.629 -0.2112  0.3204  0.5963
 4295SOL    HW124347   0.707   0.209  12.703 -0.3396 -0.0490  0.3023
 4295SOL    HW224348   0.691   0.325  12.621 -1.6971 -0.7363  2.0874
 4296SOL     OW24349   1.239   1.729  11.847 -0.5560  0.0168  0.5122
 4296SOL    HW124350   1.196   1.646  11.827  3.3139 -1.9688  0.4154
 4296SOL    HW224351   1.200   1.778  11.775 -1.5942 -1.0146  0.3670
 4297SOL     OW24352   4.525   2.884   8.669  0.5816  0.5407 -0.1385
 4297SOL    HW124353   4.560   2.805   8.626 -0.7075  0.3161 -0.7873
 4297SOL    HW224354   4.450   2.839   8.709 -0.9099  0.6732 -2.7883
 4298SOL     OW24355   1.349   4.389   4.671 -0.0318  0.1371 -0.4390
 4298SOL    HW124356   1.276   4.339   4.709 -0.3183  0.3880 -0.6591
 4298SOL    HW224357   1.354   4.366   4.578 -1.7701 -0.4938 -0.3912
 4299SOL     OW24358   1.722   2.074  13.179  0.3847 -0.3795  0.5101
 4299SOL    HW124359   1.784   2.014  13.221 -0.2264 -0.5769  1.1226
 4299SOL    HW224360   1.660   2.014  13.138  2.3190 -1.1823 -1.2866
 4300SOL     OW24361   2.471   3.802   4.062 -0.2956 -0.1885 -0.2685
 4300SOL    HW124362   2.487   3.895   4.081 -0.0679 -0.3057  0.1013
 4300SOL    HW224363   2.445   3.804   3.970  0.4042  1.7846 -0.4359
 4301SOL     OW24364   4.543   0.973   1.827  0.5529  0.2160 -0.3919
 4301SOL    HW124365   4.462   0.929   1.802 -0.4480  1.9665 -0.1721
 4301SOL    HW224366   4.555   1.008   1.738 -0.2617  1.9619  0.1925
 4302SOL     OW24367   3.190   3.350   9.996 -0.9134  0.4627  0.1114
 4302SOL    HW124368   3.097   3.349  10.016 -1.1310 -0.0194 -0.9442
 4302SOL    HW224369   3.216   3.264  10.031  3.8251  1.5736 -0.5670
 4303SOL     OW24370   4.702   2.662   5.289  0.0377 -0.1167  0.1358
 4303SOL    HW124371   4.687   2.601   5.216 -0.2458  0.0465  0.0578
 4303SOL    HW224372   0.068   2.689   5.269  0.4900 -0.5369  1.5906
 4304SOL     OW24373   4.061   1.950   2.963 -0.0592 -0.0222  0.0196
 4304SOL    HW124374   3.975   1.978   2.933  0.3979  1.9051  0.5190
 4304SOL    HW224375   4.097   2.036   2.986 -0.6722  0.3599 -0.4395
 4305SOL     OW24376   0.417   2.357   4.105  0.2244 -0.3680 -0.0679
 4305SOL    HW124377   0.434   2.387   4.015  0.8006  0.3638  0.2874
 4305SOL    HW224378   0.499   2.328   4.143  0.6959  3.1960  1.6185
 4306SOL     OW24379   4.076   2.974   3.609  0.5523  0.3361  0.0852
 4306SOL    HW124380   4.167   2.951   3.629  1.3060  1.4984 -2.0848
 4306SOL    HW224381   4.092   3.068   3.604 -1.1938  0.5222 -1.8707
 4307SOL     OW24382   2.437   2.191   1.063  0.0000 -0.1375 -0.2766
 4307SOL    HW124383   2.392   2.149   1.137 -1.5495  3.0808  0.6061
 4307SOL    HW224384   2.519   2.216   1.104  0.2928 -2.8140  0.8260
 4308SOL     OW24385   2.862   3.599   5.409 -0.1808 -0.2673  0.0562
 4308SOL    HW124386   2.818   3.515   5.422  0.5538 -0.4692  1.1735
 4308SOL    HW224387   2.799   3.648   5.356 -0.3112  0.4839  0.9228
 4309SOL     OW24388   1.440   3.948   7.574 -0.0760  0.7749  0.0982
 4309SOL    HW124389   1.489   3.930   7.655  2.1949  1.0904 -1.1922
 4309SOL    HW224390   1.510   3.937   7.510 -0.4974  1.0700 -0.4033
 4310SOL     OW24391   4.083   0.511   7.013  0.6322 -0.7744 -0.0354
 4310SOL    HW124392   4.156   0.534   7.071 -1.6129 -1.3220  2.9955
 4310SOL    HW224393   4.021   0.480   7.078 -0.6339 -0.0321 -0.8925
 4311SOL     OW24394   2.615   0.177  16.098 -0.6819 -0.4215  0.2628
 4311SOL    HW124395   2.641   0.213  16.183  1.8674 -1.2006 -0.1786
 4311SOL    HW224396   2.676   0.103  16.106  1.9037  1.4611 -2.3774
 4312SOL     OW24397   4.556   1.483  16.933  0.3265 -0.0511 -0.7254
 4312SOL    HW124398   4.528   1.392  16.945  1.8033 -0.6912 -2.0395
 4312SOL    HW224399   4.537   1.528  17.014  1.0889  1.0154 -1.1376
 4313SOL     OW24400   1.827   0.293  15.125 -0.2180 -0.0918  0.5308
 4313SOL    HW124401   1.880   0.213  15.129  2.7219  1.8002 -0.5438
 4313SOL    HW224402   1.819   0.300  15.030 -0.2523 -0.4488  0.5057
 4314SOL     OW24403   4.399   1.581  14.223  0.2461 -0.0242 -0.4196
 4314SOL    HW124404   4.431   1.567  14.134 -0.5571 -2.5317 -0.3184
 4314SOL    HW224405   4.330   1.515  14.233  1.3943 -1.0534  0.7780
 4315SOL     OW24406   3.218   1.270   4.597 -0.1900  0.4663  0.5690
 4315SOL    HW124407   3.276   1.323   4.543  0.1296 -0.3489  0.1062
 4315SOL    HW224408   3.281   1.206   4.629 -2.0670 -1.3063  0.7805
 4316SOL     OW24409   1.955   1.403   1.542 -0.2005 -0.0972 -0.2002
 4316SOL    HW124410   1.992   1.431   1.458 -0.2180 -3.2573 -1.2597
 4316SOL    HW224411   2.024   1.347   1.577  0.4031  0.9804  0.3152
 4317SOL     OW24412   3.945   4.461   1.915  0.1951  0.6506  0.0633
 4317SOL    HW124413   3.983   4.459   2.003  0.3521 -6.0751 -0.1908
 4317SOL    HW224414   4.017   4.408   1.880  1.8370  2.3884  0.8320
 4318SOL     OW24415   3.769   4.711   2.336 -0.4550  0.3337 -0.0650
 4318SOL    HW124416   3.688   0.023   2.300  0.1772  1.8696  0.0694
 4318SOL    HW224417   3.735   4.677   2.419  1.5225  1.7028  1.3034
 4319SOL     OW24418   0.281   0.186   0.345  0.6445 -0.2405  0.1447
 4319SOL    HW124419   0.313   0.223   0.263 -2.1369  2.4443  0.2801
 4319SOL    HW224420   0.358   0.193   0.401  1.5940  0.8261 -1.2924
 4320SOL     OW24421   4.482   0.413   4.882 -0.9765  0.1659 -0.0226
 4320SOL    HW124422   4.491   0.446   4.972  0.2674 -1.4311  0.4376
 4320SOL    HW224423   4.464   0.494   4.835  1.1757 -0.5650 -2.0623
 4321SOL     OW24424   2.430   1.169  17.339 -0.2896 -0.5970  0.1479
 4321SOL    HW124425   2.499   1.220  17.383 -1.7891  0.4113  1.3575
 4321SOL    HW224426   2.468   1.161  17.252  1.0351  3.4842  0.3182
 4322SOL     OW24427   0.708   1.254  14.483 -0.3377  0.1260  0.1508
 4322SOL    HW124428   0.748   1.176  14.523  1.9135 -0.1876 -2.6731
 4322SOL    HW224429   0.778   1.313  14.510 -0.9948  0.5114  0.9884
 4323SOL     OW24430   0.176   0.498   2.930  0.1013 -0.1303 -0.0707
 4323SOL    HW124431   0.246   0.552   2.966 -0.1777  1.1719 -1.4565
 4323SOL    HW224432   0.095   0.548   2.938  1.0263  1.3168  0.1266
 4324SOL     OW24433   2.219   3.522   6.698  0.5923  0.3353  0.1231
 4324SOL    HW124434   2.284   3.505   6.766  0.9487 -0.9681 -0.5613
 4324SOL    HW224435   2.147   3.468   6.730 -0.0294  1.2786  0.3336
 4325SOL     OW24436   0.056   1.728   0.238 -0.6358 -0.2131 -0.2412
 4325SOL    HW124437   0.011   1.701   0.319 -0.6205  0.9146  0.1324
 4325SOL    HW224438   0.097   1.809   0.266 -1.0379 -0.0654 -0.0893
 4326SOL     OW24439   1.575   2.570  11.771  0.2910  0.2499  0.0331
 4326SOL    HW124440   1.611   2.629  11.837  2.2600  0.3006 -1.1074
 4326SOL    HW224441   1.482   2.581  11.794  0.4373  0.1158  0.6837
 4327SOL     OW24442   3.502   3.145   6.591 -0.1905  0.3776  0.0619
 4327SOL    HW124443   3.422   3.138   6.644 -0.0348 -1.0073  0.1102
 4327SOL    HW224444   3.572   3.111   6.647  1.1713  0.4330 -1.6149
 4328SOL     OW24445   0.226   3.955   7.023 -0.4581 -0.1547 -0.0285
 4328SOL    HW124446   0.250   3.944   6.931 -0.7609  0.4876 -0.1790
 4328SOL    HW224447   0.290   4.019   7.054 -2.2009 -1.3021  5.9637
 4329SOL     OW24448   4.075   2.989   6.815 -0.0938  0.4869  0.0568
 4329SOL    HW124449   4.098   2.899   6.840 -0.5008  0.0502 -1.1594
 4329SOL    HW224450   4.028   2.967   6.734 -0.3883 -1.7264  0.8196
 4330SOL     OW24451   0.361   3.048  11.655  0.1176  0.2851  0.1902
 4330SOL    HW124452   0.356   3.072  11.748 -1.3528 -0.5228  0.3169
 4330SOL    HW224453   0.272   3.028  11.627  0.3885 -3.9409  2.2719
 4331SOL     OW24454   4.199   2.170  10.140 -0.5878  0.1286 -0.4532
 4331SOL    HW124455   4.238   2.096  10.186  0.3312  1.6872  1.2771
 4331SOL    HW224456   4.235   2.161  10.051  1.2927 -1.1367  0.4267
 4332SOL     OW24457   3.265   4.089  14.769  0.2315  0.0453 -0.4414
 4332SOL    HW124458   3.241   4.160  14.829  0.1271 -2.3387  2.3354
 4332SOL    HW224459   3.186   4.080  14.717  0.5778 -0.5168 -0.8666
 4333SOL     OW24460   2.315   0.140  14.502  0.3974  0.5281 -0.6323
 4333SOL    HW124461   2.347   0.210  14.445 -1.4580 -0.9179 -3.4340
 4333SOL    HW224462   2.333   0.061  14.452  0.9984  1.2148 -1.4991
 4334SOL     OW24463   2.212   3.626  11.212 -0.6338  0.0332 -0.0749
 4334SOL    HW124464   2.126   3.591  11.189 -1.5063  0.0396  3.1621
 4334SOL    HW224465   2.195   3.719  11.222  1.7927  0.1756  2.6320
 4335SOL     OW24466   3.145   0.506   3.290  0.3571  0.0182 -0.8685
 4335SOL    HW124467   3.122   0.528   3.200 -0.6686 -0.5853 -0.7489
 4335SOL    HW224468   3.200   0.579   3.319 -1.2834  1.4291 -1.3204
 4336SOL     OW24469   3.917   1.131   2.499  0.0185  0.1598  0.1410
 4336SOL    HW124470   3.859   1.147   2.425 -1.2094  0.6263  1.1978
 4336SOL    HW224471   3.938   1.216   2.539  0.5103 -0.1899  0.6276
 4337SOL     OW24472   3.638   4.480   6.251  0.3619  0.6140  0.0737
 4337SOL    HW124473   3.629   4.405   6.310 -0.0978 -0.8973 -1.9416
 4337SOL    HW224474   3.580   4.545   6.292 -0.0345 -1.2893  2.5688
 4338SOL     OW24475   0.314   3.513   8.082 -0.5367  0.4747  0.3646
 4338SOL    HW124476   0.313   3.469   8.167  1.7959 -0.9363 -0.3615
 4338SOL    HW224477   0.223   3.497   8.057 -0.1741 -0.0216 -0.6477
 4339SOL     OW24478   0.969   4.382   8.700 -0.0739  0.3403  0.5803
 4339SOL    HW124479   0.922   4.301   8.723 -2.3823  1.8936  1.3062
 4339SOL    HW224480   0.941   4.388   8.609 -0.1947 -2.1129  0.4544
 4340SOL     OW24481   0.707   3.008   6.188  0.0548  0.0681  0.0995
 4340SOL    HW124482   0.766   3.083   6.189 -0.9397  0.8509 -1.1454
 4340SOL    HW224483   0.678   3.023   6.278 -0.5338  0.6945 -0.1966
 4341SOL     OW24484   1.340   1.783   7.379 -0.0180 -0.0228  0.1581
 4341SOL    HW124485   1.265   1.831   7.345 -0.3152 -0.6406 -0.0518
 4341SOL    HW224486   1.353   1.715   7.312  2.4226  0.4846  0.1092
 4342SOL     OW24487   3.523   3.806   8.276  0.4242 -0.1865  1.0094
 4342SOL    HW124488   3.436   3.769   8.259 -0.2854  1.7609  0.3613
 4342SOL    HW224489   3.538   3.768   8.362  1.2594 -0.0576  0.9184
 4343SOL     OW24490   0.641   4.214   7.709 -0.2433 -0.5339 -0.2775
 4343SOL    HW124491   0.707   4.238   7.773  0.0890 -2.1336 -0.0199
 4343SOL    HW224492   0.701   4.218   7.634 -0.7195  0.0837 -0.6292
 4344SOL     OW24493   1.670   2.731   0.957 -0.2841  0.1872 -0.0415
 4344SOL    HW124494   1.582   2.719   0.921  0.3638 -2.6063 -0.6707
 4344SOL    HW224495   1.665   2.713   1.051  3.7985  0.1604  0.1592
 4345SOL     OW24496   2.111   3.215   7.383  0.0912  0.1608  0.3396
 4345SOL    HW124497   2.137   3.159   7.310  0.9846  0.2105  0.6172
 4345SOL    HW224498   2.026   3.179   7.410  0.6122 -1.4417 -0.1713
 4346SOL     OW24499   0.314   3.562   9.211 -0.0377  0.0009  0.4940
 4346SOL    HW124500   0.395   3.605   9.182  0.3322 -0.9399  0.1382
 4346SOL    HW224501   0.346   3.509   9.284  0.5289 -0.6839 -0.2523
 4347SOL     OW24502   0.408   3.154   5.888  0.3639  0.2565 -0.3117
 4347SOL    HW124503   0.495   3.145   5.848  0.0247 -0.2756 -0.9239
 4347SOL    HW224504   0.407   3.076   5.944 -1.5169 -0.1964 -0.9808
 4348SOL     OW24505   1.483   0.121   4.734  0.0011  0.1236  0.4024
 4348SOL    HW124506   1.474   0.147   4.826  0.0981 -3.3513  1.3883
 4348SOL    HW224507   1.490   0.026   4.745  0.5285  0.0817 -0.3517
 4349SOL     OW24508   1.772   3.566   0.210  0.3110  0.2244  0.5674
 4349SOL    HW124509   1.775   3.641   0.268  3.1941 -0.0419  0.7548
 4349SOL    HW224510   1.837   3.596   0.147 -1.7303  1.2798 -1.0502
 4350SOL     OW24511   2.747   3.287  16.729 -0.1583  0.4507 -1.0132
 4350SOL    HW124512   2.819   3.231  16.699 -0.5142 -0.9848  0.8125
 4350SOL    HW224513   2.720   3.325  16.646 -0.7273 -0.1542 -1.1036
 4351SOL     OW24514   2.441   2.262   1.801 -0.2778 -0.2220 -0.3899
 4351SOL    HW124515   2.511   2.327   1.801  0.2735 -0.8226  0.8146
 4351SOL    HW224516   2.483   2.200   1.741  1.5620  0.4311  0.2063
 4352SOL     OW24517   3.758   0.740   2.794 -0.6182 -0.2873 -0.3906
 4352SOL    HW124518   3.808   0.820   2.781 -3.4104  1.3616 -0.9474
 4352SOL    HW224519   3.819   0.671   2.766 -0.9469 -0.5351 -0.5045
 4353SOL     OW24520   3.034   3.131   3.351 -0.2850  0.0007  0.5575
 4353SOL    HW124521   2.969   3.191   3.314  0.7198  0.7037 -0.0457
 4353SOL    HW224522   3.073   3.181   3.422 -0.0376  1.6318 -0.7415
 4354SOL     OW24523   0.354   1.254   3.248  0.8282 -0.0114 -0.1757
 4354SOL    HW124524   0.300   1.259   3.169  0.3710 -0.6392  0.1053
 4354SOL    HW224525   0.309   1.183   3.293 -0.1415  0.0191 -1.1007
 4355SOL     OW24526   4.323   0.195   3.686 -0.0570 -0.9294  0.1247
 4355SOL    HW124527   4.244   0.167   3.640  1.2619 -3.1395 -0.8186
 4355SOL    HW224528   4.385   0.123   3.681 -1.7203 -2.4871  1.9145
 4356SOL     OW24529   2.643   2.813   2.581 -0.5618  0.0675 -0.0817
 4356SOL    HW124530   2.611   2.882   2.524 -1.1452 -0.3345 -0.2374
 4356SOL    HW224531   2.585   2.831   2.656 -1.4758 -3.7145  0.1165
 4357SOL     OW24532   2.027   1.327   6.803 -0.5532  0.2424  0.4505
 4357SOL    HW124533   1.956   1.387   6.827  1.3261  1.9012  1.8720
 4357SOL    HW224534   2.046   1.286   6.888  0.9362  0.5105  0.2503
 4358SOL     OW24535   2.765   0.804   3.564  0.3884 -0.0330 -0.0550
 4358SOL    HW124536   2.801   0.763   3.486 -1.0197 -1.2565 -0.0567
 4358SOL    HW224537   2.695   0.859   3.529  1.1347  1.7866  1.2963
 4359SOL     OW24538   2.676   1.401   0.188  0.1076 -0.0086 -0.4142
 4359SOL    HW124539   2.603   1.457   0.162  0.0742  0.2819  0.3188
 4359SOL    HW224540   2.693   1.447   0.270  0.2295  1.0914 -1.0572
 4360SOL     OW24541   0.743   3.550   7.337 -0.3311 -0.3654  0.0798
 4360SOL    HW124542   0.673   3.486   7.343 -0.2313 -0.5172 -0.3798
 4360SOL    HW224543   0.702   3.624   7.382  2.5569  0.8333  0.7372
 4361SOL     OW24544   3.468   1.275   3.921  0.8184 -0.2271 -0.5388
 4361SOL    HW124545   3.436   1.186   3.912  1.2719 -0.1482 -2.9357
 4361SOL    HW224546   3.450   1.316   3.836  1.6479  1.4805  0.1015
 4362SOL     OW24547   4.394   0.010  12.547 -0.4058  0.2350  0.1466
 4362SOL    HW124548   4.329   0.076  12.572 -2.9461 -1.8232 -1.1060
 4362SOL    HW224549   4.439   0.070  12.487 -0.3661 -1.7598 -1.7802
 4363SOL     OW24550   3.215   2.070   4.910  0.3349  0.3413  0.3113
 4363SOL    HW124551   3.198   2.012   4.984  1.1192 -0.4019 -0.0762
 4363SOL    HW224552   3.180   2.013   4.841 -0.9458 -0.2368  1.4400
 4364SOL     OW24553   0.362   0.853   9.013 -0.2281 -0.3989  0.0197
 4364SOL    HW124554   0.423   0.782   9.035  0.9457  0.6198  0.0768
 4364SOL    HW224555   0.281   0.816   9.048  0.5800 -1.1404  1.1096
 4365SOL     OW24556   1.603   0.777   4.904  0.0763  0.1193  0.4538
 4365SOL    HW124557   1.611   0.869   4.929 -1.2999  0.3812 -0.0605
 4365SOL    HW224558   1.531   0.756   4.963  1.5281 -2.5096  1.2618
 4366SOL     OW24559   4.648   2.737  11.140 -0.7640  0.2967  0.0244
 4366SOL    HW124560   0.016   2.710  11.142 -1.6089 -2.7448 -1.6486
 4366SOL    HW224561   4.608   2.652  11.121 -0.9572  0.4898 -0.4456
 4367SOL     OW24562   2.972   3.122   4.551 -0.1107  0.3530 -0.2126
 4367SOL    HW124563   3.005   3.085   4.633 -1.2497  0.9174  0.5185
 4367SOL    HW224564   2.905   3.183   4.583 -0.3252  0.1275 -0.2306
 4368SOL     OW24565   0.579   1.069   0.680 -0.3052  0.2467  0.3109
 4368SOL    HW124566   0.583   1.164   0.685 -0.2420  0.3586 -1.6097
 4368SOL    HW224567   0.625   1.036   0.757 -0.1968 -0.6995 -0.1496
 4369SOL     OW24568   1.045   2.859  11.051  0.2232  0.5802 -0.1155
 4369SOL    HW124569   1.131   2.852  11.092 -0.3255 -0.5344  0.8444
 4369SOL    HW224570   1.070   2.885  10.962  1.4288  0.3036  0.1463
 4370SOL     OW24571   3.152   2.360   7.944 -0.5250 -0.4080  0.9424
 4370SOL    HW124572   3.159   2.320   7.857  2.4286  0.3011  0.8745
 4370SOL    HW224573   3.140   2.451   7.917 -0.8580 -0.2102  1.7574
 4371SOL     OW24574   3.669   3.352   6.498  0.0929  0.7485  0.2587
 4371SOL    HW124575   3.615   3.423   6.462 -1.8605 -0.0386  1.6578
 4371SOL    HW224576   3.603   3.287   6.519 -0.3649  1.5074  1.1687
 4372SOL     OW24577   0.415   1.363   8.997  1.0051 -0.1029  0.4305
 4372SOL    HW124578   0.470   1.442   9.006  2.0171 -0.9378  1.5643
 4372SOL    HW224579   0.338   1.405   9.035  1.4429  0.3035  0.8719
 4373SOL     OW24580   2.406   0.943   6.115  0.0861  0.3895  0.1446
 4373SOL    HW124581   2.401   1.030   6.155  0.1457  1.0908 -1.3920
 4373SOL    HW224582   2.479   0.956   6.055 -0.1592  1.0412 -0.0088
 4374SOL     OW24583   0.131   4.499   3.118 -0.9425 -0.2638  0.2537
 4374SOL    HW124584   0.215   4.536   3.091 -1.4511  0.6971  0.0054
 4374SOL    HW224585   0.161   4.412   3.144  1.8443  0.8402  0.7568
 4375SOL     OW24586   4.638   4.581   8.660  0.6728 -0.2741 -0.4431
 4375SOL    HW124587   4.695   4.531   8.718  1.6820  1.2470 -0.1163
 4375SOL    HW224588   4.555   4.534   8.657 -0.1383  0.9342  3.4903
 4376SOL     OW24589   3.393   2.951   2.428  0.1755  0.5070  0.3966
 4376SOL    HW124590   3.486   2.956   2.403 -0.4483  1.5933 -1.7289
 4376SOL    HW224591   3.362   3.023   2.373 -0.7930 -0.6127 -0.5010
 4377SOL     OW24592   2.316   1.176   6.610 -0.3938 -0.3553 -0.3872
 4377SOL    HW124593   2.228   1.140   6.600 -0.1757 -0.7292 -0.9791
 4377SOL    HW224594   2.334   1.143   6.698 -1.2920 -0.1790 -0.1340
 4378SOL     OW24595   1.437   2.172   1.266  0.1790 -0.7332  0.4504
 4378SOL    HW124596   1.530   2.178   1.242 -0.0830 -1.2400 -0.6802
 4378SOL    HW224597   1.407   2.086   1.236 -0.4176 -0.7636  1.1514
 4379SOL     OW24598   3.933   1.462   2.455  0.2844  0.5241 -0.0022
 4379SOL    HW124599   3.910   1.465   2.363  0.5622 -0.1325 -0.0876
 4379SOL    HW224600   3.843   1.477   2.486  0.5578 -0.8728  1.4862
 4380SOL     OW24601   0.127   2.041   8.307  0.0115  0.5289  0.0919
 4380SOL    HW124602   0.153   1.958   8.265 -2.7471 -1.7546  2.9003
 4380SOL    HW224603   0.215   2.080   8.313 -0.7881  2.4538 -0.8029
 4381SOL     OW24604   0.048   1.628   3.845 -0.2229 -0.5007 -0.1933
 4381SOL    HW124605   4.683   1.662   3.840  0.5179  1.8582  2.1815
 4381SOL    HW224606   0.035   1.553   3.902  2.2967 -1.4865 -0.9294
 4382SOL     OW24607   0.951   1.894  15.046 -0.3194 -0.9240  0.4914
 4382SOL    HW124608   0.983   1.825  15.104  1.1237 -0.3139  0.4135
 4382SOL    HW224609   1.025   1.903  14.986  0.8279 -1.6483  1.8056
 4383SOL     OW24610   1.803   3.869  16.487  0.3213  0.2552  0.3097
 4383SOL    HW124611   1.838   3.924  16.556  1.2749 -2.2507  1.8192
 4383SOL    HW224612   1.730   3.916  16.446  0.7710 -1.2987 -2.3243
 4384SOL     OW24613   2.584   3.544   3.632 -0.2810 -0.2141 -1.0640
 4384SOL    HW124614   2.620   3.633   3.637 -0.7441 -0.1714  1.3084
 4384SOL    HW224615   2.490   3.550   3.616 -0.3309 -0.6082 -0.8996
 4385SOL     OW24616   4.367   0.619   3.345 -0.1645 -0.3444  0.6281
 4385SOL    HW124617   4.337   0.708   3.363  1.4510 -0.1150  2.2027
 4385SOL    HW224618   4.289   0.567   3.364  0.3391 -1.1111  0.6129
 4386SOL     OW24619   1.338   0.511   4.862 -0.7851 -0.2399  0.1910
 4386SOL    HW124620   1.270   0.451   4.833 -0.9318 -1.0125  2.1096
 4386SOL    HW224621   1.349   0.465   4.946  1.6392 -0.0952 -0.0493
 4387SOL     OW24622   3.515   0.447   3.155  0.1163  0.1736  0.2719
 4387SOL    HW124623   3.446   0.497   3.200 -0.3620 -1.2956  1.2008
 4387SOL    HW224624   3.520   0.498   3.074 -2.6046 -0.7284 -0.4703
 4388SOL     OW24625   2.319   3.477   7.230 -0.2434 -0.4524 -0.3705
 4388SOL    HW124626   2.359   3.390   7.233  2.6977  0.9548  1.2654
 4388SOL    HW224627   2.228   3.465   7.257 -0.0354  2.4692  1.6059
 4389SOL     OW24628   4.505   3.862   8.814 -1.0785  0.1685  0.2744
 4389SOL    HW124629   4.452   3.830   8.887  2.1851 -0.5527  2.3191
 4389SOL    HW224630   4.590   3.835   8.847 -0.8477 -0.5716 -0.9102
 4390SOL     OW24631   0.994   3.222  13.388 -0.2467  0.2550  0.7054
 4390SOL    HW124632   0.904   3.204  13.417 -0.8987  1.0139 -0.9124
 4390SOL    HW224633   0.981   3.302  13.339  1.8994  1.1367  1.5867
 4391SOL     OW24634   3.198   1.027  12.865  1.2513  0.5421  0.6158
 4391SOL    HW124635   3.188   1.029  12.770 -1.9465  0.7357  0.9630
 4391SOL    HW224636   3.131   1.091  12.888  1.3619  0.9829 -0.2833
 4392SOL     OW24637   4.631   2.867   6.731 -0.0193  0.2069  0.4528
 4392SOL    HW124638   4.626   2.807   6.806 -1.1289  1.2965  1.2407
 4392SOL    HW224639   4.714   2.843   6.690  0.7632  0.1019  2.0777
 4393SOL     OW24640   2.016   1.629   3.234 -0.2732  0.3045  0.3401
 4393SOL    HW124641   2.012   1.663   3.323  0.3386  3.8258 -0.9487
 4393SOL    HW224642   2.059   1.699   3.184 -1.1233  2.1161  2.1404
 4394SOL     OW24643   1.945   3.913   1.644  0.3683 -0.1983 -0.0632
 4394SOL    HW124644   1.918   3.912   1.552  0.4509 -1.1732 -0.0758
 4394SOL    HW224645   1.915   3.826   1.668  1.1474 -0.6536 -0.7256
 4395SOL     OW24646   1.186   4.026   3.822 -0.1310  0.1022  0.3849
 4395SOL    HW124647   1.226   4.108   3.853  0.4084 -0.9557  2.4868
 4395SOL    HW224648   1.148   4.049   3.737  3.0287 -0.5455 -1.1636
 4396SOL     OW24649   1.331   4.434   7.532  0.1981 -0.2173  0.1587
 4396SOL    HW124650   1.355   4.459   7.621 -1.5651 -0.9388  0.8282
 4396SOL    HW224651   1.315   4.341   7.545  1.3575 -0.3180  0.8894
 4397SOL     OW24652   4.723   1.744   5.734  0.6388  0.2302 -0.2419
 4397SOL    HW124653   4.650   1.699   5.692  1.1680 -0.5024 -0.3820
 4397SOL    HW224654   0.045   1.671   5.777 -0.0062  1.1860  2.0971
 4398SOL     OW24655   2.221   3.622   3.219 -0.5783  0.0065 -0.3279
 4398SOL    HW124656   2.227   3.717   3.224 -4.7218  0.1981  1.8219
 4398SOL    HW224657   2.226   3.604   3.313  1.0197 -0.3086 -0.4798
 4399SOL     OW24658   0.583   2.931   5.357 -0.7222 -0.1828 -0.0201
 4399SOL    HW124659   0.534   2.852   5.381 -0.6990 -0.1142  0.2480
 4399SOL    HW224660   0.514   2.970   5.305 -0.9902 -1.3990 -0.5829
 4400SOL     OW24661   0.670   3.520  10.830 -0.7882 -0.0043 -0.2746
 4400SOL    HW124662   0.690   3.574  10.906 -0.9637 -1.5735  0.8908
 4400SOL    HW224663   0.614   3.572  10.772 -1.6827 -0.2493  0.3699
 4401SOL     OW24664   2.917   2.576   2.611 -0.1585  0.2325 -0.5841
 4401SOL    HW124665   2.945   2.502   2.666  0.2847 -0.7282 -2.1138
 4401SOL    HW224666   3.005   2.607   2.591 -0.4225  0.5795 -1.1777
 4402SOL     OW24667   1.375   1.321   4.611 -0.2338 -0.0296  0.4212
 4402SOL    HW124668   1.465   1.298   4.590 -0.9518 -0.3924 -2.1815
 4402SOL    HW224669   1.321   1.246   4.587  0.2361 -0.1085 -0.4013
 4403SOL     OW24670   3.956   3.054   7.713 -0.3958  0.0976 -0.4536
 4403SOL    HW124671   3.916   3.076   7.629  1.2637 -1.3568 -1.6206
 4403SOL    HW224672   4.016   3.126   7.732 -1.2943  0.8278 -0.3325
 4404SOL     OW24673   4.627   1.794  17.057 -0.1879  0.1602  0.1572
 4404SOL    HW124674   4.624   1.852  17.133 -2.5626 -0.1486  0.3128
 4404SOL    HW224675   4.601   1.711  17.098  0.4669  1.1778  2.6213
 4405SOL     OW24676   0.692   0.111   4.370 -0.2324  0.5979 -0.1974
 4405SOL    HW124677   0.742   0.147   4.443  1.2111 -1.5759 -0.1046
 4405SOL    HW224678   0.751   0.111   4.295  0.2229  1.1005  0.1613
 4406SOL     OW24679   3.350   2.210  12.868 -0.8863 -0.2859  0.1718
 4406SOL    HW124680   3.299   2.169  12.798 -0.3851 -0.8488  0.1349
 4406SOL    HW224681   3.296   2.202  12.947 -0.2082  2.1094  0.8859
 4407SOL     OW24682   3.949   3.159   7.213 -0.0895 -0.8050  0.4844
 4407SOL    HW124683   3.934   3.239   7.163  0.1349 -1.8326 -1.2363
 4407SOL    HW224684   3.958   3.203   7.297 -1.3023 -0.0576  0.2310
 4408SOL     OW24685   3.158   1.073   3.790  0.2532 -0.3061 -0.6507
 4408SOL    HW124686   3.249   1.071   3.819 -0.4813  1.8736  1.7281
 4408SOL    HW224687   3.108   1.099   3.867  0.5927  2.4250 -1.3662
 4409SOL     OW24688   1.097   0.924   9.328 -0.3994  0.2913  0.5575
 4409SOL    HW124689   1.188   0.953   9.314 -0.2078 -1.7719 -2.3945
 4409SOL    HW224690   1.057   1.007   9.352 -1.6752  0.5455 -2.4435
 4410SOL     OW24691   0.821   2.724   8.041  0.2685 -0.8447 -0.0697
 4410SOL    HW124692   0.891   2.661   8.056 -0.6202 -1.8195 -0.0132
 4410SOL    HW224693   0.880   2.791   8.007  0.2445 -0.5467  0.4847
 4411SOL     OW24694   2.368   4.493  13.537 -0.2824 -0.4590 -0.2180
 4411SOL    HW124695   2.319   4.557  13.589 -0.2421 -0.2566 -0.4309
 4411SOL    HW224696   2.411   4.441  13.605  0.4624 -1.0242 -1.1173
 4412SOL     OW24697   0.470   0.391   9.225 -0.5112 -0.0843  0.2630
 4412SOL    HW124698   0.441   0.317   9.171  2.7519 -0.4873 -0.8969
 4412SOL    HW224699   0.401   0.403   9.290 -1.0504 -2.2671  0.0654
 4413SOL     OW24700   0.118   2.728   7.844  0.1213 -0.0605  0.2783
 4413SOL    HW124701   0.188   2.736   7.779 -0.3788  0.6921 -0.1664
 4413SOL    HW224702   0.083   2.816   7.830  1.0864  0.2464 -0.2179
 4414SOL     OW24703   0.336   2.106   5.593  0.0481 -0.8138 -0.1966
 4414SOL    HW124704   0.311   2.028   5.642  1.3416  0.2792  2.1870
 4414SOL    HW224705   0.257   2.159   5.607  0.6160  0.0861 -0.4047
 4415SOL     OW24706   3.916   1.586   1.848 -0.2271 -0.0294  0.4100
 4415SOL    HW124707   3.972   1.615   1.776 -0.4408 -1.5940 -0.3833
 4415SOL    HW224708   3.972   1.517   1.883 -1.6043 -2.3009 -1.8506
 4416SOL     OW24709   4.155   1.111   4.021 -0.3295 -0.5641  0.2512
 4416SOL    HW124710   4.082   1.158   4.061  1.2911 -0.1297  2.7526
 4416SOL    HW224711   4.157   1.141   3.931 -0.2695 -1.3118 -0.0027
 4417SOL     OW24712   0.919   2.100   3.493  0.2554  0.1852 -0.2052
 4417SOL    HW124713   0.914   2.193   3.471  1.6653  0.3566  0.2332
 4417SOL    HW224714   0.826   2.087   3.512  0.6267 -0.3975  1.2350
 4418SOL     OW24715   0.992   3.848   6.620 -0.1302  0.1653  1.3011
 4418SOL    HW124716   0.937   3.922   6.594 -1.0998 -0.3316  1.9278
 4418SOL    HW224717   0.961   3.837   6.710 -0.2716 -1.4154  1.0546
 4419SOL     OW24718   2.630   2.211  11.821 -0.0912 -0.1116 -0.3348
 4419SOL    HW124719   2.673   2.125  11.816  0.0502 -0.0091 -0.8775
 4419SOL    HW224720   2.606   2.211  11.914 -0.1506 -2.1169 -0.3369
 4420SOL     OW24721   3.437   0.544   9.626 -0.6282 -0.0375  0.1886
 4420SOL    HW124722   3.411   0.452   9.630  1.3910 -0.4652  3.4038
 4420SOL    HW224723   3.398   0.579   9.546  0.1523 -1.5622 -0.8765
 4421SOL     OW24724   1.974   0.112   9.260 -0.0927 -0.3470  1.0284
 4421SOL    HW124725   1.934   0.187   9.304  0.8259  0.7656  0.0016
 4421SOL    HW224726   2.011   0.058   9.329  0.2225 -0.0874  1.0644
 4422SOL     OW24727   4.288   1.811  13.961  0.3043 -0.4509  0.2774
 4422SOL    HW124728   4.226   1.748  13.998 -1.4889 -0.2132 -2.3451
 4422SOL    HW224729   4.242   1.848  13.885 -1.2613 -1.9987  0.4727
 4423SOL     OW24730   3.579   4.491   5.080  0.5657  0.1330 -0.1131
 4423SOL    HW124731   3.573   4.587   5.073  1.4088  0.1821 -0.1851
 4423SOL    HW224732   3.666   4.472   5.044 -0.1940 -0.8303 -1.4377
 4424SOL     OW24733   1.202   2.044   9.104  0.3329  0.3198  0.0810
 4424SOL    HW124734   1.197   2.057   9.199 -0.7456 -2.5202  0.4213
 4424SOL    HW224735   1.128   1.984   9.097  1.6058 -1.4203  1.4429
 4425SOL     OW24736   0.536   4.184   6.651  0.1463  0.2039  0.2596
 4425SOL    HW124737   0.527   4.255   6.588  1.2406  0.0074 -0.1230
 4425SOL    HW224738   0.485   4.218   6.724  0.4762  0.0204  0.5802
 4426SOL     OW24739   3.983   2.389   6.553  0.1978  0.2602 -0.1202
 4426SOL    HW124740   3.997   2.465   6.609  1.7631  0.4348 -0.7508
 4426SOL    HW224741   4.034   2.317   6.591 -0.4679 -0.2918 -0.2638
 4427SOL     OW24742   2.151   0.822  11.035 -0.0774  0.3727 -0.1430
 4427SOL    HW124743   2.167   0.812  11.129  0.3162  0.8190 -0.1616
 4427SOL    HW224744   2.197   0.903  11.013  0.4247  0.0355 -0.3315
 4428SOL     OW24745   3.934   3.953  15.250  0.4934 -0.4789 -0.2472
 4428SOL    HW124746   3.927   3.970  15.156 -1.0206  1.3690  0.1774
 4428SOL    HW224747   3.906   4.038  15.283  3.0425  0.1642  0.2506
 4429SOL     OW24748   3.137   2.564   3.936 -0.3535 -0.2635 -0.6445
 4429SOL    HW124749   3.169   2.650   3.908  0.6587 -0.5490 -0.3318
 4429SOL    HW224750   3.059   2.559   3.879 -1.5953 -2.9473  1.2852
 4430SOL     OW24751   2.551   0.136   3.481 -0.3933 -0.0160 -0.1903
 4430SOL    HW124752   2.548   0.145   3.576 -1.9174 -0.5251 -0.2032
 4430SOL    HW224753   2.641   0.169   3.474 -1.0017  2.1443  2.1243
 4431SOL     OW24754   0.039   1.693  16.470  0.0921  0.6544  0.2990
 4431SOL    HW124755   0.007   1.604  16.480 -0.4407  0.4881 -2.6175
 4431SOL    HW224756   0.073   1.712  16.557  1.3682 -1.3386  0.2245
 4432SOL     OW24757   1.972   0.045  10.103  0.5581 -0.0597 -0.2000
 4432SOL    HW124758   2.019   4.700  10.149  0.0088 -0.5537 -0.3890
 4432SOL    HW224759   2.047   0.096  10.071 -0.7870  1.7531 -0.4759
 4433SOL     OW24760   1.280   2.478  12.754 -0.0848  0.3955  0.2393
 4433SOL    HW124761   1.214   2.455  12.820  0.6776  3.6516  2.1271
 4433SOL    HW224762   1.233   2.529  12.688  1.0514  0.8380 -0.2181
 4434SOL     OW24763   1.256   4.525   9.539 -0.0326 -0.4353 -0.0311
 4434SOL    HW124764   1.296   4.610   9.559  2.5365 -1.0761 -2.4774
 4434SOL    HW224765   1.274   4.510   9.446 -0.7265 -0.5235 -0.1491
 4435SOL     OW24766   2.048   1.879  16.632  0.4534  0.3050  0.3308
 4435SOL    HW124767   2.091   1.894  16.548 -2.1359 -1.1877 -1.2717
 4435SOL    HW224768   2.047   1.783  16.627  1.9960  0.3419 -0.5189
 4436SOL     OW24769   1.676   4.390   0.295 -0.1519  0.7330 -0.4640
 4436SOL    HW124770   1.752   4.377   0.352 -1.1799 -1.3252  0.4569
 4436SOL    HW224771   1.652   4.298   0.292  0.2868  0.6593 -1.4586
 4437SOL     OW24772   2.322   3.488   3.551  0.5569 -0.4769 -0.3889
 4437SOL    HW124773   2.301   3.478   3.644 -0.5530  1.9724 -0.3699
 4437SOL    HW224774   2.256   3.555   3.534  1.7749  0.2441 -2.1755
 4438SOL     OW24775   2.730   0.081   2.511  0.2447  0.0031  0.3836
 4438SOL    HW124776   2.651   0.062   2.562 -0.2930  2.0586  0.3007
 4438SOL    HW224777   2.691   0.128   2.437  1.2498  1.1087  0.5567
 4439SOL     OW24778   0.990   3.031   3.365 -0.0498  0.1056 -0.2632
 4439SOL    HW124779   0.917   3.087   3.388 -1.0087 -0.7528 -1.2292
 4439SOL    HW224780   1.029   3.073   3.289 -2.1719  0.2783 -1.2427
 4440SOL     OW24781   2.850   0.058   3.811 -0.1913  0.4980 -0.6584
 4440SOL    HW124782   2.771   0.113   3.812  1.9677  3.6270 -0.9609
 4440SOL    HW224783   2.891   0.104   3.884 -0.0134 -0.2445 -0.2958
 4441SOL     OW24784   1.777   0.738   8.732 -0.1315 -0.2420  0.6995
 4441SOL    HW124785   1.870   0.756   8.715 -0.0257  0.9864  2.6543
 4441SOL    HW224786   1.769   0.650   8.697  0.2054  0.0192 -0.0380
 4442SOL     OW24787   1.999   0.063  15.060  0.8122  0.3582  0.4529
 4442SOL    HW124788   2.026   4.724  15.127 -0.1947 -0.8493 -0.2680
 4442SOL    HW224789   2.089   0.093  15.046  0.7910  1.1963  2.1615
 4443SOL     OW24790   2.765   3.648   4.686 -0.2491 -0.2287  0.3571
 4443SOL    HW124791   2.831   3.678   4.749  1.3807 -2.1346 -0.4370
 4443SOL    HW224792   2.787   3.701   4.609 -2.0160  0.8732  0.6303
 4444SOL     OW24793   0.499   1.475  10.305  0.4113  0.0214 -0.4590
 4444SOL    HW124794   0.442   1.534  10.354 -0.2340 -1.1965  0.2642
 4444SOL    HW224795   0.564   1.467  10.375 -1.4444  0.3800  1.3006
 4445SOL     OW24796   3.328   3.175  10.182  0.1362 -0.5743 -0.4201
 4445SOL    HW124797   3.256   3.112  10.181 -0.0318 -0.4117  0.8491
 4445SOL    HW224798   3.311   3.236  10.254 -2.8502  1.0817 -2.4964
 4446SOL     OW24799   2.596   2.972   9.786 -0.4885 -0.1916  0.0890
 4446SOL    HW124800   2.658   3.035   9.822  0.9216 -0.7196 -1.3748
 4446SOL    HW224801   2.647   2.891   9.788 -1.5394 -0.8877 -1.2255
 4447SOL     OW24802   3.485   3.178   3.355 -0.2622 -0.3019 -0.4935
 4447SOL    HW124803   3.461   3.085   3.355  3.3297 -1.2375 -0.3401
 4447SOL    HW224804   3.572   3.161   3.391  0.1286 -1.2422 -1.8879
 4448SOL     OW24805   2.357   2.492   7.067 -0.4119  0.1551  0.1825
 4448SOL    HW124806   2.384   2.468   7.156 -3.0554 -1.1496  0.6339
 4448SOL    HW224807   2.271   2.535   7.071  0.3000  1.7239 -1.8422
 4449SOL     OW24808   3.094   4.597   1.442  0.4363  0.3228  0.1419
 4449SOL    HW124809   3.022   4.554   1.489 -0.2516  0.3657 -0.8595
 4449SOL    HW224810   3.080   4.552   1.359  0.2969  0.7634 -0.0691
 4450SOL     OW24811   3.522   4.722   3.578 -1.0545 -0.1784 -0.5284
 4450SOL    HW124812   3.485   0.085   3.574 -2.0021 -0.6570 -2.5382
 4450SOL    HW224813   3.472   4.692   3.654  0.5081 -1.3042  0.0512
 4451SOL     OW24814   0.527   3.842   1.900 -0.4037 -0.6892 -0.5030
 4451SOL    HW124815   0.550   3.750   1.889 -0.5259 -0.6308 -1.2364
 4451SOL    HW224816   0.476   3.857   1.820 -1.4214 -3.1167 -0.3059
 4452SOL     OW24817   3.386   2.140   3.420 -0.0444 -0.0468 -0.2140
 4452SOL    HW124818   3.460   2.117   3.476  1.1258  2.0403 -0.8964
 4452SOL    HW224819   3.418   2.101   3.339  2.2603 -0.1503  0.7612
 4453SOL     OW24820   1.960   4.032   4.030 -0.3338  0.5533  0.0581
 4453SOL    HW124821   1.887   4.090   4.009 -0.8907 -0.6993 -1.4988
 4453SOL    HW224822   1.915   3.947   4.029  0.0250  0.3537  1.0451
 4454SOL     OW24823   2.990   4.435  14.639  0.4831 -0.3558 -0.2431
 4454SOL    HW124824   3.064   4.414  14.583  0.2778  0.1503 -0.7005
 4454SOL    HW224825   3.025   4.512  14.684 -2.3648  1.5890 -1.3579
 4455SOL     OW24826   4.309   4.258   7.758 -0.3571  0.6080  0.6473
 4455SOL    HW124827   4.274   4.224   7.676 -1.3972  0.7130  1.0377
 4455SOL    HW224828   4.362   4.184   7.785 -0.5945 -0.6679 -2.4424
 4456SOL     OW24829   4.534   1.458   4.311  0.0350 -0.1279 -0.1494
 4456SOL    HW124830   4.601   1.477   4.378  1.0926  1.1219 -1.5500
 4456SOL    HW224831   4.460   1.420   4.357  0.8478 -0.7384  0.6697
 4457SOL     OW24832   0.025   3.594   8.753 -0.5496  0.7864  0.1947
 4457SOL    HW124833   0.036   3.499   8.766  3.2513  1.3405  1.0115
 4457SOL    HW224834   4.665   3.597   8.708 -0.7852 -0.7954  0.5020
 4458SOL     OW24835   1.062   1.579   6.861 -0.1567 -0.3526  0.1684
 4458SOL    HW124836   1.006   1.537   6.926 -0.4976 -1.1949 -0.6721
 4458SOL    HW224837   1.002   1.606   6.792  2.5608 -0.3572 -2.1967
 4459SOL     OW24838   2.366   1.998   4.592  0.1159  0.8908 -0.0363
 4459SOL    HW124839   2.459   2.020   4.597  0.0869  1.4777 -1.8749
 4459SOL    HW224840   2.317   2.068   4.634  2.4045  2.2242  0.4424
 4460SOL     OW24841   3.091   0.681   2.676  0.0853 -0.4221  0.5243
 4460SOL    HW124842   3.061   0.645   2.593  0.8967 -0.3420  0.1898
 4460SOL    HW224843   3.154   0.742   2.637 -0.6476 -0.8118 -1.2609
 4461SOL     OW24844   2.854   2.065   3.414 -0.0245  0.3318 -0.5687
 4461SOL    HW124845   2.794   2.021   3.474 -0.5125  0.3060 -1.0854
 4461SOL    HW224846   2.790   2.106   3.357  1.1288  0.8461 -1.4971
 4462SOL     OW24847   1.814   1.408   9.004 -0.4294  0.2341 -0.0460
 4462SOL    HW124848   1.757   1.476   8.968 -0.3125  0.6170  0.4904
 4462SOL    HW224849   1.796   1.419   9.098  4.4248  3.3056  0.5086
 4463SOL     OW24850   0.559   4.641   6.989 -0.3118  0.1315  0.2147
 4463SOL    HW124851   0.538   4.717   7.042  0.8108  0.8208 -0.3314
 4463SOL    HW224852   0.473   4.600   7.002 -0.4234  0.2672 -0.1180
 4464SOL     OW24853   0.822   4.045   5.574 -0.3723  0.1060 -0.4844
 4464SOL    HW124854   0.866   4.018   5.655  0.4504 -1.3184 -1.4113
 4464SOL    HW224855   0.739   3.997   5.570 -0.8988  1.1397 -1.7010
 4465SOL     OW24856   0.355   4.542   3.858 -0.2435 -0.0847 -0.2238
 4465SOL    HW124857   0.313   4.623   3.829  1.5433  0.5492 -1.0423
 4465SOL    HW224858   0.402   4.516   3.780  2.0023  0.1380  1.0693
 4466SOL     OW24859   1.148   2.569  12.542 -0.1254 -0.4814 -0.1166
 4466SOL    HW124860   1.094   2.557  12.464  0.2173 -1.4478 -0.2010
 4466SOL    HW224861   1.179   2.660  12.534 -1.4489  0.1406  1.7506
 4467SOL     OW24862   4.626   3.727   9.341  0.4117  0.1561 -0.2189
 4467SOL    HW124863   4.678   3.709   9.263 -1.4734 -0.6419 -1.2728
 4467SOL    HW224864   4.688   3.691   9.406  0.1897 -0.7188 -0.4881
 4468SOL     OW24865   2.928   0.722   5.457 -0.0691 -0.0671 -0.4930
 4468SOL    HW124866   2.888   0.687   5.537  1.3601  0.7954  0.6059
 4468SOL    HW224867   3.012   0.754   5.492 -0.8787  0.7906  0.6846
 4469SOL     OW24868   0.842   0.663  12.688  0.4202  0.2042 -0.0994
 4469SOL    HW124869   0.930   0.649  12.651  0.5867  1.4360 -0.1662
 4469SOL    HW224870   0.846   0.758  12.694 -0.9628  0.2454  0.0688
 4470SOL     OW24871   0.271   4.298   5.518  0.1425  0.0379  0.1291
 4470SOL    HW124872   0.268   4.300   5.422 -2.2405  1.1637  0.2067
 4470SOL    HW224873   0.313   4.382   5.540  2.0952 -0.5157 -1.4499
 4471SOL     OW24874   0.645   1.223   8.916  0.3065  0.0126  0.1133
 4471SOL    HW124875   0.706   1.294   8.932  0.1913  0.3533 -0.9328
 4471SOL    HW224876   0.563   1.264   8.944  1.6899  2.7710  0.1050
 4472SOL     OW24877   3.210   3.926   7.742 -0.2426 -0.6475 -0.7464
 4472SOL    HW124878   3.278   3.987   7.771 -0.3515 -1.0418  0.3423
 4472SOL    HW224879   3.172   3.965   7.663 -0.1093 -0.1984 -0.5908
 4473SOL     OW24880   0.131   0.877  11.816 -0.5220  0.1068 -0.4512
 4473SOL    HW124881   0.219   0.890  11.849 -0.5955  1.6904 -0.8809
 4473SOL    HW224882   0.085   0.834  11.889 -0.2334 -0.9936 -0.9170
 4474SOL     OW24883   3.770   1.219   5.439 -0.0700 -0.0215  0.2150
 4474SOL    HW124884   3.812   1.186   5.359  2.5184  0.5542  1.3391
 4474SOL    HW224885   3.704   1.272   5.393  0.1436  0.7828  0.8387
 4475SOL     OW24886   0.227   1.407   3.694 -0.6109  0.1291  0.3314
 4475SOL    HW124887   0.319   1.381   3.681  0.2313  4.0321 -1.6817
 4475SOL    HW224888   0.230   1.466   3.769  2.5232 -0.0214  0.3345
 4476SOL     OW24889   1.502   2.458   7.279  0.5334 -0.7535 -0.0241
 4476SOL    HW124890   1.473   2.388   7.220 -2.3660  0.1395  0.2957
 4476SOL    HW224891   1.477   2.428   7.367 -0.2158  0.2857  0.1194
 4477SOL     OW24892   1.696   0.449   8.688  0.3812 -0.0726 -0.1104
 4477SOL    HW124893   1.690   0.374   8.747 -1.3259  0.6732  0.6669
 4477SOL    HW224894   1.605   0.464   8.662  0.8546  1.9670 -0.6357
 4478SOL     OW24895   2.656   0.659   8.253 -0.2461 -0.4157 -0.2631
 4478SOL    HW124896   2.669   0.753   8.241  2.4580 -0.7357  0.2840
 4478SOL    HW224897   2.619   0.649   8.340 -2.6519 -1.9886 -1.4333
 4479SOL     OW24898   4.638   3.221   9.336 -0.1986 -0.1718  0.4408
 4479SOL    HW124899   4.577   3.259   9.399  0.3394  0.8696  0.3244
 4479SOL    HW224900   4.717   3.220   9.389  0.5863 -1.4188 -0.7296
 4480SOL     OW24901   1.459   0.615   9.725 -0.4499 -0.2596  0.2220
 4480SOL    HW124902   1.519   0.564   9.669 -2.2594 -1.0579 -0.9870
 4480SOL    HW224903   1.399   0.544   9.748 -3.4672  2.1341 -0.3026
 4481SOL     OW24904   1.688   2.087  16.711 -0.4724 -0.3796 -0.1154
 4481SOL    HW124905   1.712   2.081  16.618 -1.3369  1.5005 -0.4526
 4481SOL    HW224906   1.659   2.177  16.723  1.8775  0.3360  0.1210
 4482SOL     OW24907   3.681   2.771   9.951  0.0994  0.5886 -0.2574
 4482SOL    HW124908   3.593   2.733   9.944 -0.8020  2.4971  0.3789
 4482SOL    HW224909   3.658   2.838  10.016  1.0971 -0.0321  0.7413
 4483SOL     OW24910   1.056   0.618   7.256 -0.1274  0.2122 -0.3779
 4483SOL    HW124911   1.033   0.708   7.233 -0.4055  0.5538  1.2105
 4483SOL    HW224912   0.998   0.593   7.329 -0.0217  0.6303 -0.1520
 4484SOL     OW24913   0.108   3.642  13.285 -0.0803  0.1866 -0.0182
 4484SOL    HW124914   0.145   3.626  13.371  0.0858 -0.4937 -0.2194
 4484SOL    HW224915   0.167   3.597  13.225  1.2676  1.4487  0.3468
 4485SOL     OW24916   2.450   4.711  13.069 -0.1361 -0.6441 -0.2505
 4485SOL    HW124917   2.484   0.043  12.999 -0.7943  0.5055  0.3693
 4485SOL    HW224918   2.497   0.013  13.148  0.1661 -0.2483 -0.5636
 4486SOL     OW24919   0.725   2.157  16.647  0.5898 -0.1271  0.3949
 4486SOL    HW124920   0.807   2.116  16.620 -0.1487 -2.3043  1.4894
 4486SOL    HW224921   0.659   2.108  16.597  0.0196  1.2598 -0.2184
 4487SOL     OW24922   3.280   3.548   4.462  0.0094  0.0846 -0.0885
 4487SOL    HW124923   3.229   3.471   4.486 -0.7641  0.7794  0.4967
 4487SOL    HW224924   3.262   3.564   4.370  0.2253 -1.0115 -0.3174
 4488SOL     OW24925   4.649   0.516   8.349  0.1980 -0.2492  0.0329
 4488SOL    HW124926   4.660   0.482   8.438 -0.9589  0.8153  0.5970
 4488SOL    HW224927   4.554   0.531   8.355  0.6866  3.3017 -1.3385
 4489SOL     OW24928   0.468   4.716  12.757  0.3343 -0.0070 -0.1365
 4489SOL    HW124929   0.520   0.064  12.792 -1.5021  0.1774  2.1455
 4489SOL    HW224930   0.456   0.028  12.669 -2.2020  1.0229  0.6503
 4490SOL     OW24931   1.842   2.302   3.657  0.1930  0.1323 -0.0045
 4490SOL    HW124932   1.931   2.337   3.658  0.0064  0.6333 -1.4297
 4490SOL    HW224933   1.789   2.377   3.633 -0.8152 -0.7988 -0.6703
 4491SOL     OW24934   1.355   2.519   3.668 -0.2341  0.5212 -0.1810
 4491SOL    HW124935   1.374   2.610   3.689 -1.9251  1.1290 -1.2640
 4491SOL    HW224936   1.350   2.525   3.573  0.4912 -1.2992 -0.3209
 4492SOL     OW24937   2.567   1.207   5.753  0.0909 -0.5691 -0.4184
 4492SOL    HW124938   2.576   1.301   5.739 -0.1692 -0.4298  0.3168
 4492SOL    HW224939   2.595   1.168   5.670  0.9647  1.9059 -1.2561
 4493SOL     OW24940   0.339   1.721   9.446 -0.2790 -0.5054 -0.0815
 4493SOL    HW124941   0.364   1.631   9.423  2.9582  0.4609 -0.4017
 4493SOL    HW224942   0.316   1.710   9.538  2.4496  0.9267  0.7647
 4494SOL     OW24943   0.171   1.599   2.733  0.1652  0.2360 -0.3133
 4494SOL    HW124944   0.263   1.573   2.732  0.1415  0.0954  1.3186
 4494SOL    HW224945   0.121   1.518   2.721  1.1981 -0.5861  0.8748
 4495SOL     OW24946   1.811   0.680   8.328  0.4851  0.3698 -0.3284
 4495SOL    HW124947   1.862   0.761   8.323  0.6405  0.5381  3.8695
 4495SOL    HW224948   1.744   0.687   8.260 -1.1449  1.7322  1.4440
 4496SOL     OW24949   1.184   3.944   2.454  0.2533  0.2276 -0.5723
 4496SOL    HW124950   1.165   3.880   2.522 -2.9332 -1.1006 -2.6936
 4496SOL    HW224951   1.128   3.913   2.382  0.2724  0.2213 -0.5844
 4497SOL     OW24952   4.294   4.086   2.979 -0.4156  0.0417 -0.6315
 4497SOL    HW124953   4.224   4.134   2.934 -1.5633 -1.1976 -0.1983
 4497SOL    HW224954   4.243   4.015   3.019  0.2156 -0.1777 -0.2280
 4498SOL     OW24955   1.759   2.768   9.036  0.3435 -0.6139  0.3502
 4498SOL    HW124956   1.804   2.837   8.987 -0.0495  0.0403  0.9044
 4498SOL    HW224957   1.685   2.746   8.979 -0.8675  2.1643  0.8740
 4499SOL     OW24958   2.589   0.209   6.612  0.5290 -0.7067  0.4153
 4499SOL    HW124959   2.539   0.290   6.608 -2.2858 -2.5086 -0.9664
 4499SOL    HW224960   2.561   0.155   6.538  0.5563 -0.4382  0.2086
 4500SOL     OW24961   1.551   0.682  13.380 -0.3157  0.4189 -0.3907
 4500SOL    HW124962   1.621   0.626  13.413  1.3590  2.3548 -0.5968
 4500SOL    HW224963   1.529   0.730  13.460  3.6926  1.1760  0.2877
 4501SOL     OW24964   3.139   2.471   1.381 -0.3196 -0.1290  0.3532
 4501SOL    HW124965   3.109   2.557   1.354 -2.6574 -1.3097 -0.7661
 4501SOL    HW224966   3.230   2.468   1.352 -1.0337  0.7329 -1.9228
 4502SOL     OW24967   0.371   0.331   5.408  0.1441 -0.4642 -0.1513
 4502SOL    HW124968   0.304   0.390   5.373  0.0188  1.1002  2.8116
 4502SOL    HW224969   0.360   0.253   5.353 -1.0652 -0.4563  0.0702
 4503SOL     OW24970   2.665   0.319   5.749  0.5505 -0.0298 -0.7444
 4503SOL    HW124971   2.571   0.318   5.733  0.8111  0.2471 -2.2890
 4503SOL    HW224972   2.673   0.333   5.843 -1.0015 -1.1343 -0.4415
 4504SOL     OW24973   3.195   3.979  10.460 -0.3490 -0.4362  0.7870
 4504SOL    HW124974   3.239   4.003  10.542 -0.4209  3.0901 -0.1848
 4504SOL    HW224975   3.149   4.059  10.433  1.9600  1.3330  2.0120
 4505SOL     OW24976   2.988   2.576   5.615  0.2925 -0.2793  0.0988
 4505SOL    HW124977   2.895   2.591   5.630  0.1908 -1.2571  0.4751
 4505SOL    HW224978   3.018   2.656   5.573 -1.7256  0.4841  0.1553
 4506SOL     OW24979   2.438   3.240   7.245  0.0120  0.1088  0.0042
 4506SOL    HW124980   2.529   3.248   7.275  0.2018 -0.5417 -0.4033
 4506SOL    HW224981   2.421   3.154   7.283 -1.8175  0.9832  1.1789
 4507SOL     OW24982   0.745   3.965   6.499  0.1133 -0.1694 -0.6408
 4507SOL    HW124983   0.652   3.955   6.521  0.2468  0.9123  0.4234
 4507SOL    HW224984   0.745   3.920   6.415 -0.6958 -0.6314 -0.3913
 4508SOL     OW24985   3.300   2.340   4.228 -0.4543 -0.0864 -0.0676
 4508SOL    HW124986   3.372   2.368   4.171 -0.2544 -0.1846  0.1386
 4508SOL    HW224987   3.326   2.248   4.226 -2.1381 -0.5819  0.4050
 4509SOL     OW24988   2.477   0.354  11.116 -0.3151 -0.4841  0.3246
 4509SOL    HW124989   2.537   0.396  11.054 -0.1236 -2.4786 -0.8219
 4509SOL    HW224990   2.541   0.323  11.181 -1.6539  0.3174  2.0178
 4510SOL     OW24991   2.625   3.952  15.618 -0.5892 -0.0262  0.3062
 4510SOL    HW124992   2.694   4.015  15.640  0.0657 -0.3739 -0.7561
 4510SOL    HW224993   2.668   3.881  15.571  1.7503  0.8888  1.0249
 4511SOL     OW24994   4.236   1.784   8.900  0.2565 -0.2314  0.0310
 4511SOL    HW124995   4.150   1.755   8.929 -0.8946  1.9312 -1.1864
 4511SOL    HW224996   4.229   1.876   8.927 -0.2356 -0.1309 -0.4262
 4512SOL     OW24997   0.382   2.281   2.892 -0.1420 -0.4136  0.1128
 4512SOL    HW124998   0.429   2.365   2.889 -2.9651  1.1320 -1.5477
 4512SOL    HW224999   0.453   2.226   2.860  1.2706  1.8626 -0.6667
 4513SOL     OW25000   0.897   4.466   1.788  0.6574 -0.3958  0.6784
 4513SOL    HW125001   0.936   4.514   1.714 -1.9821  2.5479  1.1710
 4513SOL    HW225002   0.928   4.376   1.775  2.0921  0.2941 -0.7734
 4514SOL     OW25003   1.446   3.110  13.351  0.2817  0.4191  0.4802
 4514SOL    HW125004   1.400   3.178  13.300 -1.2540 -1.5486 -0.7638
 4514SOL    HW225005   1.475   3.157  13.429 -3.2183 -1.4810  2.9267
 4515SOL     OW25006   2.251   2.632   8.877 -0.4405 -0.1742 -0.3905
 4515SOL    HW125007   2.206   2.681   8.945 -1.1504 -1.2843 -0.0492
 4515SOL    HW225008   2.316   2.597   8.937 -2.2362  0.2533  1.8139
 4516SOL     OW25009   4.562   0.654  16.546 -0.3878 -0.6644  0.1011
 4516SOL    HW125010   4.631   0.673  16.482  3.1870  2.0508  4.7233
 4516SOL    HW225011   4.515   0.576  16.517 -1.2704  0.0949 -0.4889
 4517SOL     OW25012   3.920   3.830   6.110  0.3658  0.2513 -0.1286
 4517SOL    HW125013   3.858   3.772   6.066 -1.0618 -0.6426  3.0492
 4517SOL    HW225014   3.870   3.840   6.191  1.5053 -0.4995  0.6781
 4518SOL     OW25015   1.025   3.763   6.191  0.0476  0.1077  0.5783
 4518SOL    HW125016   0.984   3.830   6.136  1.6958 -1.7124 -2.8482
 4518SOL    HW225017   0.952   3.743   6.250 -0.9997  1.8501 -0.1008
 4519SOL     OW25018   1.108   2.165  16.106 -0.4026 -0.0262  0.0395
 4519SOL    HW125019   1.066   2.251  16.114 -0.4900 -0.2068  1.6061
 4519SOL    HW225020   1.139   2.176  16.017  1.2784  1.7907  0.8456
 4520SOL     OW25021   1.923   2.432   3.288  0.3449 -0.1923  0.4771
 4520SOL    HW125022   1.976   2.496   3.240  0.6073 -0.0964  0.8995
 4520SOL    HW225023   1.834   2.455   3.260  1.0942  0.5118 -1.4002
 4521SOL     OW25024   3.151   0.682   6.369 -0.8230  0.3637  0.4022
 4521SOL    HW125025   3.110   0.644   6.291  1.4915  0.2569 -0.7406
 4521SOL    HW225026   3.108   0.767   6.382 -1.0687 -0.2627  3.6084
 4522SOL     OW25027   2.224   1.940  14.210 -0.3659  0.1240  0.0655
 4522SOL    HW125028   2.235   1.891  14.128  0.4988  1.3469 -0.5621
 4522SOL    HW225029   2.161   2.009  14.189  0.6644  1.7725  2.4289
 4523SOL     OW25030   0.011   1.055   6.296 -0.0422  0.4432 -0.2621
 4523SOL    HW125031   4.660   1.040   6.239 -0.5340 -0.1962  0.5483
 4523SOL    HW225032   0.057   1.122   6.246  0.5556  0.1738 -0.0724
 4524SOL     OW25033   4.070   3.635   2.351  0.7260  0.0870 -0.5496
 4524SOL    HW125034   4.048   3.712   2.299  1.8485  0.4765 -0.4618
 4524SOL    HW225035   3.987   3.590   2.365 -0.5143  2.3161 -0.6092
 4525SOL     OW25036   3.964   2.932   7.398  0.1107 -0.1579 -0.4023
 4525SOL    HW125037   3.974   2.981   7.316  1.9035  0.5974  0.2800
 4525SOL    HW225038   4.051   2.895   7.411  0.0573 -0.1970 -0.1500
 4526SOL     OW25039   3.791   1.883   1.386  0.5624  0.2352 -0.0219
 4526SOL    HW125040   3.695   1.881   1.392  0.8129  1.8449  4.4725
 4526SOL    HW225041   3.817   1.798   1.352 -0.3211  0.4053 -1.1252
 4527SOL     OW25042   1.631   1.657   0.004 -0.1717 -0.2684 -0.0999
 4527SOL    HW125043   1.677   1.738  17.680  0.5763 -0.6878 -0.0735
 4527SOL    HW225044   1.651   1.608  17.624 -2.2104 -2.3085  0.6381
 4528SOL     OW25045   1.488   0.841   8.940  0.3871  0.2040  0.3314
 4528SOL    HW125046   1.553   0.771   8.947 -1.5078 -1.8734 -2.7395
 4528SOL    HW225047   1.540   0.917   8.968 -1.0699  0.8467  1.2941
 4529SOL     OW25048   2.035   4.704   0.844 -0.2785 -0.0829  0.5241
 4529SOL    HW125049   1.985   0.039   0.901  0.0354 -0.2297  0.9522
 4529SOL    HW225050   2.124   0.006   0.865  1.2071 -2.3002 -3.1122
 4530SOL     OW25051   2.257   3.037   8.491  0.1767  0.0325 -0.0461
 4530SOL    HW125052   2.313   3.090   8.434  3.7348 -3.0134  0.5998
 4530SOL    HW225053   2.226   3.107   8.548  0.4273  0.4394 -0.4044
 4531SOL     OW25054   0.897   3.688   4.826 -0.1306  0.2046 -0.4059
 4531SOL    HW125055   0.821   3.704   4.770  0.1325 -1.6063 -1.2930
 4531SOL    HW225056   0.901   3.592   4.823 -0.1413  0.1603  1.6474
 4532SOL     OW25057   2.953   3.521   8.588  0.2738  0.1493  0.0370
 4532SOL    HW125058   2.880   3.486   8.639  1.1540  2.5744  2.9419
 4532SOL    HW225059   2.919   3.521   8.498  0.2022 -2.6441  0.0692
 4533SOL     OW25060   3.354   1.273   6.004  0.3466 -0.0244  0.5210
 4533SOL    HW125061   3.424   1.212   5.979  0.3470 -1.1509  3.2262
 4533SOL    HW225062   3.303   1.202   6.043 -0.2347 -0.0703 -0.3193
 4534SOL     OW25063   4.456   2.587   5.333  0.2861 -0.2359 -0.4116
 4534SOL    HW125064   4.552   2.595   5.326  0.4419 -2.0560 -0.4763
 4534SOL    HW225065   4.443   2.677   5.363 -2.0110 -1.3291  1.8509
 4535SOL     OW25066   1.944   3.362   4.580 -0.0944  0.3675 -0.7773
 4535SOL    HW125067   1.986   3.276   4.581 -1.7989 -0.4592  0.5621
 4535SOL    HW225068   1.853   3.336   4.593  0.6777 -1.3633  1.1863
 4536SOL     OW25069   1.418   3.440   4.629  0.2703 -0.1561 -0.0101
 4536SOL    HW125070   1.509   3.434   4.599  0.6572 -0.3110  1.1976
 4536SOL    HW225071   1.374   3.389   4.561 -0.1556 -0.6669  0.6361
 4537SOL     OW25072   4.478   3.394   9.923  0.1870  0.0460  0.4505
 4537SOL    HW125073   4.411   3.462   9.930  1.8069  1.8446 -1.3031
 4537SOL    HW225074   4.527   3.397  10.004  2.3093 -1.3803 -0.7865
 4538SOL     OW25075   3.978   4.299   7.578 -0.6748 -0.2872  0.6208
 4538SOL    HW125076   4.020   4.297   7.664  0.4695 -0.6569  0.0551
 4538SOL    HW225077   4.039   4.241   7.532 -0.5478  0.0295  0.3890
 4539SOL     OW25078   0.817   3.433   4.910  0.2195 -0.1055  0.0814
 4539SOL    HW125079   0.769   3.362   4.866  0.0972  1.5033 -2.4498
 4539SOL    HW225080   0.841   3.395   4.994  0.5028 -0.0830  0.0077
 4540SOL     OW25081   0.348   4.383  17.108  0.6888 -0.2316  0.4562
 4540SOL    HW125082   0.307   4.466  17.130  1.8911  0.5382 -0.1709
 4540SOL    HW225083   0.410   4.383  17.182 -1.3608  1.4274  2.1540
 4541SOL     OW25084   0.331   2.878   6.952  0.2936 -0.0038  0.2666
 4541SOL    HW125085   0.423   2.873   6.978  0.5466  1.6088 -0.3510
 4541SOL    HW225086   0.311   2.796   6.997 -0.7948  0.6618  0.9907
 4542SOL     OW25087   0.048   2.584   0.332  0.3852 -0.1484 -0.0879
 4542SOL    HW125088   0.039   2.536   0.250  0.0218  0.3045 -0.3119
 4542SOL    HW225089   0.122   2.540   0.374 -0.4433 -1.6248 -0.1673
 4543SOL     OW25090   0.586   3.578   4.434 -0.0464  0.3718  0.3094
 4543SOL    HW125091   0.628   3.615   4.356 -1.0415 -0.4622 -0.6284
 4543SOL    HW225092   0.508   3.632   4.448  0.6942  0.8341  2.5502
 4544SOL     OW25093   3.253   0.697   9.506 -0.1388 -0.3471  0.0974
 4544SOL    HW125094   3.191   0.753   9.551  0.4468 -1.0408  1.7790
 4544SOL    HW225095   3.209   0.665   9.427 -0.1837  0.8931 -0.3829
 4545SOL     OW25096   4.004   4.408   8.330 -0.2333 -0.4437  0.8464
 4545SOL    HW125097   3.928   4.375   8.377  0.5294 -1.5640  1.3105
 4545SOL    HW225098   3.965   4.486   8.292 -2.0569 -2.0547 -0.5810
 4546SOL     OW25099   0.981   1.465   2.025 -0.1827 -0.5377  0.2911
 4546SOL    HW125100   0.953   1.408   1.954 -1.1713  1.5584 -1.0048
 4546SOL    HW225101   0.936   1.542   1.990 -1.1218 -2.2291 -2.1916
 4547SOL     OW25102   0.145   3.214   9.458 -0.5219  0.4689  0.1566
 4547SOL    HW125103   0.199   3.175   9.528  1.1503  0.7740 -0.9523
 4547SOL    HW225104   0.155   3.305   9.486  1.1977  0.3145  0.0823
 4548SOL     OW25105   3.455   1.193   4.232 -0.4229  0.6675 -0.0521
 4548SOL    HW125106   3.538   1.181   4.187 -0.8738 -1.5120 -0.2972
 4548SOL    HW225107   3.413   1.109   4.214  1.8429 -0.2217 -1.1462
 4549SOL     OW25108   4.317   4.559   8.094  0.0837 -0.4932 -0.2550
 4549SOL    HW125109   4.273   4.504   8.030  2.1827  0.2748 -2.3598
 4549SOL    HW225110   4.409   4.533   8.089  0.4741  0.5356  1.6823
 4550SOL     OW25111   2.036   0.900   0.499  0.3853 -0.2083 -0.2960
 4550SOL    HW125112   2.028   0.991   0.467 -2.0809 -0.4435 -0.3628
 4550SOL    HW225113   2.112   0.920   0.553  0.7231 -2.4511  0.0335
 4551SOL     OW25114   2.196   0.017   4.857 -0.6091 -0.1797 -0.1713
 4551SOL    HW125115   2.213   0.101   4.900 -1.0125  0.0756 -0.5182
 4551SOL    HW225116   2.186   4.677   4.927 -0.0173 -0.4928 -0.3776
 4552SOL     OW25117   2.120   1.979   2.894 -0.2176  0.0652 -0.2700
 4552SOL    HW125118   2.079   2.062   2.868  1.1106  0.0921 -2.2898
 4552SOL    HW225119   2.160   1.953   2.811  1.7868  2.7533 -0.1373
 4553SOL     OW25120   1.631   2.219   3.828  0.1960  0.1144  0.2836
 4553SOL    HW125121   1.553   2.258   3.789 -0.0305 -1.4056 -0.8070
 4553SOL    HW225122   1.688   2.222   3.751  0.1079  1.8429  0.2954
 4554SOL     OW25123   2.586   4.589  13.398 -0.4147  0.1297  0.4089
 4554SOL    HW125124   2.503   4.542  13.385  0.2768 -1.1959  0.7245
 4554SOL    HW225125   2.555   4.652  13.462  0.0041  0.3532  0.3940
 4555SOL     OW25126   1.895   2.273  16.595 -0.3735 -0.5448 -0.0157
 4555SOL    HW125127   1.875   2.190  16.552  2.0411 -1.7670  1.2172
 4555SOL    HW225128   1.926   2.238  16.679  0.4241 -3.0413 -1.3456
 4556SOL     OW25129   0.167   2.393   7.636 -0.3750 -0.1709  0.4613
 4556SOL    HW125130   0.079   2.355   7.639  0.3930 -2.0911 -0.9635
 4556SOL    HW225131   0.159   2.466   7.698  0.3489 -0.4555  0.8850
 4557SOL     OW25132   0.539   2.531   3.032  0.0685 -0.2961  0.4487
 4557SOL    HW125133   0.588   2.574   3.102  1.6204  0.6962 -1.2302
 4557SOL    HW225134   0.496   2.603   2.987  0.0079 -1.4359 -1.3151
 4558SOL     OW25135   4.656   3.322   7.267  0.2623  0.2680  0.1385
 4558SOL    HW125136   4.689   3.339   7.355 -0.2256 -1.6401  0.7070
 4558SOL    HW225137   0.006   3.325   7.207  1.4896 -0.1960  1.6313
 4559SOL     OW25138   4.360   2.751   2.230 -0.1884 -0.3009 -0.2639
 4559SOL    HW125139   4.316   2.669   2.203  0.5638 -1.1520  1.1290
 4559SOL    HW225140   4.371   2.737   2.324 -1.3652  1.9276  0.2071
 4560SOL     OW25141   1.878   1.251  13.961 -0.1197 -0.0786 -1.0148
 4560SOL    HW125142   1.929   1.330  13.944 -2.6021  1.5180 -1.0193
 4560SOL    HW225143   1.945   1.200  14.007  0.3045 -0.5011 -2.0956
 4561SOL     OW25144   4.161   1.260   8.276 -0.0568  0.1339 -0.1999
 4561SOL    HW125145   4.232   1.324   8.278 -1.9573  2.3009 -2.3230
 4561SOL    HW225146   4.087   1.295   8.325  0.2371 -0.9819  1.0587
 4562SOL     OW25147   3.780   1.087  10.895 -0.0095 -0.4647  0.0617
 4562SOL    HW125148   3.790   1.079  10.800  0.1211 -1.4901  0.1529
 4562SOL    HW225149   3.704   1.029  10.896  0.4366 -1.0463  2.8550
 4563SOL     OW25150   0.225   0.483   3.972  0.2204 -0.2516 -0.1665
 4563SOL    HW125151   0.257   0.393   3.974 -0.7019 -0.5648  0.5458
 4563SOL    HW225152   0.303   0.535   3.990 -0.0653 -0.4417  1.5693
 4564SOL     OW25153   1.740   1.153   8.159 -0.1468  0.0740 -0.1546
 4564SOL    HW125154   1.724   1.240   8.123  1.7154  0.4321 -0.1099
 4564SOL    HW225155   1.760   1.095   8.085 -0.1187  0.4952 -0.4733
 4565SOL     OW25156   2.786   3.814  15.157  0.5692  0.0445  0.6120
 4565SOL    HW125157   2.733   3.884  15.196 -0.1862 -0.0675 -0.2353
 4565SOL    HW225158   2.830   3.784  15.237  1.5148 -1.3178 -0.4131
 4566SOL     OW25159   3.487   4.029   2.128  0.2978  0.3363 -0.4410
 4566SOL    HW125160   3.549   3.981   2.073 -0.3793  1.1117 -1.8899
 4566SOL    HW225161   3.484   3.971   2.204 -0.1246  1.9066  0.7343
 4567SOL     OW25162   0.559   1.843   7.183  0.0562 -0.3339 -0.0069
 4567SOL    HW125163   0.477   1.847   7.134 -0.4297  0.2861  0.8695
 4567SOL    HW225164   0.545   1.913   7.246  1.5270 -2.5259  2.7963
 4568SOL     OW25165   0.485   0.482   4.905  0.3063 -0.1567  0.4977
 4568SOL    HW125166   0.573   0.520   4.912 -1.0038  2.5366  2.5008
 4568SOL    HW225167   0.515   0.396   4.876 -0.4425 -0.5329  0.8356
 4569SOL     OW25168   1.178   1.767   4.583  0.7707  0.4818 -0.4960
 4569SOL    HW125169   1.259   1.729   4.549 -0.0256 -0.7661 -0.9918
 4569SOL    HW225170   1.117   1.749   4.511  1.0345  0.3855 -0.6959
 4570SOL     OW25171   3.603   1.787   0.986  0.2451 -0.5300 -0.4681
 4570SOL    HW125172   3.518   1.823   0.962  0.3282 -0.4330 -0.6137
 4570SOL    HW225173   3.581   1.721   1.052  0.1757 -0.7638 -0.7224
 4571SOL     OW25174   3.894   1.399  15.924 -0.1142 -0.2428  0.0652
 4571SOL    HW125175   3.974   1.447  15.945 -1.2368  1.5135  0.2976
 4571SOL    HW225176   3.925   1.316  15.887 -2.1530 -0.4699 -1.1059
 4572SOL     OW25177   0.236   3.569   5.334  0.3801  0.1962 -0.3179
 4572SOL    HW125178   0.143   3.590   5.331  0.3927  0.5272  1.4892
 4572SOL    HW225179   0.230   3.477   5.358 -1.4362  0.2518 -0.5435
 4573SOL     OW25180   4.382   3.464   1.159  0.4303  0.2749  0.0133
 4573SOL    HW125181   4.366   3.556   1.182  0.2553  0.0798  0.6714
 4573SOL    HW225182   4.411   3.423   1.241 -2.7689 -3.6522 -0.8099
 4574SOL     OW25183   0.467   2.891   8.640  0.1986 -0.0953  0.2033
 4574SOL    HW125184   0.471   2.882   8.545  1.2658  1.0448  0.1432
 4574SOL    HW225185   0.392   2.946   8.664 -0.4680 -0.6133 -0.7025
 4575SOL     OW25186   1.676   1.659   2.290  0.2222 -0.0814  0.2760
 4575SOL    HW125187   1.684   1.746   2.329 -1.0651  0.2666 -0.2473
 4575SOL    HW225188   1.588   1.623   2.299 -0.6924  1.9791 -0.6607
 4576SOL     OW25189   2.643   2.736   0.241 -0.3304 -0.0716  0.0896
 4576SOL    HW125190   2.622   2.643   0.247  0.0488 -0.1517  0.1654
 4576SOL    HW225191   2.611   2.761   0.154  1.8772 -0.1989 -0.7540
 4577SOL     OW25192   0.270   2.645   7.101 -0.2533 -0.3999 -0.1818
 4577SOL    HW125193   0.280   2.689   7.186 -1.5630 -0.1476 -0.1596
 4577SOL    HW225194   0.293   2.557   7.129 -2.6348 -0.8665  0.2651
 4578SOL     OW25195   1.400   3.576   0.451 -0.1057  0.3256 -0.3164
 4578SOL    HW125196   1.439   3.652   0.408 -0.5726  1.8094  1.8663
 4578SOL    HW225197   1.480   3.544   0.492 -3.0910 -3.5432  2.5043
 4579SOL     OW25198   4.262   0.057   7.888  0.2726 -0.3394 -0.4734
 4579SOL    HW125199   4.356   0.044   7.906  0.2339 -0.7700 -0.5956
 4579SOL    HW225200   4.248   0.087   7.978 -0.4793 -0.8374 -0.4280
 4580SOL     OW25201   1.844   2.194   4.045  0.5939  0.1985  0.0957
 4580SOL    HW125202   1.796   2.191   3.962  2.5058  0.6160 -1.0221
 4580SOL    HW225203   1.924   2.238   4.015  0.3951  0.4281 -0.1017
 4581SOL     OW25204   0.969   3.548   3.137 -0.5564  0.4920  0.1219
 4581SOL    HW125205   0.915   3.592   3.072 -0.7928 -0.6300 -0.4519
 4581SOL    HW225206   0.918   3.466   3.143  0.4880  0.2090  5.7561
 4582SOL     OW25207   1.505   3.353  16.489  0.3109  0.4575  0.2473
 4582SOL    HW125208   1.536   3.439  16.460 -0.8332  0.5424 -0.6897
 4582SOL    HW225209   1.590   3.308  16.491 -1.9823 -3.6776  3.3144
 4583SOL     OW25210   2.016   2.099   1.492 -0.0084 -0.2862  0.5218
 4583SOL    HW125211   2.041   2.187   1.464  0.2094 -0.3716  0.4447
 4583SOL    HW225212   1.936   2.112   1.542 -1.0299 -0.7705 -0.9936
 4584SOL     OW25213   4.631   3.188   5.954 -0.0655  0.5173 -0.0439
 4584SOL    HW125214   4.675   3.270   5.929  1.4060 -0.0597  0.6574
 4584SOL    HW225215   4.623   3.145   5.869  1.5885  1.9281 -0.9290
 4585SOL     OW25216   2.471   3.865  12.035 -0.0866 -0.1945 -0.5393
 4585SOL    HW125217   2.496   3.954  12.009  0.9530 -0.0324  1.0025
 4585SOL    HW225218   2.445   3.834  11.949 -3.0809  1.9611 -0.3840
 4586SOL     OW25219   4.063   1.087  15.994  0.3461  0.6253 -0.1857
 4586SOL    HW125220   4.068   1.120  15.905 -0.4534 -0.1839 -0.5305
 4586SOL    HW225221   4.064   0.992  15.978 -0.3527  1.0565 -2.6855
 4587SOL     OW25222   3.827   4.163   6.975 -0.4313  0.5150 -0.3225
 4587SOL    HW125223   3.835   4.071   7.000 -0.6135  0.8159  0.8139
 4587SOL    HW225224   3.734   4.158   6.951 -0.3445  0.0215 -0.5640
 4588SOL     OW25225   0.197   0.642  11.595  0.0037  0.1474  0.2742
 4588SOL    HW125226   0.263   0.606  11.537 -0.5578 -0.4607  0.0153
 4588SOL    HW225227   0.255   0.643  11.671  0.9653 -0.6534 -0.4591
 4589SOL     OW25228   0.523   3.381   7.274 -0.0180  0.1834 -0.2521
 4589SOL    HW125229   0.439   3.417   7.301  0.3186  1.5596 -1.0343
 4589SOL    HW225230   0.520   3.292   7.309  0.7797 -0.3588 -1.6041
 4590SOL     OW25231   1.992   4.691   4.407 -0.8026 -0.1649  0.2671
 4590SOL    HW125232   2.074   4.686   4.358 -0.3939  0.6180  0.8704
 4590SOL    HW225233   2.020   4.644   4.486  0.6992 -0.4249 -0.4161
 4591SOL     OW25234   1.000   0.034  10.610 -0.2196 -0.1642  0.4469
 4591SOL    HW125235   1.052   0.114  10.601 -1.0667  0.4357  0.8693
 4591SOL    HW225236   1.044   4.708  10.542 -0.5828  2.4408 -1.7581
 4592SOL     OW25237   3.287   4.714  11.769  0.0359 -0.5280 -0.3881
 4592SOL    HW125238   3.218   4.694  11.706  0.8829 -0.6732 -1.2534
 4592SOL    HW225239   3.240   4.697  11.851  1.2179 -2.3668 -0.0951
 4593SOL     OW25240   0.286   4.454  10.889 -0.2081  0.3752 -0.2591
 4593SOL    HW125241   0.224   4.419  10.825 -0.2958  1.2001 -0.6211
 4593SOL    HW225242   0.275   4.548  10.875 -0.3247  0.0939 -2.0427
 4594SOL     OW25243   1.567   4.674  13.808  0.0100 -0.0254 -0.0122
 4594SOL    HW125244   1.480   4.698  13.840  0.5418 -0.2497  1.6179
 4594SOL    HW225245   1.544   4.614  13.737 -0.9245  0.2311  0.0725
 4595SOL     OW25246   0.059   4.403   8.800  0.0538 -0.6781 -0.1956
 4595SOL    HW125247   0.135   4.346   8.791 -0.7026 -1.9214  1.3122
 4595SOL    HW225248   0.035   4.394   8.892  1.4742  2.5948  0.4890
 4596SOL     OW25249   2.460   4.394   5.481  0.0234 -0.6752 -0.0599
 4596SOL    HW125250   2.488   4.461   5.419  1.1960 -0.2397  0.9437
 4596SOL    HW225251   2.432   4.450   5.553 -0.3026  0.3096 -0.9440
 4597SOL     OW25252   3.402   3.043   7.063 -0.2784 -0.2383 -0.4403
 4597SOL    HW125253   3.491   3.079   7.068 -0.8531  1.2439 -0.9015
 4597SOL    HW225254   3.349   3.120   7.044  1.1457  0.3587 -2.0344
 4598SOL     OW25255   1.218   3.152   5.642 -0.0585 -0.3332  0.4120
 4598SOL    HW125256   1.148   3.121   5.584 -0.4599 -0.2006  0.8260
 4598SOL    HW225257   1.285   3.166   5.575 -1.9359 -0.7653 -1.5545
 4599SOL     OW25258   2.584   2.178   6.718 -0.8252  0.4134 -0.4249
 4599SOL    HW125259   2.549   2.159   6.805 -2.0413  4.2187 -0.0643
 4599SOL    HW225260   2.506   2.174   6.663 -0.6903 -1.4591 -0.4625
 4600SOL     OW25261   1.953   2.492  11.195  0.0405  0.0805  0.0084
 4600SOL    HW125262   1.987   2.513  11.282 -0.0758 -1.8397  0.5173
 4600SOL    HW225263   1.875   2.548  11.190  1.9859  2.8503  0.3893
 4601SOL     OW25264   4.678   4.573   4.180  0.5996 -0.7565  0.5465
 4601SOL    HW125265   0.020   4.637   4.204  0.2359  0.1185 -0.7801
 4601SOL    HW225266   0.016   4.549   4.110 -0.9010  0.7035 -1.2963
 4602SOL     OW25267   2.111   0.970   6.873 -0.0475  0.4764 -0.3885
 4602SOL    HW125268   2.092   0.988   6.781  1.3799 -0.3790 -0.8582
 4602SOL    HW225269   2.032   0.993   6.922 -0.5433 -1.7723 -0.1059
 4603SOL     OW25270   2.876   2.009   2.490 -0.5882 -0.2355 -0.4676
 4603SOL    HW125271   2.952   2.066   2.477 -0.2051 -0.3307  1.2578
 4603SOL    HW225272   2.820   2.042   2.420 -1.1955  2.2482  1.1723
 4604SOL     OW25273   3.993   1.714   8.934 -0.2169 -0.0673 -0.7791
 4604SOL    HW125274   3.953   1.707   9.020 -2.3257  2.6933 -1.5374
 4604SOL    HW225275   3.923   1.725   8.870 -0.9971 -0.1891  0.0632
 4605SOL     OW25276   2.281   1.894   4.319  0.6598 -0.1985  0.2882
 4605SOL    HW125277   2.321   1.946   4.250 -0.8004  3.6608  2.3575
 4605SOL    HW225278   2.249   1.964   4.375  1.9544 -0.3364  1.1812
 4606SOL     OW25279   0.124   1.535   9.608  0.2284 -0.3430  0.0061
 4606SOL    HW125280   0.089   1.624   9.614 -1.9494 -1.2189  0.2734
 4606SOL    HW225281   0.048   1.492   9.569 -0.0840  1.5531 -1.5011
 4607SOL     OW25282   4.283   1.443   5.478 -0.5399 -0.6892  0.2935
 4607SOL    HW125283   4.210   1.417   5.421  0.9391 -4.7300  0.2239
 4607SOL    HW225284   4.253   1.408   5.562  0.4500 -1.5750  0.2775
 4608SOL     OW25285   0.932   2.609   4.425 -0.0654  0.0274 -0.3659
 4608SOL    HW125286   1.022   2.608   4.392  1.0400  0.7334  2.6884
 4608SOL    HW225287   0.934   2.702   4.448 -0.3964 -0.9570  3.5959
 4609SOL     OW25288   1.496   2.824   8.755 -0.2737 -0.2848  0.5699
 4609SOL    HW125289   1.570   2.765   8.765  0.4487  0.5387  0.1545
 4609SOL    HW225290   1.456   2.835   8.841  0.1400  1.4178  0.5405
 4610SOL     OW25291   0.517   3.088   0.232 -0.0026  0.0052  0.2388
 4610SOL    HW125292   0.460   3.050   0.299 -1.5428  0.8594 -0.6031
 4610SOL    HW225293   0.521   3.176   0.270 -1.0434 -0.2269  0.8800
 4611SOL     OW25294   0.702   3.177   5.652 -0.4840  0.3496 -0.5823
 4611SOL    HW125295   0.681   3.220   5.735  0.5716 -1.2281  0.5067
 4611SOL    HW225296   0.733   3.093   5.685 -0.0528  0.6947 -0.0991
 4612SOL     OW25297   1.239   3.515   3.522 -0.2686 -0.7031 -0.4078
 4612SOL    HW125298   1.166   3.551   3.572 -0.0504 -0.5347 -0.2073
 4612SOL    HW225299   1.190   3.465   3.457 -1.3899  0.0145 -0.1178
 4613SOL     OW25300   0.215   1.004   2.436  0.4201  0.0631  0.6910
 4613SOL    HW125301   0.292   1.055   2.461 -0.6358  1.6585  0.6393
 4613SOL    HW225302   0.235   0.985   2.344 -1.6084 -0.1603  0.2937
 4614SOL     OW25303   3.020   1.487   3.128 -0.1670  0.2559  0.3381
 4614SOL    HW125304   2.953   1.521   3.187 -2.2481 -0.8896 -1.3916
 4614SOL    HW225305   2.986   1.514   3.043  0.7453 -0.2936 -0.2068
 4615SOL     OW25306   0.168   3.156   0.604 -0.3098  0.1930  0.1579
 4615SOL    HW125307   0.075   3.153   0.583 -0.0778 -0.2299 -0.8470
 4615SOL    HW225308   0.168   3.115   0.690  0.2441 -0.5337 -0.1838
 4616SOL     OW25309   0.732   2.535   3.949 -0.1733  0.3970 -0.2912
 4616SOL    HW125310   0.642   2.530   3.917  0.3950  0.7736 -1.9160
 4616SOL    HW225311   0.771   2.586   3.878  1.5024  1.7208  1.5686
 4617SOL     OW25312   3.613   3.649   2.734 -0.3021  0.3562 -0.1797
 4617SOL    HW125313   3.622   3.664   2.640  0.2169 -2.2953 -0.5614
 4617SOL    HW225314   3.608   3.737   2.769 -0.9341 -0.0285  0.6898
 4618SOL     OW25315   0.192   0.497   1.635 -0.6831  0.3574  0.3298
 4618SOL    HW125316   0.258   0.429   1.620 -1.3193  0.0449 -0.9912
 4618SOL    HW225317   0.207   0.545   1.553 -0.0448 -0.8906 -0.2802
 4619SOL     OW25318   2.542   0.490  17.138  0.3181 -0.2702 -0.4989
 4619SOL    HW125319   2.577   0.496  17.049  1.6830 -2.0221 -0.0705
 4619SOL    HW225320   2.602   0.422  17.168  0.6611  0.8854  1.4149
 4620SOL     OW25321   2.629   2.785  10.502  0.3993 -0.4966 -0.5157
 4620SOL    HW125322   2.612   2.710  10.560 -0.5769  0.9869  1.1234
 4620SOL    HW225323   2.712   2.757  10.464  1.3841  0.8217  0.6951
 4621SOL     OW25324   4.067   3.326   2.606  0.1453  0.1864  0.1485
 4621SOL    HW125325   4.086   3.253   2.665  2.2905 -0.2176 -1.0417
 4621SOL    HW225326   3.973   3.340   2.618  0.5237 -0.5112  3.7475
 4622SOL     OW25327   2.161   2.854   4.952 -0.2486  0.4411 -0.1015
 4622SOL    HW125328   2.250   2.876   4.925  0.2987 -0.1026  1.2835
 4622SOL    HW225329   2.152   2.888   5.041  2.0035  0.3219  0.1668
 4623SOL     OW25330   0.935   4.389   3.606 -0.1424  0.3901 -0.1501
 4623SOL    HW125331   0.961   4.432   3.525  0.1048 -0.6428 -0.6278
 4623SOL    HW225332   0.941   4.294   3.594  0.4855  0.5180 -0.7886
 4624SOL     OW25333   1.331   2.400   2.679 -0.5834  0.2713  0.0994
 4624SOL    HW125334   1.271   2.458   2.726  0.8113  1.0093  0.9743
 4624SOL    HW225335   1.397   2.466   2.655  0.4197 -0.1598  1.7082
 4625SOL     OW25336   0.471   1.785  10.345 -0.3343 -0.5350  0.6199
 4625SOL    HW125337   0.434   1.727  10.412 -0.2935  0.5126  1.5609
 4625SOL    HW225338   0.565   1.783  10.363  0.0133  0.2983 -1.1117
 4626SOL     OW25339   0.121   4.025   8.503 -0.2122 -0.0455 -0.9028
 4626SOL    HW125340   0.072   4.100   8.535 -1.5938 -2.1189  1.8653
 4626SOL    HW225341   0.167   3.993   8.581 -4.1604  1.5709  2.0609
 4627SOL     OW25342   0.979   4.238   3.264 -0.1986  0.1430  0.9964
 4627SOL    HW125343   0.930   4.156   3.272 -1.5536  0.7224 -1.5012
 4627SOL    HW225344   0.990   4.248   3.170  1.9970  0.5285  1.3004
 4628SOL     OW25345   3.904   1.517   2.190 -0.0158 -0.4987 -0.6840
 4628SOL    HW125346   3.819   1.507   2.147  0.2560  0.0033 -1.3479
 4628SOL    HW225347   3.967   1.496   2.121  0.6907 -1.6213  0.3120
 4629SOL     OW25348   0.830   4.047   7.539 -0.1632 -0.6953 -0.2994
 4629SOL    HW125349   0.810   3.959   7.570 -2.1346 -0.2702 -0.3740
 4629SOL    HW225350   0.819   4.050   7.444 -2.1573  1.6810  0.0108
 4630SOL     OW25351   1.785   1.313   4.866 -0.4798  0.0579 -0.0877
 4630SOL    HW125352   1.743   1.375   4.926 -0.2040 -0.7619  0.9511
 4630SOL    HW225353   1.848   1.274   4.927 -1.7748 -1.3591  0.3485
 4631SOL     OW25354   0.228   0.946   8.653 -0.3374 -0.3225  0.0954
 4631SOL    HW125355   0.170   0.927   8.726  0.8494  0.8160  1.3413
 4631SOL    HW225356   0.306   0.983   8.695  0.6628 -2.8993  0.5310
 4632SOL     OW25357   4.560   0.755   6.714  0.1001  0.5176  0.5254
 4632SOL    HW125358   4.618   0.811   6.663  1.2979 -0.3142  0.9755
 4632SOL    HW225359   4.474   0.786   6.685  0.5245  1.9270  0.7860
 4633SOL     OW25360   4.558   3.489   8.133 -0.0091 -0.1515  0.0365
 4633SOL    HW125361   4.557   3.394   8.140 -1.3419 -0.1529 -0.2331
 4633SOL    HW225362   4.591   3.516   8.219 -0.5659 -0.5631  0.3828
 4634SOL     OW25363   1.484   0.109  12.994  0.0454  0.6847  0.0313
 4634SOL    HW125364   1.506   0.090  12.903  0.1273  0.2687  0.1370
 4634SOL    HW225365   1.452   0.199  12.994 -0.8076  0.3752  0.7191
 4635SOL     OW25366   3.163   0.704   5.609 -0.3772  0.3046  0.0949
 4635SOL    HW125367   3.223   0.753   5.553  1.8876 -1.1549  1.2507
 4635SOL    HW225368   3.219   0.631   5.634  0.5202  0.3787 -1.7550
 4636SOL     OW25369   1.269   1.261   5.146  0.3824  0.1281 -0.2298
 4636SOL    HW125370   1.338   1.252   5.211  0.1582 -2.1535 -0.3011
 4636SOL    HW225371   1.194   1.208   5.175 -1.5988  2.6881 -0.6189
 4637SOL     OW25372   3.222   0.846   9.101  0.1564  0.1390  0.1919
 4637SOL    HW125373   3.288   0.916   9.095 -0.0023  0.3016  0.3794
 4637SOL    HW225374   3.179   0.838   9.016 -0.6113 -2.6344  0.8300
 4638SOL     OW25375   3.439   0.480  13.157  0.1321 -0.8839 -0.1483
 4638SOL    HW125376   3.401   0.548  13.212  1.4815  2.2587 -3.1156
 4638SOL    HW225377   3.424   0.521  13.072 -0.4107  0.5401  0.6336
 4639SOL     OW25378   1.307   3.712   1.046  0.1335 -0.2415  0.2656
 4639SOL    HW125379   1.345   3.685   0.963 -0.4937  1.9322 -0.7310
 4639SOL    HW225380   1.234   3.653   1.063  0.4863 -0.7584  0.0192
 4640SOL     OW25381   4.491   1.975   4.113 -0.3008  0.4196 -0.5364
 4640SOL    HW125382   4.535   1.901   4.154 -1.8456  0.7903  1.7546
 4640SOL    HW225383   4.563   2.031   4.081  1.3092 -0.6007  1.3120
 4641SOL     OW25384   4.061   1.975   6.391 -0.2224 -0.2139  0.9583
 4641SOL    HW125385   3.970   1.979   6.420 -0.6411 -0.5854 -0.3502
 4641SOL    HW225386   4.084   2.066   6.371  1.1308 -0.4032  1.6110
 4642SOL     OW25387   0.647   2.785   2.422 -0.2731 -0.8355  0.0859
 4642SOL    HW125388   0.712   2.718   2.401 -1.3472 -1.2051 -2.1562
 4642SOL    HW225389   0.653   2.854   2.356 -2.3320 -0.6746  0.0681
 4643SOL     OW25390   2.553   4.022  16.493  0.3252 -0.0405 -0.6317
 4643SOL    HW125391   2.579   4.032  16.401 -2.2330 -1.6409 -1.5394
 4643SOL    HW225392   2.569   4.110  16.526 -2.0540 -0.4396  1.5757
 4644SOL     OW25393   2.926   3.641  14.987  0.2568 -0.7512  0.0476
 4644SOL    HW125394   2.865   3.700  15.032  0.4961 -0.7936  0.4304
 4644SOL    HW225395   2.993   3.705  14.961 -1.9748  1.6488  0.2369
 4645SOL     OW25396   0.107   0.176  16.177 -0.3574 -0.2433  0.2245
 4645SOL    HW125397   0.098   0.153  16.084  0.7871 -1.9200  0.5350
 4645SOL    HW225398   0.064   0.260  16.190 -2.0871 -1.3320  1.5867
 4646SOL     OW25399   1.661   1.704  11.492  0.5403  0.0583 -0.0781
 4646SOL    HW125400   1.590   1.717  11.554  1.7801 -0.9988  1.5360
 4646SOL    HW225401   1.656   1.786  11.442  0.5667  0.3445  0.3941
 4647SOL     OW25402   2.696   1.761  16.070 -0.9399  0.5255  0.0643
 4647SOL    HW125403   2.622   1.722  16.025 -0.2441 -0.3834 -0.2886
 4647SOL    HW225404   2.761   1.738  16.003 -0.5128 -2.2865  1.4770
 4648SOL     OW25405   2.733   0.847   6.150  0.5855 -0.5887  1.0608
 4648SOL    HW125406   2.773   0.908   6.213  2.9311 -0.8128 -0.2196
 4648SOL    HW225407   2.693   0.902   6.083  0.5685  1.4927  2.7886
 4649SOL     OW25408   2.745   0.590  11.994 -0.5806 -0.2831 -0.2590
 4649SOL    HW125409   2.704   0.646  12.060 -0.9331 -0.9431  0.0838
 4649SOL    HW225410   2.684   0.599  11.920  0.6306  1.1629 -1.0659
 4650SOL     OW25411   1.112   0.422   5.840  0.2209 -0.2330  0.0624
 4650SOL    HW125412   1.145   0.334   5.824  0.7207  0.4847 -2.8070
 4650SOL    HW225413   1.187   0.457   5.888  1.9630 -0.2692 -2.6463
 4651SOL     OW25414   4.097   1.404   6.002  0.0194  0.0203 -0.0433
 4651SOL    HW125415   4.129   1.318   6.030 -0.3793  0.1088  0.6902
 4651SOL    HW225416   4.026   1.426   6.062 -0.6380  0.3652 -0.9375
 4652SOL     OW25417   0.114   3.681   2.145  0.0778 -0.4241 -0.4852
 4652SOL    HW125418   0.071   3.600   2.173 -1.8136  1.4502  2.0529
 4652SOL    HW225419   0.119   3.726   2.229 -1.0219  1.9892 -1.7096
 4653SOL     OW25420   1.929   0.436   5.777 -0.3446  0.0396 -0.2342
 4653SOL    HW125421   1.923   0.348   5.813  2.9674  0.9033  2.3866
 4653SOL    HW225422   2.024   0.438   5.765 -0.4701  0.6998 -1.1660
 4654SOL     OW25423   2.414   4.084   2.276  0.2222 -0.2025 -0.8019
 4654SOL    HW125424   2.377   3.995   2.280  0.6290 -0.3375 -0.0933
 4654SOL    HW225425   2.446   4.094   2.365 -1.0832 -0.2418 -0.3312
 4655SOL     OW25426   3.307   3.747  15.044 -0.2453  0.2946  0.0860
 4655SOL    HW125427   3.391   3.701  15.041  0.3475  1.3125  1.2572
 4655SOL    HW225428   3.259   3.697  15.110 -2.6223  1.5668 -0.6556
 4656SOL     OW25429   0.793   0.703   9.392 -0.6407 -0.7324  0.1815
 4656SOL    HW125430   0.877   0.663   9.414 -0.5060 -0.6089 -0.1092
 4656SOL    HW225431   0.760   0.623   9.350  0.2960 -0.1905 -1.6160
 4657SOL     OW25432   4.559   1.931  13.690  0.4505  0.2835 -0.2194
 4657SOL    HW125433   4.621   1.862  13.667  0.1590 -0.2173  0.4992
 4657SOL    HW225434   4.621   2.004  13.688  1.2661 -0.4280 -0.9263
 4658SOL     OW25435   2.831   3.302   3.728 -0.2793 -0.0017  0.3829
 4658SOL    HW125436   2.891   3.248   3.675  2.0368  2.9162 -0.0014
 4658SOL    HW225437   2.803   3.365   3.662  0.8899  2.2094  2.0226
 4659SOL     OW25438   3.978   1.542   3.658  0.4175  0.8526  0.2289
 4659SOL    HW125439   4.001   1.592   3.736 -1.4802  1.9733  0.0832
 4659SOL    HW225440   3.940   1.611   3.604 -0.1440  0.0972 -0.3443
 4660SOL     OW25441   3.614   3.809   6.766 -0.2198  0.1765 -0.5371
 4660SOL    HW125442   3.676   3.749   6.724 -0.2265 -0.1699 -0.0529
 4660SOL    HW225443   3.655   3.893   6.744 -0.1436  0.4541  0.6953
 4661SOL     OW25444   0.502   0.231   4.115 -0.0270  0.2447  0.3292
 4661SOL    HW125445   0.464   0.144   4.131  1.6322 -0.3001  1.3551
 4661SOL    HW225446   0.571   0.210   4.052 -0.7194  1.7504 -0.9187
 4662SOL     OW25447   4.509   1.441   7.521 -0.2613 -0.2673 -0.2944
 4662SOL    HW125448   4.514   1.501   7.447 -1.5736 -0.7802 -0.7962
 4662SOL    HW225449   4.506   1.491   7.604 -0.7781  2.4261 -1.9279
 4663SOL     OW25450   3.799   3.529   1.158 -0.0827 -0.0739  0.0199
 4663SOL    HW125451   3.733   3.464   1.135  0.2058 -0.6691  0.8710
 4663SOL    HW225452   3.880   3.481   1.138  0.1723  0.5442 -0.4424
 4664SOL     OW25453   0.133   3.745   1.291 -0.5498  0.2105  0.0343
 4664SOL    HW125454   0.063   3.684   1.312 -1.2405  1.5169  1.5278
 4664SOL    HW225455   0.191   3.743   1.367  0.3872  1.5598 -0.6341
 4665SOL     OW25456   1.802   4.700   3.585  0.6261 -0.3934  0.3949
 4665SOL    HW125457   1.753   4.618   3.581 -1.0184  0.5908  0.6578
 4665SOL    HW225458   1.746   0.037   3.538 -0.1971 -1.3076  0.1767
 4666SOL     OW25459   1.143   3.609   7.320 -0.6175  0.9334  0.4184
 4666SOL    HW125460   1.113   3.561   7.398 -2.9149 -0.3894 -1.3013
 4666SOL    HW225461   1.230   3.569   7.310 -0.8846  0.1943  0.9740
 4667SOL     OW25462   1.328   3.136  16.662 -0.2225 -0.0257  0.1406
 4667SOL    HW125463   1.314   3.099  16.575 -2.5126  1.2464 -0.0191
 4667SOL    HW225464   1.402   3.193  16.641 -1.1587  0.0213 -3.0583
 4668SOL     OW25465   4.669   3.049   8.447 -0.1449  0.1122  0.2271
 4668SOL    HW125466   4.663   2.954   8.445 -0.5376  0.2050 -2.2518
 4668SOL    HW225467   4.641   3.074   8.359 -0.2450  0.7687  0.4481
 4669SOL     OW25468   3.167   4.507   4.530  0.2039  0.3214  0.0307
 4669SOL    HW125469   3.167   4.522   4.435 -1.1547 -0.9546 -0.1771
 4669SOL    HW225470   3.087   4.557   4.546 -0.1435  0.0226 -0.7460
 4670SOL     OW25471   1.747   0.423   4.368 -0.1826 -0.4467  0.4779
 4670SOL    HW125472   1.656   0.432   4.395 -0.6831 -1.9987 -0.7242
 4670SOL    HW225473   1.745   0.327   4.366  1.3485 -0.4581 -0.2563
 4671SOL     OW25474   4.316   2.924   3.708 -0.6028 -1.0424  0.3495
 4671SOL    HW125475   4.339   2.831   3.707  1.8167 -0.4416 -2.7744
 4671SOL    HW225476   4.365   2.957   3.783 -1.6123  0.0023  0.5460
 4672SOL     OW25477   2.755   1.846   4.476 -0.0584  0.4275  0.3064
 4672SOL    HW125478   2.706   1.920   4.512 -2.4014 -0.5886 -0.7778
 4672SOL    HW225479   2.693   1.780   4.507 -1.4445 -0.0308 -3.4353
 4673SOL     OW25480   0.348   4.305  15.681  0.0980 -0.2643 -0.2399
 4673SOL    HW125481   0.348   4.223  15.729 -1.4165 -0.0904  0.0731
 4673SOL    HW225482   0.301   4.270  15.606  1.0621  0.7366 -1.3186
 4674SOL     OW25483   0.318   0.583  15.064 -0.0872 -0.2589 -0.3141
 4674SOL    HW125484   0.238   0.579  15.013 -0.2005 -1.0040 -0.0792
 4674SOL    HW225485   0.313   0.494  15.098  1.0629  0.3859  1.5270
 4675SOL     OW25486   3.396   2.657   5.804 -0.0578  0.4392  0.0578
 4675SOL    HW125487   3.463   2.698   5.859 -0.5946  1.2490  0.0918
 4675SOL    HW225488   3.450   2.596   5.754 -1.1912 -0.6374  0.1384
 4676SOL     OW25489   1.877   0.364   7.009  0.0883 -0.1847  0.2153
 4676SOL    HW125490   1.967   0.336   7.027 -0.4099  0.2598  3.4135
 4676SOL    HW225491   1.883   0.355   6.914  0.6590 -1.9210  0.4172
 4677SOL     OW25492   3.839   1.001   0.863  0.1218  0.2188  0.1292
 4677SOL    HW125493   3.845   0.906   0.865  1.5534  0.2776 -1.0435
 4677SOL    HW225494   3.865   1.015   0.954 -1.6215 -0.0718  0.6578
 4678SOL     OW25495   1.476   2.878   7.837 -0.3765  0.3071  0.3495
 4678SOL    HW125496   1.383   2.883   7.858  0.1290  3.7183  1.6991
 4678SOL    HW225497   1.515   2.961   7.865 -0.9278  0.9886 -0.9195
 4679SOL     OW25498   1.276   1.445  11.265  0.1713  0.4389  0.1835
 4679SOL    HW125499   1.346   1.415  11.322  1.9963  0.1622 -2.1658
 4679SOL    HW225500   1.237   1.362  11.238  0.3219  0.1900  0.7345
 4680SOL     OW25501   3.735   1.720  12.810  0.3897  0.3880  0.1582
 4680SOL    HW125502   3.753   1.811  12.785  1.5622 -0.3304 -1.6334
 4680SOL    HW225503   3.735   1.674  12.726  2.3531  2.0822 -0.7678
 4681SOL     OW25504   2.949   0.919  17.408 -0.0656 -0.0983 -0.4937
 4681SOL    HW125505   2.912   0.842  17.366  0.8346 -1.2830  0.9119
 4681SOL    HW225506   2.949   0.891  17.500  2.4484  1.3481 -0.0414
 4682SOL     OW25507   1.103   2.848   9.926  0.8439  0.4184 -0.1028
 4682SOL    HW125508   1.139   2.820   9.841  1.1161 -0.2197  0.2174
 4682SOL    HW225509   1.063   2.931   9.900  1.3311  0.6555 -0.1097
 4683SOL     OW25510   2.116   3.781   6.636  0.2646 -0.0450  0.1702
 4683SOL    HW125511   2.026   3.767   6.607  0.7122 -2.0533 -0.3173
 4683SOL    HW225512   2.139   3.697   6.678 -1.7563 -1.2053 -1.0504
 4684SOL     OW25513   3.256   2.638   6.991  0.0642  0.3815 -0.6259
 4684SOL    HW125514   3.291   2.711   6.939  0.7968  0.7594  0.3873
 4684SOL    HW225515   3.333   2.587   7.016  1.1508  1.5098 -1.6686
 4685SOL     OW25516   3.366   1.560  13.399 -0.3482  0.2607  0.0331
 4685SOL    HW125517   3.356   1.503  13.322  2.1703 -1.2947  0.8357
 4685SOL    HW225518   3.325   1.643  13.376 -1.2022 -0.0008  0.6264
 4686SOL     OW25519   1.152   2.563   5.725  0.3521  0.0894 -0.3858
 4686SOL    HW125520   1.125   2.541   5.635 -0.8137 -2.9238  0.7011
 4686SOL    HW225521   1.155   2.658   5.711  1.5509  0.2825  1.1876
 4687SOL     OW25522   3.622   3.336   2.734 -0.1459 -0.7086 -0.1451
 4687SOL    HW125523   3.631   3.337   2.829 -0.1307 -0.8740 -0.1443
 4687SOL    HW225524   3.626   3.428   2.710  1.1756 -0.6874  0.1378
 4688SOL     OW25525   3.045   1.443  13.143 -0.0671  0.4452 -0.6584
 4688SOL    HW125526   2.993   1.506  13.194 -0.1827 -1.6052  1.7793
 4688SOL    HW225527   3.126   1.441  13.193 -0.7444 -1.8707  0.3408
 4689SOL     OW25528   4.081   0.888  17.698 -0.6072  0.0518  0.4398
 4689SOL    HW125529   4.099   0.877   0.093  0.1577  0.9113  0.3983
 4689SOL    HW225530   4.123   0.974  17.694 -0.9357  0.1070 -1.8004
 4690SOL     OW25531   0.827   0.987   0.884  0.7454 -0.5076  0.1852
 4690SOL    HW125532   0.831   1.050   0.956  1.0424  2.1885 -2.1933
 4690SOL    HW225533   0.775   0.924   0.934 -0.3190 -1.1163 -1.6638
 4691SOL     OW25534   4.154   2.141   8.698  0.6610 -0.4641  0.4286
 4691SOL    HW125535   4.182   2.201   8.766 -0.6729  0.3286  0.2553
 4691SOL    HW225536   4.234   2.115   8.652  0.5841 -0.7481  0.4521
 4692SOL     OW25537   2.122   1.454   1.174 -0.1902  0.4725  0.3309
 4692SOL    HW125538   2.158   1.509   1.104 -2.0075  1.0279 -0.1682
 4692SOL    HW225539   2.062   1.389   1.138  1.4932 -1.0850  0.2873
 4693SOL     OW25540   1.206   0.553   8.172 -0.0444 -0.0264  0.8189
 4693SOL    HW125541   1.258   0.539   8.092  0.2444 -1.0265  1.1878
 4693SOL    HW225542   1.207   0.648   8.182 -1.2114 -0.1692  2.2827
 4694SOL     OW25543   2.848   3.340  12.398 -0.0302 -0.6829  0.4388
 4694SOL    HW125544   2.943   3.327  12.404 -0.1611 -1.3746  0.9533
 4694SOL    HW225545   2.811   3.263  12.441  0.8970 -0.7786  1.0764
 4695SOL     OW25546   3.509   1.906  14.986  0.7656  0.0683 -0.3973
 4695SOL    HW125547   3.422   1.913  15.024  0.7091  0.3254 -0.5799
 4695SOL    HW225548   3.544   1.837  15.043 -3.2109 -2.2490 -0.8199
 4696SOL     OW25549   0.266   2.059   2.736  0.1420  0.2637 -0.8456
 4696SOL    HW125550   0.297   2.141   2.774 -0.7023  0.6790 -1.0513
 4696SOL    HW225551   0.351   2.033   2.700  0.0794  0.5139 -1.1757
 4697SOL     OW25552   4.288   2.526   1.836  0.8564 -0.2933  0.5842
 4697SOL    HW125553   4.359   2.506   1.775  0.0722 -0.0681 -0.3884
 4697SOL    HW225554   4.216   2.557   1.781  1.2399 -0.5429 -0.0528
 4698SOL     OW25555   0.052   3.121   6.535 -0.3923  0.0449  0.4075
 4698SOL    HW125556   0.101   3.066   6.474  1.4670 -0.1539  2.0778
 4698SOL    HW225557   0.103   3.118   6.616  1.6750 -2.4640 -0.9758
 4699SOL     OW25558   3.830   1.137   4.431 -0.1696 -0.8038 -0.1063
 4699SOL    HW125559   3.918   1.158   4.398 -0.1012  0.7069  1.0595
 4699SOL    HW225560   3.806   1.056   4.386 -2.1246 -1.9927  3.1215
 4700SOL     OW25561   2.691   1.088  10.698  0.3848 -0.5950  0.0597
 4700SOL    HW125562   2.626   1.036  10.651  1.5084 -0.0972 -2.0492
 4700SOL    HW225563   2.758   1.076  10.630  0.0000 -1.3712 -0.1799
 4701SOL     OW25564   0.639   2.633  16.242  0.2016  0.4968 -0.1602
 4701SOL    HW125565   0.622   2.588  16.324 -1.6161  1.7468  0.1307
 4701SOL    HW225566   0.685   2.574  16.182  3.2728  0.6895  1.9774
 4702SOL     OW25567   2.362   4.184   4.332 -0.5614  0.3461  0.1178
 4702SOL    HW125568   2.385   4.272   4.302  2.1537  0.0910  1.4552
 4702SOL    HW225569   2.393   4.184   4.423 -2.1390 -2.3661  0.6620
 4703SOL     OW25570   2.590   2.024  11.456 -0.4712 -0.3513  0.3772
 4703SOL    HW125571   2.663   2.014  11.395 -1.2972  1.3914 -0.8818
 4703SOL    HW225572   2.561   2.111  11.428 -1.0626 -0.8274 -0.5036
 4704SOL     OW25573   0.809   4.347   2.573  0.3482  0.0631  0.0499
 4704SOL    HW125574   0.885   4.390   2.612  1.0553 -0.7861 -0.3955
 4704SOL    HW225575   0.789   4.417   2.511 -1.0109  0.6275  1.1080
 4705SOL     OW25576   0.882   4.078   2.547  0.2424  0.1369  0.3666
 4705SOL    HW125577   0.838   4.163   2.537 -0.4887 -0.3160 -0.3315
 4705SOL    HW225578   0.892   4.060   2.454  0.4427 -0.6181  0.5368
 4706SOL     OW25579   2.860   0.759   6.867 -0.4454  0.0239  0.1457
 4706SOL    HW125580   2.843   0.696   6.937 -1.5456 -1.5496 -1.5329
 4706SOL    HW225581   2.830   0.839   6.910  0.0851  0.4052 -0.1927
 4707SOL     OW25582   4.295   4.596   8.836 -0.5294 -0.2852  0.1694
 4707SOL    HW125583   4.372   4.612   8.891 -0.3550  2.0312 -0.7683
 4707SOL    HW225584   4.336   4.607   8.751 -0.4277 -1.4722  0.0578
 4708SOL     OW25585   2.365   4.681   1.694 -0.1343 -0.3364  0.4817
 4708SOL    HW125586   2.306   0.033   1.698 -0.1521 -0.2000 -2.2230
 4708SOL    HW225587   2.302   4.615   1.725 -0.3448 -0.6094 -0.5231
 4709SOL     OW25588   3.859   3.597   7.698 -0.4586 -0.4014  0.6766
 4709SOL    HW125589   3.877   3.535   7.628 -0.6081  0.1494  0.1525
 4709SOL    HW225590   3.841   3.676   7.648  1.5084  0.2713  1.0360
 4710SOL     OW25591   4.361   2.049   8.968 -0.1648 -0.0507  0.5676
 4710SOL    HW125592   4.373   2.095   8.885 -0.1207  1.1246  1.2271
 4710SOL    HW225593   4.453   2.034   8.992 -0.5970 -2.9245  0.4738
 4711SOL     OW25594   2.083   4.065   8.670  0.2555 -0.2704  0.0234
 4711SOL    HW125595   2.117   3.993   8.616 -1.2023 -0.8921 -0.0469
 4711SOL    HW225596   2.099   4.132   8.603 -0.7323  1.5649  1.6543
 4712SOL     OW25597   4.588   1.210  11.076  0.2391  0.0056 -0.7768
 4712SOL    HW125598   4.667   1.184  11.122  1.0864  0.0596 -2.2071
 4712SOL    HW225599   4.537   1.238  11.152  0.9946 -0.6179 -0.0401
 4713SOL     OW25600   2.057   0.750   6.101  0.4626 -0.6551  0.7507
 4713SOL    HW125601   2.139   0.702   6.098  1.7031  1.6567 -1.5122
 4713SOL    HW225602   2.063   0.803   6.022 -1.7923  1.8469  2.2407
 4714SOL     OW25603   1.190   0.017  15.701 -0.4386  0.0586  0.5088
 4714SOL    HW125604   1.233   0.023  15.616  1.6009 -1.3525  1.4210
 4714SOL    HW225605   1.106   0.060  15.686 -0.4484  0.8255  2.6779
 4715SOL     OW25606   3.655   4.350   9.873 -0.0509  0.3599  0.1056
 4715SOL    HW125607   3.608   4.394   9.802 -0.1106  2.4833  1.4562
 4715SOL    HW225608   3.599   4.365   9.949  1.1821  2.2267  0.6422
 4716SOL     OW25609   3.796   2.745   8.433  0.2593 -0.4970  0.0241
 4716SOL    HW125610   3.861   2.695   8.482  2.0675  1.1154 -0.7220
 4716SOL    HW225611   3.835   2.741   8.345 -1.8007  2.3189 -1.0287
 4717SOL     OW25612   0.951   2.336   3.315  0.2453 -0.0727 -0.2404
 4717SOL    HW125613   0.980   2.304   3.230  0.8857 -2.2911  0.7849
 4717SOL    HW225614   0.881   2.399   3.298 -0.1575 -0.2841  0.6080
 4718SOL     OW25615   1.054   4.107   3.584  0.4628  0.1460  0.2175
 4718SOL    HW125616   1.125   4.125   3.522  0.5817 -2.4673 -0.4248
 4718SOL    HW225617   0.989   4.069   3.525 -1.3782 -1.3810  3.2210
 4719SOL     OW25618   0.256   1.785   5.485  0.4890 -0.3104 -0.1281
 4719SOL    HW125619   0.193   1.827   5.425  0.6260  0.9814  0.6302
 4719SOL    HW225620   0.337   1.804   5.437  1.2055  0.7795  1.5099
 4720SOL     OW25621   1.933   3.634  16.452 -0.1193 -0.1016  0.0293
 4720SOL    HW125622   2.019   3.633  16.493  1.4768  2.6206 -3.1363
 4720SOL    HW225623   1.892   3.719  16.473 -0.6326 -1.0611  2.8827
 4721SOL     OW25624   3.721   4.324  17.065  0.2299  0.1419 -0.6939
 4721SOL    HW125625   3.710   4.232  17.039  1.2138 -0.5787  1.4420
 4721SOL    HW225626   3.814   4.339  17.085 -0.5248  1.3664  1.8438
 4722SOL     OW25627   0.358   3.177   7.763  0.0533  0.0737  0.3963
 4722SOL    HW125628   0.410   3.129   7.828  0.8899  1.9937  1.1562
 4722SOL    HW225629   0.428   3.196   7.700 -0.8951 -1.4282 -1.0957
 4723SOL     OW25630   1.984   4.609   9.115 -0.7029 -0.2497 -0.2557
 4723SOL    HW125631   2.009   4.691   9.157  1.2239 -2.0013  2.0293
 4723SOL    HW225632   1.920   4.582   9.181 -1.1008  0.7946 -0.2105
 4724SOL     OW25633   3.043   4.225  11.237  0.4658 -0.8879 -0.0316
 4724SOL    HW125634   3.122   4.174  11.249 -1.4614 -3.5275  1.3929
 4724SOL    HW225635   3.071   4.305  11.281  1.1306 -1.2038  0.1186
 4725SOL     OW25636   0.745   0.528   4.761  0.2223  0.1999  0.4188
 4725SOL    HW125637   0.751   0.544   4.667  1.0101  0.0079  0.4407
 4725SOL    HW225638   0.830   0.495   4.788  0.8325  1.6517  0.2852
 4726SOL     OW25639   4.556   2.285   8.531  0.7231  0.4633  0.9383
 4726SOL    HW125640   4.596   2.199   8.526 -2.4187 -0.7265 -3.5746
 4726SOL    HW225641   4.566   2.321   8.619 -1.8848  1.6530  0.7769
 4727SOL     OW25642   2.129   4.313   8.549 -0.5444  0.1340 -0.2650
 4727SOL    HW125643   2.206   4.304   8.492 -1.6954  2.2144 -2.1278
 4727SOL    HW225644   2.138   4.407   8.562 -0.4323  0.2800 -1.3822
 4728SOL     OW25645   0.038   3.938  15.158 -0.1511  0.0217 -0.0498
 4728SOL    HW125646   0.111   3.888  15.195  0.2167 -0.1718 -1.0418
 4728SOL    HW225647   0.046   3.931  15.063 -0.1988 -0.3635 -0.0236
 4729SOL     OW25648   2.740   4.105  12.057  0.5451 -0.8647  0.1647
 4729SOL    HW125649   2.750   4.013  12.083 -0.3322 -0.4970  1.8111
 4729SOL    HW225650   2.675   4.097  11.987  1.4494 -2.0851 -0.5612
 4730SOL     OW25651   4.042   4.630   7.808  0.2551 -0.1146 -0.1360
 4730SOL    HW125652   4.072   4.574   7.879  1.1314 -1.1770 -1.3374
 4730SOL    HW225653   4.106   4.700   7.820 -1.4116  0.9280  2.3928
 4731SOL     OW25654   2.823   0.131   8.581  0.4256 -0.5266  0.3184
 4731SOL    HW125655   2.771   0.095   8.653 -0.0508  1.5641  1.0208
 4731SOL    HW225656   2.866   0.197   8.636  0.4608  1.3874 -1.9969
 4732SOL     OW25657   2.338   2.136   0.504  0.5290  0.1528  0.1052
 4732SOL    HW125658   2.366   2.123   0.595 -2.7543  1.7555  1.3494
 4732SOL    HW225659   2.349   2.049   0.466 -1.8614  0.0086 -0.2924
 4733SOL     OW25660   2.072   3.272  16.331  0.7775 -0.3372  0.2791
 4733SOL    HW125661   2.055   3.301  16.421 -0.5721 -4.0431  1.2006
 4733SOL    HW225662   2.062   3.177  16.340  0.4482 -0.5095 -1.9660
 4734SOL     OW25663   0.187   0.887   1.475 -0.3202 -0.2459 -0.1610
 4734SOL    HW125664   0.133   0.955   1.434 -1.4495 -2.1410 -1.8518
 4734SOL    HW225665   0.269   0.889   1.426  0.0125 -4.4421  0.1776
 4735SOL     OW25666   2.962   2.811   5.883  0.0131  0.0504  0.5446
 4735SOL    HW125667   2.940   2.724   5.850  1.4574 -0.6438  1.3770
 4735SOL    HW225668   2.898   2.824   5.953  1.6133  1.0148  1.8286
 4736SOL     OW25669   2.828   1.081   6.245  0.3864 -0.3699  0.7050
 4736SOL    HW125670   2.852   1.164   6.205  1.1173 -1.0030 -0.1853
 4736SOL    HW225671   2.743   1.096   6.287  0.6745 -0.7051  1.4133
 4737SOL     OW25672   2.488   1.742   7.336  0.6219 -0.5293 -0.1688
 4737SOL    HW125673   2.573   1.699   7.334  1.1067  0.4954 -0.9873
 4737SOL    HW225674   2.517   1.833   7.337 -0.4522 -0.2253  2.0271
 4738SOL     OW25675   4.678   2.812   7.370  0.0817 -0.0260  0.2168
 4738SOL    HW125676   4.681   2.838   7.278  0.0428 -0.9886 -0.0569
 4738SOL    HW225677   4.701   2.892   7.418 -2.0975  0.5119  0.3759
 4739SOL     OW25678   1.491   0.640   4.696  0.3765  0.5394  0.5290
 4739SOL    HW125679   1.414   0.615   4.746  0.3828 -0.3489  0.0912
 4739SOL    HW225680   1.529   0.707   4.753 -0.4425  1.3793  0.0877
 4740SOL     OW25681   4.185   1.236   0.934 -0.0916  0.3079 -0.2605
 4740SOL    HW125682   4.185   1.331   0.945  1.6771  0.2122  0.5373
 4740SOL    HW225683   4.111   1.222   0.874  0.5754 -0.3459 -0.9394
 4741SOL     OW25684   4.609   2.589   4.875  0.3212  0.0676  0.0866
 4741SOL    HW125685   4.621   2.684   4.871  1.5511 -0.1522 -1.1983
 4741SOL    HW225686   4.638   2.579   4.965 -0.2718  2.6697  0.5577
 4742SOL     OW25687   4.434   4.221   4.818 -0.4452  0.3337  0.1947
 4742SOL    HW125688   4.347   4.187   4.840  0.2997 -0.7672  1.4494
 4742SOL    HW225689   4.403   4.309   4.797  0.3045  1.0989  2.3417
 4743SOL     OW25690   4.103   1.371  16.395 -0.2091 -0.0669 -0.0527
 4743SOL    HW125691   4.076   1.462  16.390  1.5880  0.3259 -2.3257
 4743SOL    HW225692   4.112   1.362  16.490  1.2824  1.8650 -0.0273
 4744SOL     OW25693   4.644   1.137   8.575  0.0017 -0.0803 -0.8487
 4744SOL    HW125694   0.013   1.156   8.577  0.0379 -0.7384  3.1273
 4744SOL    HW225695   4.646   1.041   8.574  1.4701 -0.0439 -1.1777
 4745SOL     OW25696   3.362   4.660  15.995  0.0325 -0.1879  0.7492
 4745SOL    HW125697   3.352   4.663  15.900 -4.0878  1.8430  1.2611
 4745SOL    HW225698   3.418   0.013  16.000  2.0051 -1.4720 -1.3495
 4746SOL     OW25699   0.839   3.311   3.123  0.4945  0.6607 -0.5780
 4746SOL    HW125700   0.745   3.314   3.102 -0.0855 -0.9524  1.7487
 4746SOL    HW225701   0.864   3.231   3.077 -3.1510 -0.5579 -0.4806
 4747SOL     OW25702   4.216   4.519   7.571 -0.3491 -0.2977  0.9802
 4747SOL    HW125703   4.277   4.490   7.638 -0.6920 -2.7836  0.1868
 4747SOL    HW225704   4.153   4.562   7.630 -2.0483  0.6292 -1.4965
 4748SOL     OW25705   1.998   4.195   9.550  0.3449  0.2574  0.1539
 4748SOL    HW125706   1.974   4.149   9.630  0.7213  1.0816  0.7403
 4748SOL    HW225707   1.913   4.204   9.508  0.2950  0.5173  0.3171
 4749SOL     OW25708   3.205   3.588  15.384 -0.0715  0.0590 -0.3705
 4749SOL    HW125709   3.290   3.630  15.393 -0.4933  1.2356 -1.8580
 4749SOL    HW225710   3.228   3.495  15.389  0.6439  0.3424  1.3173
 4750SOL     OW25711   1.070   1.286   5.674 -0.1016  0.3612  0.1436
 4750SOL    HW125712   1.061   1.338   5.594 -1.2626  1.7536  1.1825
 4750SOL    HW225713   1.059   1.360   5.733 -1.6453  0.1031  0.1634
 4751SOL     OW25714   1.429   0.231   8.083 -0.2048  0.1884  0.4328
 4751SOL    HW125715   1.476   0.221   8.001 -1.6028 -0.2707 -0.3027
 4751SOL    HW225716   1.499   0.233   8.149 -2.1411  0.4789  2.5113
 4752SOL     OW25717   2.763   1.239   2.299 -0.6223 -0.2286  0.0262
 4752SOL    HW125718   2.721   1.324   2.315 -0.1839 -0.6348  3.2851
 4752SOL    HW225719   2.689   1.180   2.289  0.2591 -1.7367  2.3033
 4753SOL     OW25720   3.235   4.335  11.371  0.1007 -0.6919  0.0112
 4753SOL    HW125721   3.240   4.423  11.408  2.7660 -0.2983 -1.2889
 4753SOL    HW225722   3.326   4.310  11.352  0.0418  0.4814 -1.8359
 4754SOL     OW25723   3.563   1.446   2.610  0.1472 -0.5276 -0.2201
 4754SOL    HW125724   3.599   1.458   2.697 -0.7961  0.3363  0.0440
 4754SOL    HW225725   3.594   1.526   2.568  1.0620 -0.0695  1.3649
 4755SOL     OW25726   3.940   2.726   5.999 -0.0499 -0.1066  0.1470
 4755SOL    HW125727   3.917   2.802   5.946  0.0747 -0.3266 -0.2180
 4755SOL    HW225728   3.871   2.740   6.064 -1.7215 -0.0525 -1.6374
 4756SOL     OW25729   3.076   0.213   5.251  0.6631  0.1842  0.0649
 4756SOL    HW125730   3.000   0.248   5.299  1.9982  2.2882  0.6274
 4756SOL    HW225731   3.055   0.254   5.168  0.1953  0.3648  0.2702
 4757SOL     OW25732   2.960   3.627   5.913 -0.0392 -0.0700  0.3022
 4757SOL    HW125733   2.945   3.632   5.819  0.9750  3.0121  0.3205
 4757SOL    HW225734   3.037   3.683   5.922  0.2297 -0.5529  1.0840
 4758SOL     OW25735   1.279   1.731   2.003  0.0059 -0.1727  0.9615
 4758SOL    HW125736   1.281   1.643   2.039 -0.0892 -1.6159 -2.5405
 4758SOL    HW225737   1.294   1.779   2.084  0.7846  0.3925  0.4823
 4759SOL     OW25738   2.810   2.591   6.957 -0.0326 -0.0060  0.5571
 4759SOL    HW125739   2.746   2.619   6.891 -0.7096 -0.9880  0.8042
 4759SOL    HW225740   2.889   2.608   6.905 -1.3507 -0.0840 -1.4763
 4760SOL     OW25741   2.525   0.447   9.018  0.4624 -0.0604 -0.0385
 4760SOL    HW125742   2.464   0.379   8.986 -2.2446  1.7932  1.1891
 4760SOL    HW225743   2.472   0.526   9.011  1.5563  0.5584 -1.4486
 4761SOL     OW25744   4.272   3.943   9.808  0.0896  0.1893  0.1861
 4761SOL    HW125745   4.202   3.984   9.858  1.2143  0.5593  1.4443
 4761SOL    HW225746   4.310   4.021   9.767 -1.3005 -0.8610 -3.1548
 4762SOL     OW25747   0.553   4.592   5.846  0.6335 -0.1440 -0.4681
 4762SOL    HW125748   0.644   4.624   5.842  0.6973 -0.4857 -1.7115
 4762SOL    HW225749   0.561   4.523   5.912 -0.9749  1.5619  1.4998
 4763SOL     OW25750   1.891   0.961  17.497  0.0925 -0.0370 -0.1942
 4763SOL    HW125751   1.919   0.986  17.409  0.3210 -2.2414 -0.7542
 4763SOL    HW225752   1.910   0.867  17.499 -1.7400 -0.3733  1.4385
 4764SOL     OW25753   3.331   4.172   7.401  0.1759 -0.4322  0.1267
 4764SOL    HW125754   3.310   4.266   7.393 -2.6490 -0.8851  2.0912
 4764SOL    HW225755   3.400   4.162   7.335  0.1478  2.6128 -0.3997
 4765SOL     OW25756   2.503   2.372   6.504  0.2567  0.1996 -0.0868
 4765SOL    HW125757   2.591   2.352   6.534 -0.0838  0.7034  1.2349
 4765SOL    HW225758   2.529   2.375   6.412 -0.4445  1.2895 -0.2466
 4766SOL     OW25759   2.770   2.954   7.776 -0.0459 -0.4465 -0.1930
 4766SOL    HW125760   2.779   2.882   7.838  0.9891 -2.0280 -2.1832
 4766SOL    HW225761   2.861   2.979   7.758 -0.2930  0.1668 -0.5985
 4767SOL     OW25762   4.115   1.822   0.358 -0.2940 -0.1539  0.2809
 4767SOL    HW125763   4.123   1.742   0.307  1.0248  0.3988 -0.3866
 4767SOL    HW225764   4.104   1.893   0.294  0.1263 -0.2804  0.0685
 4768SOL     OW25765   1.210   3.650  10.037 -0.0534  0.1563 -0.1109
 4768SOL    HW125766   1.220   3.555  10.027 -0.8287  0.3778 -3.1558
 4768SOL    HW225767   1.135   3.657  10.095  2.3224  0.6743  2.8972
 4769SOL     OW25768   0.180   0.020   4.173 -0.3632  0.1765 -0.4023
 4769SOL    HW125769   0.273   0.005   4.154 -0.3722  0.0174 -0.3216
 4769SOL    HW225770   0.161   0.076   4.098  0.6939  0.3618 -0.5381
 4770SOL     OW25771   3.333   2.662   3.544  0.6423  0.1586  0.1978
 4770SOL    HW125772   3.338   2.574   3.506 -1.1521 -0.6596  1.8181
 4770SOL    HW225773   3.237   2.672   3.547  0.7835  1.7038 -0.2438
 4771SOL     OW25774   4.721   0.777   6.088  0.5288 -0.6453 -0.1994
 4771SOL    HW125775   4.723   0.831   6.167  0.7958  1.3307 -1.5476
 4771SOL    HW225776   4.675   0.828   6.021  0.4820  1.6768  1.5859
 4772SOL     OW25777   2.967   2.160   6.041  0.1649 -0.2531  0.2110
 4772SOL    HW125778   2.899   2.093   6.045 -2.2059  2.2689  1.9651
 4772SOL    HW225779   3.034   2.111   5.994  1.1372 -0.7659  2.1270
 4773SOL     OW25780   1.665   2.115   3.471  0.2695 -0.9280 -0.3046
 4773SOL    HW125781   1.686   2.116   3.378  2.3368 -2.0471  0.1416
 4773SOL    HW225782   1.703   2.031   3.498  1.5708  0.0747  1.0264
 4774SOL     OW25783   2.172   4.202  10.102  0.3141  0.2786 -0.4830
 4774SOL    HW125784   2.243   4.212  10.165  1.8564  0.4873 -2.2749
 4774SOL    HW225785   2.166   4.107  10.098 -1.5774  0.4225 -1.0261
 4775SOL     OW25786   4.166   2.749   8.015 -0.2536 -0.0817  0.3142
 4775SOL    HW125787   4.120   2.701   8.085 -1.3866  1.6535  0.7806
 4775SOL    HW225788   4.114   2.830   8.021 -0.5300 -0.3196  1.2171
 4776SOL     OW25789   2.054   0.714   5.389  0.4261  0.4833  0.3589
 4776SOL    HW125790   2.020   0.632   5.424 -0.4469  1.3312  1.4992
 4776SOL    HW225791   2.075   0.698   5.297  0.5237  1.2214  0.2506
 4777SOL     OW25792   4.328   1.740   4.681 -0.4122  0.1797 -0.6471
 4777SOL    HW125793   4.355   1.819   4.729 -0.0830  0.1792 -0.8314
 4777SOL    HW225794   4.255   1.778   4.632 -0.6453 -1.4602 -1.5761
 4778SOL     OW25795   1.454   4.137   1.310  0.3882 -0.3591 -0.3986
 4778SOL    HW125796   1.480   4.056   1.268  1.2082 -1.7172  2.7335
 4778SOL    HW225797   1.391   4.163   1.243  0.5742  0.3155 -0.3197
 4779SOL     OW25798   0.744   4.210   2.059 -0.1241  0.7569 -0.0391
 4779SOL    HW125799   0.653   4.181   2.068 -0.0849  0.8543  0.6478
 4779SOL    HW225800   0.731   4.296   2.019  2.7879  0.8135 -0.8587
 4780SOL     OW25801   3.896   3.160  13.265 -0.5299 -0.9475  0.2563
 4780SOL    HW125802   3.881   3.152  13.359 -1.8786  0.7489  0.1909
 4780SOL    HW225803   3.851   3.080  13.236  1.6107 -2.3493  0.7965
 4781SOL     OW25804   0.883   0.706   8.491  0.0015 -0.4708 -0.6027
 4781SOL    HW125805   0.965   0.674   8.529 -0.8132  0.1524  1.6801
 4781SOL    HW225806   0.836   0.739   8.568 -0.1299  0.1206 -0.9379
 4782SOL     OW25807   0.666   1.736   3.870 -0.0739 -0.1798  0.3680
 4782SOL    HW125808   0.580   1.765   3.838  1.1918  2.9768 -0.1734
 4782SOL    HW225809   0.648   1.743   3.964 -3.1908  2.9826 -0.4258
 4783SOL     OW25810   0.733   0.473  16.636 -0.2449  0.0315 -0.5227
 4783SOL    HW125811   0.728   0.559  16.593  0.9230 -0.3918 -1.4954
 4783SOL    HW225812   0.785   0.484  16.716 -0.1586 -0.3922 -0.5204
 4784SOL     OW25813   1.510   3.068   4.744  0.3261  0.4910 -0.2803
 4784SOL    HW125814   1.564   2.989   4.743  1.9641  1.6202 -0.7212
 4784SOL    HW225815   1.566   3.146   4.739  1.0436  0.1392  1.9454
 4785SOL     OW25816   1.776   4.237  11.090 -0.6019  0.2308 -0.0284
 4785SOL    HW125817   1.864   4.271  11.079 -0.3935 -1.1097 -2.5625
 4785SOL    HW225818   1.795   4.147  11.118  1.2487  0.7911  0.4587
 4786SOL     OW25819   1.995   0.426   8.228 -0.4424 -0.5579 -0.0362
 4786SOL    HW125820   2.066   0.453   8.286 -1.7898  1.7836  0.5313
 4786SOL    HW225821   1.923   0.470   8.273 -0.9451  1.1432 -2.5062
 4787SOL     OW25822   1.007   4.410   0.228  0.1532 -0.3833  0.2213
 4787SOL    HW125823   1.080   4.348   0.232 -0.1936 -0.7909  0.2576
 4787SOL    HW225824   1.049   4.492   0.202 -1.1384  1.4148  3.9661
 4788SOL     OW25825   1.291   3.379  10.981 -0.0018  0.5035 -0.0529
 4788SOL    HW125826   1.255   3.292  10.996  0.4141  0.3602  0.1027
 4788SOL    HW225827   1.327   3.368  10.893 -1.9392 -2.9292 -0.4235
 4789SOL     OW25828   0.277   0.323   0.963 -0.2112  0.4502 -0.1058
 4789SOL    HW125829   0.233   0.369   1.035  1.3424 -0.5612  1.5052
 4789SOL    HW225830   0.337   0.269   1.014 -0.2631 -0.1043 -0.6391
 4790SOL     OW25831   2.903   3.255  13.056 -0.2222  0.4940 -0.0688
 4790SOL    HW125832   2.859   3.335  13.027 -0.9979 -0.4204 -1.4378
 4790SOL    HW225833   2.979   3.292  13.102  0.8044 -2.2113  0.3862
 4791SOL     OW25834   1.832   3.488  17.176  0.0415 -0.2686 -0.2137
 4791SOL    HW125835   1.841   3.404  17.220  1.6877 -0.5506 -1.0972
 4791SOL    HW225836   1.736   3.486  17.182 -0.0378  0.0631 -1.4068
 4792SOL     OW25837   1.912   0.812   7.928 -0.0908 -0.1577  0.0749
 4792SOL    HW125838   1.935   0.733   7.977 -2.1844  0.5712  2.1854
 4792SOL    HW225839   2.000   0.818   7.890 -1.5441  0.3184 -3.2456
 4793SOL     OW25840   2.778   3.897   4.187  0.3063  0.0305 -0.1610
 4793SOL    HW125841   2.794   3.803   4.180 -1.1360 -0.2540  0.5587
 4793SOL    HW225842   2.847   3.924   4.126  0.2786  0.2509 -0.0957
 4794SOL     OW25843   4.418   0.653   3.920 -0.8493  0.0629 -0.1267
 4794SOL    HW125844   4.420   0.718   3.990 -3.0806  0.8537 -0.7924
 4794SOL    HW225845   4.323   0.640   3.918 -0.7872 -0.1875 -1.9810
 4795SOL     OW25846   3.673   1.996   8.108 -0.5234 -0.3977  0.0651
 4795SOL    HW125847   3.605   1.931   8.091  0.0910 -1.3688  1.3367
 4795SOL    HW225848   3.757   1.962   8.079  1.0505  1.8640  1.9731
 4796SOL     OW25849   1.145   1.328   4.821 -0.3943  0.2506  0.1280
 4796SOL    HW125850   1.223   1.372   4.785 -0.6450 -1.3968 -2.4516
 4796SOL    HW225851   1.113   1.309   4.733  0.5382  0.0176 -0.1677
 4797SOL     OW25852   2.405   2.590   0.219  0.1641 -0.2944 -0.1604
 4797SOL    HW125853   2.366   2.529   0.281 -0.3053 -0.5390 -0.6952
 4797SOL    HW225854   2.330   2.602   0.161  0.9224 -0.1948 -1.1375
 4798SOL     OW25855   0.076   0.092   3.178 -0.3228 -0.6602  0.4913
 4798SOL    HW125856   0.167   0.089   3.147 -0.5080  0.3720 -0.1822
 4798SOL    HW225857   0.043   0.017   3.129  0.9907 -1.8143  1.3685
 4799SOL     OW25858   3.685   1.639   9.014 -0.3211  0.1725 -0.2992
 4799SOL    HW125859   3.693   1.694   8.935 -1.3616  1.1099  0.2425
 4799SOL    HW225860   3.631   1.691   9.073 -0.8823 -0.7195 -0.0290
 4800SOL     OW25861   2.169   4.664   2.111  0.4258 -0.2473  0.5690
 4800SOL    HW125862   2.102   0.006   2.127  0.4921 -0.2645  0.9113
 4800SOL    HW225863   2.127   4.579   2.116 -0.8150  0.4666  2.1637
 4801SOL     OW25864   0.079   3.646   1.665  0.3470  0.4690  0.3388
 4801SOL    HW125865   0.015   3.583   1.698 -0.1792  0.6955 -0.2518
 4801SOL    HW225866   0.130   3.664   1.744  1.4121 -0.0977 -0.2324
 4802SOL     OW25867   0.416   2.557   5.802 -0.7325 -0.4995 -0.1088
 4802SOL    HW125868   0.498   2.568   5.850 -0.0855  1.5180 -1.6696
 4802SOL    HW225869   0.396   2.464   5.813  0.4573 -0.8964 -1.3259
 4803SOL     OW25870   1.927   0.102   4.714  0.4046 -0.1417  0.0588
 4803SOL    HW125871   1.972   0.061   4.788  1.0360 -0.7756 -0.6808
 4803SOL    HW225872   1.983   0.068   4.644  0.9528  0.4872  0.1846
 4804SOL     OW25873   1.981   0.997  15.137  0.9623  0.3008  0.3106
 4804SOL    HW125874   2.071   0.963  15.144  0.1291 -1.4794  2.7414
 4804SOL    HW225875   1.924   0.920  15.136  0.2653  0.8128  0.7796
 4805SOL     OW25876   2.921   4.154   9.480 -0.4027 -0.2172  0.0125
 4805SOL    HW125877   2.979   4.184   9.550  2.1870 -1.1663 -1.7651
 4805SOL    HW225878   2.860   4.096   9.527 -0.4436 -0.8455 -0.8209
 4806SOL     OW25879   0.637   3.440   5.284  0.4988  0.4567  0.4380
 4806SOL    HW125880   0.632   3.354   5.325  4.1510 -0.2406 -0.6459
 4806SOL    HW225881   0.732   3.443   5.283  0.5355  0.8926  3.8172
 4807SOL     OW25882   3.058   4.579  13.293  0.0129  0.5700  0.4428
 4807SOL    HW125883   2.988   4.631  13.331 -0.9634  0.5630 -1.3262
 4807SOL    HW225884   3.008   4.502  13.267  0.6782  0.3174 -0.1097
 4808SOL     OW25885   1.762   2.528   8.057 -0.1828 -0.1158 -0.0007
 4808SOL    HW125886   1.760   2.618   8.024  0.4887 -0.7365 -1.7110
 4808SOL    HW225887   1.691   2.487   8.008 -0.6422 -1.7981  2.0840
 4809SOL     OW25888   1.382   3.431  14.021 -0.1330 -0.4527 -0.1415
 4809SOL    HW125889   1.384   3.337  14.035  0.5804 -0.8135 -2.6359
 4809SOL    HW225890   1.344   3.457  14.105 -2.0918  2.3546 -1.8877
 4810SOL     OW25891   3.331   2.935  11.111 -0.5874  0.2079  0.0078
 4810SOL    HW125892   3.301   2.846  11.129  2.9912 -0.7643  1.0142
 4810SOL    HW225893   3.256   2.994  11.108 -0.9921 -0.3775 -1.4877
 4811SOL     OW25894   0.243   4.624   4.420  0.4815  0.5023 -0.4364
 4811SOL    HW125895   0.185   4.680   4.472 -0.6073  0.1170 -1.2334
 4811SOL    HW225896   0.246   4.663   4.333 -0.3309 -1.2751 -1.2736
 4812SOL     OW25897   2.797   2.840  17.036  0.5780 -0.1701 -0.0950
 4812SOL    HW125898   2.710   2.879  17.024 -0.2083 -1.7548  0.3457
 4812SOL    HW225899   2.831   2.834  16.946  2.4261 -1.9274  0.7288
 4813SOL     OW25900   0.490   0.440  16.576 -0.3358  1.2937 -0.2373
 4813SOL    HW125901   0.489   0.348  16.550  1.6263  0.8565  1.2096
 4813SOL    HW225902   0.585   0.445  16.589 -0.5095  0.3462  1.3253
 4814SOL     OW25903   4.202   3.578  12.143 -0.3400 -0.1481  0.1950
 4814SOL    HW125904   4.115   3.546  12.166 -1.3433  1.2996 -1.6139
 4814SOL    HW225905   4.258   3.501  12.151 -0.2847 -0.2951 -1.6852
 4815SOL     OW25906   2.896   1.857  17.442 -0.3511 -0.3413  0.3383
 4815SOL    HW125907   2.930   1.814  17.520 -1.0678  1.0960  1.4525
 4815SOL    HW225908   2.979   1.863  17.395 -0.3992  1.2814  0.4459
 4816SOL     OW25909   1.394   2.217   7.163  0.7389  0.1146 -0.0165
 4816SOL    HW125910   1.411   2.145   7.104 -0.3863 -0.1672  0.0077
 4816SOL    HW225911   1.346   2.173   7.234 -0.5302  1.8732  0.2283
 4817SOL     OW25912   0.611   1.095   3.360  0.1194  0.4567 -0.4976
 4817SOL    HW125913   0.548   1.048   3.413  1.6205 -1.2674 -0.2567
 4817SOL    HW225914   0.688   1.070   3.411 -0.1920 -2.6432 -1.5638
 4818SOL     OW25915   0.432   4.297   8.983  0.0444  0.4675  0.6857
 4818SOL    HW125916   0.502   4.232   8.976 -0.4051 -0.2471  2.8111
 4818SOL    HW225917   0.490   4.373   8.989 -0.1204  0.5898  0.7289
 4819SOL     OW25918   2.990   2.845  17.535 -0.4675  0.4232  0.6596
 4819SOL    HW125919   2.979   2.768  17.590  0.8477  0.9873  1.6926
 4819SOL    HW225920   3.078   2.829  17.500  0.0546  2.2492  1.1674
 4820SOL     OW25921   1.546   1.536   4.959 -0.4310  0.0426 -0.0997
 4820SOL    HW125922   1.473   1.545   5.020  1.0706  0.6700  1.6082
 4820SOL    HW225923   1.620   1.575   5.006 -0.1086  0.4355 -0.9318
 4821SOL     OW25924   4.261   4.322   0.618 -0.6755 -0.2411  0.4856
 4821SOL    HW125925   4.176   4.299   0.581 -1.4331 -0.8298  2.5703
 4821SOL    HW225926   4.246   4.301   0.711  1.5823 -0.0926  0.8781
 4822SOL     OW25927   1.480   1.462   1.981 -0.4244 -0.1737 -0.3688
 4822SOL    HW125928   1.529   1.544   1.977  0.2313 -0.5349  0.4257
 4822SOL    HW225929   1.543   1.410   2.031 -0.4505  1.1749  1.0724
 4823SOL     OW25930   4.167   3.244   0.718  0.1628  0.0275 -0.3879
 4823SOL    HW125931   4.181   3.318   0.777 -2.2848  0.6278 -0.5681
 4823SOL    HW225932   4.188   3.171   0.777 -0.1833 -1.9835 -2.7122
 4824SOL     OW25933   2.142   4.661   6.157  0.1478 -0.3398  0.2161
 4824SOL    HW125934   2.214   4.601   6.172  0.8760  0.9508  1.8802
 4824SOL    HW225935   2.091   4.656   6.238 -1.1950 -0.2244 -0.6143
 4825SOL     OW25936   1.342   2.278   3.800  0.0117 -0.8044  0.1539
 4825SOL    HW125937   1.354   2.373   3.795  2.3838 -0.8901  3.8577
 4825SOL    HW225938   1.268   2.260   3.743 -1.5344 -0.1326  1.9441
 4826SOL     OW25939   2.795   3.214  17.105  0.0095  0.4800 -0.2625
 4826SOL    HW125940   2.773   3.139  17.159  0.7975 -0.3252 -1.0737
 4826SOL    HW225941   2.789   3.289  17.165 -0.6603 -0.4288  0.8094
 4827SOL     OW25942   2.730   2.891   2.915 -0.3375 -0.0592 -0.0604
 4827SOL    HW125943   2.668   2.960   2.935 -0.9478 -0.5959 -0.1146
 4827SOL    HW225944   2.807   2.941   2.942 -2.3584  0.9804  3.7087
 4828SOL     OW25945   2.877   0.091   6.136 -0.3835  0.6891  0.6202
 4828SOL    HW125946   2.964   0.097   6.176  0.1464 -0.2190 -0.3732
 4828SOL    HW225947   2.864   0.178   6.100  0.3017  0.8486  0.7614
 4829SOL     OW25948   4.517   3.670   8.609  0.1036  0.0672 -0.1386
 4829SOL    HW125949   4.509   3.735   8.679  2.3956  0.2084 -0.0036
 4829SOL    HW225950   4.448   3.685   8.544 -1.7846 -1.1426  1.5982
 4830SOL     OW25951   2.768   3.123  12.536 -0.5397  0.7908  0.5423
 4830SOL    HW125952   2.829   3.116  12.609 -3.4015  0.2620  2.8663
 4830SOL    HW225953   2.790   3.036  12.502 -1.9520 -0.0682  1.8411
 4831SOL     OW25954   3.003   1.008  11.687  0.3719  0.1039  0.1863
 4831SOL    HW125955   2.964   0.988  11.772  1.2596  0.4247  0.6671
 4831SOL    HW225956   2.927   1.040  11.638  1.7697  3.0981 -0.0268
 4832SOL     OW25957   3.118   2.021   3.594  0.0105  0.0420  0.2737
 4832SOL    HW125958   3.179   1.948   3.590  0.5716  0.4835  0.7291
 4832SOL    HW225959   3.167   2.087   3.643  0.1482  0.2872 -0.1998
 4833SOL     OW25960   4.722   1.246   7.915 -0.3131 -0.2101  0.4926
 4833SOL    HW125961   4.659   1.284   7.855 -0.6946  0.0814  1.0841
 4833SOL    HW225962   0.025   1.167   7.869 -0.9307 -0.7856  1.1208
 4834SOL     OW25963   2.783   4.024   2.968  0.0190 -0.1128  0.3942
 4834SOL    HW125964   2.836   4.080   3.024  1.4531  0.5350 -1.6535
 4834SOL    HW225965   2.759   3.963   3.038  0.8665  3.6133  3.9214
 4835SOL     OW25966   2.811   3.131   7.556  0.4697  0.4595  0.4141
 4835SOL    HW125967   2.747   3.066   7.585  1.1084 -0.3370  0.0126
 4835SOL    HW225968   2.889   3.108   7.606 -0.0241 -3.2145 -0.4881
 4836SOL     OW25969   0.064   3.001   6.112  0.6664 -0.0681 -0.0485
 4836SOL    HW125970   0.068   2.984   6.018  0.5930 -0.3825  0.0071
 4836SOL    HW225971   4.717   3.062   6.128  1.4714  1.1702 -1.1739
 4837SOL     OW25972   4.676   2.553   8.762 -0.0413  0.2719 -0.1672
 4837SOL    HW125973   4.640   2.467   8.783 -1.1838  0.8925  0.3974
 4837SOL    HW225974   4.700   2.550   8.669  1.0370  0.6689  0.1067
 4838SOL     OW25975   0.117   3.448   2.568 -0.5315  0.4990  0.1150
 4838SOL    HW125976   0.077   3.530   2.539  0.0341  0.3992 -0.9208
 4838SOL    HW225977   0.058   3.440   2.643 -1.4823 -0.0425 -0.7107
 4839SOL     OW25978   4.369   0.722  15.085 -0.3311  0.0009 -0.2425
 4839SOL    HW125979   4.323   0.738  15.002  0.8707 -2.4571 -1.3779
 4839SOL    HW225980   4.388   0.630  15.068  0.4888 -0.1335  1.4012
 4840SOL     OW25981   2.992   2.481   5.265 -0.0934 -0.1067 -0.2307
 4840SOL    HW125982   2.955   2.529   5.191 -0.2705  0.4410  0.2048
 4840SOL    HW225983   2.923   2.463   5.329 -0.3472  0.5007 -0.3320
 4841SOL     OW25984   3.491   4.407  10.075  0.9656  0.3967  0.4976
 4841SOL    HW125985   3.407   4.452  10.073  2.0957  2.4357 -0.8397
 4841SOL    HW225986   3.474   4.323  10.119  1.0073 -0.0202 -0.2712
 4842SOL     OW25987   0.147   3.716   5.845 -0.2542 -0.5750  0.0656
 4842SOL    HW125988   0.227   3.736   5.798  0.5379 -1.6753  0.9590
 4842SOL    HW225989   0.085   3.783   5.815  0.5392 -0.2133 -0.7640
 4843SOL     OW25990   3.624   4.201   8.154 -0.5710 -0.0137 -1.0056
 4843SOL    HW125991   3.651   4.157   8.235 -2.3501 -1.5961 -1.2669
 4843SOL    HW225992   3.562   4.136   8.120  0.0455  0.2516 -2.6540
 4844SOL     OW25993   2.386   4.683  11.190 -0.0196  0.0748  0.1581
 4844SOL    HW125994   2.405   4.627  11.266  1.3322 -2.0899 -1.7752
 4844SOL    HW225995   2.461   0.018  11.194  1.9092 -2.4169  0.9989
 4845SOL     OW25996   2.156   3.094   2.954  0.2195 -0.3615 -0.6533
 4845SOL    HW125997   2.212   3.032   2.909  1.6175  0.6659 -0.3416
 4845SOL    HW225998   2.185   3.181   2.925 -0.4800 -0.3373 -1.2960
 4846SOL     OW25999   0.815   0.316   5.591  0.1316 -0.5054 -0.2527
 4846SOL    HW126000   0.724   0.285   5.595  0.1272 -0.4748 -0.1205
 4846SOL    HW226001   0.815   0.314   5.495 -0.7103 -0.1360 -0.2622
 4847SOL     OW26002   2.740   1.279   3.768  0.4711 -0.2280 -0.2977
 4847SOL    HW126003   2.711   1.190   3.791 -3.0033  1.3772  1.5336
 4847SOL    HW226004   2.720   1.272   3.675 -0.4585  2.0735 -0.2681
 4848SOL     OW26005   2.277   4.209   1.813  0.6936 -0.1845 -0.2922
 4848SOL    HW126006   2.225   4.200   1.893  2.0031 -2.7631  0.2843
 4848SOL    HW226007   2.260   4.121   1.777 -2.7908  0.7996 -1.0647
 4849SOL     OW26008   1.045   0.687   7.623  0.4719 -0.7932 -0.6244
 4849SOL    HW126009   0.976   0.669   7.560 -0.4904  1.0354 -0.1035
 4849SOL    HW226010   1.048   0.618   7.688 -3.6326  1.2862  1.7324
 4850SOL     OW26011   3.060   2.413   6.606  0.4041 -0.3358 -0.0265
 4850SOL    HW126012   2.978   2.379   6.644  0.6673 -0.8002  0.1233
 4850SOL    HW226013   3.035   2.461   6.527 -0.4316 -0.6398  0.0491
 4851SOL     OW26014   3.279   1.286  16.923 -0.3307 -0.3137 -0.0808
 4851SOL    HW126015   3.231   1.226  16.865 -0.7308 -0.8641  0.8252
 4851SOL    HW226016   3.347   1.306  16.859 -0.3603 -1.5706 -0.5062
 4852SOL     OW26017   3.689   0.664  10.861  0.2990  0.1500  0.0284
 4852SOL    HW126018   3.656   0.752  10.839  1.7363  0.9314  0.9894
 4852SOL    HW226019   3.655   0.622  10.782  3.6036  0.9143 -1.8421
 4853SOL     OW26020   0.341   3.103   1.410  0.3696 -0.0085 -0.0310
 4853SOL    HW126021   0.342   3.190   1.449  2.3818  0.1372 -0.4460
 4853SOL    HW226022   0.272   3.112   1.344  1.5714  3.3131 -0.8473
 4854SOL     OW26023   1.389   0.031   9.219  0.5055  0.0754 -0.1670
 4854SOL    HW126024   1.336   4.675   9.219 -0.7688  0.9072  0.8066
 4854SOL    HW226025   1.474   4.713   9.209 -0.4780 -1.7426 -0.8531
 4855SOL     OW26026   1.208   4.234  12.875  0.4292 -0.1422  0.4200
 4855SOL    HW126027   1.167   4.321  12.877  1.9014  0.5757 -0.9461
 4855SOL    HW226028   1.203   4.223  12.780 -1.1137 -1.9986  0.7301
 4856SOL     OW26029   2.286   4.474   6.628  0.2048  0.5296 -0.1883
 4856SOL    HW126030   2.369   4.478   6.580  0.8194 -1.1498  0.7328
 4856SOL    HW226031   2.231   4.486   6.551  0.2222  1.4450 -0.0576
 4857SOL     OW26032   1.653   3.518  10.032 -0.3886  0.0017  0.0785
 4857SOL    HW126033   1.573   3.499  10.082 -1.2643 -0.1495 -1.3754
 4857SOL    HW226034   1.731   3.508  10.087 -1.4377 -3.8817  0.8711
 4858SOL     OW26035   0.367   2.856   5.892  0.0766 -0.0790 -0.4363
 4858SOL    HW126036   0.401   2.771   5.863  0.7080 -0.1258  0.4212
 4858SOL    HW226037   0.424   2.873   5.967 -0.3763  2.3143 -0.6375
 4859SOL     OW26038   1.453   3.212  12.428  0.1619  0.3703 -0.0676
 4859SOL    HW126039   1.505   3.143  12.470 -1.3075 -1.6186 -1.4819
 4859SOL    HW226040   1.427   3.252  12.511  0.4859 -0.4319  0.4260
 4860SOL     OW26041   1.942   3.486  16.233 -0.3731  0.1252  0.1525
 4860SOL    HW126042   1.930   3.546  16.306 -0.1016 -0.7008  0.8677
 4860SOL    HW226043   1.954   3.404  16.279  1.0260 -0.2212 -0.8441
 4861SOL     OW26044   4.574   2.490  11.062 -0.1291  0.0845 -0.5148
 4861SOL    HW126045   4.497   2.442  11.095 -2.0214  2.4590 -1.4565
 4861SOL    HW226046   4.528   2.517  10.983  0.0916  1.4685 -0.1752
 4862SOL     OW26047   4.698   4.008  10.035 -0.4508 -0.0213  0.4383
 4862SOL    HW126048   4.660   3.975  10.116 -1.0942 -0.6487 -0.1246
 4862SOL    HW226049   4.648   3.965   9.966  0.2681  0.2667 -0.2694
 4863SOL     OW26050   4.314   2.234   8.072  0.2318 -0.4906 -0.5412
 4863SOL    HW126051   4.329   2.327   8.086 -2.3369  0.3233 -3.1360
 4863SOL    HW226052   4.397   2.206   8.109  0.8941 -0.5353 -2.0572
 4864SOL     OW26053   4.443   1.888   3.690 -0.3004  0.0740  0.3593
 4864SOL    HW126054   4.456   1.854   3.602  2.4212  0.8608  0.4488
 4864SOL    HW226055   4.492   1.824   3.742 -1.0861 -0.5013  0.3777
 4865SOL     OW26056   2.843   0.447   4.038  0.0926  0.0088 -0.0351
 4865SOL    HW126057   2.899   0.380   4.077 -2.5133 -0.7938  2.2685
 4865SOL    HW226058   2.899   0.482   3.968 -0.1734  1.7557  0.6282
 4866SOL     OW26059   2.783   4.586  11.047 -0.0384 -0.2275  0.3839
 4866SOL    HW126060   2.715   4.649  11.073 -0.7184 -0.0641 -1.7981
 4866SOL    HW226061   2.867   4.619  11.079  1.0841 -0.8704 -1.9368
 4867SOL     OW26062   0.779   3.994   7.277 -0.6270  0.0069 -0.6771
 4867SOL    HW126063   0.853   3.937   7.255 -0.7876 -0.6541  0.4824
 4867SOL    HW226064   0.728   3.984   7.196  1.0046  0.7585 -1.7859
 4868SOL     OW26065   3.678   4.536  14.982 -0.0678  0.4080 -0.8853
 4868SOL    HW126066   3.654   4.568  15.069 -2.5713 -0.7675 -1.1242
 4868SOL    HW226067   3.773   4.530  14.987 -0.1177  1.7621  1.5408
 4869SOL     OW26068   0.389   0.856  15.030  0.1297  0.0862  0.2342
 4869SOL    HW126069   0.363   0.769  15.061  0.0161  0.8876  2.3476
 4869SOL    HW226070   0.477   0.852  15.067  0.2979 -0.1303 -0.1797
 4870SOL     OW26071   1.074   0.799  12.806  0.1059  0.3675  0.0090
 4870SOL    HW126072   1.127   0.720  12.802  0.9764  0.8868  1.0533
 4870SOL    HW226073   1.078   0.821  12.899 -2.3326 -2.4159  0.7797
 4871SOL     OW26074   2.290   0.741  11.664 -0.1195  0.1348  0.3180
 4871SOL    HW126075   2.356   0.730  11.595  1.1151  1.5149  1.2861
 4871SOL    HW226076   2.279   0.836  11.667  2.6409  0.3604  2.6998
 4872SOL     OW26077   0.924   1.520   2.607  0.5449 -0.0004 -0.1387
 4872SOL    HW126078   0.934   1.614   2.616 -0.5884  0.2198 -1.1106
 4872SOL    HW226079   0.838   1.504   2.566  0.8739  2.1090 -1.6124
 4873SOL     OW26080   0.016   4.281   4.420 -0.0864  0.0032 -0.2916
 4873SOL    HW126081   0.104   4.294   4.456 -0.5631 -1.8492  1.5692
 4873SOL    HW226082   0.020   4.323   4.334  1.7817  2.9555  1.2484
 4874SOL     OW26083   0.832   4.633   6.138 -0.0980 -0.1222  0.2185
 4874SOL    HW126084   0.818   4.614   6.046  1.0037 -3.2730  0.7001
 4874SOL    HW226085   0.904   4.696   6.140  1.0562 -1.4489  0.1892
 4875SOL     OW26086   3.866   3.464   6.911  0.1126 -0.4715  0.0930
 4875SOL    HW126087   3.931   3.394   6.904  0.3541 -0.3788  1.3932
 4875SOL    HW226088   3.872   3.497   6.821 -0.4052 -0.8851 -0.0958
 4876SOL     OW26089   2.903   0.550   3.808  0.1374 -0.5857 -0.5095
 4876SOL    HW126090   2.964   0.624   3.811 -0.4151 -0.2118  1.6325
 4876SOL    HW226091   2.913   0.525   3.716  0.1994 -0.1883 -0.6111
 4877SOL     OW26092   2.767   0.261   4.951 -0.3901 -0.2732 -0.5432
 4877SOL    HW126093   2.802   0.319   5.018  0.5525 -1.1231 -0.3103
 4877SOL    HW226094   2.743   0.327   4.886  1.0496 -0.0193 -0.8185
 4878SOL     OW26095   0.562   1.793  17.572  0.3392  0.3009 -0.5241
 4878SOL    HW126096   0.529   1.812  17.660  0.8499  0.0642 -0.2824
 4878SOL    HW226097   0.645   1.752  17.597  2.3454  4.0327 -1.0799
 4879SOL     OW26098   2.685   1.268   2.902 -0.3828 -0.2722 -0.3240
 4879SOL    HW126099   2.631   1.191   2.885 -1.3264 -0.2888  2.6628
 4879SOL    HW226100   2.769   1.256   2.859  0.2767  1.7286  0.3886
 4880SOL     OW26101   1.900   2.231   7.120  0.2014 -0.8819 -0.7158
 4880SOL    HW126102   1.830   2.240   7.055  1.2235  2.2161 -1.3842
 4880SOL    HW226103   1.859   2.162   7.171  2.0154 -0.5524  1.1774
 4881SOL     OW26104   3.766   2.220  16.312 -0.0134  0.4034 -0.7054
 4881SOL    HW126105   3.771   2.151  16.378  0.3598  1.2636  0.1809
 4881SOL    HW226106   3.834   2.286  16.327 -0.2567 -0.0484  2.3591
 4882SOL     OW26107   1.063   3.909   8.694  0.2478 -0.2782  0.4523
 4882SOL    HW126108   1.045   3.906   8.788 -0.3303  0.6983  0.3712
 4882SOL    HW226109   1.082   3.816   8.678 -0.7427 -0.0355 -2.1002
 4883SOL     OW26110   1.286   0.041   4.920 -0.7750 -0.0990  0.1292
 4883SOL    HW126111   1.251   4.707   4.988 -0.7876  2.6330  2.4671
 4883SOL    HW226112   1.337   4.704   4.868  1.8982  0.2237  2.3939
 4884SOL     OW26113   0.491   1.543   4.942 -0.4455 -0.3138 -0.0047
 4884SOL    HW126114   0.567   1.514   4.993 -0.7743 -0.3734  0.4546
 4884SOL    HW226115   0.536   1.585   4.869  0.8628 -0.2512  0.8355
 4885SOL     OW26116   1.513   3.699   4.883 -0.0696  0.2669  0.2612
 4885SOL    HW126117   1.552   3.742   4.807 -1.1425  1.4228  0.3659
 4885SOL    HW226118   1.491   3.781   4.928  0.7669  0.8188 -0.3430
 4886SOL     OW26119   1.577   0.111  12.332  0.3993  0.2831 -0.3774
 4886SOL    HW126120   1.487   0.142  12.326  1.1635  2.2964 -1.4479
 4886SOL    HW226121   1.639   0.179  12.306  1.3514 -0.5857 -0.3943
 4887SOL     OW26122   1.435   2.107  17.308  0.7973 -0.2239  0.2539
 4887SOL    HW126123   1.354   2.156  17.295  0.5054 -0.7804 -0.0191
 4887SOL    HW226124   1.409   2.015  17.306  1.9093 -0.5579  1.2586
 4888SOL     OW26125   1.293   0.014   8.431  0.7112 -0.0776  0.3928
 4888SOL    HW126126   1.363   0.079   8.432 -0.2156  0.9057  0.5539
 4888SOL    HW226127   1.227   0.065   8.478  0.6932  0.3387 -0.0923
 4889SOL     OW26128   2.743   0.912   3.087  0.3185 -0.3474 -0.1605
 4889SOL    HW126129   2.709   0.823   3.085  1.2172 -0.6943 -0.1768
 4889SOL    HW226130   2.785   0.916   3.000  0.9318 -2.3674  0.0454
 4890SOL     OW26131   4.471   1.216   8.920 -0.8318  0.4440  0.3718
 4890SOL    HW126132   4.436   1.188   9.004  1.0415  2.1946  1.7545
 4890SOL    HW226133   4.402   1.174   8.869  1.6860 -1.8298 -1.1569
 4891SOL     OW26134   3.284   3.994  15.134 -0.0762 -0.2098  0.0038
 4891SOL    HW126135   3.298   3.904  15.104 -0.1835  0.6096 -2.4905
 4891SOL    HW226136   3.339   4.046  15.075 -2.3451  0.2115 -1.7155
 4892SOL     OW26137   3.626   1.697   9.714  0.0501  0.6245  0.2235
 4892SOL    HW126138   3.636   1.722   9.622  0.1420  2.8975  0.8499
 4892SOL    HW226139   3.639   1.602   9.716  0.6692  0.7255  0.9408
 4893SOL     OW26140   4.549   0.605  11.177 -1.1100 -0.0885 -0.4768
 4893SOL    HW126141   4.502   0.548  11.116 -0.3690 -0.7620 -0.4240
 4893SOL    HW226142   4.574   0.541  11.243  0.4235 -0.8392 -1.8072
 4894SOL     OW26143   4.024   1.181   6.213  0.2494 -0.1982 -0.0576
 4894SOL    HW126144   3.970   1.142   6.145  1.8014  3.6018 -3.4703
 4894SOL    HW226145   4.085   1.109   6.230  0.6914  0.6704  2.0773
 4895SOL     OW26146   1.045   0.956   2.213  0.5283 -0.6494 -0.6301
 4895SOL    HW126147   0.952   0.973   2.200  0.9868  1.6365 -0.8047
 4895SOL    HW226148   1.053   0.861   2.197  0.6230 -0.6654 -0.4836
 4896SOL     OW26149   2.767   1.879   7.262  0.1322  0.1784  0.5412
 4896SOL    HW126150   2.729   1.928   7.189  0.0752  0.1746  0.5679
 4896SOL    HW226151   2.845   1.931   7.278  1.7532 -1.3599 -2.5305
 4897SOL     OW26152   1.953   4.226  12.529  0.2956 -0.5772  0.2911
 4897SOL    HW126153   2.012   4.280  12.581  3.6888 -2.5446 -1.5243
 4897SOL    HW226154   1.992   4.231  12.442 -0.8065  2.6713 -0.0119
 4898SOL     OW26155   1.447   4.306  17.220  0.0066  0.3758  0.0766
 4898SOL    HW126156   1.374   4.248  17.242  0.4392 -1.1952 -2.5290
 4898SOL    HW226157   1.423   4.380  17.276  0.1597 -0.6503  1.4948
 4899SOL     OW26158   1.458   3.199   5.513  0.5464  0.3807  0.1159
 4899SOL    HW126159   1.531   3.139   5.500  0.7936  0.8962 -0.9260
 4899SOL    HW226160   1.492   3.248   5.587 -0.5766 -2.2079  2.3206
 4900SOL     OW26161   3.390   2.439   3.982 -0.7991  0.4181 -0.2889
 4900SOL    HW126162   3.300   2.471   3.971 -1.6710 -1.8827  0.1691
 4900SOL    HW226163   3.431   2.505   3.927  2.2789 -0.4309  1.0262
 4901SOL     OW26164   1.631   1.380  14.038  0.0991  0.6173  0.2159
 4901SOL    HW126165   1.563   1.352  13.976  0.4214 -0.2267  0.2429
 4901SOL    HW226166   1.705   1.324  14.015 -0.0405  0.6250 -0.2589
 4902SOL     OW26167   4.474   3.837   7.620  0.7567 -0.5164 -0.2736
 4902SOL    HW126168   4.497   3.754   7.578 -2.2135 -1.5515  0.1400
 4902SOL    HW226169   4.524   3.903   7.571 -0.3193  1.5318  1.3943
 4903SOL     OW26170   1.020   0.276   6.446  0.3133 -0.3286  0.2957
 4903SOL    HW126171   1.046   0.281   6.538  0.2517  0.8034  0.2434
 4903SOL    HW226172   1.076   0.199   6.432 -2.3028 -2.2726  0.5973
 4904SOL     OW26173   1.521   1.000   2.340 -0.0960 -0.4956  0.2002
 4904SOL    HW126174   1.439   1.015   2.294  0.7106 -0.1276 -1.0981
 4904SOL    HW226175   1.574   1.038   2.270  1.0645 -0.5467  1.0414
 4905SOL     OW26176   2.725   3.974   6.568  0.1523 -0.4217 -0.2687
 4905SOL    HW126177   2.794   4.040   6.562 -0.7773  0.3952 -1.9117
 4905SOL    HW226178   2.681   4.004   6.648 -0.3754  1.0528 -1.1052
 4906SOL     OW26179   0.123   3.165  11.405  0.2808 -0.1611 -0.3196
 4906SOL    HW126180   0.102   3.258  11.407  0.9254 -0.0364  0.9921
 4906SOL    HW226181   0.127   3.136  11.314 -0.1052 -3.1942  0.6403
 4907SOL     OW26182   0.055   1.396   6.646  0.0632  0.2091 -0.5385
 4907SOL    HW126183   0.016   1.368   6.729  0.4068 -2.3421 -1.2581
 4907SOL    HW226184   0.002   1.358   6.576  1.8565  2.1024 -2.9089
 4908SOL     OW26185   1.381   1.018   7.252 -0.2160 -0.0086  0.0797
 4908SOL    HW126186   1.461   0.966   7.249  0.3512  1.0179 -2.7577
 4908SOL    HW226187   1.424   1.103   7.260  0.6762 -0.3019 -1.5290
 4909SOL     OW26188   2.246   2.095  17.030 -0.4630 -0.4572  0.2217
 4909SOL    HW126189   2.219   2.186  17.017  0.6142 -0.0927  0.5810
 4909SOL    HW226190   2.233   2.055  16.943  0.1363  0.1868 -0.1667
 4910SOL     OW26191   2.316   0.309   8.079 -0.3319  0.2137  0.0845
 4910SOL    HW126192   2.243   0.247   8.084 -0.0181 -0.2171 -0.6607
 4910SOL    HW226193   2.285   0.362   8.005  0.2900  0.0444 -0.3002
 4911SOL     OW26194   3.361   0.310   7.230  0.0952  0.2203  0.6706
 4911SOL    HW126195   3.316   0.226   7.226  0.3823  0.0420  1.1293
 4911SOL    HW226196   3.317   0.348   7.305 -0.0941  1.7234 -0.2081
 4912SOL     OW26197   0.732   1.796  12.235 -0.1413  0.0093  0.0546
 4912SOL    HW126198   0.745   1.833  12.148 -1.9837 -0.1211 -0.2870
 4912SOL    HW226199   0.820   1.764  12.250 -0.1622 -0.2433 -0.3610
 4913SOL     OW26200   4.418   1.158   2.877  0.0783 -0.1944 -0.3179
 4913SOL    HW126201   4.361   1.233   2.863  1.4134  0.8696 -0.1254
 4913SOL    HW226202   4.417   1.122   2.789 -1.4949  1.7063 -1.0749
 4914SOL     OW26203   4.063   0.843  11.671  0.5338  0.2077  0.1083
 4914SOL    HW126204   4.052   0.918  11.729  3.6671 -0.7024  1.9126
 4914SOL    HW226205   3.995   0.863  11.607  0.5739  0.7338  0.2322
 4915SOL     OW26206   2.941   0.121  15.408 -0.4566  0.0086 -0.3968
 4915SOL    HW126207   2.874   0.141  15.473 -0.2243 -1.5933  0.3333
 4915SOL    HW226208   3.003   0.190  15.430  0.6272 -1.4792  1.2280
 4916SOL     OW26209   4.632   2.587  16.173 -0.4129  0.1606 -0.1299
 4916SOL    HW126210   4.571   2.559  16.104  2.4148 -4.0747 -0.8711
 4916SOL    HW226211   4.595   2.675  16.181  0.7940  0.5483  1.2316
 4917SOL     OW26212   1.058   0.179  10.390  0.4976 -0.0345  0.3571
 4917SOL    HW126213   1.130   0.145  10.336  0.9713  4.1047 -1.6050
 4917SOL    HW226214   1.045   0.259  10.339  0.4899 -1.1515 -1.3760
 4918SOL     OW26215   4.049   3.638   0.067  0.3600 -0.0770 -0.9719
 4918SOL    HW126216   3.991   3.714   0.071  0.2252 -0.2079 -0.3207
 4918SOL    HW226217   4.039   3.613  17.674  0.9642 -1.0409 -0.7725
 4919SOL     OW26218   2.240   4.204   5.467  0.6488 -0.6165  0.3212
 4919SOL    HW126219   2.195   4.232   5.388  1.5168  1.8012  0.6876
 4919SOL    HW226220   2.272   4.288   5.501  0.4925 -0.9643  1.3337
 4920SOL     OW26221   2.192   3.678  16.518 -0.4586  0.1102  0.4750
 4920SOL    HW126222   2.211   3.677  16.612 -1.0900  1.4651  0.6215
 4920SOL    HW226223   2.231   3.762  16.492  0.3300 -0.5922 -0.5918
 4921SOL     OW26224   3.913   0.533   8.467  0.0203 -0.0371 -0.2695
 4921SOL    HW126225   3.863   0.599   8.419  0.6550 -0.0709 -0.9749
 4921SOL    HW226226   3.966   0.498   8.395  0.1737 -0.6262  0.1312
 4922SOL     OW26227   2.205   4.469   1.777  0.7742  0.3733 -0.2467
 4922SOL    HW126228   2.259   4.390   1.783 -0.9954 -0.8766 -0.6132
 4922SOL    HW226229   2.140   4.447   1.843  0.0241  0.4441 -0.9582
 4923SOL     OW26230   2.787   2.729   3.937 -0.0393  0.8834 -0.2134
 4923SOL    HW126231   2.838   2.668   3.883  0.6283  0.3104  1.0574
 4923SOL    HW226232   2.703   2.721   3.892 -0.6833  1.2443  0.9332
 4924SOL     OW26233   1.164   1.288   9.213 -0.2512 -0.3025 -0.4003
 4924SOL    HW126234   1.171   1.383   9.203  3.8585 -0.5137  0.1511
 4924SOL    HW226235   1.218   1.273   9.291  0.7286  2.1784 -0.5716
 4925SOL     OW26236   4.119   1.347  16.670  0.2379  0.0669 -1.0925
 4925SOL    HW126237   4.071   1.267  16.653 -0.8294  0.5960 -0.6012
 4925SOL    HW226238   4.185   1.327  16.737 -1.7379 -3.0639 -0.1141
 4926SOL     OW26239   2.160   4.496  10.297  0.6796 -0.2577  0.8647
 4926SOL    HW126240   2.123   4.443  10.368  0.7642  0.6746  1.6119
 4926SOL    HW226241   2.088   4.491  10.234  2.0578  0.5400 -0.7742
 4927SOL     OW26242   2.676   0.791   5.827 -0.1352 -0.0846 -0.5671
 4927SOL    HW126243   2.649   0.878   5.856 -0.3138  0.0657 -1.1831
 4927SOL    HW226244   2.767   0.793   5.857 -0.4065  2.9235  0.1323
 4928SOL     OW26245   3.527   3.481   3.742  0.1278 -0.1650  0.0597
 4928SOL    HW126246   3.566   3.538   3.675  0.7889 -1.8539 -0.9700
 4928SOL    HW226247   3.463   3.544   3.776 -0.4963  0.5142 -2.3695
 4929SOL     OW26248   2.559   2.672  11.283  0.0814 -0.0069  0.3780
 4929SOL    HW126249   2.518   2.600  11.332  0.0934  0.6339  1.3092
 4929SOL    HW226250   2.649   2.639  11.282  0.6141  1.4167  2.3633
 4930SOL     OW26251   2.023   3.973   9.060  0.7575 -0.3884 -0.1281
 4930SOL    HW126252   2.086   3.940   9.124  0.6296  0.2403  0.3134
 4930SOL    HW226253   1.971   4.036   9.110 -0.7057 -2.1704  0.6011
 4931SOL     OW26254   2.552   0.467   3.836 -0.0566 -0.2416  0.5555
 4931SOL    HW126255   2.533   0.550   3.793 -0.1122 -0.2984  0.4722
 4931SOL    HW226256   2.646   0.479   3.854 -0.1298  0.4960  0.4601
 4932SOL     OW26257   1.887   0.049  15.835 -0.0139  0.4688  0.2407
 4932SOL    HW126258   1.975   0.084  15.822 -0.2834  0.4179 -1.8061
 4932SOL    HW226259   1.881   0.054  15.930  1.0374  1.8494  0.2253
 4933SOL     OW26260   4.267   2.216   9.168  0.4130 -0.4408  0.7292
 4933SOL    HW126261   4.302   2.153   9.104 -0.1636 -0.8021  0.7697
 4933SOL    HW226262   4.334   2.284   9.159  0.9521 -0.6689  3.2052
 4934SOL     OW26263   1.616   3.097   4.363  0.3214  0.7067 -0.3821
 4934SOL    HW126264   1.553   3.053   4.305  0.6505  2.4006 -2.0203
 4934SOL    HW226265   1.662   3.022   4.401 -0.4274  1.1269  1.3784
 4935SOL     OW26266   1.691   0.168   7.071  0.2415 -0.1259 -0.4699
 4935SOL    HW126267   1.763   0.106   7.079  2.8621  3.1720  1.1635
 4935SOL    HW226268   1.739   0.249   7.057  0.8976 -0.2330  1.1264
 4936SOL     OW26269   2.222   2.609   3.427 -0.8229  0.1206 -0.2957
 4936SOL    HW126270   2.247   2.591   3.517  0.8361  2.4780 -0.2927
 4936SOL    HW226271   2.280   2.684   3.427  0.6469 -1.0166  0.5377
 4937SOL     OW26272   0.743   4.589   4.803  0.5351  0.3882  0.1813
 4937SOL    HW126273   0.764   4.580   4.710 -1.6864  2.5378 -0.5295
 4937SOL    HW226274   0.752   4.684   4.812 -1.0735  0.5045  0.5817
 4938SOL     OW26275   4.096   0.018  15.467  0.4373  0.1879 -0.3281
 4938SOL    HW126276   4.008   0.033  15.432 -0.7972  0.4624  2.9408
 4938SOL    HW226277   4.133   4.683  15.402 -1.0897 -0.1322 -0.9058
 4939SOL     OW26278   2.081   3.814   1.985  0.1240 -0.0218  0.0264
 4939SOL    HW126279   2.101   3.723   2.009  1.3004  0.3901  0.6350
 4939SOL    HW226280   1.987   3.813   1.969 -0.0839  0.8762  1.1763
 4940SOL     OW26281   0.745   2.605  10.600  0.6820  0.2700 -0.0215
 4940SOL    HW126282   0.704   2.690  10.612 -0.1731 -0.2421  0.6577
 4940SOL    HW226283   0.837   2.630  10.594  0.4636  0.5754 -1.8149
 4941SOL     OW26284   2.464   4.148  10.261 -0.5107  0.1236  0.5905
 4941SOL    HW126285   2.559   4.137  10.260 -0.8935 -3.1046  1.7023
 4941SOL    HW226286   2.443   4.123  10.351  0.2668  0.8175  0.9694
 4942SOL     OW26287   3.831   1.243   9.262 -0.0824 -0.1279  0.7077
 4942SOL    HW126288   3.838   1.295   9.342 -2.2918 -0.4218  1.0851
 4942SOL    HW226289   3.778   1.293   9.200  0.6647  0.5335  0.5961
 4943SOL     OW26290   2.740   0.018   7.443 -0.2664  0.1925  0.4777
 4943SOL    HW126291   2.729   0.003   7.349  0.3199 -0.7501  0.5634
 4943SOL    HW226292   2.766   0.110   7.448 -1.1966  0.4407  0.7758
 4944SOL     OW26293   3.103   4.446   6.288  0.0517 -0.4722 -0.1870
 4944SOL    HW126294   3.137   4.391   6.217 -0.9035 -3.4615  1.6934
 4944SOL    HW226295   3.011   4.419   6.295 -0.1109 -0.4474 -2.0434
 4945SOL     OW26296   0.455   0.844   7.950 -1.2172  0.4126 -0.4948
 4945SOL    HW126297   0.462   0.869   7.858  1.7337 -0.3009 -0.4453
 4945SOL    HW226298   0.547   0.837   7.973 -1.0551  0.7524 -1.0350
 4946SOL     OW26299   2.286   0.974   0.611  0.3337  0.0129 -0.3985
 4946SOL    HW126300   2.373   0.970   0.571 -0.0306 -0.4273 -1.1417
 4946SOL    HW226301   2.291   0.907   0.679  0.7762  0.7948  0.3441
 4947SOL     OW26302   2.475   3.844  11.356 -0.1558  0.2827  0.5151
 4947SOL    HW126303   2.464   3.939  11.351 -0.7994  0.2048  0.4233
 4947SOL    HW226304   2.495   3.821  11.266 -0.4893  0.6416  0.3449
 4948SOL     OW26305   0.184   0.790   7.602  0.0200  0.5933  0.4255
 4948SOL    HW126306   0.172   0.740   7.683 -1.7839  0.9625  0.3915
 4948SOL    HW226307   0.227   0.726   7.546  1.1782  1.5310  0.2612
 4949SOL     OW26308   2.223   0.292   7.643  0.3532  0.3767 -0.3877
 4949SOL    HW126309   2.139   0.250   7.660  2.7438 -3.8473  1.0751
 4949SOL    HW226310   2.239   0.350   7.718 -0.5984  0.3559 -0.1742
 4950SOL     OW26311   4.302   0.124   1.896  0.1299  0.0904  0.4176
 4950SOL    HW126312   4.283   0.170   1.977  0.4248 -1.0380  1.1337
 4950SOL    HW226313   4.398   0.122   1.899  0.2153 -0.1812 -2.3007
 4951SOL     OW26314   1.626   1.560   4.659  0.0714 -0.0488  0.0127
 4951SOL    HW126315   1.626   1.556   4.754 -0.7542  0.5299  0.0435
 4951SOL    HW226316   1.622   1.655   4.651 -1.5249 -0.0765  0.4704
 4952SOL     OW26317   3.554   2.756   1.333  0.2452 -0.2358  0.3717
 4952SOL    HW126318   3.536   2.849   1.317 -0.9032 -0.8435 -1.8570
 4952SOL    HW226319   3.646   2.752   1.360  0.2424 -3.4109 -0.0852
 4953SOL     OW26320   4.186   3.202   3.802 -0.3417 -0.7896 -0.4265
 4953SOL    HW126321   4.264   3.254   3.780 -0.6842 -0.2172 -0.2799
 4953SOL    HW226322   4.172   3.228   3.893 -1.8516  2.8561 -1.7134
 4954SOL     OW26323   3.106   4.337  10.649 -0.3509  0.6038  0.2912
 4954SOL    HW126324   3.102   4.243  10.664 -0.2934  0.7503  1.2245
 4954SOL    HW226325   3.027   4.363  10.601 -0.7670 -0.1833  0.5526
 4955SOL     OW26326   3.231   3.727   8.286 -0.0507  0.8039  0.5853
 4955SOL    HW126327   3.181   3.733   8.368 -2.2692 -3.1879 -0.5019
 4955SOL    HW226328   3.183   3.782   8.225 -0.3310  0.9220  0.9081
 4956SOL     OW26329   3.921   1.854   8.098 -0.0898 -0.6331  0.7857
 4956SOL    HW126330   3.907   1.918   8.027  2.7417 -0.0325  0.7850
 4956SOL    HW226331   4.014   1.840   8.084 -0.4235 -2.3798  0.3670
 4957SOL     OW26332   0.754   3.837   2.409  0.3246  0.1569 -0.2079
 4957SOL    HW126333   0.803   3.861   2.487 -1.3120 -1.8952  1.4436
 4957SOL    HW226334   0.706   3.919   2.393  2.2951  0.8432 -2.5720
 4958SOL     OW26335   0.946   1.791   2.681 -0.6070 -0.4180 -0.5917
 4958SOL    HW126336   0.916   1.874   2.719 -0.7936 -0.3910 -0.7974
 4958SOL    HW226337   1.040   1.795   2.697 -1.0231 -1.9742  2.2473
 4959SOL     OW26338   2.852   4.541   4.125 -0.4912  0.1421  0.0274
 4959SOL    HW126339   2.862   4.446   4.123 -2.7093 -0.1000 -0.1072
 4959SOL    HW226340   2.761   4.554   4.098 -0.5034  0.1887  0.0879
 4960SOL     OW26341   3.236   3.744  12.472  0.4980 -0.3908 -0.1014
 4960SOL    HW126342   3.309   3.796  12.506  0.8959 -0.0279 -1.5174
 4960SOL    HW226343   3.169   3.810  12.461 -1.2699 -2.4132 -1.3270
 4961SOL     OW26344   1.596   3.885   7.784  0.0430 -0.2822 -0.2963
 4961SOL    HW126345   1.648   3.847   7.714 -1.6442 -0.5525 -1.4020
 4961SOL    HW226346   1.637   3.848   7.863 -2.4810 -0.1462  1.0785
 4962SOL     OW26347   4.446   2.615   8.940 -0.2808  0.4958  0.3226
 4962SOL    HW126348   4.527   2.625   8.891  1.3545 -1.0817  2.6915
 4962SOL    HW226349   4.394   2.692   8.918 -0.2852 -0.1989 -2.0699
 4963SOL     OW26350   1.209   2.059   9.859  0.1154  0.2949  0.0955
 4963SOL    HW126351   1.182   2.049   9.950 -0.7494 -0.4498 -0.2355
 4963SOL    HW226352   1.224   2.152   9.871 -0.7169  0.5735 -0.9803
 4964SOL     OW26353   1.534   3.763   0.313 -0.1969  0.4856  0.0604
 4964SOL    HW126354   1.616   3.770   0.363 -0.9251 -1.0454  1.4803
 4964SOL    HW226355   1.574   3.725   0.234 -1.3308 -0.1631 -0.1958
 4965SOL     OW26356   1.105   0.307   4.607 -0.5108  0.1845  0.0814
 4965SOL    HW126357   1.105   0.302   4.702 -3.1188  0.7136  0.1034
 4965SOL    HW226358   1.196   0.286   4.588 -0.5690  1.0216 -1.1397
 4966SOL     OW26359   1.989   4.515   0.117 -0.1360  0.1367  0.3586
 4966SOL    HW126360   1.936   4.439   0.092 -1.0938  1.8089 -2.6704
 4966SOL    HW226361   2.079   4.493   0.094 -0.2004 -0.8081  1.0304
 4967SOL     OW26362   0.141   4.540   3.417  0.3297  0.1076 -0.4702
 4967SOL    HW126363   0.062   4.486   3.420  0.7323 -0.4729 -0.4215
 4967SOL    HW226364   0.098   4.614   3.373 -1.2901  0.4158  1.6259
 4968SOL     OW26365   1.970   0.080  13.981 -0.1007 -0.0498  0.0505
 4968SOL    HW126366   2.047   0.088  14.038 -1.6120  0.8352  1.9668
 4968SOL    HW226367   1.940   4.718  14.008 -0.1405 -0.1000 -0.1573
 4969SOL     OW26368   3.431   0.871   8.554 -0.3309  0.1720 -0.1620
 4969SOL    HW126369   3.404   0.816   8.480  1.8716  2.8549 -3.0145
 4969SOL    HW226370   3.524   0.850   8.546 -0.3761  0.1596 -0.6702
 4970SOL     OW26371   0.861   1.599   8.019  0.4426 -0.3721  0.3998
 4970SOL    HW126372   0.924   1.629   8.085  1.0792  3.9590 -2.2035
 4970SOL    HW226373   0.913   1.529   7.979  1.1210  0.1200  0.4028
 4971SOL     OW26374   2.693   3.159   6.509  0.4936  0.1950  0.2885
 4971SOL    HW126375   2.763   3.218   6.537  1.7042 -0.9486 -0.3000
 4971SOL    HW226376   2.626   3.170   6.577  0.3626  0.3708  0.1288
 4972SOL     OW26377   4.227   0.681  14.575  0.0978  0.4202  0.3466
 4972SOL    HW126378   4.251   0.649  14.663 -0.1267 -0.9539 -0.0924
 4972SOL    HW226379   4.135   0.655  14.572  0.2756 -0.0205 -1.0833
 4973SOL     OW26380   1.325   0.489   5.150 -0.0023  0.4172  0.2956
 4973SOL    HW126381   1.250   0.528   5.195 -0.4518 -1.6252  1.3144
 4973SOL    HW226382   1.377   0.570   5.150  0.1309  0.3315  0.2814
 4974SOL     OW26383   1.140   1.789   9.422  0.8470  0.1923  0.6459
 4974SOL    HW126384   1.150   1.807   9.515  0.1806 -0.1498  0.7853
 4974SOL    HW226385   1.158   1.876   9.386  2.6674 -1.2521 -1.9179
 4975SOL     OW26386   1.842   0.035  13.757 -0.2669 -0.4171  0.1374
 4975SOL    HW126387   1.753   0.010  13.784  0.0786 -0.9555  0.7730
 4975SOL    HW226388   1.889   0.030  13.840 -0.0810  1.1959  0.1202
 4976SOL     OW26389   2.794   3.471   8.052 -0.1610 -0.4028 -0.2114
 4976SOL    HW126390   2.773   3.541   7.990 -1.9946  0.6998  1.6631
 4976SOL    HW226391   2.819   3.400   7.992 -0.2841  0.4513 -1.2658
 4977SOL     OW26392   0.059   0.161  10.266 -0.3994  0.1644  0.0390
 4977SOL    HW126393   0.103   0.158  10.350 -1.2995 -0.5812  0.4815
 4977SOL    HW226394   4.691   0.161  10.291 -0.0797 -2.0718  1.2528
 4978SOL     OW26395   1.287   0.556  17.596 -0.0065  0.3271  0.6661
 4978SOL    HW126396   1.306   0.565  17.689 -0.8582  0.9241  0.7826
 4978SOL    HW226397   1.287   0.460  17.596 -0.0784  0.3254 -1.3650
 4979SOL     OW26398   4.374   4.646   5.840  0.0544  0.1636  0.7758
 4979SOL    HW126399   4.323   4.627   5.919 -1.5338 -0.5355 -0.4322
 4979SOL    HW226400   4.301   4.685   5.792 -0.8837 -0.1319  1.9408
 4980SOL     OW26401   1.504   2.973   1.300  0.2080  0.3969 -0.3314
 4980SOL    HW126402   1.442   2.905   1.275  0.7793 -0.0055 -0.6539
 4980SOL    HW226403   1.525   2.975   1.394 -0.7237 -0.9270 -0.1070
 4981SOL     OW26404   1.909   4.287   4.312 -0.0024 -0.3944  0.3758
 4981SOL    HW126405   1.821   4.317   4.287 -0.5583 -1.9925  0.3974
 4981SOL    HW226406   1.959   4.363   4.283  0.1329 -0.2788  0.9226
 4982SOL     OW26407   0.794   3.353   7.683  0.1412  0.6469  0.1130
 4982SOL    HW126408   0.716   3.393   7.644  0.1807  2.0305  1.4488
 4982SOL    HW226409   0.795   3.384   7.773 -1.1927 -1.0503  0.7058
 4983SOL     OW26410   3.269   3.172  12.003  0.0655 -0.3580  0.2648
 4983SOL    HW126411   3.320   3.091  12.010 -1.2636 -1.2886 -0.8063
 4983SOL    HW226412   3.319   3.213  11.933  1.4161  1.6973  2.4261
 4984SOL     OW26413   4.642   3.035   8.048  0.1538  0.4037  0.4227
 4984SOL    HW126414   4.712   2.971   8.055  0.4627  0.7972  0.9825
 4984SOL    HW226415   4.570   2.980   8.016 -0.8280  2.0313 -0.1952
 4985SOL     OW26416   3.083   0.202   6.253  0.4804  0.4423 -0.0528
 4985SOL    HW126417   3.153   0.265   6.271  2.5181 -1.3347 -1.7437
 4985SOL    HW226418   3.115   0.117   6.285  0.4017  1.0948  1.7374
 4986SOL     OW26419   0.439   1.880  11.640  0.1935 -0.4132 -0.7171
 4986SOL    HW126420   0.493   1.926  11.575 -1.5020  1.1061 -1.0383
 4986SOL    HW226421   0.366   1.941  11.647  0.8366  0.6763 -3.4128
 4987SOL     OW26422   1.384   3.240  12.070 -0.8159 -0.3519 -0.4831
 4987SOL    HW126423   1.439   3.179  12.119 -0.7969  0.9038  1.0601
 4987SOL    HW226424   1.311   3.250  12.132  0.6032 -0.5995  1.2193
 4988SOL     OW26425   3.227   0.398   7.451 -0.5403  0.2572  0.4493
 4988SOL    HW126426   3.286   0.471   7.468  1.2320 -1.5055  1.8335
 4988SOL    HW226427   3.182   0.380   7.533  0.4394  1.5610  1.2756
 4989SOL     OW26428   0.810   0.166   4.819  0.2555  0.5512 -0.1337
 4989SOL    HW126429   0.726   0.170   4.865  1.7032 -0.8235  2.6118
 4989SOL    HW226430   0.865   0.195   4.892  0.2903 -1.5786  0.6734
 4990SOL     OW26431   0.976   1.263   6.332  0.1210  0.0416  0.2742
 4990SOL    HW126432   0.905   1.202   6.312 -0.3576  1.1089 -1.3056
 4990SOL    HW226433   0.955   1.276   6.425  0.8591  0.5761  0.3654
 4991SOL     OW26434   2.276   3.857   6.447 -0.2272  0.1060 -0.2625
 4991SOL    HW126435   2.194   3.849   6.497  1.4342 -0.7701  2.2940
 4991SOL    HW226436   2.309   3.769   6.460  0.3984  0.7408  2.6096
 4992SOL     OW26437   3.143   2.788   8.803  0.0855  0.1093 -0.1719
 4992SOL    HW126438   3.135   2.729   8.727 -2.4518  1.0786 -0.6535
 4992SOL    HW226439   3.065   2.768   8.855  0.9173  0.7807  1.3077
 4993SOL     OW26440   2.935   2.360   8.203  0.0466 -0.2377 -0.0325
 4993SOL    HW126441   2.882   2.283   8.223 -1.5950  1.1126  0.8135
 4993SOL    HW226442   2.903   2.369   8.113  0.0897 -1.1057 -0.1313
 4994SOL     OW26443   4.262   3.168   9.332  0.2940  0.2025 -0.3831
 4994SOL    HW126444   4.287   3.079   9.358  1.3240  0.7627  0.5474
 4994SOL    HW226445   4.198   3.157   9.262  2.2741  2.5275 -2.5545
 4995SOL     OW26446   2.955   1.672   4.933  0.2935  0.0110  0.0328
 4995SOL    HW126447   2.903   1.658   5.013 -1.9017  0.2092 -1.3550
 4995SOL    HW226448   2.900   1.617   4.877 -1.4988  0.0421  1.7229
 4996SOL     OW26449   4.413   1.912   8.449 -0.2046  0.2772 -0.3369
 4996SOL    HW126450   4.415   1.880   8.359 -1.8044 -1.5525  0.2771
 4996SOL    HW226451   4.502   1.945   8.460  0.2776 -1.2503  0.2971
 4997SOL     OW26452   2.963   4.667  17.348 -0.3607  0.1219  0.1152
 4997SOL    HW126453   2.957   0.039  17.347 -1.8574  0.0146 -0.0967
 4997SOL    HW226454   3.046   4.650  17.304  1.1871 -0.0369  3.0999
 4998SOL     OW26455   0.783   2.554  15.703 -0.2038  0.4144  0.4076
 4998SOL    HW126456   0.749   2.636  15.739 -1.7459 -1.0160  2.2482
 4998SOL    HW226457   0.700   2.524  15.664  0.1616  0.1277 -0.1554
 4999SOL     OW26458   4.334   2.913  11.318 -0.5311 -0.0144  0.6080
 4999SOL    HW126459   4.402   2.978  11.300  1.0732 -2.0880 -0.7114
 4999SOL    HW226460   4.248   2.951  11.299 -0.1544 -0.4873 -2.0040
 5000SOL     OW26461   2.390   4.382   3.586  0.4675 -0.4344  0.1381
 5000SOL    HW126462   2.336   4.303   3.594 -1.0044  0.4305 -1.3090
 5000SOL    HW226463   2.335   4.444   3.539  1.8299  1.0076  0.4625
 5001SOL     OW26464   4.318   4.345  17.658 -0.1594  0.3140 -0.0864
 5001SOL    HW126465   4.377   4.381  17.593 -0.1257 -0.7230 -0.6192
 5001SOL    HW226466   4.315   4.411   0.029  1.5856 -2.4748  2.6584
 5002SOL     OW26467   0.799   1.621  14.488  0.5033  0.3622  0.0123
 5002SOL    HW126468   0.836   1.581  14.409  0.2931  0.9688 -0.3886
 5002SOL    HW226469   0.834   1.566  14.558 -1.2386  0.1096  0.6996
 5003SOL     OW26470   1.656   4.569   8.893  0.0751  0.2306  0.5348
 5003SOL    HW126471   1.702   4.623   8.828 -2.7925  3.4283  1.1433
 5003SOL    HW226472   1.720   4.501   8.915 -1.3062 -1.5004 -0.7458
 5004SOL     OW26473   0.748   4.626   2.887 -0.5639 -0.2496  0.6598
 5004SOL    HW126474   0.721   4.630   2.979 -0.5094 -2.1461  0.7574
 5004SOL    HW226475   0.770   4.718   2.871 -1.0445 -0.2932 -0.2566
 5005SOL     OW26476   2.826   2.255  15.202  0.2373  0.3667  0.1831
 5005SOL    HW126477   2.781   2.334  15.171 -0.7323 -0.7689 -1.3446
 5005SOL    HW226478   2.914   2.287  15.184  0.3465 -0.3256 -0.4965
 5006SOL     OW26479   0.038   0.201  14.753 -0.1042 -0.1809  0.1348
 5006SOL    HW126480   0.104   0.146  14.795 -0.4272  1.0502  2.2634
 5006SOL    HW226481   4.713   0.138  14.700  1.9033 -0.8916 -0.8682
 5007SOL     OW26482   4.130   1.490   8.055 -0.3279  1.4442 -0.4093
 5007SOL    HW126483   4.148   1.583   8.043  1.4323  0.8070 -2.5541
 5007SOL    HW226484   4.186   1.470   8.130  0.5863  0.8468 -1.2547
 5008SOL     OW26485   4.640   2.302   9.125 -0.1371 -0.2307 -0.0066
 5008SOL    HW126486   4.639   2.209   9.102  0.2494 -0.1470 -0.3682
 5008SOL    HW226487   4.679   2.302   9.212  0.6331 -0.1493 -0.3442
 5009SOL     OW26488   0.604   0.520  12.581 -0.4031  0.0224  0.0958
 5009SOL    HW126489   0.567   0.510  12.669  1.6635  0.9368  1.0577
 5009SOL    HW226490   0.691   0.543  12.614  0.1660 -3.6959  1.2075
 5010SOL     OW26491   4.065   0.733   8.055  0.7412  0.3228  0.2959
 5010SOL    HW126492   4.016   0.773   7.983 -1.5760  0.9813  2.2165
 5010SOL    HW226493   4.011   0.657   8.074  0.3970 -0.2804 -3.0711
 5011SOL     OW26494   1.481   0.103   5.502  0.3873 -0.1424 -0.7287
 5011SOL    HW126495   1.527   0.186   5.486  0.0818  0.2807  0.6568
 5011SOL    HW226496   1.424   0.102   5.425 -0.3987  0.6588 -0.1488
 5012SOL     OW26497   1.514   1.764   6.320  0.4106  0.0928  0.4018
 5012SOL    HW126498   1.560   1.816   6.385  1.0198 -0.8818  0.7545
 5012SOL    HW226499   1.431   1.742   6.364  0.5061  0.4220  0.7402
 5013SOL     OW26500   2.277   2.765   7.717 -0.2736 -0.3717  0.3584
 5013SOL    HW126501   2.307   2.713   7.642  0.4590  2.0346 -1.0328
 5013SOL    HW226502   2.354   2.789   7.768  0.5514 -1.0558 -0.5476
 5014SOL     OW26503   3.870   0.159   3.854 -0.1947 -0.0744  0.1437
 5014SOL    HW126504   3.825   0.131   3.774 -1.0844  1.1539  0.2205
 5014SOL    HW226505   3.935   0.224   3.826 -0.4400 -0.0761 -0.4295
 5015SOL     OW26506   3.711   3.297   7.311  0.1230  0.2203  0.2619
 5015SOL    HW126507   3.752   3.371   7.266 -0.9303  0.3992 -0.3929
 5015SOL    HW226508   3.778   3.263   7.370 -0.2709 -2.6588 -0.9491
 5016SOL     OW26509   4.094   3.690   7.221 -0.5709 -0.1632  0.7516
 5016SOL    HW126510   4.124   3.631   7.153 -3.0544 -0.5346 -0.0220
 5016SOL    HW226511   4.178   3.728   7.248  0.8306 -1.4854 -1.7579
 5017SOL     OW26512   1.532   4.059   5.252  0.2977 -0.9683  0.3806
 5017SOL    HW126513   1.534   4.153   5.273  0.9723 -0.8828 -0.0630
 5017SOL    HW226514   1.456   4.034   5.304  0.3299 -2.9862 -0.5665
 5018SOL     OW26515   2.963   0.659   4.246 -0.1908  0.4172  0.4549
 5018SOL    HW126516   2.897   0.711   4.292 -0.2352  0.9335 -0.1887
 5018SOL    HW226517   3.017   0.643   4.323 -0.9712 -1.7912  0.5621
 5019SOL     OW26518   2.230   2.131  10.409 -0.4516  0.1266  0.1106
 5019SOL    HW126519   2.163   2.146  10.342 -3.4784 -1.4491  2.8296
 5019SOL    HW226520   2.181   2.135  10.491 -0.6710  1.2203 -0.0750
 5020SOL     OW26521   2.607   0.807   2.822  0.5673 -0.5722  0.5025
 5020SOL    HW126522   2.669   0.741   2.790 -0.6627 -3.0312  3.1170
 5020SOL    HW226523   2.564   0.762   2.896  0.0274 -2.3471 -0.8879
 5021SOL     OW26524   2.236   0.088   9.857  0.6674  0.1498 -0.0769
 5021SOL    HW126525   2.331   0.077   9.851  0.5601 -0.0488 -1.3273
 5021SOL    HW226526   2.229   0.164   9.915  0.6668 -0.7855  1.1504
 5022SOL     OW26527   3.651   1.939   5.311 -0.4582  0.1308  0.1174
 5022SOL    HW126528   3.676   1.851   5.339  1.4106  0.8021  0.5057
 5022SOL    HW226529   3.636   1.981   5.395 -1.5766 -0.2741  0.1210
 5023SOL     OW26530   1.878   2.272   0.453  0.1917  0.3826  0.3751
 5023SOL    HW126531   1.969   2.256   0.427 -0.7190 -2.2999 -1.2333
 5023SOL    HW226532   1.880   2.365   0.475 -1.1272  0.5603 -0.2691
 5024SOL     OW26533   1.214   1.852   4.272 -0.6014 -0.3905  0.2718
 5024SOL    HW126534   1.292   1.905   4.256 -0.4766 -0.0678  1.9544
 5024SOL    HW226535   1.193   1.836   4.180 -4.4601  0.8554  0.9493
 5025SOL     OW26536   2.167   1.967  14.775 -0.6637  0.8786 -0.4595
 5025SOL    HW126537   2.147   1.992  14.684  2.3267  0.6746 -1.1738
 5025SOL    HW226538   2.091   1.919  14.807  0.3307 -0.8425 -0.6970
 5026SOL     OW26539   1.149   0.213  17.423  0.4122 -0.2683 -0.1652
 5026SOL    HW126540   1.231   0.167  17.442  0.8913  0.5490 -0.2326
 5026SOL    HW226541   1.109   0.218  17.510 -1.2269  1.1437 -1.0032
 5027SOL     OW26542   3.299   3.319  11.774 -0.2646 -0.4345  0.1141
 5027SOL    HW126543   3.325   3.292  11.686  1.2486 -0.7130  0.6484
 5027SOL    HW226544   3.386   3.325  11.814  0.0003  0.8385 -0.6516
 5028SOL     OW26545   2.111   1.715  12.137  0.4116 -0.0064 -0.2191
 5028SOL    HW126546   2.033   1.712  12.082 -0.8408 -1.3533  1.6294
 5028SOL    HW226547   2.097   1.633  12.185 -3.6107 -0.4006 -2.1382
 5029SOL     OW26548   4.438   0.972   7.384 -0.2488 -0.2647  0.4349
 5029SOL    HW126549   4.482   0.911   7.444  1.0775  0.2248 -0.0428
 5029SOL    HW226550   4.480   1.057   7.390  1.1682 -1.0168  1.1376
 5030SOL     OW26551   0.668   2.216  12.376 -0.4318  0.6741 -0.5168
 5030SOL    HW126552   0.663   2.214  12.472 -2.5264 -0.0870 -0.6588
 5030SOL    HW226553   0.619   2.298  12.366  1.9329  2.1122 -0.4790
 5031SOL     OW26554   3.525   2.521   9.068  0.0899 -0.3068  0.3352
 5031SOL    HW126555   3.487   2.584   9.006 -0.6128 -2.6109 -1.5820
 5031SOL    HW226556   3.455   2.532   9.133 -0.3355 -0.9307 -0.0166
 5032SOL     OW26557   2.382   4.033   9.112 -0.1048 -0.2013  0.2221
 5032SOL    HW126558   2.319   4.000   9.176 -0.3012  0.3239  0.3025
 5032SOL    HW226559   2.391   3.958   9.054 -2.8534  0.9820 -1.7062
 5033SOL     OW26560   0.424   2.584   4.597 -0.3223  0.2016 -0.1358
 5033SOL    HW126561   0.408   2.506   4.543 -1.0434  0.2779 -0.0330
 5033SOL    HW226562   0.338   2.582   4.639 -1.0243 -2.0280 -1.6624
 5034SOL     OW26563   1.149   4.290   1.966  0.6544  0.2211  0.3341
 5034SOL    HW126564   1.144   4.236   2.045 -0.0085  0.6916  0.6103
 5034SOL    HW226565   1.087   4.242   1.910  1.4358 -0.9437  0.4707
 5035SOL     OW26566   0.032   1.826   7.865  0.2202  0.6093  0.7149
 5035SOL    HW126567   0.111   1.880   7.870  2.0805 -1.8887 -1.2075
 5035SOL    HW226568   0.054   1.757   7.929  0.9440  1.8921  1.8449
 5036SOL     OW26569   3.422   3.176  10.513 -0.4160  0.1297  0.3578
 5036SOL    HW126570   3.363   3.214  10.448 -0.8543 -0.0385  0.6472
 5036SOL    HW226571   3.498   3.232  10.503  0.2409 -1.4440 -3.2724
 5037SOL     OW26572   2.125   2.830   6.513  0.4436 -0.1144 -0.4704
 5037SOL    HW126573   2.200   2.771   6.511  0.9051  0.5817 -3.6020
 5037SOL    HW226574   2.160   2.913   6.481 -0.5562  0.3310 -0.4263
 5038SOL     OW26575   2.514   0.191  13.217 -0.1961  0.2781 -0.7544
 5038SOL    HW126576   2.579   0.260  13.211  1.6961 -1.5021 -0.7766
 5038SOL    HW226577   2.436   0.242  13.195 -0.3329  0.3818 -0.0253
 5039SOL     OW26578   2.337   1.730   2.021  0.6082  0.3295 -0.0189
 5039SOL    HW126579   2.429   1.744   2.001  1.3886 -0.7743  2.7195
 5039SOL    HW226580   2.311   1.822   2.026  2.6953  0.8591  1.3187
 5040SOL     OW26581   1.590   4.395   7.769  0.1438 -0.2801 -0.0687
 5040SOL    HW126582   1.512   4.360   7.813  0.7073  1.8532  2.6753
 5040SOL    HW226583   1.641   4.315   7.758  1.6151  0.4385  1.4750
 5041SOL     OW26584   2.661   4.580   2.746  0.5786 -0.3144 -0.3844
 5041SOL    HW126585   2.629   4.671   2.750 -1.5778 -1.1966  2.3762
 5041SOL    HW226586   2.581   4.541   2.782  0.0318  1.4624  0.3793
 5042SOL     OW26587   2.509   2.038   8.572 -0.2041  0.1087  0.6656
 5042SOL    HW126588   2.424   1.998   8.592 -0.6076 -0.5126 -2.2832
 5042SOL    HW226589   2.551   2.046   8.658 -1.3193 -0.4110  1.2580
 5043SOL     OW26590   3.558   2.218   7.849  0.1736  0.7661 -0.1619
 5043SOL    HW126591   3.593   2.232   7.937  0.3047  0.0980 -0.1083
 5043SOL    HW226592   3.512   2.134   7.853  1.8321 -0.0453  1.4530
 5044SOL     OW26593   2.844   0.247   0.164 -0.4993 -0.6750 -0.3037
 5044SOL    HW126594   2.774   0.191   0.198 -1.8727  0.7873 -0.6849
 5044SOL    HW226595   2.912   0.212   0.221  1.9883 -1.1157 -3.5112
 5045SOL     OW26596   1.739   2.421   4.250 -0.9192  0.8594  0.1060
 5045SOL    HW126597   1.666   2.379   4.297 -0.5734 -0.0376 -0.1639
 5045SOL    HW226598   1.755   2.352   4.186  3.2552  2.6448 -0.7332
 5046SOL     OW26599   1.537   3.071  12.215  0.1741 -0.3148 -0.7185
 5046SOL    HW126600   1.488   2.997  12.252 -0.6726  0.1477 -0.9273
 5046SOL    HW226601   1.540   3.132  12.288  1.0653  1.2499 -2.0618
 5047SOL     OW26602   3.697   2.679  12.780 -0.0294 -0.7001  0.0942
 5047SOL    HW126603   3.660   2.687  12.867 -0.2207  1.7929 -0.2250
 5047SOL    HW226604   3.775   2.625  12.793  0.1439 -0.4821 -0.0350
 5048SOL     OW26605   4.478   1.966  12.621  0.5089  0.0525  0.5127
 5048SOL    HW126606   4.435   1.939  12.540  0.0664 -0.0601  0.7839
 5048SOL    HW226607   4.433   1.919  12.691  1.3043 -2.4313 -0.6603
 5049SOL     OW26608   0.336   2.085   1.563 -0.2704 -0.2248  0.3891
 5049SOL    HW126609   0.356   2.002   1.607 -0.6840  0.2832  1.5271
 5049SOL    HW226610   0.290   2.055   1.484 -1.0851  2.1693 -0.0351
 5050SOL     OW26611   4.714   2.484   2.222  0.2094 -0.3134  0.3444
 5050SOL    HW126612   0.022   2.541   2.292  1.4958  0.9842 -1.2791
 5050SOL    HW226613   4.649   2.543   2.184  2.1140  1.5163 -0.0518
 5051SOL     OW26614   2.340   2.587  17.322 -0.2031 -0.3374 -0.4602
 5051SOL    HW126615   2.326   2.599  17.228 -1.4416 -0.8727 -0.3340
 5051SOL    HW226616   2.388   2.504  17.317  1.6241  0.6887 -0.0998
 5052SOL     OW26617   0.969   2.361   3.880  0.0423 -0.2897 -0.0214
 5052SOL    HW126618   0.947   2.380   3.971 -0.9047  0.4361 -0.3953
 5052SOL    HW226619   0.882   2.369   3.841 -1.5809 -1.6755  3.2937
 5053SOL     OW26620   2.694   1.281  17.274 -0.2649 -0.0374  0.3461
 5053SOL    HW126621   2.706   1.202  17.327  0.6137 -0.0762  0.0959
 5053SOL    HW226622   2.682   1.336  17.352 -2.7430  1.6300 -1.2366
 5054SOL     OW26623   1.887   4.686   1.866 -0.4245 -0.5191 -0.0255
 5054SOL    HW126624   1.945   4.682   1.789  1.0387 -0.5690  1.0723
 5054SOL    HW226625   1.924   0.037   1.913 -0.4410 -0.9202  0.6214
 5055SOL     OW26626   2.699   2.518   4.702  0.1174 -0.0705 -0.2613
 5055SOL    HW126627   2.675   2.588   4.762  1.7395 -1.2624  1.8032
 5055SOL    HW226628   2.692   2.557   4.616 -0.7632  2.5066  0.9913
 5056SOL     OW26629   2.408   2.265  16.075  0.1178 -0.3535  0.2771
 5056SOL    HW126630   2.323   2.240  16.038  0.3398  0.8281 -1.0354
 5056SOL    HW226631   2.376   2.306  16.156  2.9784  3.2970 -0.4725
 5057SOL     OW26632   1.295   3.580   9.143  0.7721  0.4025 -0.3741
 5057SOL    HW126633   1.273   3.503   9.090 -2.1737  0.8501  0.2495
 5057SOL    HW226634   1.356   3.540   9.205 -0.4686 -0.3973  0.3174
 5058SOL     OW26635   3.009   3.851   7.451 -0.2507 -0.0794  0.0829
 5058SOL    HW126636   3.026   3.888   7.365 -2.7211  0.8241 -0.0405
 5058SOL    HW226637   3.022   3.926   7.509 -0.3250 -0.6496  0.8411
 5059SOL     OW26638   4.171   4.450  17.402 -0.6022 -0.8143  0.3143
 5059SOL    HW126639   4.253   4.498  17.409 -0.9245 -0.1000 -0.7828
 5059SOL    HW226640   4.196   4.365  17.438 -0.5271 -0.6067  0.7519
 5060SOL     OW26641   4.273   0.215   6.106 -0.3288 -0.2263  0.0550
 5060SOL    HW126642   4.362   0.220   6.142  0.4169 -1.2667 -1.6351
 5060SOL    HW226643   4.287   0.278   6.035  1.7694 -1.6862 -0.8337
 5061SOL     OW26644   2.895   0.976   7.555 -0.3051  0.2953  0.0645
 5061SOL    HW126645   2.834   1.049   7.554 -1.1525 -0.4486 -1.1061
 5061SOL    HW226646   2.980   1.020   7.561 -0.2951  0.2192  0.5456
 5062SOL     OW26647   2.357   0.695   7.961 -0.1082  0.7387  0.4379
 5062SOL    HW126648   2.434   0.639   7.958 -1.8070 -1.6005  1.1030
 5062SOL    HW226649   2.324   0.685   8.050  2.5699 -0.4454  1.2939
 5063SOL     OW26650   3.221   4.168   5.555  0.1030 -0.4660 -0.3146
 5063SOL    HW126651   3.260   4.119   5.482 -0.4018 -1.6367  0.2048
 5063SOL    HW226652   3.295   4.207   5.602 -1.9331  1.0580  1.6009
 5064SOL     OW26653   1.118   0.727   2.706 -0.2499  0.2669  0.0876
 5064SOL    HW126654   1.058   0.732   2.632  0.1493  2.4335 -0.0982
 5064SOL    HW226655   1.075   0.651   2.746 -0.6034  0.9307  0.9636
 5065SOL     OW26656   1.442   3.572  11.113 -0.8055  0.4011  0.3450
 5065SOL    HW126657   1.381   3.645  11.124 -1.1231 -0.0913  1.8940
 5065SOL    HW226658   1.394   3.501  11.071 -0.9298 -0.3494  1.7416
 5066SOL     OW26659   3.335   0.264   9.483 -0.5338 -0.1782  0.1339
 5066SOL    HW126660   3.285   0.193   9.525 -0.3622 -1.0839 -1.1752
 5066SOL    HW226661   3.274   0.317   9.432  0.3578 -0.6651 -1.4473
 5067SOL     OW26662   3.645   4.104   5.290  0.6883  0.4812  0.1147
 5067SOL    HW126663   3.708   4.031   5.284 -1.0281 -0.8700 -1.5227
 5067SOL    HW226664   3.703   4.166   5.246  1.9462 -1.2235 -0.6390
 5068SOL     OW26665   0.063   0.109  16.919  0.0266 -0.0321  0.3300
 5068SOL    HW126666   0.011   0.163  16.978 -0.4268 -0.6115  0.4591
 5068SOL    HW226667   0.040   0.143  16.832  1.4878 -0.7860 -0.3514
 5069SOL     OW26668   1.043   1.779   7.288 -0.1806  0.1631  0.4788
 5069SOL    HW126669   0.966   1.835   7.295 -1.0905 -1.2946  2.2868
 5069SOL    HW226670   0.998   1.697   7.311  1.6740 -0.9980 -0.0858
 5070SOL     OW26671   3.838   0.269   4.463  0.1335 -0.0357  0.0735
 5070SOL    HW126672   3.892   0.271   4.542  1.0924 -2.7051 -0.5167
 5070SOL    HW226673   3.817   0.362   4.449  0.7049 -0.1201 -1.3425
 5071SOL     OW26674   0.122   2.034   9.276 -0.0314 -0.4078  0.0327
 5071SOL    HW126675   0.028   2.033   9.258  0.2480 -0.7753 -1.4055
 5071SOL    HW226676   0.124   2.024   9.371  0.3317  3.5971  0.4464
 5072SOL     OW26677   3.928   2.557   2.897  0.3945  0.2215 -0.1409
 5072SOL    HW126678   3.889   2.483   2.944  0.6762  1.5945  2.2373
 5072SOL    HW226679   3.888   2.550   2.811  1.6234 -1.2294 -0.5980
 5073SOL     OW26680   1.397   4.049   7.957 -0.8742  0.0233  0.3033
 5073SOL    HW126681   1.467   4.019   7.899 -2.0490  0.5845 -1.4237
 5073SOL    HW226682   1.443   4.037   8.040  0.0633 -1.2848 -0.4022
 5074SOL     OW26683   3.900   1.917  14.954  0.4302 -0.2571  0.1575
 5074SOL    HW126684   3.939   1.979  14.892 -0.6838  2.2368  1.9875
 5074SOL    HW226685   3.850   1.975  15.010  1.5289  0.8306 -0.0055
 5075SOL     OW26686   2.845   4.626   0.387 -0.2865 -0.0871  0.0135
 5075SOL    HW126687   2.859   4.609   0.480  0.0858  0.7237  0.1122
 5075SOL    HW226688   2.799   4.710   0.392  4.0687  2.3763 -0.8319
 5076SOL     OW26689   4.227   1.780   5.169  0.1301  0.3047  0.1955
 5076SOL    HW126690   4.190   1.803   5.254  1.3226  1.0355  0.5113
 5076SOL    HW226691   4.153   1.801   5.111  1.4658 -1.3875 -2.1200
 5077SOL     OW26692   4.472   4.082  12.090 -0.4149  0.0790  0.9317
 5077SOL    HW126693   4.447   4.118  12.175  1.7770  2.9648  0.3380
 5077SOL    HW226694   4.398   4.102  12.033  0.2278 -1.4900 -0.4767
 5078SOL     OW26695   2.309   4.074   4.092 -0.0594  0.2586  0.0844
 5078SOL    HW126696   2.335   4.105   4.179  0.9531 -1.4185  0.3860
 5078SOL    HW226697   2.220   4.049   4.118 -0.0954  0.4664  0.1613
 5079SOL     OW26698   2.006   1.895   8.615 -0.2536  0.7591 -0.0320
 5079SOL    HW126699   1.992   1.812   8.570 -0.4800 -0.5285  2.4024
 5079SOL    HW226700   1.946   1.897   8.689 -0.4804  0.8248 -0.2176
 5080SOL     OW26701   1.852   0.532   2.661 -0.4360  0.0813  0.1066
 5080SOL    HW126702   1.845   0.492   2.574  1.0600 -1.0093  0.4837
 5080SOL    HW226703   1.892   0.456   2.704 -1.3334  0.6243  1.9019
 5081SOL     OW26704   1.028   2.555  11.293 -0.0279  0.5693  0.5749
 5081SOL    HW126705   1.111   2.599  11.276  1.6397 -2.3360  1.3860
 5081SOL    HW226706   1.000   2.615  11.363 -0.8319  1.2084 -0.2853
 5082SOL     OW26707   3.187   4.082   9.161 -0.3724  0.2132 -0.0017
 5082SOL    HW126708   3.157   4.067   9.251 -0.6538 -0.1429 -0.1523
 5082SOL    HW226709   3.258   4.142   9.181  0.2914  0.3151 -2.5953
 5083SOL     OW26710   3.786   1.694   5.332  0.3357 -0.2345  0.0222
 5083SOL    HW126711   3.833   1.660   5.256 -0.7232 -0.7384 -0.4099
 5083SOL    HW226712   3.724   1.622   5.342 -0.8572  0.6580 -0.8651
 5084SOL     OW26713   2.081   4.381  10.584 -0.3195 -0.0734  0.0172
 5084SOL    HW126714   2.058   4.458  10.636  0.8922  0.9740 -0.9895
 5084SOL    HW226715   2.170   4.366  10.617 -0.0894  1.8656  0.2954
 5085SOL     OW26716   2.100   2.593   5.530 -0.2488  1.1267 -0.2787
 5085SOL    HW126717   2.131   2.683   5.531  0.4139  0.8976 -0.2764
 5085SOL    HW226718   2.078   2.586   5.623  1.3760 -0.6250 -0.0369
 5086SOL     OW26719   2.815   1.397  10.215 -0.6711 -0.7824  0.1470
 5086SOL    HW126720   2.748   1.419  10.279 -0.5277 -0.2446  0.1112
 5086SOL    HW226721   2.881   1.358  10.273 -1.0901  0.5046  1.4838
 5087SOL     OW26722   4.429   2.368  15.410  0.1637  0.4151  1.0816
 5087SOL    HW126723   4.334   2.362  15.397  0.3222 -1.8810  0.9729
 5087SOL    HW226724   4.452   2.278  15.387 -2.6914 -0.3523  1.2415
 5088SOL     OW26725   4.435   3.450   6.498 -0.2443  0.0160  0.1547
 5088SOL    HW126726   4.493   3.504   6.445  0.0391 -0.1629  0.2771
 5088SOL    HW226727   4.469   3.360   6.495 -0.2182  0.0432 -0.2942
 5089SOL     OW26728   1.093   3.583   5.207  0.0657 -0.2238  0.1458
 5089SOL    HW126729   1.158   3.542   5.149 -1.2490 -0.8932 -0.8603
 5089SOL    HW226730   1.110   3.536   5.289  0.6258  0.3151  0.3331
 5090SOL     OW26731   1.415   2.068  10.545 -0.2133  0.3250 -0.4120
 5090SOL    HW126732   1.348   2.136  10.536  0.0171  0.5885 -0.1522
 5090SOL    HW226733   1.449   2.072  10.455  1.1276 -1.7061  0.0106
 5091SOL     OW26734   0.294   3.924   8.322  0.5700 -0.3353 -0.3834
 5091SOL    HW126735   0.284   4.012   8.286  1.0000  0.5048  1.5728
 5091SOL    HW226736   0.250   3.937   8.406  0.3399 -0.2225 -0.5219
 5092SOL     OW26737   0.486   1.765   8.551  0.8720 -0.0345 -0.1116
 5092SOL    HW126738   0.408   1.747   8.498  1.2089 -0.8482 -0.3407
 5092SOL    HW226739   0.556   1.747   8.488  0.0057 -1.6372 -0.6401
 5093SOL     OW26740   3.356   3.806   7.351  0.2126 -0.4738 -0.1841
 5093SOL    HW126741   3.325   3.843   7.268  0.7489 -1.1900 -0.7061
 5093SOL    HW226742   3.309   3.857   7.417  0.3915 -1.9503  1.0955
 5094SOL     OW26743   0.623   2.751   4.734 -0.2824  0.2886  0.2736
 5094SOL    HW126744   0.597   2.684   4.671  0.1711 -0.1864  0.5913
 5094SOL    HW226745   0.555   2.755   4.802  1.1792  0.0224  1.7548
 5095SOL     OW26746   0.513   2.730   1.583 -0.1929 -0.1507 -0.1094
 5095SOL    HW126747   0.526   2.652   1.638 -0.9178  0.4759  0.9511
 5095SOL    HW226748   0.445   2.691   1.528 -0.8727 -1.2694  1.5347
 5096SOL     OW26749   1.393   0.994   9.358  0.0538  0.7766  0.3433
 5096SOL    HW126750   1.395   0.964   9.449  0.7551 -0.6336 -0.1332
 5096SOL    HW226751   1.438   0.925   9.309  0.5072  1.6602 -0.4801
 5097SOL     OW26752   4.171   2.914   5.328  0.2773  0.0667 -0.2244
 5097SOL    HW126753   4.087   2.879   5.298  1.0380 -1.6900 -0.2741
 5097SOL    HW226754   4.218   2.908   5.245 -2.2996 -0.9697 -1.6313
 5098SOL     OW26755   1.393   0.945  13.110 -0.0896  0.1157  0.3809
 5098SOL    HW126756   1.399   0.850  13.096  0.6341  0.3746 -1.0589
 5098SOL    HW226757   1.303   0.944  13.077  0.6265  0.3878 -1.5769
 5099SOL     OW26758   0.610   1.686   2.475 -0.0813  0.9150 -0.6394
 5099SOL    HW126759   0.666   1.617   2.441  1.2187  2.1841 -1.0996
 5099SOL    HW226760   0.554   1.704   2.398 -0.8603 -2.7616 -0.9066
 5100SOL     OW26761   3.062   1.461   1.323 -0.5087 -0.3146  0.0873
 5100SOL    HW126762   3.140   1.510   1.347  0.3999 -2.4386  1.4634
 5100SOL    HW226763   3.055   1.394   1.390 -0.8498  0.9939  1.3612
 5101SOL     OW26764   3.430   2.992   1.257  0.3043 -0.2489  1.0129
 5101SOL    HW126765   3.345   2.975   1.216  1.1840 -1.1445 -0.4168
 5101SOL    HW226766   3.484   2.994   1.177  0.7963  0.2476  1.3582
 5102SOL     OW26767   2.977   4.412   0.602  0.1683  0.3474 -0.6576
 5102SOL    HW126768   2.933   4.495   0.622  1.3391  0.1314  2.8247
 5102SOL    HW226769   3.052   4.418   0.661 -0.9693 -3.5969  1.1918
 5103SOL     OW26770   4.555   4.413   5.803 -0.1198  0.0904 -0.1604
 5103SOL    HW126771   4.479   4.356   5.800 -0.9300  1.2579 -1.8436
 5103SOL    HW226772   4.513   4.499   5.796 -0.9988 -0.2717  0.6423
 5104SOL     OW26773   0.017   2.014  12.665  0.0694 -0.3050  0.4390
 5104SOL    HW126774   4.652   1.988  12.641 -0.2729 -0.0496  1.4231
 5104SOL    HW226775   0.008   2.066  12.745 -2.7626  0.8307 -0.6370
 5105SOL     OW26776   0.976   3.821   5.147  0.4152 -0.1719 -0.2341
 5105SOL    HW126777   1.013   3.738   5.179  0.3196 -0.7006 -1.4913
 5105SOL    HW226778   0.946   3.790   5.061  1.2349  1.0604 -0.9601
 5106SOL     OW26779   0.058   0.514   9.993  0.4357 -0.1989 -0.2133
 5106SOL    HW126780   0.081   0.421  10.004  3.1552  0.5351  0.4779
 5106SOL    HW226781   0.137   0.548  10.034  1.1070 -0.8037 -0.9786
 5107SOL     OW26782   1.836   4.367  15.106 -0.7069  0.3677 -0.3074
 5107SOL    HW126783   1.795   4.453  15.112  1.0365  1.1802 -0.1418
 5107SOL    HW226784   1.909   4.379  15.166 -0.7771  3.7623 -0.9076
 5108SOL     OW26785   1.605   4.292   7.445 -0.0197  0.2215  0.3789
 5108SOL    HW126786   1.550   4.315   7.369 -0.0021  0.6732  0.5013
 5108SOL    HW226787   1.536   4.241   7.487 -0.9492 -0.0918 -1.5379
 5109SOL     OW26788   2.073   0.576   3.784 -0.6815 -0.1472 -0.0202
 5109SOL    HW126789   2.030   0.612   3.861  1.4215 -0.2251  1.2058
 5109SOL    HW226790   2.140   0.521   3.825 -1.4418 -1.9772 -1.2090
 5110SOL     OW26791   2.544   3.227   8.691 -0.3808  0.3769 -0.0097
 5110SOL    HW126792   2.470   3.183   8.733 -0.4750  0.8834  0.3472
 5110SOL    HW226793   2.522   3.319   8.705  1.1293  0.9011 -1.1497
 5111SOL     OW26794   4.174   4.642   2.020  0.5966  0.6357  0.0775
 5111SOL    HW126795   4.228   4.697   1.962  0.8880 -1.1982 -1.3871
 5111SOL    HW226796   4.097   4.631   1.965  1.2201  1.1426 -0.9077
 5112SOL     OW26797   0.290   3.790   8.014  0.2475  0.1467  0.0285
 5112SOL    HW126798   0.324   3.701   8.009  1.3049  0.3981  2.5877
 5112SOL    HW226799   0.249   3.786   8.101 -3.0325  0.6985 -1.4710
 5113SOL     OW26800   0.458   0.064   9.877  0.1820  0.1691  0.7653
 5113SOL    HW126801   0.554   0.062   9.882  0.0581 -1.8153  2.4364
 5113SOL    HW226802   0.430   0.068   9.968  1.1391  1.0309  1.0275
 5114SOL     OW26803   0.605   1.141  17.547 -0.0762  0.1596  0.1373
 5114SOL    HW126804   0.538   1.076  17.570  2.0302 -1.6510  1.2057
 5114SOL    HW226805   0.659   1.089  17.488 -0.0278 -0.6319  0.8701
 5115SOL     OW26806   3.588   2.442   3.461 -0.0720 -0.3469 -0.0072
 5115SOL    HW126807   3.492   2.443   3.463 -0.0416  2.8261  1.1617
 5115SOL    HW226808   3.608   2.479   3.547  2.0407  0.3791 -0.8278
 5116SOL     OW26809   4.110   1.830  12.645 -0.4339  0.4011  0.2604
 5116SOL    HW126810   4.134   1.781  12.724 -0.8457  0.0885  0.1867
 5116SOL    HW226811   4.120   1.916  12.686 -0.8920  0.4374  0.2900
 5117SOL     OW26812   1.866   1.798   5.298 -0.5077  0.2440 -0.2529
 5117SOL    HW126813   1.839   1.742   5.371  1.7577 -1.3709 -0.6759
 5117SOL    HW226814   1.824   1.883   5.313 -0.6354  0.3824 -1.4077
 5118SOL     OW26815   1.281   1.726   1.565  0.1558 -0.2733  0.4788
 5118SOL    HW126816   1.215   1.694   1.627 -0.8789  2.6795  0.9285
 5118SOL    HW226817   1.337   1.649   1.558 -0.4328 -0.6096 -0.5888
 5119SOL     OW26818   4.230   1.810   1.978  0.3259  0.5560  0.4086
 5119SOL    HW126819   4.188   1.820   1.892  1.5335  0.5940 -0.1698
 5119SOL    HW226820   4.267   1.898   1.988 -1.1673  0.9642  2.3534
 5120SOL     OW26821   3.856   4.193  10.047 -0.1974 -0.1311 -0.5440
 5120SOL    HW126822   3.772   4.156  10.019 -0.0748  0.1884 -1.3418
 5120SOL    HW226823   3.872   4.267   9.988 -0.8116 -0.8565 -1.6346
 5121SOL     OW26824   0.506   0.137   0.509  0.1424  0.3585 -0.6079
 5121SOL    HW126825   0.563   0.061   0.509 -2.0381 -1.2734 -0.9268
 5121SOL    HW226826   0.498   0.147   0.604  0.7800  1.2903 -0.6496
 5122SOL     OW26827   4.645   3.248   4.479 -0.2796  0.4579 -0.3158
 5122SOL    HW126828   4.633   3.296   4.397 -0.7782  1.6802  0.4770
 5122SOL    HW226829   4.581   3.289   4.536 -0.6353  1.0521 -1.1519
 5123SOL     OW26830   3.327   2.469   6.490  0.1012 -0.1469  0.1061
 5123SOL    HW126831   3.328   2.399   6.425  2.3875  0.4201 -0.4427
 5123SOL    HW226832   3.265   2.435   6.554 -0.8647 -0.4443 -0.9772
 5124SOL     OW26833   1.242   1.707   2.491  0.5010 -0.5092 -0.1495
 5124SOL    HW126834   1.270   1.750   2.572  1.0183  0.5722 -0.8945
 5124SOL    HW226835   1.216   1.620   2.522 -0.5794  0.2199  1.0026
 5125SOL     OW26836   0.082   0.640   7.823 -0.1424 -0.5781 -0.8286
 5125SOL    HW126837   4.718   0.607   7.804  0.7733 -3.2504 -0.4034
 5125SOL    HW226838   0.071   0.648   7.918 -0.8740  2.7388 -1.2004
 5126SOL     OW26839   2.085   2.092  10.944 -0.8218  0.2827 -0.3553
 5126SOL    HW126840   2.163   2.084  10.888 -0.1518  0.0508  0.6061
 5126SOL    HW226841   2.131   2.123  11.023 -0.8482  0.4840 -0.4182
 5127SOL     OW26842   0.978   0.846   8.251 -0.4177  0.1957  0.5115
 5127SOL    HW126843   0.979   0.940   8.271 -1.6627  0.4015 -0.4169
 5127SOL    HW226844   0.956   0.802   8.333 -1.0814 -0.1982  0.1215
 5128SOL     OW26845   2.387   1.737   3.068  0.0591 -0.0998 -0.0205
 5128SOL    HW126846   2.446   1.661   3.071  2.7977  1.9092 -2.4187
 5128SOL    HW226847   2.440   1.789   3.008 -0.5733 -0.8723 -1.2523
 5129SOL     OW26848   3.362   0.880   5.844  0.2742  0.3376  0.4403
 5129SOL    HW126849   3.428   0.950   5.844  0.3475  0.2729  0.1386
 5129SOL    HW226850   3.422   0.809   5.819  1.2203  0.6747  1.7722
 5130SOL     OW26851   1.589   0.176   6.341  0.2864 -0.3129 -0.1265
 5130SOL    HW126852   1.648   0.112   6.380  0.3807  0.5672  1.1688
 5130SOL    HW226853   1.616   0.254   6.391 -0.5896 -0.6623  0.9038
 5131SOL     OW26854   2.621   2.113   5.348 -0.3274 -0.2525  0.3573
 5131SOL    HW126855   2.553   2.086   5.286  1.8731  1.7396 -2.9645
 5131SOL    HW226856   2.564   2.119   5.424 -1.0566 -0.7678 -0.1588
 5132SOL     OW26857   4.095   1.203   3.789 -0.1415 -0.3916 -0.3147
 5132SOL    HW126858   4.129   1.161   3.710 -0.6756 -0.2434 -0.6209
 5132SOL    HW226859   4.138   1.288   3.778 -3.2408  1.0579 -1.0531
 5133SOL     OW26860   4.153   2.621  10.637 -0.1390 -0.4573 -0.4349
 5133SOL    HW126861   4.223   2.652  10.694  0.5282  1.2295 -2.1805
 5133SOL    HW226862   4.073   2.650  10.682 -0.1240  0.6774 -1.1281
 5134SOL     OW26863   2.896   2.982   3.520  0.3121 -0.0836 -0.4330
 5134SOL    HW126864   2.950   3.033   3.459 -1.5611  0.7928 -1.3766
 5134SOL    HW226865   2.949   2.977   3.599 -0.3839 -1.1862 -0.0455
 5135SOL     OW26866   2.359   1.266   7.686  0.2766  0.3725 -0.3268
 5135SOL    HW126867   2.405   1.290   7.606  1.5496 -0.3501  0.1744
 5135SOL    HW226868   2.271   1.293   7.661 -1.8081 -4.3353  2.0326
 5136SOL     OW26869   1.629   2.818   7.067  0.5429  0.7084 -0.2887
 5136SOL    HW126870   1.572   2.789   6.996 -0.6957 -0.1147  1.0121
 5136SOL    HW226871   1.574   2.784   7.138  1.4405  2.6839  1.3519
 5137SOL     OW26872   4.612   1.202   5.430  0.1817  0.1442 -0.0199
 5137SOL    HW126873   4.675   1.263   5.468 -0.4662 -0.3858  1.8885
 5137SOL    HW226874   4.654   1.171   5.349 -0.8274 -0.1761 -0.4217
 5138SOL     OW26875   2.556   0.332   8.669 -0.2126 -0.7372 -0.1821
 5138SOL    HW126876   2.520   0.337   8.758 -2.4690 -0.4401 -1.1389
 5138SOL    HW226877   2.651   0.340   8.680 -0.1399 -0.4102 -1.0580
 5139SOL     OW26878   4.176   1.758   8.046 -0.1815 -0.3610 -0.0514
 5139SOL    HW126879   4.203   1.765   7.954 -2.3284  1.3391 -0.5626
 5139SOL    HW226880   4.206   1.841   8.083  1.1215 -0.1969 -1.4935
 5140SOL     OW26881   2.632   0.510   5.115  0.7081  0.0951  0.0438
 5140SOL    HW126882   2.599   0.420   5.107 -1.6788  0.9268  0.6469
 5140SOL    HW226883   2.655   0.512   5.208  1.2275 -0.9089 -0.0621
 5141SOL     OW26884   0.447   1.359   0.550 -0.9381 -0.1747 -0.0365
 5141SOL    HW126885   0.514   1.361   0.483 -0.5699 -0.4320  0.3234
 5141SOL    HW226886   0.511   1.347   0.621  1.4486 -0.6052 -2.2919
 5142SOL     OW26887   1.934   0.288  10.419 -0.0180 -0.3193  0.0856
 5142SOL    HW126888   1.895   0.364  10.462  2.2917  0.0834  1.4778
 5142SOL    HW226889   1.975   0.324  10.340  0.1497 -0.5552  0.0639
 5143SOL     OW26890   1.478   0.122   2.288 -0.8067  0.4556  0.3391
 5143SOL    HW126891   1.499   0.206   2.246  0.8401 -0.0683  0.1415
 5143SOL    HW226892   1.391   0.114   2.249 -1.1026 -1.7967  1.5072
 5144SOL     OW26893   2.795   0.924   5.351 -0.1798  0.3667  0.2586
 5144SOL    HW126894   2.838   0.848   5.390 -1.6677 -0.6691 -0.1260
 5144SOL    HW226895   2.872   0.966   5.313  0.3737  0.1761  1.1492
 5145SOL     OW26896   3.090   3.653   5.037  0.2583  0.1000 -0.1408
 5145SOL    HW126897   3.178   3.614   5.041 -0.2550 -1.0951 -0.4984
 5145SOL    HW226898   3.099   3.747   5.053  3.0523  0.4956 -3.8880
 5146SOL     OW26899   0.208   3.780  15.307 -0.5026  0.7026 -0.3356
 5146SOL    HW126900   0.287   3.826  15.335 -1.0317  0.8631  0.9140
 5146SOL    HW226901   0.159   3.770  15.389  0.2663  1.0358  0.1552
 5147SOL     OW26902   3.056   1.493   6.095  0.2387  0.0927  0.1793
 5147SOL    HW126903   3.074   1.493   6.001 -0.4321  1.1799  0.0510
 5147SOL    HW226904   3.145   1.520   6.119  0.5117 -0.6159 -0.0242
 5148SOL     OW26905   3.357   3.632   2.623  0.0533  1.0229  0.6006
 5148SOL    HW126906   3.442   3.655   2.661 -0.7450  1.7231  1.9357
 5148SOL    HW226907   3.383   3.602   2.536  0.1076  0.1574  0.9122
 5149SOL     OW26908   1.797   1.573  14.752 -0.3652  0.8091  0.3777
 5149SOL    HW126909   1.795   1.556  14.846 -0.8497 -0.1113  0.2086
 5149SOL    HW226910   1.789   1.486  14.713  2.7089 -0.0014  1.6464
 5150SOL     OW26911   4.387   0.533  15.408 -0.3135 -0.1351 -0.1166
 5150SOL    HW126912   4.427   0.504  15.490  0.2237  0.7158 -0.0833
 5150SOL    HW226913   4.459   0.584  15.372 -0.3592 -0.4723 -0.6917
 5151SOL     OW26914   4.149   1.140   8.038  0.1398  0.1941 -0.2523
 5151SOL    HW126915   4.101   1.064   8.071  0.3619 -1.4797 -3.8136
 5151SOL    HW226916   4.164   1.185   8.122 -0.4375 -0.1470  0.0382
 5152SOL     OW26917   4.708   3.915   9.002  0.2228 -0.3664  0.3133
 5152SOL    HW126918   4.645   3.977   9.040  0.3705 -1.2583  2.0323
 5152SOL    HW226919   0.012   3.874   9.084  0.7015 -0.8563 -0.0946
 5153SOL     OW26920   4.098   0.967   9.020 -0.0972  0.4300 -0.3435
 5153SOL    HW126921   4.087   0.973   8.925 -1.1594 -0.8946 -0.2948
 5153SOL    HW226922   4.191   0.989   9.012 -0.2630  1.1965 -0.1722
 5154SOL     OW26923   3.325   3.343   0.497 -0.4098  0.3711 -0.3736
 5154SOL    HW126924   3.367   3.428   0.511 -0.7828  0.2400  1.6107
 5154SOL    HW226925   3.384   3.276   0.532 -0.7062  1.0661  1.4373
 5155SOL     OW26926   2.828   0.724   9.236  0.7356  0.5003 -0.2948
 5155SOL    HW126927   2.767   0.653   9.252  1.5795  0.1986  1.5358
 5155SOL    HW226928   2.824   0.775   9.317  1.3899 -0.4868  0.3527
 5156SOL     OW26929   3.016   3.900   0.381  0.3070  0.5543 -0.5888
 5156SOL    HW126930   3.024   3.843   0.458 -0.4397  0.4646 -0.5744
 5156SOL    HW226931   3.007   3.984   0.426  0.5864  0.4193 -0.2807
 5157SOL     OW26932   0.799   3.929   2.014  0.2666 -0.0107  0.1268
 5157SOL    HW126933   0.804   4.023   2.028  1.0857  0.2489 -1.9427
 5157SOL    HW226934   0.714   3.917   1.972  0.7685 -0.2504 -0.8082
 5158SOL     OW26935   4.297   1.469  15.151  0.4803  0.2472 -0.1425
 5158SOL    HW126936   4.288   1.556  15.110  0.0523  0.5653  0.6142
 5158SOL    HW226937   4.231   1.418  15.104 -1.1743  1.8213  0.4467
 5159SOL     OW26938   2.509   0.646   9.806  0.3167 -0.3509  0.0435
 5159SOL    HW126939   2.444   0.644   9.876 -0.1408  0.4088 -0.3659
 5159SOL    HW226940   2.480   0.723   9.757  0.0591 -0.8504 -0.5941
 5160SOL     OW26941   3.038   4.621  11.134  0.3189 -0.1990  0.0107
 5160SOL    HW126942   3.070   4.708  11.157 -0.4832 -0.3930  1.9231
 5160SOL    HW226943   3.121   4.582  11.105  0.1493 -0.9122  0.4795
 5161SOL     OW26944   0.277   2.452  13.977 -0.3248 -0.4342  0.0021
 5161SOL    HW126945   0.211   2.516  14.004 -2.8985 -2.6374 -1.1621
 5161SOL    HW226946   0.293   2.495  13.893 -0.8363 -0.4002 -0.0776
 5162SOL     OW26947   2.976   3.385   8.251 -0.4995  0.2990  0.6046
 5162SOL    HW126948   2.916   3.416   8.182 -1.9058 -1.2860  1.1212
 5162SOL    HW226949   2.990   3.470   8.293  3.1466 -0.2302  0.4846
 5163SOL     OW26950   0.286   3.712   4.071 -0.5852 -0.3349 -0.7587
 5163SOL    HW126951   0.246   3.656   4.004  1.4433  1.9475 -3.8552
 5163SOL    HW226952   0.215   3.735   4.131 -1.0845 -0.3915 -1.3316
 5164SOL     OW26953   4.205   0.964   2.410  0.2379 -0.3964 -0.5171
 5164SOL    HW126954   4.142   1.028   2.444  1.1980  0.7382 -0.8830
 5164SOL    HW226955   4.272   1.022   2.375  1.9560 -2.0751 -0.0013
 5165SOL     OW26956   4.416   1.525   5.182  0.2635 -0.4483 -0.0853
 5165SOL    HW126957   4.458   1.591   5.238  1.0646 -0.7032 -0.3843
 5165SOL    HW226958   4.322   1.543   5.193  0.2079  0.0686 -1.4824
 5166SOL     OW26959   2.179   0.163   7.366 -0.4883  0.4324  0.0622
 5166SOL    HW126960   2.267   0.134   7.340 -0.7699 -1.6533  1.4120
 5166SOL    HW226961   2.184   0.121   7.452 -1.6021  1.3180  0.5484
 5167SOL     OW26962   2.984   0.900   1.411  0.3083 -0.0587 -0.4836
 5167SOL    HW126963   2.963   0.955   1.488  1.5166  0.2616 -0.3867
 5167SOL    HW226964   3.053   0.853   1.457  1.8185  0.7589 -1.9013
 5168SOL     OW26965   1.735   0.484  12.368 -1.0575  0.6162 -0.0012
 5168SOL    HW126966   1.790   0.480  12.446  0.1940 -1.3257 -1.0069
 5168SOL    HW226967   1.669   0.549  12.393  0.3688  1.8807  0.5196
 5169SOL     OW26968   2.971   3.968  13.484  0.8071 -0.5959 -0.3311
 5169SOL    HW126969   2.990   4.055  13.446 -1.3179 -1.0729 -2.4968
 5169SOL    HW226970   2.880   3.951  13.463  0.7062  1.4772 -1.6766
 5170SOL     OW26971   2.612   3.313   2.387 -0.7714  0.0410  0.0187
 5170SOL    HW126972   2.618   3.358   2.303  1.6662 -1.0721 -0.4057
 5170SOL    HW226973   2.517   3.299   2.385 -1.0997  2.2878 -0.0465
 5171SOL     OW26974   2.965   2.484  16.554  0.0912 -0.1122  0.1377
 5171SOL    HW126975   2.976   2.396  16.518 -0.0358  0.0331 -0.2464
 5171SOL    HW226976   2.938   2.525  16.472 -0.7590  0.5459  0.7490
 5172SOL     OW26977   2.770   1.646   7.622 -0.2794 -0.1205 -0.2029
 5172SOL    HW126978   2.737   1.726   7.581  2.1110  1.6092  1.2305
 5172SOL    HW226979   2.737   1.657   7.711 -0.3779  2.1606 -0.5267
 5173SOL     OW26980   2.725   1.588   6.020  0.1857  0.1045  0.3894
 5173SOL    HW126981   2.698   1.533   5.946 -0.5148 -0.3916  1.0158
 5173SOL    HW226982   2.646   1.639   6.039  0.0187 -0.2360  0.6293
 5174SOL     OW26983   3.610   3.280   5.205 -0.1847 -0.2112  0.5525
 5174SOL    HW126984   3.533   3.336   5.205 -1.4051 -1.8981  1.6315
 5174SOL    HW226985   3.569   3.196   5.225  0.5066 -0.4570  0.9474
 5175SOL     OW26986   1.413   2.727   6.895 -0.6586 -0.6290 -0.3747
 5175SOL    HW126987   1.423   2.633   6.910 -1.4148 -0.5661  0.5299
 5175SOL    HW226988   1.322   2.746   6.914 -0.4574  1.2185 -1.3085
 5176SOL     OW26989   0.425   3.925   4.204 -0.5573 -0.3224  0.3929
 5176SOL    HW126990   0.510   3.942   4.162 -1.6031  1.1657 -1.1250
 5176SOL    HW226991   0.390   3.859   4.144  0.2525  2.4321 -3.1028
 5177SOL     OW26992   1.725   2.351   4.653 -0.4728 -0.1754 -0.3574
 5177SOL    HW126993   1.769   2.417   4.599 -0.1003 -0.5020 -0.4564
 5177SOL    HW226994   1.642   2.352   4.606 -0.5051  0.4129 -0.2822
 5178SOL     OW26995   2.301   2.384   0.413  0.3946  1.0422  0.3297
 5178SOL    HW126996   2.305   2.409   0.505  0.1061  1.4072  0.2411
 5178SOL    HW226997   2.324   2.291   0.416  1.8747  1.4166  0.5396
 5179SOL     OW26998   4.011   0.808   2.506 -0.5720  0.2044  0.0996
 5179SOL    HW126999   4.065   0.813   2.427  0.7965 -1.1752  0.9695
 5179SOL    HW227000   3.938   0.759   2.469  0.4585 -0.3577 -1.1790
 5180SOL     OW27001   3.017   3.080   7.981 -0.4810  0.1867 -0.1332
 5180SOL    HW127002   2.973   3.063   8.064  1.6541 -1.2391  0.7171
 5180SOL    HW227003   3.102   3.110   8.015 -0.2015  0.4180 -1.0254
 5181SOL     OW27004   4.173   0.704   6.810 -0.2389 -0.0384  0.0023
 5181SOL    HW127005   4.094   0.657   6.784  0.2919 -0.5296 -0.7506
 5181SOL    HW227006   4.175   0.677   6.901 -3.3535  1.9250  0.6487
 5182SOL     OW27007   1.479   3.356   7.479  0.4352 -0.1944  0.1320
 5182SOL    HW127008   1.483   3.400   7.394  3.3245  1.5217  1.1602
 5182SOL    HW227009   1.481   3.435   7.533  2.7715 -1.0949  1.3787
 5183SOL     OW27010   2.045   0.455   6.285  0.0354  0.2125  0.2278
 5183SOL    HW127011   1.998   0.389   6.335  0.0653  0.8775  1.1360
 5183SOL    HW227012   1.980   0.510   6.242 -1.0960 -0.7258  0.7557
 5184SOL     OW27013   2.990   2.090   7.303  0.0236  0.1888  0.4537
 5184SOL    HW127014   3.019   2.177   7.331 -0.7121  0.3994  0.5667
 5184SOL    HW227015   3.063   2.059   7.249 -1.2810  0.9448 -1.7203
 5185SOL     OW27016   3.403   0.472   2.026 -0.6820  0.0840  0.3627
 5185SOL    HW127017   3.461   0.477   1.950  0.1374 -1.4245  0.8919
 5185SOL    HW227018   3.370   0.382   2.025 -0.9574  0.1472  2.8838
 5186SOL     OW27019   3.234   0.152   7.862  0.2395  0.3919  0.0905
 5186SOL    HW127020   3.253   0.149   7.769  0.6818 -1.0950  0.2276
 5186SOL    HW227021   3.316   0.138   7.909 -0.3872 -1.0510  0.7618
 5187SOL     OW27022   4.356   4.714   9.641 -0.5726  0.1546 -0.2928
 5187SOL    HW127023   4.289   4.647   9.624  1.1503 -1.5325 -0.4232
 5187SOL    HW227024   4.350   0.050   9.567 -0.4818 -1.3596 -1.5457
 5188SOL     OW27025   3.680   0.897   8.067  0.0655  0.2511  0.1419
 5188SOL    HW127026   3.633   0.967   8.020 -1.4268 -0.4204  0.6323
 5188SOL    HW227027   3.733   0.855   7.999  1.2339  0.5171  0.8853
 5189SOL     OW27028   2.786   1.545   6.588 -0.2377  0.3131  0.0917
 5189SOL    HW127029   2.769   1.452   6.600 -2.7062  0.6946 -0.5073
 5189SOL    HW227030   2.837   1.545   6.506  0.4288 -1.7392  0.5118
 5190SOL     OW27031   4.161   2.935  10.393 -0.6573  0.0324 -0.7190
 5190SOL    HW127032   4.241   2.885  10.377 -0.1571  0.8996 -0.9659
 5190SOL    HW227033   4.134   2.938  10.301  0.3753  1.0116 -0.9920
 5191SOL     OW27034   3.778   2.638   8.738 -0.2849  0.4361 -0.3468
 5191SOL    HW127035   3.709   2.697   8.769 -0.6744 -0.3405  0.2532
 5191SOL    HW227036   3.750   2.556   8.779 -1.3288  1.2249  0.5398
 5192SOL     OW27037   3.247   0.578   0.689  0.2225  0.0443 -1.0448
 5192SOL    HW127038   3.238   0.627   0.608 -0.7673  0.4830 -0.6623
 5192SOL    HW227039   3.186   0.509   0.662  0.9810 -0.9066 -0.3433
 5193SOL     OW27040   1.542   0.837  11.585 -0.0064 -0.0987  0.2955
 5193SOL    HW127041   1.615   0.863  11.641  1.8960 -0.8257 -1.8305
 5193SOL    HW227042   1.479   0.908  11.594  0.3170  0.4330 -1.5271
 5194SOL     OW27043   3.505   1.505   2.264 -0.2893 -0.2075  0.0040
 5194SOL    HW127044   3.566   1.447   2.310 -1.2047 -0.0871  1.3714
 5194SOL    HW227045   3.551   1.484   2.183 -0.9286 -1.3942 -0.0572
 5195SOL     OW27046   4.078   2.223   7.914  0.4308 -0.2626 -0.1743
 5195SOL    HW127047   4.154   2.204   7.969  0.3997  2.4522  0.8146
 5195SOL    HW227048   4.092   2.173   7.834 -1.4503 -0.5196 -0.3366
 5196SOL     OW27049   2.494   3.868  12.637  0.0241  0.0000 -0.1848
 5196SOL    HW127050   2.588   3.886  12.634 -0.0248  0.3743  0.6525
 5196SOL    HW227051   2.457   3.956  12.637  0.1465  0.0505  0.3409
 5197SOL     OW27052   3.088   1.801   7.961 -0.1095 -0.3220 -0.1335
 5197SOL    HW127053   3.125   1.714   7.950  0.5366 -0.3056  1.9591
 5197SOL    HW227054   3.151   1.841   8.021 -0.1554 -2.0828  1.0852
 5198SOL     OW27055   2.015   3.501   4.812 -0.1312 -0.4390 -0.2046
 5198SOL    HW127056   2.008   3.457   4.727  1.5216  1.2660 -1.2244
 5198SOL    HW227057   1.921   3.522   4.818 -0.2362 -1.1689  0.6806
 5199SOL     OW27058   0.628   3.078   6.447 -0.4163  0.3329  0.2485
 5199SOL    HW127059   0.669   3.125   6.520  3.9136 -1.3852 -1.0599
 5199SOL    HW227060   0.544   3.054   6.486  0.4547  1.1748  2.6339
 5200SOL     OW27061   0.023   2.011   3.727 -0.2208 -0.3970 -0.3702
 5200SOL    HW127062   4.723   1.973   3.811 -2.4845  0.6572 -0.5786
 5200SOL    HW227063   0.076   1.936   3.698  1.6881  0.4003  1.0389
 5201SOL     OW27064   3.277   1.080   3.106  0.1490 -0.9197  0.2390
 5201SOL    HW127065   3.260   1.164   3.064 -1.3530 -1.2279  0.2500
 5201SOL    HW227066   3.292   1.031   3.026 -3.5237 -0.7398 -0.5375
 5202SOL     OW27067   3.763   1.427   7.048 -0.1706  0.1339 -0.0034
 5202SOL    HW127068   3.794   1.361   6.986 -0.8904 -0.3903  0.2052
 5202SOL    HW227069   3.765   1.505   6.992 -0.5359  1.0061  1.1961
 5203SOL     OW27070   3.984   4.234   3.469  0.3632  0.3446  0.7204
 5203SOL    HW127071   4.043   4.159   3.472  1.9683  1.5708  0.0779
 5203SOL    HW227072   3.991   4.260   3.377 -0.5788 -2.4684 -0.1223
 5204SOL     OW27073   3.756   3.837   7.889 -0.6462 -0.2687  0.3283
 5204SOL    HW127074   3.691   3.893   7.931  1.4968  1.1921  1.6728
 5204SOL    HW227075   3.728   3.754   7.927  1.3459 -1.3818 -0.6300
 5205SOL     OW27076   1.533   4.105  12.870  0.0470  0.2190  0.0360
 5205SOL    HW127077   1.591   4.108  12.794 -0.9226  2.5239 -0.5872
 5205SOL    HW227078   1.585   4.150  12.937 -0.4819  0.7498  0.0913
 5206SOL     OW27079   4.310   2.647  11.338 -0.3367  0.0787  0.3007
 5206SOL    HW127080   4.238   2.624  11.280  0.5853  0.6958 -1.0932
 5206SOL    HW227081   4.319   2.743  11.335  1.7663 -0.1608 -1.0902
 5207SOL     OW27082   3.656   0.305   2.174  0.2641  0.4609  0.2885
 5207SOL    HW127083   3.698   0.385   2.144  0.4072  0.4413  0.4349
 5207SOL    HW227084   3.649   0.320   2.268  1.2082  0.8372  0.2961
 5208SOL     OW27085   1.833   1.033   3.086  0.0652 -0.3103  0.2604
 5208SOL    HW127086   1.896   0.974   3.128  1.5009  1.8272  1.1084
 5208SOL    HW227087   1.830   1.107   3.146  0.0646 -1.8295  2.1232
 5209SOL     OW27088   3.156   4.252   4.908 -0.1858  0.3912  0.2765
 5209SOL    HW127089   3.195   4.172   4.944  0.3659  0.0793 -1.0154
 5209SOL    HW227090   3.234   4.308   4.907  0.9339 -1.1777 -2.3699
 5210SOL     OW27091   1.756   3.759   7.599  0.4762  0.1832 -0.3115
 5210SOL    HW127092   1.787   3.762   7.508 -3.4538  2.4881 -1.5738
 5210SOL    HW227093   1.834   3.722   7.641 -0.0705 -0.5387  0.0730
 5211SOL     OW27094   1.397   2.561   8.325 -0.2596 -0.4399  0.2244
 5211SOL    HW127095   1.403   2.472   8.362  1.6939 -0.0721  0.7921
 5211SOL    HW227096   1.490   2.585   8.330 -0.7747  1.2116  1.5719
 5212SOL     OW27097   4.159   1.695   5.555 -0.2055  0.1308  0.3049
 5212SOL    HW127098   4.196   1.621   5.506 -0.0650 -0.6479  1.6030
 5212SOL    HW227099   4.192   1.679   5.643  3.5010 -0.0820 -1.0953
 5213SOL     OW27100   4.116   4.113   5.345  0.7278 -0.1274 -0.4455
 5213SOL    HW127101   4.206   4.135   5.322  0.2971  1.4994 -0.5879
 5213SOL    HW227102   4.122   4.017   5.342 -0.0695 -0.2956  2.6957
 5214SOL     OW27103   4.254   3.018  17.209 -0.1746  0.1491  0.2455
 5214SOL    HW127104   4.304   2.963  17.148 -1.1438  0.2494 -0.6449
 5214SOL    HW227105   4.212   3.076  17.145 -2.0372 -0.4675  0.9018
 5215SOL     OW27106   3.129   0.965   6.773 -0.4641  0.1023 -0.5522
 5215SOL    HW127107   3.187   0.931   6.841 -2.2702 -0.0486  0.9100
 5215SOL    HW227108   3.074   0.890   6.750  1.4009 -0.7435 -2.3487
 5216SOL     OW27109   3.288   3.574   6.642  0.2451  0.1750  0.1839
 5216SOL    HW127110   3.250   3.501   6.591  2.0266  0.1464 -1.0921
 5216SOL    HW227111   3.284   3.544   6.733 -1.5228 -1.7909 -0.5319
 5217SOL     OW27112   3.167   1.881  17.376  0.1784  0.1744  0.3829
 5217SOL    HW127113   3.247   1.829  17.366 -0.5602 -0.8289 -0.3020
 5217SOL    HW227114   3.192   1.973  17.367 -0.4313  0.3422  0.3721
 5218SOL     OW27115   1.755   2.516   6.854 -0.1044  0.3510  0.1502
 5218SOL    HW127116   1.719   2.528   6.942  2.7365 -0.4207  1.4226
 5218SOL    HW227117   1.769   2.608   6.830  1.9525  0.1958  0.8011
 5219SOL     OW27118   2.210   0.740   9.750  0.1019 -0.2839  0.1289
 5219SOL    HW127119   2.221   0.824   9.795  2.1842  1.2598 -3.2274
 5219SOL    HW227120   2.248   0.679   9.813 -0.7682 -0.3634  0.5774
 5220SOL     OW27121   0.648   2.632   9.497 -0.0323 -0.2287  0.1992
 5220SOL    HW127122   0.574   2.690   9.516 -0.4944 -1.0732  0.9975
 5220SOL    HW227123   0.720   2.684   9.533  0.1715  0.2313 -0.8708
 5221SOL     OW27124   2.983   0.141   2.580  0.2186  0.0103  0.0047
 5221SOL    HW127125   3.032   0.075   2.530 -2.4412 -1.9684  0.0314
 5221SOL    HW227126   2.895   0.112   2.559 -0.3538  1.6629  0.1970
 5222SOL     OW27127   3.559   0.672   9.853  0.0649 -0.3314  0.0959
 5222SOL    HW127128   3.482   0.642   9.804  1.1466  2.8757 -3.6565
 5222SOL    HW227129   3.634   0.655   9.796  0.6131 -0.1166  0.7585
 5223SOL     OW27130   0.114   1.959   3.394  0.0759 -0.3743  0.0924
 5223SOL    HW127131   0.087   1.869   3.411 -1.5594  0.6650  3.0111
 5223SOL    HW227132   0.209   1.954   3.403 -0.2698 -3.0874  2.1146
 5224SOL     OW27133   1.653   0.509   4.968  0.1501 -0.1793  0.2077
 5224SOL    HW127134   1.616   0.435   4.920  2.4423  0.0842 -1.9665
 5224SOL    HW227135   1.643   0.585   4.912 -0.9956 -0.7862 -0.4020
 5225SOL     OW27136   0.914   4.687   9.199 -0.1341 -0.0890  0.5840
 5225SOL    HW127137   0.959   4.712   9.118  2.0909  0.3616  1.9339
 5225SOL    HW227138   0.967   4.611   9.223 -0.7028 -0.5964  0.1871
 5226SOL     OW27139   3.138   2.923   4.433 -0.4310  0.0905  0.0479
 5226SOL    HW127140   3.198   2.966   4.494 -0.1618  1.8628 -1.4669
 5226SOL    HW227141   3.055   2.951   4.472 -0.6489 -0.2609 -0.1668
 5227SOL     OW27142   1.965   1.193   5.981  0.6870  0.4273  0.3154
 5227SOL    HW127143   2.027   1.183   6.054  0.5091 -0.2395  0.3755
 5227SOL    HW227144   1.889   1.138   6.001 -1.0373  2.1284 -1.6577
 5228SOL     OW27145   4.288   1.505  17.287  0.3496 -0.1356  0.5943
 5228SOL    HW127146   4.224   1.576  17.284 -0.3956 -0.8364 -0.4618
 5228SOL    HW227147   4.223   1.436  17.298 -1.7176  2.0056  1.8655
 5229SOL     OW27148   3.833   1.504  14.612  0.5469  0.3819 -0.1715
 5229SOL    HW127149   3.778   1.576  14.643 -0.6387 -1.8429  2.9436
 5229SOL    HW227150   3.793   1.427  14.653  1.5098  1.1060  2.1060
 5230SOL     OW27151   2.914   3.548   6.297  0.5745 -0.6998  0.0129
 5230SOL    HW127152   2.924   3.580   6.387 -1.8191 -0.1063  0.0664
 5230SOL    HW227153   2.904   3.632   6.251 -0.9482 -0.9183 -0.0479
 5231SOL     OW27154   2.656   3.193   1.235  0.3319  0.0128  0.0327
 5231SOL    HW127155   2.649   3.129   1.306  1.2587  1.4391  1.3939
 5231SOL    HW227156   2.576   3.179   1.184  1.9514  0.1760 -2.5433
 5232SOL     OW27157   0.874   0.245   2.583  0.8192 -0.0168  0.3061
 5232SOL    HW127158   0.846   0.322   2.532  0.8278 -1.5802 -2.0884
 5232SOL    HW227159   0.967   0.235   2.564  0.3096 -1.4068 -1.4418
 5233SOL     OW27160   0.278   3.859   4.811 -0.0912  0.0804  0.3655
 5233SOL    HW127161   0.231   3.942   4.819  1.8546  1.3545 -1.4135
 5233SOL    HW227162   0.260   3.851   4.717 -0.3644 -0.6952  0.4772
 5234SOL     OW27163   0.594   1.759   9.311  0.1855 -0.3703 -0.3865
 5234SOL    HW127164   0.617   1.839   9.264  1.0433 -0.8556 -0.7857
 5234SOL    HW227165   0.521   1.784   9.368 -0.4875 -0.1439 -1.3502
 5235SOL     OW27166   1.003   2.775   3.944 -0.1829  0.0775 -0.0649
 5235SOL    HW127167   1.055   2.796   3.867 -0.0051  0.4802  0.1660
 5235SOL    HW227168   0.931   2.836   3.928  0.4438  0.1338 -2.6825
 5236SOL     OW27169   2.378   2.394   3.260 -0.0746  0.8918  0.1116
 5236SOL    HW127170   2.305   2.452   3.279 -0.8853 -0.0336 -0.2153
 5236SOL    HW227171   2.347   2.317   3.308  1.8702 -0.4347 -0.7475
 5237SOL     OW27172   0.072   1.636   2.452  0.3667 -0.1068 -0.2279
 5237SOL    HW127173   0.017   1.714   2.451 -0.7120 -0.8510  0.7575
 5237SOL    HW227174   0.112   1.642   2.539 -1.2217 -1.9169  0.6514
 5238SOL     OW27175   2.289   3.778  11.819  0.2660 -0.3817 -0.1729
 5238SOL    HW127176   2.334   3.694  11.811 -0.5702 -0.8457 -0.0106
 5238SOL    HW227177   2.239   3.764  11.900  1.6986 -0.2449  0.7395
 5239SOL     OW27178   2.002   0.713  12.748 -0.2306 -0.1716  0.0853
 5239SOL    HW127179   1.977   0.805  12.746  0.2870 -0.0256  0.5766
 5239SOL    HW227180   2.096   0.725  12.752 -0.4485  0.6425  2.6470
 5240SOL     OW27181   3.947   0.835  10.209 -0.4178  0.1478  0.5293
 5240SOL    HW127182   3.999   0.808  10.133 -1.7031  0.2632 -0.3960
 5240SOL    HW227183   3.878   0.882  10.163 -2.6007 -1.0466  2.5991
 5241SOL     OW27184   1.854   4.011   8.827 -0.0205 -1.0804  0.0211
 5241SOL    HW127185   1.907   3.961   8.889  0.6060  1.0379  1.2242
 5241SOL    HW227186   1.924   4.022   8.763 -0.1104 -1.6593 -0.1752
 5242SOL     OW27187   1.001   2.546   1.037  0.6623  0.2023  0.3077
 5242SOL    HW127188   1.067   2.573   0.973  1.4473 -1.2471  0.5160
 5242SOL    HW227189   0.921   2.539   0.985  0.2023 -1.8766  1.3004
 5243SOL     OW27190   0.173   4.549   8.484 -0.0564  0.9704 -0.1475
 5243SOL    HW127191   0.106   4.520   8.546 -0.4358  1.2681 -0.4148
 5243SOL    HW227192   0.228   4.599   8.544  0.5969  0.1900 -0.0984
 5244SOL     OW27193   0.571   1.349   0.788 -0.4339  0.4131  1.0837
 5244SOL    HW127194   0.540   1.302   0.866 -0.5366 -0.5243  0.4681
 5244SOL    HW227195   0.571   1.436   0.827  0.6855  1.5767 -1.5263
 5245SOL     OW27196   2.139   3.575  11.650 -0.6859 -0.5686  0.3210
 5245SOL    HW127197   2.163   3.655  11.697 -1.2556 -0.7125  0.8530
 5245SOL    HW227198   2.222   3.529  11.636  0.1297  1.1721 -0.4665
 5246SOL     OW27199   2.072   1.045  10.293  0.3324 -0.8272  0.1571
 5246SOL    HW127200   2.089   1.135  10.321 -0.7769 -0.8210  0.7827
 5246SOL    HW227201   1.991   1.029  10.340 -0.8118 -0.6131 -1.7645
 5247SOL     OW27202   3.976   0.551   0.173 -0.0702  0.1609 -0.4912
 5247SOL    HW127203   4.043   0.491   0.140  0.7620  0.6616  0.2975
 5247SOL    HW227204   4.020   0.621   0.220 -1.0248 -0.7021  1.7162
 5248SOL     OW27205   3.540   4.635  10.350 -0.0779 -0.5814 -0.4689
 5248SOL    HW127206   3.573   4.571  10.286  2.2189  0.2551 -0.1171
 5248SOL    HW227207   3.455   4.602  10.380 -0.5668  0.6941 -0.4781
 5249SOL     OW27208   0.052   3.606  14.262  0.0622 -0.7386  0.2181
 5249SOL    HW127209   4.708   3.673  14.270 -0.6834 -1.3651 -0.8835
 5249SOL    HW227210   0.110   3.636  14.191 -0.4646  2.2325  1.0574
 5250SOL     OW27211   4.600   4.563   2.376  0.7439  0.4420 -0.3984
 5250SOL    HW127212   4.527   4.509   2.345  0.9537 -0.1026  0.0543
 5250SOL    HW227213   4.645   4.500   2.433 -0.7277  0.3291  0.6480
 5251SOL     OW27214   3.769   1.022   3.299  0.1697 -0.1519 -0.1766
 5251SOL    HW127215   3.794   1.071   3.221 -1.7458 -0.0201 -0.6879
 5251SOL    HW227216   3.788   0.932   3.273 -1.3908  0.4771 -3.4283
 5252SOL     OW27217   0.125   2.590   8.538  0.2003 -0.6087  0.5641
 5252SOL    HW127218   0.204   2.556   8.495 -0.0038  0.2887 -0.5147
 5252SOL    HW227219   0.164   2.633   8.614  0.2185  0.6382 -0.1598
 5253SOL     OW27220   1.916   4.472  10.166 -0.3637  0.1442 -0.1987
 5253SOL    HW127221   1.859   4.515  10.231  0.5284 -0.8613  1.2527
 5253SOL    HW227222   1.878   4.385  10.154 -1.0125  0.6803 -1.9637
 5254SOL     OW27223   0.158   1.925   6.831 -0.5580 -0.2203  0.9383
 5254SOL    HW127224   0.123   1.871   6.902 -1.9379  0.6913  0.9360
 5254SOL    HW227225   0.167   2.002   6.886 -0.1981  0.0974  0.4303
 5255SOL     OW27226   2.974   1.609  12.248  0.2802  0.0894 -0.2366
 5255SOL    HW127227   2.916   1.660  12.303  0.6132  0.8527 -0.5971
 5255SOL    HW227228   2.958   1.641  12.160  3.9785  1.3937 -0.4408
 5256SOL     OW27229   3.601   3.997   4.184  0.3879  0.1057 -0.1027
 5256SOL    HW127230   3.628   3.954   4.265 -1.1527  1.4000  1.1048
 5256SOL    HW227231   3.551   3.926   4.144  1.0100 -0.9129  0.9367
 5257SOL     OW27232   4.028   1.868   4.959  0.2477 -0.0162  0.5070
 5257SOL    HW127233   4.084   1.923   4.905  0.3161 -0.4392  0.1478
 5257SOL    HW227234   3.984   1.927   5.021  1.0002 -0.6369  1.6291
 5258SOL     OW27235   0.076   3.750   4.242  0.1254 -0.2313  0.2849
 5258SOL    HW127236   0.046   3.820   4.301 -0.3180  0.0905 -0.3173
 5258SOL    HW227237   4.714   3.732   4.204  0.0859 -1.9847  1.1875
 5259SOL     OW27238   1.392   0.278   0.868 -0.2084 -0.2050 -0.5625
 5259SOL    HW127239   1.320   0.340   0.876  0.7696  0.7744  0.6139
 5259SOL    HW227240   1.403   0.247   0.958  0.6251  0.0228 -0.5890
 5260SOL     OW27241   2.522   0.234  14.942  0.4366  0.2215 -0.1419
 5260SOL    HW127242   2.598   0.226  14.999  0.3728  3.2866  0.3817
 5260SOL    HW227243   2.495   0.324  14.961  0.3135  0.4941 -1.6001
 5261SOL     OW27244   1.113   4.195   6.084 -0.3548 -0.2544  0.7239
 5261SOL    HW127245   1.033   4.247   6.095  1.2347  1.8290  2.5643
 5261SOL    HW227246   1.171   4.253   6.133  1.0279  0.7897 -2.1835
 5262SOL     OW27247   2.756   0.095   4.212 -0.1277  0.0968  0.0695
 5262SOL    HW127248   2.662   0.106   4.205 -0.2240 -0.1149  1.0464
 5262SOL    HW227249   2.766   0.005   4.178  1.3402  0.2655  0.0450
 5263SOL     OW27250   3.363   1.541   1.617 -0.2898 -0.3271 -0.4108
 5263SOL    HW127251   3.434   1.497   1.665  0.5439  0.9796 -0.4371
 5263SOL    HW227252   3.307   1.572   1.687  0.8620 -0.5612  0.6169
 5264SOL     OW27253   2.623   1.431  14.409 -0.5048 -0.0107 -0.3952
 5264SOL    HW127254   2.605   1.486  14.332 -0.0658 -2.1780 -2.0338
 5264SOL    HW227255   2.713   1.409  14.389  0.0364  1.6423  0.2290
 5265SOL     OW27256   4.393   4.075   0.429 -0.3052  0.0425  0.6008
 5265SOL    HW127257   4.397   4.164   0.463 -0.0782 -0.6864  2.4595
 5265SOL    HW227258   4.390   4.096   0.335 -2.1849  0.2644  0.7249
 5266SOL     OW27259   0.724   2.300   2.963  0.2210  0.3502  0.2288
 5266SOL    HW127260   0.651   2.286   3.023 -1.0917  0.7644 -1.3019
 5266SOL    HW227261   0.695   2.252   2.886  0.4821  0.5597  0.0001
 5267SOL     OW27262   4.071   0.696  11.886  0.6852  0.2392  0.4327
 5267SOL    HW127263   4.067   0.751  11.808  0.3942 -0.6848 -0.2060
 5267SOL    HW227264   4.144   0.730  11.937  0.9299 -0.6465  0.6778
 5268SOL     OW27265   0.105   1.829   8.650  0.0731 -0.0432  0.7433
 5268SOL    HW127266   0.144   1.742   8.636  0.0707 -0.0371  0.6957
 5268SOL    HW227267   0.158   1.862   8.722 -0.3025  3.0010 -0.4092
 5269SOL     OW27268   4.128   3.362   3.378  0.0756  0.3409  0.0291
 5269SOL    HW127269   4.139   3.431   3.312 -2.3040 -1.7940 -2.6053
 5269SOL    HW227270   4.065   3.305   3.334 -0.8948  2.3438 -1.2183
 5270SOL     OW27271   1.617   4.077   6.832  0.8500  0.4450  0.4738
 5270SOL    HW127272   1.592   3.984   6.836  0.1811  0.5257 -1.3666
 5270SOL    HW227273   1.683   4.080   6.762  0.5999 -1.1342  0.1662
 5271SOL     OW27274   2.976   2.441   3.179 -0.4170  0.0390 -0.1864
 5271SOL    HW127275   2.898   2.430   3.125  0.4339  1.5499 -1.7398
 5271SOL    HW227276   3.009   2.351   3.171 -1.0383  0.0506 -2.6179
 5272SOL     OW27277   4.413   2.520   0.289 -0.1259  0.4540  0.4639
 5272SOL    HW127278   4.476   2.456   0.323 -0.5755  0.5611  1.4860
 5272SOL    HW227279   4.430   2.511   0.195  1.4358  0.6119  0.7247
 5273SOL     OW27280   2.780   1.737   3.831  0.2019 -0.2206 -0.0130
 5273SOL    HW127281   2.838   1.745   3.906 -0.5113  1.9927  0.3305
 5273SOL    HW227282   2.822   1.810   3.786  0.9013  0.8666  2.4325
 5274SOL     OW27283   1.706   0.271   6.586 -0.0416 -0.3172 -0.3479
 5274SOL    HW127284   1.731   0.333   6.655 -0.2184 -0.3953 -0.2149
 5274SOL    HW227285   1.625   0.238   6.625  0.3788 -1.0352 -0.0781
 5275SOL     OW27286   4.422   3.377   5.382 -0.5756 -0.2946 -0.5549
 5275SOL    HW127287   4.358   3.438   5.418  1.1413  2.3343 -1.9595
 5275SOL    HW227288   4.361   3.303   5.385 -0.6974 -0.2235 -1.1512
 5276SOL     OW27289   1.640   0.883   6.268  0.5656  0.4241  0.0353
 5276SOL    HW127290   1.600   0.803   6.302 -1.9589  1.3639 -0.7392
 5276SOL    HW227291   1.593   0.946   6.322  1.1641  1.4298 -0.6275
 5277SOL     OW27292   0.293   0.952   5.147 -0.4227  0.2031 -0.1549
 5277SOL    HW127293   0.262   0.862   5.149 -1.5876  0.6474  1.5679
 5277SOL    HW227294   0.356   0.950   5.075 -0.8449  0.6113 -0.5436
 5278SOL     OW27295   3.528   3.322  15.338  0.1310  0.3117  0.0970
 5278SOL    HW127296   3.471   3.336  15.262  1.7749 -0.0251 -1.1958
 5278SOL    HW227297   3.616   3.353  15.316 -0.3614  2.0174  0.5311
 5279SOL     OW27298   0.038   3.583   4.713  0.3621  0.0221  0.1718
 5279SOL    HW127299   0.036   3.592   4.808 -1.0359 -0.5299  0.1941
 5279SOL    HW227300   4.706   3.507   4.702  0.3424  0.0536  0.0487
 5280SOL     OW27301   3.012   0.639   4.524  0.1961  0.0351 -0.3185
 5280SOL    HW127302   3.081   0.705   4.526  1.6033 -1.3888 -2.1180
 5280SOL    HW227303   2.937   0.691   4.554  0.3801  2.0182 -3.2882
 5281SOL     OW27304   2.758   4.501  10.302  1.1766  0.8035  0.3917
 5281SOL    HW127305   2.713   4.460  10.228  2.1004  0.0881  0.2350
 5281SOL    HW227306   2.707   4.582  10.310 -2.5602 -1.4958  0.0879
 5282SOL     OW27307   0.795   2.000   3.094  0.4063 -0.2995  0.4041
 5282SOL    HW127308   0.725   2.016   3.157 -1.3435 -0.3387 -1.5319
 5282SOL    HW227309   0.738   2.003   3.018  1.1187  0.3045 -0.1028
 5283SOL     OW27310   2.700   1.806   5.614  0.7355 -0.5247 -0.2875
 5283SOL    HW127311   2.747   1.737   5.660  1.4016 -0.0129 -0.2057
 5283SOL    HW227312   2.634   1.759   5.562 -1.0680  1.3919  0.2858
 5284SOL     OW27313   0.662   3.859  12.322  0.3912 -0.4639 -0.0037
 5284SOL    HW127314   0.620   3.855  12.237 -2.7576  0.5975  1.5092
 5284SOL    HW227315   0.746   3.899  12.297  0.4948 -0.1135  0.8784
 5285SOL     OW27316   4.361   0.955   3.949 -0.6386 -1.0133 -0.3577
 5285SOL    HW127317   4.312   1.029   3.985  0.1210  0.0018 -1.4275
 5285SOL    HW227318   4.423   0.939   4.020 -1.3572  0.9963  0.7082
 5286SOL     OW27319   1.563   0.701   9.965 -0.1070  0.3044  0.1211
 5286SOL    HW127320   1.519   0.672   9.886  2.5733  0.5663 -1.4704
 5286SOL    HW227321   1.561   0.623  10.021  0.0701 -0.1541 -0.5145
 5287SOL     OW27322   1.151   4.249   6.961 -0.4294 -0.0432 -0.0364
 5287SOL    HW127323   1.063   4.212   6.954 -0.0776 -0.8464 -0.1782
 5287SOL    HW227324   1.179   4.181   7.022 -1.8698 -0.1002  0.5519
 5288SOL     OW27325   1.715   2.184   6.351 -0.4477  0.4780 -0.1044
 5288SOL    HW127326   1.759   2.260   6.390 -3.2952  2.3107 -0.4356
 5288SOL    HW227327   1.770   2.109   6.375 -0.2493  1.3256  2.1479
 5289SOL     OW27328   0.784   0.941   4.918  0.0022  0.2905  0.1050
 5289SOL    HW127329   0.876   0.955   4.938  0.5139 -2.0808 -0.5462
 5289SOL    HW227330   0.749   1.027   4.895  1.9692  0.5852 -1.7409
 5290SOL     OW27331   4.174   3.551   7.010 -0.0999  0.1152  0.4356
 5290SOL    HW127332   4.110   3.495   6.966  1.0487 -2.6338  2.2550
 5290SOL    HW227333   4.251   3.555   6.952  0.1835 -0.6322  0.7687
 5291SOL     OW27334   4.122   0.972   2.809  0.7344 -0.4597 -0.3393
 5291SOL    HW127335   4.204   0.973   2.760  1.6783  1.1443  1.2637
 5291SOL    HW227336   4.059   1.027   2.763  1.2831  0.3255 -0.1532
 5292SOL     OW27337   1.841   0.871   9.166 -0.2328 -0.2184  0.1113
 5292SOL    HW127338   1.746   0.875   9.162 -0.2686 -1.0744  0.2412
 5292SOL    HW227339   1.861   0.799   9.226  0.8809  1.1884  1.4332
 5293SOL     OW27340   0.054   3.668   9.546  0.1583 -0.2114 -0.3043
 5293SOL    HW127341   0.120   3.606   9.578 -0.6836 -1.6157 -1.2933
 5293SOL    HW227342   4.718   3.672   9.621  0.8489 -1.7484  0.3370
 5294SOL     OW27343   0.928   2.807   5.892  0.1892 -0.4991  0.2075
 5294SOL    HW127344   0.993   2.740   5.868  1.2043  0.4727  0.2370
 5294SOL    HW227345   0.974   2.890   5.880  0.6991 -0.9545 -0.9118
 5295SOL     OW27346   1.594   3.673   3.983 -0.1626  0.6804 -0.1639
 5295SOL    HW127347   1.677   3.702   4.020 -1.1438  0.7933  1.9159
 5295SOL    HW227348   1.548   3.752   3.952 -0.4273  0.5977  0.0161
 5296SOL     OW27349   3.465   2.081   2.103  0.0474 -0.6981  0.1248
 5296SOL    HW127350   3.424   2.131   2.032 -0.9989  0.3018  1.4331
 5296SOL    HW227351   3.416   1.999   2.106 -1.7464  0.2412 -3.0037
 5297SOL     OW27352   2.726   3.377   5.464 -0.0183 -0.2407 -0.2154
 5297SOL    HW127353   2.727   3.297   5.412  0.5310  0.3993 -1.1797
 5297SOL    HW227354   2.751   3.345   5.551  0.6099  2.1915  0.5165
 5298SOL     OW27355   4.558   1.888  16.588 -0.2320 -0.0956 -0.1955
 5298SOL    HW127356   4.526   1.830  16.657 -1.4779  1.4030  0.4651
 5298SOL    HW227357   4.631   1.836  16.553  0.5150  0.9788 -0.2358
 5299SOL     OW27358   1.393   4.615  15.465 -0.2555  0.1175  0.3871
 5299SOL    HW127359   1.438   4.533  15.446 -0.4726  0.6753 -2.5690
 5299SOL    HW227360   1.456   4.672  15.509  0.1467 -0.3605  0.4303
 5300SOL     OW27361   1.707   0.942  11.262 -0.5485  0.2265  0.7560
 5300SOL    HW127362   1.634   0.884  11.239  0.1102 -0.5055  0.5227
 5300SOL    HW227363   1.690   1.021  11.211 -0.6953  0.1075  0.6210
 5301SOL     OW27364   4.525   4.585   1.988  0.0778  0.1528  0.2844
 5301SOL    HW127365   4.584   4.509   1.993 -0.2655 -0.0638  1.0152
 5301SOL    HW227366   4.471   4.560   1.912 -1.7387  0.1312  1.5891
 5302SOL     OW27367   3.968   0.355   4.753  0.1080 -0.5822 -0.3210
 5302SOL    HW127368   3.962   0.259   4.754  0.1489 -0.5974 -1.4405
 5302SOL    HW227369   4.001   0.365   4.842 -0.5472  0.4508 -0.2016
 5303SOL     OW27370   2.156   2.001   6.861  0.0173  0.0990 -0.0318
 5303SOL    HW127371   2.218   1.937   6.827  1.9984  1.2933  1.3481
 5303SOL    HW227372   2.205   2.079   6.887  1.8617 -1.4650  1.1444
 5304SOL     OW27373   3.842   4.708   9.919  0.3443 -0.3036 -0.3774
 5304SOL    HW127374   3.746   4.701   9.924  0.2424  0.3709 -1.2857
 5304SOL    HW227375   3.860   0.018   9.831  3.0593 -0.1704  0.2412
 5305SOL     OW27376   1.315   1.511   3.132  0.8992  0.3781 -0.3263
 5305SOL    HW127377   1.252   1.517   3.061 -0.7204 -0.9471  0.9921
 5305SOL    HW227378   1.296   1.588   3.187 -0.2610 -0.8780  1.0274
 5306SOL     OW27379   1.725   3.497   6.708 -0.6820  0.3967  0.0835
 5306SOL    HW127380   1.689   3.452   6.632 -0.9829  0.0939  0.4066
 5306SOL    HW227381   1.673   3.464   6.781  1.6671 -0.3303  1.4400
 5307SOL     OW27382   1.567   1.013   3.017  0.2622  0.1262 -0.0136
 5307SOL    HW127383   1.565   1.107   2.999  3.1487 -0.0678 -1.2585
 5307SOL    HW227384   1.657   1.011   3.050  0.2558  2.5881  0.1702
 5308SOL     OW27385   1.862   4.410   6.578 -0.5831  0.2550 -0.6530
 5308SOL    HW127386   1.820   4.468   6.642  1.7923 -0.5411  1.5999
 5308SOL    HW227387   1.795   4.344   6.562  1.6666 -2.5515  1.5524
 5309SOL     OW27388   3.970   4.423  14.957  0.3042  0.5356 -0.1911
 5309SOL    HW127389   4.030   4.379  15.018  0.0962  2.8048  1.6450
 5309SOL    HW227390   3.955   4.359  14.887  0.0309  0.5131 -0.1107
 5310SOL     OW27391   3.133   1.180   4.318 -0.4235  0.3387 -0.1115
 5310SOL    HW127392   3.211   1.226   4.349 -0.8621 -0.6439  2.5281
 5310SOL    HW227393   3.067   1.243   4.348  0.2825  0.2024  1.7268
 5311SOL     OW27394   1.844   4.264   7.350  0.0838 -0.2100 -0.3304
 5311SOL    HW127395   1.845   4.172   7.378  0.8740  0.2387  1.0735
 5311SOL    HW227396   1.750   4.280   7.356  0.1750  0.5604 -0.9612
 5312SOL     OW27397   2.578   1.775   4.105 -0.6964 -0.0816  0.4637
 5312SOL    HW127398   2.662   1.777   4.151 -0.3758  0.5533 -0.1515
 5312SOL    HW227399   2.573   1.870   4.101 -0.7253 -0.1007  0.0320
 5313SOL     OW27400   0.507   1.330  17.384 -0.1053 -0.2581 -0.7668
 5313SOL    HW127401   0.576   1.288  17.435 -1.1579  0.2084  1.0617
 5313SOL    HW227402   0.478   1.252  17.337  0.7520 -0.7512 -0.4715
 5314SOL     OW27403   0.522   4.257   6.272  0.3744 -0.0150 -0.7290
 5314SOL    HW127404   0.428   4.258   6.292 -0.1130  0.2877 -3.0798
 5314SOL    HW227405   0.542   4.307   6.352  0.6686 -0.5053 -0.4965
 5315SOL     OW27406   1.313   1.454   2.833 -0.1709  0.1828  0.2797
 5315SOL    HW127407   1.359   1.538   2.840 -2.2887  1.3539  0.0768
 5315SOL    HW227408   1.238   1.467   2.890  0.7091  2.3326  0.9343
 5316SOL     OW27409   3.412   4.668   8.532  0.1541 -0.2735 -0.2325
 5316SOL    HW127410   3.317   4.678   8.537  0.2756  0.0157  1.7037
 5316SOL    HW227411   3.426   4.633   8.620 -2.0580 -2.5261 -0.7621
 5317SOL     OW27412   0.564   3.409   8.013  0.4160  0.4178 -0.5694
 5317SOL    HW127413   0.612   3.481   7.971  1.2248  1.7490  2.6658
 5317SOL    HW227414   0.484   3.461   8.017 -0.3364 -1.0617  3.9451
 5318SOL     OW27415   1.731   4.153   0.187  0.8102  0.1335 -0.1485
 5318SOL    HW127416   1.788   4.094   0.236 -0.6984 -0.9294  0.3416
 5318SOL    HW227417   1.647   4.108   0.197  1.3763 -0.8785  0.0382
 5319SOL     OW27418   3.190   0.748   0.447  0.0733  0.5212  0.2264
 5319SOL    HW127419   3.211   0.831   0.405 -0.7563  1.6125  1.9587
 5319SOL    HW227420   3.113   0.712   0.403  1.8493 -1.4252 -1.2664
 5320SOL     OW27421   4.554   2.495  15.227 -0.2899 -0.2675  0.2115
 5320SOL    HW127422   4.506   2.441  15.290 -0.9679  0.1379  0.0373
 5320SOL    HW227423   4.570   2.577  15.273 -0.1572  0.4784 -1.1524
 5321SOL     OW27424   1.161   0.364   7.166 -0.1021 -0.7288  0.2650
 5321SOL    HW127425   1.132   0.410   7.244  2.0047  1.4258 -0.2221
 5321SOL    HW227426   1.255   0.383   7.174  0.1531 -0.7458 -2.5230
 5322SOL     OW27427   1.603   1.189  15.343 -0.6145  0.0312  0.4453
 5322SOL    HW127428   1.611   1.255  15.411 -1.4370 -1.2512  1.8078
 5322SOL    HW227429   1.612   1.102  15.383  0.8422 -0.4265 -0.8855
 5323SOL     OW27430   3.247   3.924   2.745  0.0435 -0.7744  0.5784
 5323SOL    HW127431   3.335   3.896   2.721 -0.2344  1.0538 -2.5306
 5323SOL    HW227432   3.199   3.900   2.665  0.0388 -0.2745  0.4350
 5324SOL     OW27433   3.996   0.152  14.584 -0.3371  0.3615  0.2073
 5324SOL    HW127434   4.007   0.202  14.503  1.5215  1.6644  1.2415
 5324SOL    HW227435   4.067   0.090  14.569 -0.4935  0.5183 -1.2159
 5325SOL     OW27436   1.416   0.309  12.532 -0.1332  0.1337 -0.4245
 5325SOL    HW127437   1.420   0.345  12.444  0.6212 -0.2739 -0.5556
 5325SOL    HW227438   1.498   0.346  12.562 -0.4535  0.6615 -0.2088
 5326SOL     OW27439   2.214   0.171   5.979  0.3741  0.3297  1.0964
 5326SOL    HW127440   2.241   0.207   6.063  0.2616 -0.9803  1.6965
 5326SOL    HW227441   2.165   0.094   6.007  1.3410 -0.4155  0.7749
 5327SOL     OW27442   0.263   0.585  15.601  0.2941 -0.5906 -0.1441
 5327SOL    HW127443   0.237   0.497  15.571 -1.2644 -0.4576  0.7949
 5327SOL    HW227444   0.319   0.561  15.675 -1.3708 -0.4835  1.1647
 5328SOL     OW27445   1.275   4.683   8.162  0.2911  0.2273  0.1161
 5328SOL    HW127446   1.309   4.660   8.248  1.1150 -1.6087 -0.7023
 5328SOL    HW227447   1.308   0.048   8.162 -1.8544  1.0148  1.0128
 5329SOL     OW27448   3.636   2.094   2.964 -0.3804  0.5788 -0.0504
 5329SOL    HW127449   3.730   2.107   2.953 -0.5758  2.1714  0.2268
 5329SOL    HW227450   3.596   2.139   2.890  0.9850  0.3571 -0.9210
 5330SOL     OW27451   0.157   0.153   4.489 -0.0888 -0.4161  0.1605
 5330SOL    HW127452   0.251   0.174   4.486  0.0077 -1.0556 -1.2115
 5330SOL    HW227453   0.122   0.192   4.409 -1.2808 -1.5136  0.1381
 5331SOL     OW27454   1.512   2.887  11.128  0.5421 -0.0371  0.4605
 5331SOL    HW127455   1.487   2.832  11.054  0.9868  0.3281  0.0357
 5331SOL    HW227456   1.545   2.967  11.087  0.0223  0.0460  0.2052
 5332SOL     OW27457   0.045   2.389   9.363  0.7527  0.1655  0.3820
 5332SOL    HW127458   0.138   2.377   9.342  0.6596  0.9133 -0.4628
 5332SOL    HW227459   0.062   2.400   9.456 -1.1150  1.9383  0.4956
 5333SOL     OW27460   4.653   2.502   1.409 -0.0471 -0.0853  0.0830
 5333SOL    HW127461   4.648   2.583   1.459 -2.6951 -0.5150  0.5059
 5333SOL    HW227462   4.697   2.528   1.328 -1.2479 -1.7769 -1.1080
 5334SOL     OW27463   2.806   3.725   2.147  0.3023 -0.4555  0.0319
 5334SOL    HW127464   2.749   3.797   2.175  1.1987  0.2522  0.0531
 5334SOL    HW227465   2.867   3.774   2.091 -0.8710 -0.3018 -1.1051
 5335SOL     OW27466   1.861   1.934  11.187 -0.6343 -0.2168  0.6666
 5335SOL    HW127467   1.771   1.906  11.203 -0.3030 -1.1335  0.9503
 5335SOL    HW227468   1.909   1.855  11.163  0.6168  1.0657 -1.0389
 5336SOL     OW27469   4.318   2.494   2.107  0.5600  0.3026 -0.1882
 5336SOL    HW127470   4.359   2.410   2.088 -0.4251 -0.1068 -0.5099
 5336SOL    HW227471   4.300   2.533   2.022 -0.1839 -0.2966 -0.3128
 5337SOL     OW27472   2.441   1.479   7.105  0.1027 -0.4958 -0.1615
 5337SOL    HW127473   2.402   1.562   7.078 -3.0758 -1.6657  0.8722
 5337SOL    HW227474   2.533   1.500   7.121 -0.3093  0.0073  1.5317
 5338SOL     OW27475   4.352   1.210  12.174 -0.1928 -0.0312  0.7499
 5338SOL    HW127476   4.322   1.229  12.085  1.0803 -1.0117  0.1126
 5338SOL    HW227477   4.310   1.281  12.223  1.3222  0.1477  1.7811
 5339SOL     OW27478   2.585   1.404   6.811 -0.0086 -0.4643 -0.3963
 5339SOL    HW127479   2.639   1.439   6.739  0.1865 -2.0889 -1.0561
 5339SOL    HW227480   2.508   1.460   6.807  1.4018  1.5132  0.4086
 5340SOL     OW27481   4.115   0.911   0.286 -0.2026 -0.5160  0.4033
 5340SOL    HW127482   4.157   0.961   0.355  0.7508  1.7438 -1.8048
 5340SOL    HW227483   4.116   0.823   0.323 -0.0382 -0.5469  0.3270
 5341SOL     OW27484   1.935   0.237   6.394  0.1243  0.7309  0.0698
 5341SOL    HW127485   1.869   0.270   6.455  1.0332  0.9977  0.9050
 5341SOL    HW227486   1.910   0.146   6.384  3.3267 -0.1050 -0.4620
 5342SOL     OW27487   2.011   4.442   1.948  0.1093 -0.2260  0.1601
 5342SOL    HW127488   1.952   4.518   1.943  1.0061  0.4004 -0.8269
 5342SOL    HW227489   1.981   4.397   2.027  2.3910  1.1078  1.8068
 5343SOL     OW27490   3.655   2.277   8.129  0.1996 -0.7163  0.0979
 5343SOL    HW127491   3.732   2.320   8.091  0.8145  0.0002  2.1648
 5343SOL    HW227492   3.674   2.183   8.118 -1.4129 -0.6725 -2.9025
 5344SOL     OW27493   0.084   3.683   6.888  0.2155  0.0814  0.2699
 5344SOL    HW127494   0.116   3.740   6.818  0.4558 -1.3593 -0.8015
 5344SOL    HW227495   0.152   3.688   6.955  0.9540 -1.0096 -0.4120
 5345SOL     OW27496   4.071   3.129   8.646  0.2970  0.0780 -0.3757
 5345SOL    HW127497   4.019   3.148   8.568 -2.9428 -1.0292  1.4941
 5345SOL    HW227498   4.139   3.074   8.608 -0.9716 -1.4279 -0.4979
 5346SOL     OW27499   1.505   0.061   7.334  0.2292 -0.0708  0.8681
 5346SOL    HW127500   1.556   0.005   7.392  0.0828  1.4149  2.4546
 5346SOL    HW227501   1.517   0.035   7.243 -1.4191 -3.4015  1.6193
 5347SOL     OW27502   2.702   4.161   3.943 -0.1712 -0.1298  0.5458
 5347SOL    HW127503   2.763   4.089   3.927  1.1621  1.2621 -0.5618
 5347SOL    HW227504   2.743   4.202   4.020 -0.3818  1.2974 -0.0995
 5348SOL     OW27505   2.123   4.323   3.376  0.1179 -0.5611  0.1393
 5348SOL    HW127506   2.077   4.239   3.382 -2.9762  1.1008  0.1515
 5348SOL    HW227507   2.122   4.338   3.281 -1.6957  0.5414  0.3303
 5349SOL     OW27508   4.536   4.625   9.034  0.0683 -0.0139  0.3318
 5349SOL    HW127509   4.601   4.562   9.064  1.5234  0.5327 -1.6442
 5349SOL    HW227510   4.478   4.639   9.109 -2.6597  1.6091 -2.1171
 5350SOL     OW27511   3.247   0.899   2.561  0.4346  0.6801 -0.0482
 5350SOL    HW127512   3.338   0.879   2.582  0.4789 -0.8379 -1.7088
 5350SOL    HW227513   3.246   0.914   2.466 -0.0360  1.6388  0.1032
 5351SOL     OW27514   3.261   1.555   7.886 -0.1849 -0.4259 -0.3071
 5351SOL    HW127515   3.248   1.463   7.908 -1.8069  0.0434  0.7667
 5351SOL    HW227516   3.293   1.552   7.797 -0.3851  0.6930 -0.4203
 5352SOL     OW27517   4.624   4.520   5.022 -0.1262 -0.4326  0.2201
 5352SOL    HW127518   4.529   4.522   5.007 -0.1388  1.2395  0.4412
 5352SOL    HW227519   4.633   4.555   5.111 -1.2347 -0.6956  0.4319
 5353SOL     OW27520   4.099   0.357   9.078 -0.0557 -0.0489  0.1218
 5353SOL    HW127521   4.011   0.394   9.065  0.1894  0.8141  0.9903
 5353SOL    HW227522   4.093   0.350   9.173  0.9144  0.5571  0.2218
 5354SOL     OW27523   3.399   1.800  13.227 -0.0057 -0.3062  0.2830
 5354SOL    HW127524   3.469   1.750  13.185 -0.4031 -1.7545  1.3537
 5354SOL    HW227525   3.453   1.861  13.279 -0.1304  0.1288 -0.1018
 5355SOL     OW27526   3.240   1.370   2.319 -0.0906  0.4148 -0.6745
 5355SOL    HW127527   3.314   1.310   2.329  0.3153  1.0782  0.2065
 5355SOL    HW227528   3.287   1.453   2.323 -0.0127  0.2627  1.4197
 5356SOL     OW27529   4.348   0.741  15.922  0.0294  0.3450  0.3884
 5356SOL    HW127530   4.379   0.813  15.978 -1.4114  1.4835 -0.2772
 5356SOL    HW227531   4.256   0.765  15.929 -0.3198 -1.0411  0.3753
 5357SOL     OW27532   1.335   0.500   7.332  0.3017 -0.1823 -0.5962
 5357SOL    HW127533   1.298   0.426   7.380  1.2566 -0.0668  0.3061
 5357SOL    HW227534   1.297   0.571   7.385  0.7950 -0.7993  0.5887
 5358SOL     OW27535   4.280   1.595   1.182  0.8707 -0.5643 -0.6325
 5358SOL    HW127536   4.206   1.552   1.140 -0.4757 -0.0674  1.2564
 5358SOL    HW227537   4.233   1.678   1.195  2.3121  0.3811 -1.4516
 5359SOL     OW27538   3.494   3.228   0.289 -0.2437 -0.4226 -0.5939
 5359SOL    HW127539   3.537   3.241   0.373 -0.2910 -0.3068 -0.5873
 5359SOL    HW227540   3.400   3.245   0.303 -0.5114 -1.1843 -1.4755
 5360SOL     OW27541   4.197   3.795   5.953 -0.1165  0.1984  0.2459
 5360SOL    HW127542   4.287   3.809   5.924 -0.7146  1.9245 -0.7200
 5360SOL    HW227543   4.179   3.871   6.008  1.2589  0.1054  0.8432
 5361SOL     OW27544   2.471   4.494   2.353  0.8028 -0.6167  0.4874
 5361SOL    HW127545   2.427   4.500   2.268  0.2434 -0.8332  0.7617
 5361SOL    HW227546   2.425   4.559   2.407  1.1164  1.0130 -1.2193
 5362SOL     OW27547   2.780   4.319  11.765 -0.0441  0.6172  0.1104
 5362SOL    HW127548   2.833   4.333  11.686 -1.0432 -1.7022 -0.9744
 5362SOL    HW227549   2.770   4.224  11.754 -0.1128  0.9427 -2.7138
 5363SOL     OW27550   4.473   4.482   8.349  0.3195  0.1364  0.4151
 5363SOL    HW127551   4.505   4.464   8.261 -1.3079 -0.0863 -0.1394
 5363SOL    HW227552   4.489   4.398   8.391 -1.8154 -0.6909 -0.4230
 5364SOL     OW27553   3.360   0.903  11.848 -0.2497 -0.5104 -0.1659
 5364SOL    HW127554   3.437   0.863  11.809  0.2079  0.6338 -0.4252
 5364SOL    HW227555   3.390   0.978  11.899  0.2660 -3.0352  3.2525
 5365SOL     OW27556   2.771   0.050  11.645 -0.1158 -0.2937  0.1733
 5365SOL    HW127557   2.708   0.116  11.673 -0.0463 -0.1096 -0.1074
 5365SOL    HW227558   2.725   4.717  11.583 -0.0298 -1.2076  0.9579
 5366SOL     OW27559   1.139   2.074   7.562  0.1745  0.2021  0.4152
 5366SOL    HW127560   1.225   2.068   7.603 -0.0486  0.3802  0.9040
 5366SOL    HW227561   1.107   1.986   7.579  0.9638  0.4509  3.2664
 5367SOL     OW27562   4.131   0.416  10.847 -0.0742  0.1266 -0.4216
 5367SOL    HW127563   4.213   0.453  10.815 -0.9271  2.3659 -0.0271
 5367SOL    HW227564   4.073   0.491  10.832  0.9118  0.6347 -1.7062
 5368SOL     OW27565   1.256   4.313  16.247 -0.1061 -0.1251  0.1139
 5368SOL    HW127566   1.328   4.371  16.221 -1.4361  0.9166 -1.2943
 5368SOL    HW227567   1.196   4.359  16.189  1.0533 -0.4852 -1.3878
 5369SOL     OW27568   4.564   3.601  16.839 -0.1706 -0.1711  0.3258
 5369SOL    HW127569   4.585   3.637  16.925  1.9550  0.4139 -0.4436
 5369SOL    HW227570   4.493   3.664  16.821  0.0528 -0.3373 -1.1705
 5370SOL     OW27571   0.334   2.404   6.750 -0.5937  0.2919  0.4108
 5370SOL    HW127572   0.272   2.475   6.766  0.1054  0.3483  2.8602
 5370SOL    HW227573   0.405   2.423   6.812  0.8759 -1.3483 -0.7793
 5371SOL     OW27574   1.117   2.131   8.298  0.1204 -0.1088  0.5468
 5371SOL    HW127575   1.134   2.133   8.392  3.4389  4.1529 -0.1614
 5371SOL    HW227576   1.090   2.039   8.289 -0.7032  0.2148 -0.2809
 5372SOL     OW27577   0.722   3.298   4.098  0.2538 -0.1003  0.0848
 5372SOL    HW127578   0.811   3.280   4.071  0.7606 -0.0071  1.6607
 5372SOL    HW227579   0.710   3.266   4.188  0.6297 -0.4818 -0.0063
 5373SOL     OW27580   2.315   0.697   6.165  0.2737  0.2945 -0.5014
 5373SOL    HW127581   2.346   0.776   6.121 -0.4053  0.4777 -0.6586
 5373SOL    HW227582   2.393   0.641   6.163  0.8119  1.0668 -1.4129
 5374SOL     OW27583   0.204   3.024   4.764 -0.6210  0.1287  0.6440
 5374SOL    HW127584   0.269   2.996   4.700 -1.4411 -0.5945  0.1211
 5374SOL    HW227585   0.137   2.962   4.737  0.9742 -0.1429 -2.6876
 5375SOL     OW27586   3.111   1.758   1.735 -0.5806  0.6784 -0.5612
 5375SOL    HW127587   3.032   1.732   1.783 -0.2708 -1.5008 -1.2056
 5375SOL    HW227588   3.178   1.723   1.794 -0.3832 -0.4297 -1.4514
 5376SOL     OW27589   0.088   0.799  16.448 -0.4646 -0.4134  0.4984
 5376SOL    HW127590   0.126   0.791  16.360 -0.3141  2.1993  0.3089
 5376SOL    HW227591   0.146   0.744  16.500 -0.0405  0.3810  0.8741
 5377SOL     OW27592   1.639   0.768   3.857 -0.4228 -0.5638  0.2432
 5377SOL    HW127593   1.723   0.809   3.880  0.1351 -0.4707 -1.9238
 5377SOL    HW227594   1.655   0.680   3.891 -1.3614  0.9656  4.5708
 5378SOL     OW27595   0.701   1.524  15.276 -0.0840  0.2507 -0.4572
 5378SOL    HW127596   0.691   1.619  15.275 -1.7534  0.0916  3.2924
 5378SOL    HW227597   0.610   1.495  15.286  0.2480 -1.1215 -1.4637
 5379SOL     OW27598   0.860   0.372  16.382 -0.6731 -0.0580 -0.5820
 5379SOL    HW127599   0.870   0.280  16.405 -0.4593 -0.1502 -1.0377
 5379SOL    HW227600   0.826   0.413  16.461  1.4540 -0.0399  0.3342
 5380SOL     OW27601   3.850   0.394  14.405 -0.6133 -0.0083 -1.0123
 5380SOL    HW127602   3.759   0.405  14.435 -0.2955  0.4084 -0.2146
 5380SOL    HW227603   3.840   0.369  14.313 -2.6701 -0.6572 -0.6247
 5381SOL     OW27604   4.606   3.002  11.226  0.0257  0.5850 -0.0664
 5381SOL    HW127605   4.626   2.913  11.198 -0.0805  0.7357 -0.6145
 5381SOL    HW227606   4.690   3.041  11.203  1.6847 -0.1449  4.6743
 5382SOL     OW27607   3.933   4.227  14.515 -0.8420  0.6286 -0.4299
 5382SOL    HW127608   3.997   4.228  14.444 -0.9241  1.5931 -0.4921
 5382SOL    HW227609   3.853   4.254  14.471 -1.8690  1.1197  1.7132
 5383SOL     OW27610   0.459   3.491   8.733  0.0493 -0.2183 -0.0293
 5383SOL    HW127611   0.477   3.397   8.724  3.7247  0.5876 -0.8501
 5383SOL    HW227612   0.511   3.517   8.809  1.2189  0.9955 -1.2623
 5384SOL     OW27613   3.411   0.600   7.484  0.0618 -0.2456 -0.4987
 5384SOL    HW127614   3.497   0.560   7.495  0.0753  0.9684  3.9039
 5384SOL    HW227615   3.412   0.632   7.394 -2.3833  0.2917 -0.3330
 5385SOL     OW27616   2.296   0.294  10.449 -0.1346  0.1653  0.0269
 5385SOL    HW127617   2.357   0.328  10.515 -0.4399 -0.4510  0.6278
 5385SOL    HW227618   2.254   0.376  10.421 -0.4588  1.2499  3.6688
 5386SOL     OW27619   0.349   2.790   3.618  0.2374  0.0773 -0.0506
 5386SOL    HW127620   0.361   2.696   3.600  0.2110  0.2566 -0.9939
 5386SOL    HW227621   0.320   2.804   3.708  0.0200 -0.6777  0.0010
 5387SOL     OW27622   1.939   1.573   9.436 -0.0746 -0.1035  0.0524
 5387SOL    HW127623   1.870   1.628   9.401  0.5069  1.9926  2.2186
 5387SOL    HW227624   1.952   1.512   9.363  1.5231 -1.4515  1.4420
 5388SOL     OW27625   3.281   0.958   5.501  0.7568  0.5278  0.3087
 5388SOL    HW127626   3.290   0.977   5.408 -0.0174 -1.3823 -0.1524
 5388SOL    HW227627   3.366   0.915   5.512 -1.0568 -2.8150  1.4295
 5389SOL     OW27628   0.199   4.460   6.585 -0.2434 -0.3225  0.0049
 5389SOL    HW127629   0.218   4.544   6.545 -0.6450 -0.1820  0.1016
 5389SOL    HW227630   0.131   4.428   6.526  0.2434 -1.1064 -0.1239
 5390SOL     OW27631   4.525   2.923   7.598 -0.1630 -0.2308 -0.6480
 5390SOL    HW127632   4.430   2.924   7.586  0.0172  0.9895 -1.9315
 5390SOL    HW227633   4.533   2.890   7.687 -2.3522 -0.3854 -0.4899
 5391SOL     OW27634   0.832   1.349  10.747 -0.3162  0.3921  0.0777
 5391SOL    HW127635   0.808   1.433  10.710 -0.1654  0.3536 -0.1046
 5391SOL    HW227636   0.813   1.284  10.680  3.2977  0.7055 -1.2409
 5392SOL     OW27637   2.636   3.071   5.864 -0.8837  0.2481  0.6440
 5392SOL    HW127638   2.720   3.084   5.907 -0.7814 -2.9256  1.4540
 5392SOL    HW227639   2.590   3.134   5.920 -1.0474 -0.1012  0.9074
 5393SOL     OW27640   4.594   0.828  15.165  0.3345 -0.1059  0.2348
 5393SOL    HW127641   4.628   0.821  15.076  2.1948  1.7740  0.7963
 5393SOL    HW227642   4.504   0.800  15.153  0.5881 -0.0976 -1.5926
 5394SOL     OW27643   2.611   2.199   5.824 -0.2230 -0.5630  0.1286
 5394SOL    HW127644   2.576   2.112   5.808  1.5864 -0.8936 -1.9950
 5394SOL    HW227645   2.538   2.254   5.853 -0.0332 -0.3806  0.2687
 5395SOL     OW27646   2.639   1.149   1.736 -0.5245 -0.0060  0.6462
 5395SOL    HW127647   2.620   1.230   1.784  0.6800 -0.6391  2.1751
 5395SOL    HW227648   2.691   1.094   1.795  1.2176 -0.8352 -1.7078
 5396SOL     OW27649   4.163   2.723   3.340 -0.2877 -0.4540 -0.1628
 5396SOL    HW127650   4.092   2.762   3.390 -0.6584  0.4105 -1.3510
 5396SOL    HW227651   4.124   2.738   3.254  2.2318 -0.7220 -1.3724
 5397SOL     OW27652   3.832   1.593   8.169 -0.4790  0.7107 -0.1889
 5397SOL    HW127653   3.893   1.626   8.235 -1.9369  0.6585  1.1635
 5397SOL    HW227654   3.841   1.662   8.103 -1.8854  1.1340  0.0706
 5398SOL     OW27655   1.231   1.397   7.119  0.5061  0.0341  0.0261
 5398SOL    HW127656   1.184   1.314   7.120  2.3658 -1.0088  0.7910
 5398SOL    HW227657   1.171   1.455   7.072 -1.3315 -1.5000  0.5133
 5399SOL     OW27658   3.494   3.702   8.519  0.1406 -0.2086  0.3532
 5399SOL    HW127659   3.492   3.755   8.599  1.2905 -1.9099  1.4893
 5399SOL    HW227660   3.449   3.618   8.522  1.5242 -0.8689  2.9508
 5400SOL     OW27661   0.282   4.182   0.813  0.1286 -0.2882  0.2529
 5400SOL    HW127662   0.190   4.160   0.805 -0.2410  1.1467  0.7147
 5400SOL    HW227663   0.288   4.199   0.719 -0.0716  0.7123  0.4285
 5401SOL     OW27664   2.504   0.555   7.677  0.7653 -0.1793 -0.0691
 5401SOL    HW127665   2.477   0.565   7.585  0.3784  1.6198  0.2355
 5401SOL    HW227666   2.455   0.629   7.714  1.2013 -0.3466  0.8208
 5402SOL     OW27667   3.298   3.385  12.632  0.0361 -0.0258  0.5558
 5402SOL    HW127668   3.225   3.443  12.610  0.1862 -0.4980 -1.1996
 5402SOL    HW227669   3.312   3.403  12.725  0.5608  3.9940 -0.2700
 5403SOL     OW27670   1.883   3.070   6.731  0.1763  0.5186 -0.1616
 5403SOL    HW127671   1.918   3.036   6.813 -0.3683  0.7594  0.1691
 5403SOL    HW227672   1.946   3.143   6.724 -1.1331  1.7828  1.3056
 5404SOL     OW27673   4.355   3.915  16.566 -0.6011  0.0553 -0.0031
 5404SOL    HW127674   4.317   3.967  16.496 -0.0061  0.7560  0.1916
 5404SOL    HW227675   4.408   3.853  16.517 -0.5489  0.5091 -0.5223
 5405SOL     OW27676   3.834   1.184   2.042  0.4008 -0.0449 -0.3935
 5405SOL    HW127677   3.798   1.096   2.055 -0.6686  0.3562 -0.5971
 5405SOL    HW227678   3.926   1.169   2.022  0.2313 -0.4361 -0.8899
 5406SOL     OW27679   3.939   4.453  12.948  0.2215  0.4724  0.0924
 5406SOL    HW127680   3.952   4.360  12.969  3.2942  1.2610  1.5770
 5406SOL    HW227681   3.935   4.459  12.853 -0.6461 -0.3208  0.0712
 5407SOL     OW27682   2.170   1.100   8.577 -0.1160 -0.7110 -0.3854
 5407SOL    HW127683   2.228   1.100   8.653  1.5366 -1.3378 -1.6612
 5407SOL    HW227684   2.189   1.013   8.543 -0.4928 -1.3611  1.0472
 5408SOL     OW27685   2.273   4.581  13.953 -0.2380  0.1390 -0.4042
 5408SOL    HW127686   2.241   4.638  14.023  0.1664  2.3337 -1.9813
 5408SOL    HW227687   2.239   4.629  13.877  0.1566  1.4794  0.2702
 5409SOL     OW27688   1.789   0.855   4.715 -0.6911 -0.4721 -0.7899
 5409SOL    HW127689   1.715   0.850   4.774 -0.3204  1.8387 -0.1399
 5409SOL    HW227690   1.752   0.810   4.639 -0.7935 -0.1877 -0.9068
 5410SOL     OW27691   4.244   3.854   0.076 -0.1140 -0.2652 -0.2505
 5410SOL    HW127692   4.338   3.836   0.070 -0.3727 -1.0630 -1.8915
 5410SOL    HW227693   4.200   3.772   0.052 -2.5823  0.8975  0.2980
 5411SOL     OW27694   4.245   3.108   9.710  0.7323 -0.3271 -0.4567
 5411SOL    HW127695   4.318   3.095   9.649  0.2316 -1.8053 -0.7333
 5411SOL    HW227696   4.188   3.034   9.687 -0.6922  0.3802  0.8574
 5412SOL     OW27697   0.491   2.485   8.043 -0.6814  0.4240  0.0011
 5412SOL    HW127698   0.554   2.413   8.044  1.3693  2.2104  0.6460
 5412SOL    HW227699   0.496   2.505   7.949  1.2984  0.2228  0.0526
 5413SOL     OW27700   1.293   1.553   3.861  0.4469 -0.2791 -0.2263
 5413SOL    HW127701   1.216   1.499   3.880  0.2027  0.4567  0.8477
 5413SOL    HW227702   1.358   1.528   3.926  0.2272 -1.2593 -0.3789
 5414SOL     OW27703   1.561   4.237   6.524  0.6384 -0.6331 -0.2824
 5414SOL    HW127704   1.600   4.225   6.437 -1.3204  0.4827 -1.3129
 5414SOL    HW227705   1.517   4.153   6.533 -0.9039  0.4322  1.8638
 5415SOL     OW27706   3.693   4.313   3.228 -0.4075  0.0489  0.3989
 5415SOL    HW127707   3.634   4.355   3.291  0.0417  3.0471 -1.1678
 5415SOL    HW227708   3.668   4.222   3.241 -4.0145  1.2772  2.2100
 5416SOL     OW27709   3.915   2.433   8.388  0.6631 -0.1869  0.3155
 5416SOL    HW127710   3.894   2.341   8.378  0.9164 -0.1708 -0.3439
 5416SOL    HW227711   3.832   2.468   8.420  0.2557 -1.0574  0.2118
 5417SOL     OW27712   3.311   3.643   3.727  0.7706 -0.5882  0.5414
 5417SOL    HW127713   3.257   3.585   3.672 -0.0922 -0.5922  1.3904
 5417SOL    HW227714   3.257   3.670   3.802 -0.9134  1.9516 -1.5638
 5418SOL     OW27715   4.208   1.656   6.370 -0.5108 -0.8138  0.2817
 5418SOL    HW127716   4.155   1.722   6.414  1.8836  0.2729  1.5159
 5418SOL    HW227717   4.152   1.579   6.384 -2.3147  0.2925 -0.8953
 5419SOL     OW27718   4.065   3.849  16.221  0.2991 -0.2525 -0.2992
 5419SOL    HW127719   4.122   3.867  16.145 -0.8757  2.8038 -0.4715
 5419SOL    HW227720   4.054   3.938  16.256 -0.5878 -0.9541  1.1880
 5420SOL     OW27721   1.860   3.337   1.992 -0.2788 -0.0663  0.0517
 5420SOL    HW127722   1.951   3.323   2.017 -0.3898  2.1394  1.6572
 5420SOL    HW227723   1.820   3.325   2.078 -2.4632  1.8161 -0.6973
 5421SOL     OW27724   3.668   1.326   6.063 -0.4361 -0.1270 -0.2493
 5421SOL    HW127725   3.689   1.292   6.150  0.0804 -3.6964 -1.7638
 5421SOL    HW227726   3.720   1.406   6.058 -0.7421  0.0802 -0.1247
 5422SOL     OW27727   2.254   2.553  10.566 -0.9309 -0.1035  0.5792
 5422SOL    HW127728   2.195   2.628  10.567  1.0736  1.4813  0.4445
 5422SOL    HW227729   2.277   2.539  10.474  0.8418  3.8166  0.3928
 5423SOL     OW27730   1.655   1.399   8.018  0.3794 -0.1520 -0.7890
 5423SOL    HW127731   1.715   1.398   7.943  2.0428 -1.2272  0.5462
 5423SOL    HW227732   1.592   1.464   7.989 -0.0312 -1.3883 -2.6668
 5424SOL     OW27733   3.765   3.703   0.944 -0.4405  0.0465  0.1976
 5424SOL    HW127734   3.794   3.652   1.020  0.9636  1.3116  0.5058
 5424SOL    HW227735   3.722   3.635   0.891 -1.9557 -0.8617  2.5878
 5425SOL     OW27736   2.529   2.285   3.542 -0.0216  0.6008 -0.2087
 5425SOL    HW127737   2.475   2.233   3.482  0.3449  1.1084 -0.9809
 5425SOL    HW227738   2.455   2.300   3.601  0.2427  0.0691  0.2505
 5426SOL     OW27739   2.909   0.570   0.859  0.0360  0.0497 -0.6777
 5426SOL    HW127740   2.884   0.630   0.930  1.1480 -0.3437  0.0487
 5426SOL    HW227741   2.996   0.542   0.888 -1.0873 -1.8020  0.9215
 5427SOL     OW27742   4.628   0.832   3.395 -0.0892 -0.7681  0.1090
 5427SOL    HW127743   4.596   0.827   3.485 -0.7615  0.5947 -0.0464
 5427SOL    HW227744   4.613   0.743   3.365 -3.4263  0.3592 -1.5495
 5428SOL     OW27745   2.530   1.965   5.751 -0.2324  0.5445  0.8987
 5428SOL    HW127746   2.477   1.897   5.792  1.0643 -0.1297  1.4836
 5428SOL    HW227747   2.588   1.906   5.702  1.2123  1.0917  1.9525
 5429SOL     OW27748   0.328   1.114   6.428  0.3987 -0.0588 -0.1621
 5429SOL    HW127749   0.237   1.134   6.406  0.1492 -0.7451  0.2587
 5429SOL    HW227750   0.317   1.021   6.410  1.4705 -0.0278 -0.9682
 5430SOL     OW27751   2.679   1.306   5.414  0.4663 -0.2898 -0.1986
 5430SOL    HW127752   2.706   1.278   5.327  0.4172 -2.0644  0.3661
 5430SOL    HW227753   2.687   1.226   5.466 -0.6404  0.0125  0.4457
 5431SOL     OW27754   2.414   2.131   5.162 -0.2421  0.3683 -0.5056
 5431SOL    HW127755   2.372   2.217   5.167 -2.5475 -0.8460  0.8665
 5431SOL    HW227756   2.362   2.089   5.094 -2.6066  1.9504  0.3555
 5432SOL     OW27757   2.527   4.023   9.362  0.5964  0.0069 -0.0286
 5432SOL    HW127758   2.511   4.020   9.267 -0.8221 -0.2289  0.2320
 5432SOL    HW227759   2.443   3.992   9.393  0.4862 -0.2650 -0.5966
 5433SOL     OW27760   4.579   4.681   3.888 -0.3835 -0.3906  0.4858
 5433SOL    HW127761   4.577   4.703   3.981  0.0397 -0.1766  0.4413
 5433SOL    HW227762   4.506   4.620   3.879 -0.8894  0.4708 -1.1875
 5434SOL     OW27763   0.945   2.819   2.342  0.6938 -0.0603  0.0945
 5434SOL    HW127764   0.892   2.768   2.403  1.9934 -0.4133  0.9303
 5434SOL    HW227765   1.011   2.845   2.406  1.3092 -1.4200  0.0215
 5435SOL     OW27766   4.241   2.084   4.496 -0.8371  0.7189 -0.7602
 5435SOL    HW127767   4.278   2.149   4.555 -1.2222  0.0748  0.1889
 5435SOL    HW227768   4.152   2.117   4.498 -1.3633 -0.6901 -0.8794
 5436SOL     OW27769   4.256   1.711   2.906  0.2927 -0.1608  0.7635
 5436SOL    HW127770   4.313   1.715   2.983  0.3373 -2.5687  0.8372
 5436SOL    HW227771   4.177   1.752   2.941 -2.4955 -3.6463 -1.4847
 5437SOL     OW27772   1.437   4.159   2.295  0.1866 -0.2986 -0.2376
 5437SOL    HW127773   1.389   4.113   2.226  0.2715 -1.2285  0.3263
 5437SOL    HW227774   1.523   4.116   2.301  0.5489  0.5631  0.6196
 5438SOL     OW27775   3.591   0.179  10.215 -0.4105  0.3251  0.2959
 5438SOL    HW127776   3.549   0.177  10.301 -0.1082 -0.6790  0.4230
 5438SOL    HW227777   3.636   0.094  10.217  0.7248  0.9410  1.4038
 5439SOL     OW27778   4.721   0.079   5.079 -0.0778 -0.3759  0.2075
 5439SOL    HW127779   4.702   0.004   5.136  1.4210 -0.8374  0.1162
 5439SOL    HW227780   4.662   0.074   5.005  0.1607 -0.6078  0.0359
 5440SOL     OW27781   2.254   2.112   2.695  0.5185  0.1022  0.5207
 5440SOL    HW127782   2.278   2.058   2.620  0.1508  2.8455 -1.5682
 5440SOL    HW227783   2.217   2.185   2.645  2.1894  0.3671 -0.3198
 5441SOL     OW27784   1.763   0.096  16.484  0.2256  0.8024  0.3266
 5441SOL    HW127785   1.840   0.092  16.426 -1.1672  0.2779 -1.4861
 5441SOL    HW227786   1.729   0.178  16.448  1.3831  1.1608  0.0503
 5442SOL     OW27787   1.579   0.011   0.139 -0.2542 -0.1405  0.4053
 5442SOL    HW127788   1.653   4.713   0.196 -0.2467  2.2982  1.3655
 5442SOL    HW227789   1.606   4.685   0.063  0.5774  1.6420 -0.4889
 5443SOL     OW27790   2.362   0.689   8.983  0.4064 -0.0391  0.2651
 5443SOL    HW127791   2.377   0.705   9.076 -1.2348 -0.0480  0.5275
 5443SOL    HW227792   2.276   0.647   8.981 -0.4562  1.7710 -0.8721
 5444SOL     OW27793   1.015   3.179   4.280  0.4991 -1.0204 -0.1102
 5444SOL    HW127794   1.049   3.237   4.348  0.3161 -0.0100 -0.8751
 5444SOL    HW227795   1.031   3.091   4.313 -3.1512 -1.7500 -0.2618
 5445SOL     OW27796   0.917   3.862   4.111 -0.6238 -0.5011  0.0965
 5445SOL    HW127797   1.009   3.857   4.084 -0.7898 -1.4214 -0.2985
 5445SOL    HW227798   0.907   3.933   4.174  1.2445  0.3241 -0.5434
 5446SOL     OW27799   0.386   2.289  11.972  0.3893 -0.5412  0.2918
 5446SOL    HW127800   0.456   2.240  12.015  0.3467 -0.9187 -0.0679
 5446SOL    HW227801   0.328   2.216  11.952  0.8612 -1.1068  0.9795
 5447SOL     OW27802   0.726   1.267   3.617  0.2208 -0.0160 -0.4804
 5447SOL    HW127803   0.723   1.313   3.701 -2.0814 -0.1947 -0.4534
 5447SOL    HW227804   0.679   1.328   3.560 -1.8478 -1.4860 -0.3490
 5448SOL     OW27805   4.219   2.634  12.304  0.9671 -0.0929 -0.1997
 5448SOL    HW127806   4.244   2.579  12.230 -2.4133 -5.0476  2.3239
 5448SOL    HW227807   4.271   2.713  12.290 -1.4465  1.7735  1.0903
 5449SOL     OW27808   0.172   0.058   8.852  0.7034 -0.3065 -0.2608
 5449SOL    HW127809   0.219   0.016   8.924 -1.2851  1.4449  2.0447
 5449SOL    HW227810   0.221   0.020   8.779 -0.9322 -2.2867 -0.2957
 5450SOL     OW27811   2.348   0.870   9.494  0.8913  0.3630 -0.0501
 5450SOL    HW127812   2.260   0.908   9.493  0.2626 -1.0302  1.1440
 5450SOL    HW227813   2.360   0.859   9.589 -0.6325 -0.8799  0.0038
 5451SOL     OW27814   3.309   2.066   4.161 -0.4963 -0.3181  0.6561
 5451SOL    HW127815   3.393   2.022   4.154 -0.1051  0.9619 -2.6503
 5451SOL    HW227816   3.295   2.078   4.067  0.4778  1.8294  0.7865
 5452SOL     OW27817   0.185   2.620  11.218 -0.2265  0.2798  0.2088
 5452SOL    HW127818   0.170   2.555  11.286 -2.6206  1.3136  0.6697
 5452SOL    HW227819   0.257   2.571  11.178 -1.3599  0.7893 -2.4600
 5453SOL     OW27820   2.851   2.561   5.019  0.4288  0.1353  0.0439
 5453SOL    HW127821   2.876   2.470   5.004  1.3723  0.4357 -0.2272
 5453SOL    HW227822   2.771   2.573   4.967  1.3148  0.2730 -1.2855
 5454SOL     OW27823   2.857   3.072   5.004 -0.5544  0.5678 -0.1316
 5454SOL    HW127824   2.840   3.005   5.071  2.1986 -0.6358 -0.6310
 5454SOL    HW227825   2.785   3.131   5.024 -1.7184 -0.4144 -1.3719
 5455SOL     OW27826   0.064   4.540   8.217 -0.3171 -0.0086 -0.6009
 5455SOL    HW127827   0.090   4.546   8.309  0.6711 -0.8952 -0.8240
 5455SOL    HW227828   0.070   4.445   8.207 -0.7109 -0.0912 -0.0515
 5456SOL     OW27829   0.982   3.121   5.801  0.0381 -0.3952 -0.9352
 5456SOL    HW127830   1.051   3.137   5.736  1.3985 -0.1788  0.5597
 5456SOL    HW227831   0.968   3.214   5.818 -1.4207 -0.8818  0.4154
 5457SOL     OW27832   2.615   1.500   5.782 -0.6745 -0.2944  0.1817
 5457SOL    HW127833   2.543   1.496   5.719  0.1895  2.2703 -0.9749
 5457SOL    HW227834   2.697   1.501   5.733 -0.4559  2.3101  0.5849
 5458SOL     OW27835   3.353   0.542   8.300  0.2910  0.1466  0.4157
 5458SOL    HW127836   3.263   0.570   8.285 -0.4631 -1.9308  1.0511
 5458SOL    HW227837   3.399   0.626   8.290 -1.6554  1.0065 -1.2732
 5459SOL     OW27838   4.199   1.922   2.688  0.0459  0.0306  0.2797
 5459SOL    HW127839   4.169   1.849   2.633  2.3317  0.0424 -0.9800
 5459SOL    HW227840   4.195   1.885   2.776 -1.2758 -0.5311 -0.0055
 5460SOL     OW27841   2.403   0.816   6.679 -0.1708 -0.1286  0.5422
 5460SOL    HW127842   2.448   0.780   6.755  1.3479  0.3500 -0.1298
 5460SOL    HW227843   2.479   0.826   6.621 -0.6827 -2.7790 -0.5624
 5461SOL     OW27844   3.451   1.979   1.626  0.8563 -0.3484 -0.6962
 5461SOL    HW127845   3.494   1.925   1.560  1.5792 -0.0147 -0.4971
 5461SOL    HW227846   3.400   2.026   1.560  1.7458 -0.7089 -1.6341
 5462SOL     OW27847   3.543   0.203   8.163 -0.8263  0.3051 -0.7675
 5462SOL    HW127848   3.551   0.175   8.071 -0.1867  2.0427 -1.2543
 5462SOL    HW227849   3.587   0.131   8.206 -0.2775  1.0205 -0.1422
 5463SOL     OW27850   0.857   0.314   7.953 -0.2426  0.1231  0.3082
 5463SOL    HW127851   0.855   0.294   8.046  0.7450 -0.6033  0.1651
 5463SOL    HW227852   0.951   0.305   7.939  0.2328 -0.2383  3.9736
 5464SOL     OW27853   3.713   1.260   5.805 -0.0027 -0.3534  0.1006
 5464SOL    HW127854   3.776   1.314   5.757  1.7595 -1.4619  1.1350
 5464SOL    HW227855   3.681   1.309   5.881  0.5897  0.0968  0.0630
 5465SOL     OW27856   2.703   1.524   1.487  0.1018  0.2488  0.2419
 5465SOL    HW127857   2.638   1.539   1.419  0.2530 -1.0882 -0.2004
 5465SOL    HW227858   2.713   1.431   1.465  0.8761  0.4507 -0.2677
 5466SOL     OW27859   3.293   0.675   2.210  0.2814 -0.0639 -0.2778
 5466SOL    HW127860   3.326   0.627   2.135 -1.9109  0.6390 -1.6698
 5466SOL    HW227861   3.272   0.603   2.269 -2.0038  0.9624  0.1708
 5467SOL     OW27862   3.573   1.177  11.724  0.1093 -0.0944  0.1722
 5467SOL    HW127863   3.627   1.108  11.765 -2.2492 -0.7751  2.1059
 5467SOL    HW227864   3.500   1.182  11.785 -0.3420  0.0567 -0.3825
 5468SOL     OW27865   2.535   4.199   6.200  0.3420  0.5246 -0.2312
 5468SOL    HW127866   2.607   4.138   6.183 -0.0535 -0.1903  0.6351
 5468SOL    HW227867   2.584   4.248   6.266  2.1205 -2.2138  0.5033
 5469SOL     OW27868   2.100   2.743   9.092  0.4024  0.0339 -0.1267
 5469SOL    HW127869   2.116   2.693   9.172  0.4801  0.0108 -0.1570
 5469SOL    HW227870   2.098   2.835   9.121  1.0530  0.1568 -0.4747
 5470SOL     OW27871   0.067   1.015  15.064  0.7759 -1.2328  0.4576
 5470SOL    HW127872   4.715   0.966  15.096  0.6606  0.2359  2.4975
 5470SOL    HW227873   0.137   0.950  15.057 -0.1557 -2.0983 -0.6552
 5471SOL     OW27874   3.997   1.240   5.561 -0.3206 -0.9603 -0.2687
 5471SOL    HW127875   4.009   1.148   5.584 -1.4605 -1.2866 -0.9734
 5471SOL    HW227876   3.906   1.220   5.540  0.1645 -1.9870 -1.3919
 5472SOL     OW27877   4.624   4.569   3.209  0.3656  0.3396  0.2318
 5472SOL    HW127878   4.588   4.481   3.202 -0.0692  0.6366 -1.3111
 5472SOL    HW227879   4.708   4.552   3.165  0.6727 -3.5636  2.3294
 5473SOL     OW27880   2.622   1.649   2.589 -0.0115  0.9344  0.4997
 5473SOL    HW127881   2.538   1.645   2.634 -0.9246  1.8722 -1.1371
 5473SOL    HW227882   2.614   1.568   2.539 -1.7609  0.2035  1.9592
 5474SOL     OW27883   3.490   0.782   8.261  0.1704 -0.3451  0.3948
 5474SOL    HW127884   3.481   0.790   8.166 -0.0333 -2.0890  0.2699
 5474SOL    HW227885   3.528   0.867   8.282  1.6571 -0.3413 -2.2272
 5475SOL     OW27886   2.380   4.108   8.765  0.0817 -0.3091 -0.1392
 5475SOL    HW127887   2.340   4.175   8.821  3.8067  1.4416  0.4246
 5475SOL    HW227888   2.310   4.064   8.717  0.0832  0.1113 -0.5260
 5476SOL     OW27889   0.896   4.277  14.124  0.2714 -0.3246 -0.2711
 5476SOL    HW127890   0.949   4.229  14.188  0.1805 -1.8717 -1.3376
 5476SOL    HW227891   0.867   4.345  14.184  0.6146 -1.2728  0.9814
 5477SOL     OW27892   3.628   2.550  13.836  0.0574 -0.2656 -0.2146
 5477SOL    HW127893   3.617   2.632  13.788 -1.5066 -0.1927  0.2613
 5477SOL    HW227894   3.535   2.539  13.855  0.3969  0.1806  1.6586
 5478SOL     OW27895   2.719   2.948  16.726 -0.3751 -0.6820  0.0991
 5478SOL    HW127896   2.641   2.956  16.780 -1.6299  0.4012 -1.8432
 5478SOL    HW227897   2.790   2.987  16.778  0.2339 -1.0559 -0.4410
 5479SOL     OW27898   1.421   2.319   8.478  0.1485 -0.0692  0.0495
 5479SOL    HW127899   1.365   2.269   8.536 -0.3129 -1.1683 -1.3370
 5479SOL    HW227900   1.442   2.252   8.413 -2.8267 -1.3305  0.3779
 5480SOL     OW27901   1.495   0.023   9.613  0.3122  0.2977  0.1689
 5480SOL    HW127902   1.563   4.707   9.559 -0.0721 -0.7682  0.4965
 5480SOL    HW227903   1.530   0.102   9.654 -1.4561  2.0008 -1.5501
 5481SOL     OW27904   1.069   0.676   9.395 -0.2130 -0.5948  0.3966
 5481SOL    HW127905   1.073   0.767   9.366  1.1232 -0.2072  1.8122
 5481SOL    HW227906   1.141   0.676   9.458 -0.5776  0.9128  0.8076
 5482SOL     OW27907   0.276   4.671   5.183 -0.0482 -0.4268 -0.5299
 5482SOL    HW127908   0.259   4.581   5.153  1.6290 -0.5047 -1.3033
 5482SOL    HW227909   0.214   4.708   5.120  0.9205  1.1910 -0.5245
 5483SOL     OW27910   3.616   3.170  12.643  0.6800 -0.3535 -0.0308
 5483SOL    HW127911   3.655   3.083  12.652 -0.1566 -0.6460  0.7695
 5483SOL    HW227912   3.670   3.226  12.699 -0.5882 -0.3292  1.1839
 5484SOL     OW27913   0.645   0.294  15.628  0.0983 -0.0926 -0.2550
 5484SOL    HW127914   0.736   0.317  15.643  0.1109  0.7343 -1.6146
 5484SOL    HW227915   0.646   0.240  15.548 -0.6594  0.5645 -0.7106
 5485SOL     OW27916   0.189   3.287   8.220  0.0245 -0.4595  0.4884
 5485SOL    HW127917   0.265   3.229   8.208  0.0773 -0.2768 -0.0518
 5485SOL    HW227918   0.181   3.290   8.316 -2.8492 -3.4379  0.3513
 5486SOL     OW27919   2.178   2.009   5.980  0.7344 -0.5260 -0.0575
 5486SOL    HW127920   2.129   1.929   6.000 -0.0776  0.1148  0.5018
 5486SOL    HW227921   2.118   2.074   5.943 -2.3426 -0.3345  5.2759
 5487SOL     OW27922   3.705   4.253  14.350  0.0315 -0.3755 -0.1925
 5487SOL    HW127923   3.738   4.329  14.301 -2.1408  0.2745 -0.6688
 5487SOL    HW227924   3.709   4.184  14.283  1.3024  0.7531 -1.2812
 5488SOL     OW27925   1.032   4.664   0.571  0.3522 -0.0919  0.4682
 5488SOL    HW127926   1.105   4.662   0.509 -1.0362  0.4059 -1.1925
 5488SOL    HW227927   1.055   0.009   0.633  2.5322 -0.5276  0.1387
 5489SOL     OW27928   4.239   0.317  12.967  0.0022 -0.2061  0.3289
 5489SOL    HW127929   4.217   0.407  12.990 -1.4568 -0.1746 -1.1686
 5489SOL    HW227930   4.256   0.282  13.054  2.4003  0.1094 -0.0191
 5490SOL     OW27931   1.531   0.283   9.304  0.1754  0.0520 -0.5194
 5490SOL    HW127932   1.604   0.274   9.244  1.3501 -0.7861  1.0375
 5490SOL    HW227933   1.472   0.211   9.282 -0.4416  0.6345 -0.7911
 5491SOL     OW27934   3.726   1.671   2.554 -0.2616  0.3401 -0.4680
 5491SOL    HW127935   3.767   1.744   2.601 -1.5542  1.1755 -0.6352
 5491SOL    HW227936   3.649   1.716   2.519 -1.1597 -3.4407 -3.3450
 5492SOL     OW27937   3.562   1.843   2.854 -0.0580  0.1204  0.3205
 5492SOL    HW127938   3.542   1.904   2.783 -1.1616 -2.4019 -1.5329
 5492SOL    HW227939   3.616   1.900   2.909  3.1386 -1.2329 -1.4243
 5493SOL     OW27940   2.165   3.594  10.762  0.3550  0.2244  0.4269
 5493SOL    HW127941   2.170   3.499  10.757 -0.0406  0.2385 -0.2770
 5493SOL    HW227942   2.181   3.600  10.857 -1.3734  0.3476  0.7124
 5494SOL     OW27943   2.254   1.007   6.372 -0.5445 -0.4631  0.5069
 5494SOL    HW127944   2.317   0.950   6.328 -1.3361  0.3061 -1.6299
 5494SOL    HW227945   2.245   0.943   6.443  0.1694 -1.8867 -0.6737
 5495SOL     OW27946   3.367   4.409  12.834 -0.3345  1.0419  0.1162
 5495SOL    HW127947   3.275   4.385  12.828  0.5472 -1.7412 -2.0204
 5495SOL    HW227948   3.397   4.355  12.762  2.4161  0.7692  1.4378
 5496SOL     OW27949   2.337   0.189   2.046 -0.0512 -0.4289 -0.3804
 5496SOL    HW127950   2.396   0.145   2.107 -1.1424 -0.7971  0.4248
 5496SOL    HW227951   2.278   0.116   2.025  0.0371 -0.3691 -0.8288
 5497SOL     OW27952   3.033   2.462  16.803  0.1731  0.0100 -0.9311
 5497SOL    HW127953   3.114   2.415  16.783  0.3490  0.2029 -0.6588
 5497SOL    HW227954   2.993   2.482  16.718  1.1179  0.6761 -1.2108
 5498SOL     OW27955   4.569   0.015  13.035 -0.4571  0.3075 -0.1012
 5498SOL    HW127956   4.575   4.645  13.045 -0.5772 -0.0096 -3.1873
 5498SOL    HW227957   4.498   0.021  12.971  0.6054 -0.1107 -1.2926
 5499SOL     OW27958   3.507   1.759   2.294 -0.1041 -0.1838 -0.0873
 5499SOL    HW127959   3.415   1.772   2.316 -0.7560 -2.7715 -1.2714
 5499SOL    HW227960   3.496   1.668   2.263 -1.9507  0.4135 -1.1795
 5500SOL     OW27961   3.510   2.273   9.903 -0.1821  0.3539  0.4213
 5500SOL    HW127962   3.481   2.338   9.839  2.3181  1.8229  0.7876
 5500SOL    HW227963   3.604   2.264   9.893 -0.2090 -2.6728  2.9259
 5501SOL     OW27964   4.028   3.564   5.294 -0.0810 -0.2029  0.0883
 5501SOL    HW127965   4.017   3.591   5.203  0.3003  2.3084  0.7701
 5501SOL    HW227966   4.012   3.470   5.283 -1.2418  0.1349 -1.1512
 5502SOL     OW27967   3.862   1.853   2.707 -0.1245 -0.2087  0.0174
 5502SOL    HW127968   3.862   1.926   2.646  0.3260  0.0000  0.2691
 5502SOL    HW227969   3.942   1.802   2.696 -1.3140 -1.9275 -0.7481
 5503SOL     OW27970   0.035   1.645   0.497  0.0286 -0.2211  0.0172
 5503SOL    HW127971   0.110   1.609   0.544 -0.7681 -2.5100 -0.4638
 5503SOL    HW227972   0.002   1.565   0.457  0.2293 -0.8633  1.1520
 5504SOL     OW27973   4.547   3.876   9.800 -0.6785  0.0889  0.0477
 5504SOL    HW127974   4.466   3.919   9.828  0.5343  1.6646  1.1672
 5504SOL    HW227975   4.550   3.896   9.707  0.2288  1.3972  0.3525
 5505SOL     OW27976   0.062   3.343   8.825 -0.2936 -0.0582  0.5420
 5505SOL    HW127977   0.027   3.278   8.765 -0.7294  1.5465 -0.9627
 5505SOL    HW227978   0.115   3.290   8.884 -0.1849  0.6045  1.0380
 5506SOL     OW27979   0.821   1.404   2.888  0.3342  0.0548  0.6635
 5506SOL    HW127980   0.843   1.492   2.857 -1.3935  0.6160  1.0677
 5506SOL    HW227981   0.744   1.379   2.837  0.8297 -0.0559 -0.0332
 5507SOL     OW27982   3.596   3.562  16.382 -0.3812 -0.1057 -0.2216
 5507SOL    HW127983   3.596   3.520  16.296  1.8240 -2.9619  1.1908
 5507SOL    HW227984   3.652   3.495  16.421  0.1142  0.3786 -0.1016
 5508SOL     OW27985   3.284   4.061  11.253 -0.3427 -0.5537 -0.5391
 5508SOL    HW127986   3.295   4.032  11.163 -1.5549  0.6140 -1.0542
 5508SOL    HW227987   3.363   4.110  11.275 -0.6663 -0.6802  0.9224
 5509SOL     OW27988   1.624   3.205  15.545  0.2290  0.6046  0.5688
 5509SOL    HW127989   1.636   3.296  15.570  1.1288  0.6842 -0.1607
 5509SOL    HW227990   1.645   3.151  15.621  1.1539  0.8705  0.5038
 5510SOL     OW27991   4.519   0.648   7.858 -0.6226 -0.4980 -0.4008
 5510SOL    HW127992   4.496   0.678   7.946  1.7319  0.0079  0.0588
 5510SOL    HW227993   4.468   0.568   7.868  1.7142 -1.5479  3.3147
 5511SOL     OW27994   3.740   0.455   5.071 -0.0318  0.1929  0.4754
 5511SOL    HW127995   3.657   0.448   5.023  0.9498  1.9806 -1.4972
 5511SOL    HW227996   3.699   0.448   5.157 -1.3708 -2.8953 -0.3887
 5512SOL     OW27997   4.709   2.251   7.135  0.0445  0.2493  0.1961
 5512SOL    HW127998   4.678   2.340   7.116 -1.2069  0.0154  1.1674
 5512SOL    HW227999   4.693   2.219   7.046 -0.5537  1.0453  0.0145
 5513SOL     OW28000   0.152   2.361   6.533  0.9612 -0.3863  0.2349
 5513SOL    HW128001   0.152   2.265   6.539 -0.0156 -0.4139 -0.1510
 5513SOL    HW228002   0.232   2.380   6.581  0.5339 -0.9627  1.1772
 5514SOL     OW28003   2.243   1.827   7.497  0.5821 -0.1746 -0.4341
 5514SOL    HW128004   2.198   1.811   7.415  0.0317 -1.3849  0.0980
 5514SOL    HW228005   2.335   1.807   7.475  0.3649 -1.8062  0.0744
 5515SOL     OW28006   2.137   2.449   7.312 -0.0280 -0.6166 -0.2903
 5515SOL    HW128007   2.205   2.384   7.330  1.5221  1.2759  0.6554
 5515SOL    HW228008   2.084   2.445   7.392  0.5587  0.6578  0.1530
 5516SOL     OW28009   3.158   4.276   9.883  0.0779 -0.3847  0.5162
 5516SOL    HW128010   3.172   4.356   9.933  0.8762  1.2987 -2.3924
 5516SOL    HW228011   3.206   4.297   9.803 -2.4735  2.4921 -0.2419
 5517SOL     OW28012   1.670   0.199   8.850 -0.5297 -0.3750  0.3222
 5517SOL    HW128013   1.684   0.173   8.941 -2.9897 -1.5649  0.3804
 5517SOL    HW228014   1.694   0.117   8.806  0.8796  0.6528 -0.8242
 5518SOL     OW28015   2.557   2.622   0.541  0.1140  0.4486 -0.0827
 5518SOL    HW128016   2.559   2.649   0.632  1.5630  1.1169 -0.3246
 5518SOL    HW228017   2.646   2.593   0.523 -0.5739 -1.0409 -1.1595
 5519SOL     OW28018   4.668   0.055   8.454 -0.5832 -0.0653 -0.0873
 5519SOL    HW128019   4.663   0.130   8.514 -1.3672 -0.0603 -0.1594
 5519SOL    HW228020   4.645   4.709   8.515  0.9524 -1.2499 -0.8934
 5520SOL     OW28021   3.673   2.816   2.761  0.2653  0.0283 -0.7024
 5520SOL    HW128022   3.746   2.877   2.748  0.7577 -0.3226  0.3516
 5520SOL    HW228023   3.645   2.824   2.853  2.5867  2.0044 -0.1597
 5521SOL     OW28024   0.734   2.508   9.102 -0.0218 -0.3742 -0.7409
 5521SOL    HW128025   0.785   2.572   9.052 -1.6454  1.4933 -0.0197
 5521SOL    HW228026   0.646   2.545   9.100  0.9534  1.9521  0.2560
 5522SOL     OW28027   1.895   0.030   6.125 -0.2646 -0.3334  0.4274
 5522SOL    HW128028   1.880   0.010   6.217  0.2887 -0.7044  0.4390
 5522SOL    HW228029   1.973   4.700   6.113 -0.1096  0.3674 -1.7167
 5523SOL     OW28030   0.681   2.364   7.673 -0.2439 -0.3192  0.1966
 5523SOL    HW128031   0.655   2.274   7.654 -0.7917  0.5644 -3.1841
 5523SOL    HW228032   0.758   2.371   7.617  0.8334 -0.8277  1.6114
 5524SOL     OW28033   3.577   2.962   1.014 -0.2663  0.1805 -0.2500
 5524SOL    HW128034   3.636   2.956   0.939  0.9273 -0.1165  0.7173
 5524SOL    HW228035   3.508   3.013   0.971  0.5998  1.5631  0.0125
 5525SOL     OW28036   0.338   0.160   9.113 -0.0650  0.0510  0.2958
 5525SOL    HW128037   0.272   0.147   9.181 -2.1440  0.2215 -1.6814
 5525SOL    HW228038   0.361   0.071   9.085 -0.6807 -0.0463  0.1069
 5526SOL     OW28039   4.129   3.162  17.002 -0.1319 -0.3280  0.1327
 5526SOL    HW128040   4.095   3.130  16.918  2.2657 -2.2521 -0.0886
 5526SOL    HW228041   4.043   3.176  17.043 -1.1252 -2.4179 -1.2680
 5527SOL     OW28042   2.302   3.911  16.447 -0.3844 -0.2339 -0.5359
 5527SOL    HW128043   2.290   3.986  16.389 -2.6399  0.4066  0.7541
 5527SOL    HW228044   2.389   3.934  16.478 -1.1316  0.0244  1.3450
 5528SOL     OW28045   2.696   4.560   6.999  0.8861  0.0915 -0.6566
 5528SOL    HW128046   2.605   4.531   6.986 -0.0216  2.6172 -0.0072
 5528SOL    HW228047   2.717   4.609   6.919 -0.7383 -0.9122 -1.7049
 5529SOL     OW28048   2.391   2.839  17.511 -0.1993 -0.1265 -0.3264
 5529SOL    HW128049   2.477   2.826  17.550 -0.0716  1.3217 -0.1432
 5529SOL    HW228050   2.390   2.760  17.456 -4.3771 -0.7784  0.7414
 5530SOL     OW28051   2.725   4.662   9.469 -0.5488  0.3822  0.0484
 5530SOL    HW128052   2.654   4.683   9.529  1.3801 -0.2024  2.5426
 5530SOL    HW228053   2.735   4.571   9.497 -2.2039  1.3103  3.6674
 5531SOL     OW28054   1.898   4.247  13.983 -0.5141  0.6984  0.0305
 5531SOL    HW128055   1.978   4.239  13.931  1.0456  0.8870  2.3909
 5531SOL    HW228056   1.831   4.210  13.926 -0.6729  1.4107 -0.2428
 5532SOL     OW28057   1.287   2.346  17.388  0.0590  0.1651 -0.6675
 5532SOL    HW128058   1.310   2.288  17.461 -1.2651  1.3102  0.6627
 5532SOL    HW228059   1.375   2.376  17.366 -0.1703  1.1977 -0.1822
 5533SOL     OW28060   4.223   3.896   6.772 -0.0350  0.1546 -0.2876
 5533SOL    HW128061   4.307   3.924   6.808  1.1209 -1.9588 -1.2853
 5533SOL    HW228062   4.233   3.814   6.724 -0.1323  0.1540 -0.3063
 5534SOL     OW28063   0.650   1.914   6.310  0.1067 -0.9199 -0.2595
 5534SOL    HW128064   0.672   2.007   6.314  2.1209 -1.4654  1.1892
 5534SOL    HW228065   0.683   1.892   6.223  1.0198 -1.1598  0.1562
 5535SOL     OW28066   0.620   3.508   2.784 -0.1194 -0.2308 -0.3947
 5535SOL    HW128067   0.615   3.494   2.878  1.2719  1.7285 -0.0198
 5535SOL    HW228068   0.544   3.563   2.767  0.0616  1.0839  3.2550
 5536SOL     OW28069   1.473   0.386   2.172  0.0140  0.3943  0.2901
 5536SOL    HW128070   1.515   0.465   2.140  0.0297  0.6655  0.9727
 5536SOL    HW228071   1.400   0.439   2.205  0.1991 -0.0304  1.4097
 5537SOL     OW28072   3.559   2.804   6.696 -0.4203 -0.2669  0.4014
 5537SOL    HW128073   3.632   2.865   6.709  0.9359 -1.6322 -0.7013
 5537SOL    HW228074   3.575   2.759   6.613  1.0755  2.0049 -0.5450
 5538SOL     OW28075   3.506   0.068   7.495  0.1529  0.2577  0.3293
 5538SOL    HW128076   3.520   0.125   7.571  2.4990 -0.4968  0.4601
 5538SOL    HW228077   3.565   0.104   7.429  0.0119  1.2700  0.7645
 5539SOL     OW28078   0.973   4.534   5.498  0.0741  0.4969  0.0902
 5539SOL    HW128079   1.062   4.554   5.469 -0.6002  0.0161 -2.3060
 5539SOL    HW228080   0.992   4.481   5.575  2.1715  1.3020  0.1154
 5540SOL     OW28081   3.180   1.824   5.670  0.3337  0.1956 -0.0619
 5540SOL    HW128082   3.249   1.883   5.700 -1.8236  1.0242  3.3142
 5540SOL    HW228083   3.144   1.871   5.594  0.5179  2.0161  0.9858
 5541SOL     OW28084   1.665   1.107   9.362 -0.4097  0.4725 -0.1365
 5541SOL    HW128085   1.574   1.130   9.382 -0.8289 -2.7468  1.7097
 5541SOL    HW228086   1.659   1.034   9.300  0.8369  1.2361 -1.1418
 5542SOL     OW28087   0.018   2.794   9.242 -0.5439 -0.2377 -0.2001
 5542SOL    HW128088   0.015   2.752   9.156 -1.0282 -0.7023  0.0505
 5542SOL    HW228089   4.708   2.880   9.217 -1.5510 -0.4618  0.4152
 5543SOL     OW28090   0.044   0.559   9.670 -0.3261 -0.4662  0.3507
 5543SOL    HW128091   0.123   0.609   9.690 -0.7203  0.5388 -0.5987
 5543SOL    HW228092   0.006   0.572   9.757 -1.8196  1.2465 -0.5534
 5544SOL     OW28093   4.050   3.623   0.798  0.3432 -0.4492 -0.4996
 5544SOL    HW128094   3.994   3.591   0.727 -0.7104  3.8641 -1.6374
 5544SOL    HW228095   4.137   3.592   0.774  0.3177  1.1110 -2.6025
 5545SOL     OW28096   0.102   3.805  12.848  0.4338  0.8405  0.3813
 5545SOL    HW128097   0.169   3.827  12.784 -1.1521 -1.1137 -1.9638
 5545SOL    HW228098   0.115   3.869  12.918  4.5078  0.3517  0.0686
 5546SOL     OW28099   1.094   2.596   0.285  0.2121 -0.0468 -0.0214
 5546SOL    HW128100   1.103   2.681   0.330  0.7688  1.2157 -2.5231
 5546SOL    HW228101   1.023   2.624   0.227 -0.2672 -3.3667 -1.0284
 5547SOL     OW28102   0.035   0.426  11.577  0.2897  0.0919  0.5074
 5547SOL    HW128103   0.086   0.375  11.640 -0.6010 -0.8615  0.4609
 5547SOL    HW228104   0.084   0.508  11.575  3.1671 -1.7213 -1.7969
 5548SOL     OW28105   1.673   1.668  11.184 -0.2752 -0.3631  0.6430
 5548SOL    HW128106   1.620   1.747  11.180 -0.1169 -0.1584  2.4941
 5548SOL    HW228107   1.691   1.667  11.278 -2.4739 -0.4691  1.0419
 5549SOL     OW28108   2.611   1.879  17.168 -0.1205  0.5788 -0.2952
 5549SOL    HW128109   2.560   1.801  17.145  2.5268 -1.4587  0.7138
 5549SOL    HW228110   2.677   1.840  17.225 -1.4127 -0.6050  0.4065
 5550SOL     OW28111   4.095   4.542   2.609 -0.6182  0.2973  0.0107
 5550SOL    HW128112   4.022   4.482   2.591 -0.0487 -0.2452 -0.5489
 5550SOL    HW228113   4.160   4.501   2.551 -0.8465 -0.4898  0.3137
 5551SOL     OW28114   3.354   1.289   1.774  0.2614  0.2132 -0.0654
 5551SOL    HW128115   3.294   1.361   1.752  2.1309  0.9331 -2.8401
 5551SOL    HW228116   3.318   1.217   1.722 -0.3758 -0.6745  1.6137
 5552SOL     OW28117   0.293   3.217   8.992  0.5284  0.1678 -0.6791
 5552SOL    HW128118   0.374   3.266   9.005  0.6224  0.1306 -1.1274
 5552SOL    HW228119   0.279   3.178   9.079 -0.1348  0.0418 -0.8473
 5553SOL     OW28120   3.874   1.142   5.190  0.4552  0.6571  0.0953
 5553SOL    HW128121   3.963   1.167   5.166  0.5406  0.9224  0.6929
 5553SOL    HW228122   3.837   1.120   5.104 -0.3026  1.1502  0.2917
 5554SOL     OW28123   3.765   3.566   8.690 -0.4076  0.6889 -0.8241
 5554SOL    HW128124   3.757   3.660   8.676 -3.9097  0.6444  0.9708
 5554SOL    HW228125   3.739   3.537   8.603  0.7782  0.9748 -1.2841
 5555SOL     OW28126   1.837   2.610  13.017  0.0737  0.4482  0.1466
 5555SOL    HW128127   1.797   2.578  12.936  0.3377  1.0640 -0.2206
 5555SOL    HW228128   1.913   2.554  13.034 -0.6420  0.1544  2.4527
 5556SOL     OW28129   1.794   2.923   8.208 -0.0320  0.9116 -0.6579
 5556SOL    HW128130   1.782   2.872   8.287  3.5047  0.2565 -0.5167
 5556SOL    HW228131   1.777   2.868   8.131 -0.1903  2.1739 -1.5346
 5557SOL     OW28132   1.636   1.158  10.857  0.0725  0.3425  0.0409
 5557SOL    HW128133   1.716   1.185  10.812 -0.6722 -0.3032 -1.6790
 5557SOL    HW228134   1.667   1.068  10.865 -1.2417 -0.2183 -1.1278
 5558SOL     OW28135   4.541   2.156   2.361  0.0137  0.0460  0.0005
 5558SOL    HW128136   4.473   2.177   2.425  2.1767  1.6567  1.7917
 5558SOL    HW228137   4.537   2.060   2.358  0.2969  0.1159 -2.2714
 5559SOL     OW28138   2.339   2.141   6.611 -0.7233  0.4637  0.2710
 5559SOL    HW128139   2.282   2.082   6.561  0.0882 -1.6342  1.8438
 5559SOL    HW228140   2.352   2.218   6.555  4.4754  0.5725  1.7020
 5560SOL     OW28141   0.138   2.289   4.929 -0.2026 -0.0934 -0.0859
 5560SOL    HW128142   0.152   2.237   4.850  1.7408  1.1487 -0.5482
 5560SOL    HW228143   0.106   2.218   4.985 -0.5658  2.1457  2.5587
 5561SOL     OW28144   4.561   1.269   6.537  0.2227 -0.3823  0.3067
 5561SOL    HW128145   4.560   1.219   6.455  3.1801 -2.9098  1.7981
 5561SOL    HW228146   4.498   1.325   6.491  0.4781  0.1272  0.5743
 5562SOL     OW28147   2.114   2.084   0.337  0.1813 -0.8806  0.6589
 5562SOL    HW128148   2.187   2.080   0.276 -0.5094 -0.7026 -0.1670
 5562SOL    HW228149   2.158   2.085   0.422 -0.6734 -0.8437  1.0971
 5563SOL     OW28150   3.830   0.774   7.882 -0.3746  0.7887  0.3931
 5563SOL    HW128151   3.771   0.719   7.830  0.4611  2.2196 -2.0460
 5563SOL    HW228152   3.838   0.723   7.963 -3.1609  0.4990  0.4793
 5564SOL     OW28153   1.688   2.629   4.749 -0.0041  0.2961 -0.8029
 5564SOL    HW128154   1.729   2.592   4.670 -1.3878 -0.0122 -1.3685
 5564SOL    HW228155   1.705   2.722   4.733 -1.2330  1.0401  2.3597
 5565SOL     OW28156   4.009   2.983   7.970 -0.1053 -0.3258  0.3699
 5565SOL    HW128157   3.985   3.018   7.885 -1.1310  0.7906  1.1220
 5565SOL    HW228158   3.920   2.963   7.998 -0.2453  0.2440  0.3353
 5566SOL     OW28159   3.380   1.776   7.666 -0.0747 -0.2927  0.0698
 5566SOL    HW128160   3.425   1.793   7.583 -0.6839 -2.0996 -0.6240
 5566SOL    HW228161   3.369   1.681   7.656  0.6086 -0.4573  0.8170
 5567SOL     OW28162   1.115   3.030  14.651 -0.5959  0.6120 -0.0892
 5567SOL    HW128163   1.072   3.096  14.597  0.7416  1.4318 -0.1430
 5567SOL    HW228164   1.038   2.975  14.666 -0.4392  0.6858  1.0416
 5568SOL     OW28165   1.042   3.593   1.828 -0.0175 -0.1467 -0.2839
 5568SOL    HW128166   1.122   3.541   1.837 -0.7419 -1.1714  0.2108
 5568SOL    HW228167   1.063   3.636   1.745 -0.3665  0.2717 -0.1582
 5569SOL     OW28168   3.503   1.332   0.223  0.0947 -0.2501 -0.4792
 5569SOL    HW128169   3.512   1.245   0.185 -0.5512 -0.2008 -0.7458
 5569SOL    HW228170   3.546   1.380   0.153  0.5447 -1.1636 -0.8241
 5570SOL     OW28171   0.933   0.166  12.449  0.0143 -0.3885  0.1530
 5570SOL    HW128172   0.876   0.123  12.386 -1.6428  0.0266  1.3633
 5570SOL    HW228173   0.870   0.197  12.514  0.8836  1.2561  0.2159
 5571SOL     OW28174   3.722   3.315   0.863 -0.1313  0.5032 -0.0830
 5571SOL    HW128175   3.704   3.404   0.832  0.8703  0.4967 -0.6527
 5571SOL    HW228176   3.758   3.268   0.788 -5.0088 -2.7515 -0.4102
 5572SOL     OW28177   3.639   4.560  17.051  0.7366 -0.2341  0.6229
 5572SOL    HW128178   3.619   4.573  17.144  2.5990  1.0916  0.8285
 5572SOL    HW228179   3.689   4.480  17.064  0.7183 -0.0941  1.5843
 5573SOL     OW28180   4.657   1.278   6.927 -0.4761  0.1581  1.0731
 5573SOL    HW128181   4.714   1.283   7.004  0.7470 -1.6438  0.2806
 5573SOL    HW228182   4.672   1.189   6.894 -0.0639  0.5808  0.1355
 5574SOL     OW28183   0.154   0.981   9.206  0.3096 -0.2713 -0.0837
 5574SOL    HW128184   0.125   0.902   9.251  0.9648 -0.0973  0.6424
 5574SOL    HW228185   0.088   0.991   9.138  1.1903  1.2076 -0.7260
 5575SOL     OW28186   3.845   1.617  13.920 -0.5555 -0.1240 -0.4581
 5575SOL    HW128187   3.876   1.679  13.855  0.9145 -0.3283  0.0359
 5575SOL    HW228188   3.766   1.661  13.952 -0.7149  0.4603 -1.6804
 5576SOL     OW28189   2.314   3.052   3.383 -0.3050 -0.0817 -0.3505
 5576SOL    HW128190   2.358   2.997   3.319 -2.0616 -0.3783 -1.3147
 5576SOL    HW228191   2.370   3.130   3.386  1.9102 -1.7495  1.7246
 5577SOL     OW28192   0.295   0.627  16.479  0.4017  0.2709 -0.1618
 5577SOL    HW128193   0.363   0.679  16.437  0.0647 -0.4698 -1.6315
 5577SOL    HW228194   0.346   0.584  16.548 -0.5629  0.0430  0.4052
 5578SOL     OW28195   1.728   0.047  10.474 -0.4330 -0.3505 -0.1302
 5578SOL    HW128196   1.680   0.043  10.556 -1.1312  0.4031 -0.4963
 5578SOL    HW228197   1.730   0.142  10.463 -1.3960 -0.3270 -0.1210
 5579SOL     OW28198   0.292   1.649   7.627 -0.2253  0.1307  0.2400
 5579SOL    HW128199   0.249   1.674   7.708  1.4507  0.2182  1.1026
 5579SOL    HW228200   0.269   1.716   7.563 -1.7478 -0.4519  0.1814
 5580SOL     OW28201   1.130   0.416   1.222 -0.6933  0.5207  0.0226
 5580SOL    HW128202   1.063   0.447   1.284 -0.4383 -0.0197  0.5693
 5580SOL    HW228203   1.142   0.332   1.267 -1.5687  0.0135 -0.6865
 5581SOL     OW28204   1.339   0.349   0.381 -0.3117  0.3115 -0.0844
 5581SOL    HW128205   1.255   0.373   0.421 -1.5823 -0.6286 -2.1421
 5581SOL    HW228206   1.406   0.368   0.447  1.4939  0.8275 -2.0719
 5582SOL     OW28207   4.686   1.719   8.134  0.4869 -0.9028 -0.3095
 5582SOL    HW128208   4.650   1.729   8.222  0.8448 -0.5020 -0.2073
 5582SOL    HW228209   0.052   1.742   8.152  0.0962 -0.7462  1.4860
 5583SOL     OW28210   3.823   0.549  17.322  0.3749  0.4573 -0.7548
 5583SOL    HW128211   3.796   0.638  17.344 -1.0218  0.3888 -2.1444
 5583SOL    HW228212   3.826   0.504  17.406 -0.4825  0.9458 -0.4691
 5584SOL     OW28213   2.427   3.957   6.127  0.3351 -0.2511  0.4355
 5584SOL    HW128214   2.477   3.940   6.207  1.7907 -1.0221 -0.6477
 5584SOL    HW228215   2.446   4.051   6.127  0.8117 -0.3504  0.4554
 5585SOL     OW28216   0.424   1.106   8.100  0.4741 -0.1293  0.3088
 5585SOL    HW128217   0.409   1.159   8.022  3.6886  0.1607 -0.0994
 5585SOL    HW228218   0.384   1.020   8.084 -1.0608  0.8412 -1.0483
 5586SOL     OW28219   3.960   1.689   8.513  0.4495  0.4684  0.0644
 5586SOL    HW128220   4.048   1.710   8.545  1.3754  0.0801 -2.2099
 5586SOL    HW228221   3.909   1.764   8.544 -0.8631 -0.1120 -0.7066
 5587SOL     OW28222   3.440   4.288  12.582 -0.0060 -0.1707  0.2840
 5587SOL    HW128223   3.488   4.320  12.505  1.3011 -2.1644  0.2614
 5587SOL    HW228224   3.455   4.194  12.571 -1.6857 -0.3487 -0.5468
 5588SOL     OW28225   2.954   3.997   3.909 -0.0720  0.3149 -0.2029
 5588SOL    HW128226   2.913   3.982   3.824 -1.4954  0.2295  0.4972
 5588SOL    HW228227   3.008   4.074   3.892 -0.9085  1.5168  2.4941
 5589SOL     OW28228   2.513   2.175   6.970 -0.0620 -0.3921 -0.1702
 5589SOL    HW128229   2.584   2.232   7.001 -1.0095  0.8991 -0.3497
 5589SOL    HW228230   2.456   2.166   7.046 -0.2854  1.3028 -0.1260
 5590SOL     OW28231   1.213   1.509   2.179  0.8965 -0.2877 -0.6344
 5590SOL    HW128232   1.202   1.440   2.113 -0.5157  0.9647 -1.7027
 5590SOL    HW228233   1.125   1.546   2.169  0.9730  0.2443  0.7842
 5591SOL     OW28234   4.440   1.783   6.008  0.2743  0.0480  0.0663
 5591SOL    HW128235   4.360   1.799   6.059 -0.6972 -1.8769 -0.8427
 5591SOL    HW228236   4.459   1.872   5.978 -0.1595  0.4744  1.0591
 5592SOL     OW28237   0.744   2.932   9.479  0.8591  0.4299 -0.5682
 5592SOL    HW128238   0.745   3.018   9.521  0.4542 -0.1373  0.5936
 5592SOL    HW228239   0.825   2.894   9.511  0.1263 -0.1736  0.5444
 5593SOL     OW28240   2.423   0.511   1.386 -0.4391  0.1891 -0.0939
 5593SOL    HW128241   2.362   0.507   1.312  1.6031  2.6779 -1.9125
 5593SOL    HW228242   2.365   0.496   1.461  0.4525 -0.8144  0.3980
 5594SOL     OW28243   1.604   2.161   0.525  0.2950  0.0290  0.1818
 5594SOL    HW128244   1.563   2.235   0.480  1.0292  0.4531  0.2141
 5594SOL    HW228245   1.677   2.136   0.469  0.2367  0.8703 -0.2636
 5595SOL     OW28246   0.135   0.109   9.288 -0.1311 -0.1627 -0.2365
 5595SOL    HW128247   0.154   0.127   9.380  0.9752  2.4565 -0.9685
 5595SOL    HW228248   0.040   0.119   9.277  0.0832  1.8099 -0.3470
 5596SOL     OW28249   3.652   3.412   5.798  0.9545  0.0893 -0.3251
 5596SOL    HW128250   3.559   3.409   5.820  1.9105  0.5529  3.7337
 5596SOL    HW228251   3.654   3.341   5.734  1.8777 -0.4849  0.3340
 5597SOL     OW28252   4.325   0.715   7.058 -0.0157  0.1073 -0.2620
 5597SOL    HW128253   4.337   0.777   6.986  0.2474 -1.8563 -1.9085
 5597SOL    HW228254   4.295   0.772   7.129  0.6472 -0.1936  0.2552
 5598SOL     OW28255   2.238   4.154   3.652 -0.5888  0.3058 -0.4479
 5598SOL    HW128256   2.313   4.111   3.693  0.0701 -1.5316 -3.5732
 5598SOL    HW228257   2.175   4.086   3.676  0.2670 -1.0844 -2.1698
 5599SOL     OW28258   2.566   4.399   1.879  0.3196  0.0856 -0.0383
 5599SOL    HW128259   2.487   4.367   1.837 -0.2786  0.1257  1.0600
 5599SOL    HW228260   2.531   4.453   1.950  0.5568 -0.8501  0.7916
 5600SOL     OW28261   4.649   4.342   2.535 -0.3942  0.3265  0.0547
 5600SOL    HW128262   4.646   4.362   2.629 -0.2839 -1.3780  0.4192
 5600SOL    HW228263   4.582   4.275   2.545 -0.7789  1.2550  3.8926
 5601SOL     OW28264   0.889   0.979   2.548  0.0912  0.2562  0.6419
 5601SOL    HW128265   0.901   0.899   2.497 -3.2755 -0.4934  1.0331
 5601SOL    HW228266   0.958   1.034   2.512 -0.9155  0.7277 -0.5958
 5602SOL     OW28267   2.597   3.387   7.576  0.0123 -0.1564 -1.0739
 5602SOL    HW128268   2.612   3.294   7.558 -0.5112 -0.3230 -0.6408
 5602SOL    HW228269   2.522   3.395   7.635  1.4018  0.0072  0.6692
 5603SOL     OW28270   4.127   2.336   5.069 -0.6420  0.5285 -0.0760
 5603SOL    HW128271   4.038   2.349   5.101 -0.2596  1.2253  0.7091
 5603SOL    HW228272   4.099   2.281   4.996 -1.4241  0.1934  0.4817
 5604SOL     OW28273   3.642   1.431   2.865 -0.2440 -0.0090  0.3272
 5604SOL    HW128274   3.691   1.513   2.876  0.6968 -0.7331  1.5222
 5604SOL    HW228275   3.565   1.442   2.921 -0.9041  0.5063 -0.6819
 5605SOL     OW28276   0.560   4.327   4.003 -0.0704  0.0051 -0.4038
 5605SOL    HW128277   0.513   4.404   3.974 -1.6772 -1.2244 -1.0671
 5605SOL    HW228278   0.520   4.306   4.088 -2.8343 -0.1180 -1.7616
 5606SOL     OW28279   3.309   2.943   7.592  0.3232  0.1244  0.5823
 5606SOL    HW128280   3.333   2.885   7.520  1.0732 -0.5828  1.3989
 5606SOL    HW228281   3.319   2.895   7.674 -1.2005 -0.9831  0.1226
 5607SOL     OW28282   0.155   0.584   2.604  0.4884  0.5469 -0.1209
 5607SOL    HW128283   0.109   0.616   2.526  4.0144  2.2959 -1.5015
 5607SOL    HW228284   0.085   0.535   2.647 -0.6605  0.9843 -1.4936
 5608SOL     OW28285   1.940   4.246   8.209  0.5534  0.0979  0.3115
 5608SOL    HW128286   1.908   4.251   8.299  0.6049  1.0609  0.2781
 5608SOL    HW228287   1.869   4.293   8.165  0.1874  1.8141  2.7017
 5609SOL     OW28288   0.626   4.038  16.375  0.2672  0.2386 -0.6453
 5609SOL    HW128289   0.664   3.952  16.361  0.7309  0.6284 -1.8051
 5609SOL    HW228290   0.700   4.091  16.404  1.1513 -0.3024 -1.9243
 5610SOL     OW28291   3.696   2.018  14.215 -0.2009 -0.2986  0.1076
 5610SOL    HW128292   3.773   2.072  14.197 -1.7293  1.2261 -1.8173
 5610SOL    HW228293   3.639   2.018  14.138  0.9163  0.0943 -0.7110
 5611SOL     OW28294   4.387   0.531   7.328 -0.2395  0.2976 -0.7970
 5611SOL    HW128295   4.467   0.576   7.300  0.3615 -1.3344 -1.6935
 5611SOL    HW228296   4.401   0.454   7.273 -0.0383  0.5052 -1.0387
 5612SOL     OW28297   4.186   4.059  16.399 -0.7124  0.3640  0.3791
 5612SOL    HW128298   4.171   4.147  16.367  1.0180  1.2303  1.9955
 5612SOL    HW228299   4.117   4.051  16.466 -1.1106 -1.3101 -0.2138
 5613SOL     OW28300   1.706   0.482   3.884 -0.2668 -0.0640  0.3240
 5613SOL    HW128301   1.771   0.471   3.953  0.3941  1.5331 -0.0207
 5613SOL    HW228302   1.696   0.398   3.840 -1.5804 -0.1838  0.8540
 5614SOL     OW28303   1.172   3.675   8.401 -0.3828 -0.2963  0.3635
 5614SOL    HW128304   1.260   3.680   8.439  0.2460  0.4412 -1.1777
 5614SOL    HW228305   1.119   3.662   8.480 -1.3093  0.6134 -0.1053
 5615SOL     OW28306   4.357   4.161   0.149  0.3749  0.0852 -0.2115
 5615SOL    HW128307   4.397   4.080   0.116  1.9951  1.0695 -0.6811
 5615SOL    HW228308   4.327   4.205   0.069 -0.3457  2.5803  1.4305
 5616SOL     OW28309   4.391   3.244  17.043  0.0098 -0.3518 -0.2556
 5616SOL    HW128310   4.296   3.255  17.033 -0.1371  0.9421  2.4805
 5616SOL    HW228311   4.422   3.309  17.107 -0.8540 -1.0534  0.8906
 5617SOL     OW28312   4.399   2.289   2.579  0.1334 -0.6178  0.4775
 5617SOL    HW128313   4.382   2.363   2.638  0.0780 -0.4046  0.1962
 5617SOL    HW228314   4.321   2.237   2.599 -0.2199 -0.1724  0.2803
 5618SOL     OW28315   2.133   0.319   9.122  0.1174 -0.6005 -0.1991
 5618SOL    HW128316   2.090   0.241   9.157  3.0476 -1.7824  0.7813
 5618SOL    HW228317   2.197   0.287   9.058 -0.1760 -2.4131  0.3963
 5619SOL     OW28318   3.831   2.604   9.061 -0.5186  0.2922  0.9647
 5619SOL    HW128319   3.917   2.566   9.082  0.4148  1.9573  0.1347
 5619SOL    HW228320   3.782   2.526   9.035 -3.3633  1.4012  3.0470
 5620SOL     OW28321   0.087   4.499   5.833  0.0022  0.1649  0.3539
 5620SOL    HW128322   0.122   4.410   5.841 -0.9920 -0.1924  0.6818
 5620SOL    HW228323   4.721   4.468   5.838 -0.3198  1.1257  0.3878
 5621SOL     OW28324   1.978   3.121   3.343  0.4821  0.0088  0.4040
 5621SOL    HW128325   1.922   3.106   3.418  0.9178 -1.4158  0.4640
 5621SOL    HW228326   2.047   3.171   3.386  1.3822 -0.7028 -0.1811
 5622SOL     OW28327   4.454   2.317   5.964  0.3082  0.1970 -0.5172
 5622SOL    HW128328   4.360   2.315   5.950  0.4157 -0.4504 -1.1246
 5622SOL    HW228329   4.494   2.308   5.877  2.0175  0.4580  0.2409
 5623SOL     OW28330   3.997   2.233   1.816 -0.0481  0.4263  0.4300
 5623SOL    HW128331   3.922   2.277   1.774  0.3740  0.3004 -0.4559
 5623SOL    HW228332   4.014   2.300   1.883  1.8771 -0.5583  0.9246
 5624SOL     OW28333   1.138   3.240   1.649 -0.0208 -0.5835 -0.0296
 5624SOL    HW128334   1.228   3.270   1.631 -0.4356  0.3638 -0.5301
 5624SOL    HW228335   1.127   3.175   1.579  0.5982 -1.1809  0.4271
 5625SOL     OW28336   0.643   1.542   6.031 -0.3332 -0.2943  0.4055
 5625SOL    HW128337   0.629   1.531   6.125  1.2141  2.4019  0.9366
 5625SOL    HW228338   0.549   1.546   6.013 -0.2152  2.0247  0.3408
 5626SOL     OW28339   1.043   1.826   7.593 -0.4329  0.1070  0.2899
 5626SOL    HW128340   1.077   1.799   7.508 -1.0007  0.1734  0.0383
 5626SOL    HW228341   1.054   1.744   7.641  2.2817 -0.7456 -1.8228
 5627SOL     OW28342   1.564   2.360  12.266 -0.5104  0.0067  0.0372
 5627SOL    HW128343   1.566   2.278  12.217  1.5174  0.8154 -1.2578
 5627SOL    HW228344   1.633   2.403  12.215  0.1325  0.1927  1.0615
 5628SOL     OW28345   0.066   0.679   4.460 -0.3433 -0.8651 -0.1580
 5628SOL    HW128346   0.135   0.621   4.429  0.9121  0.0309  0.9659
 5628SOL    HW228347   0.120   0.732   4.518 -0.4196  0.0227 -0.9035
 5629SOL     OW28348   0.863   0.829   5.433  0.3526 -0.0789  0.4359
 5629SOL    HW128349   0.880   0.893   5.363 -3.3031  0.3207 -0.0908
 5629SOL    HW228350   0.833   0.752   5.385 -1.9240  0.3999  1.0800
 5630SOL     OW28351   1.785   1.217   4.042 -0.7672 -0.7282 -0.2306
 5630SOL    HW128352   1.877   1.208   4.020 -0.9243  0.3175 -1.3062
 5630SOL    HW228353   1.775   1.300   4.088  2.5323 -0.5964  0.2141
 5631SOL     OW28354   3.262   0.863   8.772  0.7937 -0.1601 -0.3953
 5631SOL    HW128355   3.310   0.849   8.690  1.1643  0.4385 -0.2788
 5631SOL    HW228356   3.173   0.890   8.753  1.1413  1.2280 -0.0398
 5632SOL     OW28357   2.468   0.734   6.990 -0.1157 -0.1075  0.0867
 5632SOL    HW128358   2.462   0.680   7.069 -0.7064  0.5263  0.4712
 5632SOL    HW228359   2.375   0.755   6.990  0.0564  0.6427 -0.2640
 5633SOL     OW28360   0.637   0.544  12.292  0.3070 -1.1087  0.6429
 5633SOL    HW128361   0.646   0.556  12.386  1.5871  0.0924  0.3681
 5633SOL    HW228362   0.639   0.633  12.257 -1.7441 -0.4110  2.2977
 5634SOL     OW28363   1.539   0.753   5.820  0.3940 -0.5455  1.0808
 5634SOL    HW128364   1.592   0.682   5.856  2.3246  0.3632  0.0567
 5634SOL    HW228365   1.588   0.829   5.853 -0.2766  0.1194  0.5258
 5635SOL     OW28366   2.688   2.702   8.876  0.1166 -0.3693 -0.5392
 5635SOL    HW128367   2.744   2.776   8.899 -1.7909  0.9414 -0.0741
 5635SOL    HW228368   2.672   2.713   8.782  0.5107  1.6450 -0.3747
 5636SOL     OW28369   2.711   0.672  13.365  0.6478  0.0440 -0.6836
 5636SOL    HW128370   2.616   0.663  13.354  0.8848 -0.6609 -2.1400
 5636SOL    HW228371   2.739   0.588  13.402 -0.8933 -2.0452 -4.2623
 5637SOL     OW28372   4.194   1.758   8.626 -0.1174  0.1731 -0.0144
 5637SOL    HW128373   4.229   1.780   8.713 -0.7902 -0.9911  0.5470
 5637SOL    HW228374   4.271   1.791   8.579 -0.1698 -1.6411 -1.3521
 5638SOL     OW28375   3.066   1.569   3.652  0.4775 -0.6847  0.5211
 5638SOL    HW128376   3.045   1.542   3.742 -3.1417  2.1940  0.5005
 5638SOL    HW228377   3.030   1.496   3.602 -1.3498  0.5767  0.0215
 5639SOL     OW28378   1.192   2.641  12.229  0.0422  0.3654 -0.3584
 5639SOL    HW128379   1.149   2.556  12.239 -1.7409  1.2636 -0.2895
 5639SOL    HW228380   1.118   2.692  12.195 -1.4495 -0.0148  2.3469
 5640SOL     OW28381   0.153   1.426   5.326 -0.0653  0.1167 -0.2968
 5640SOL    HW128382   0.156   1.469   5.241 -0.6122 -1.1341 -0.9505
 5640SOL    HW228383   0.242   1.440   5.359 -1.1027 -0.9930  2.9973
 5641SOL     OW28384   3.287   0.574  11.680 -0.1117  0.4055  0.1736
 5641SOL    HW128385   3.264   0.497  11.732 -1.2370 -0.2677 -1.3144
 5641SOL    HW228386   3.251   0.636  11.743 -2.7280 -1.9043  0.9632
 5642SOL     OW28387   2.504   0.090   2.949  0.1593  0.2982 -0.0917
 5642SOL    HW128388   2.503   0.077   3.044  1.3027 -4.3170 -0.7137
 5642SOL    HW228389   2.474   0.001   2.929 -2.4502  1.2816 -0.6000
 5643SOL     OW28390   4.351   2.521   4.825 -0.1848  0.1844  0.3938
 5643SOL    HW128391   4.319   2.600   4.870 -2.3014 -1.6121  2.0379
 5643SOL    HW228392   4.446   2.535   4.825 -0.2561  0.6796  0.7575
 5644SOL     OW28393   2.190   0.152   1.162  0.1836  0.0768  0.1826
 5644SOL    HW128394   2.213   0.074   1.112  0.1166 -0.3174  0.7735
 5644SOL    HW228395   2.270   0.179   1.207  0.3447 -0.6293  0.3170
 5645SOL     OW28396   1.530   1.717   9.309 -0.3270 -0.1546  0.7638
 5645SOL    HW128397   1.612   1.755   9.280 -0.8245  0.5779  0.3028
 5645SOL    HW228398   1.480   1.792   9.341 -2.6944 -1.6027  0.5383
 5646SOL     OW28399   1.121   3.529   1.160  0.4445 -0.5320  0.0961
 5646SOL    HW128400   1.160   3.509   1.245  1.7734  1.3029 -0.0659
 5646SOL    HW228401   1.122   3.442   1.121 -0.5482 -1.0159  1.1608
 5647SOL     OW28402   4.384   3.721   5.344 -0.7537 -0.5458  0.8135
 5647SOL    HW128403   4.348   3.668   5.416 -0.4558 -0.3518  1.1078
 5647SOL    HW228404   4.472   3.685   5.331 -0.8406 -0.4722  0.0617
 5648SOL     OW28405   3.592   2.380   7.524 -0.2189  0.6010  0.0578
 5648SOL    HW128406   3.554   2.414   7.605 -1.3531  0.6144 -0.4834
 5648SOL    HW228407   3.654   2.323   7.570 -1.2899 -0.5497  0.0843
 5649SOL     OW28408   2.956   0.742  11.637 -0.3743  0.1235  0.2048
 5649SOL    HW128409   2.977   0.825  11.594  2.1783  0.1900  1.5936
 5649SOL    HW228410   3.013   0.739  11.714  1.0767  0.5099 -0.8612
 5650SOL     OW28411   1.694   0.720   4.506 -0.0298 -0.0044  0.0437
 5650SOL    HW128412   1.718   0.656   4.439  2.4462 -0.2767  1.1776
 5650SOL    HW228413   1.664   0.658   4.573 -0.3666 -0.3897 -0.4633
 5651SOL     OW28414   2.794   4.080  14.807 -0.2066 -0.1801 -0.0661
 5651SOL    HW128415   2.835   4.059  14.891  1.3038 -0.3085 -0.8213
 5651SOL    HW228416   2.703   4.060  14.828  0.1712  1.1901  2.9164
 5652SOL     OW28417   4.176   2.496   7.608  0.4409  0.0710 -0.1083
 5652SOL    HW128418   4.264   2.474   7.578  1.3519  2.1257  1.0090
 5652SOL    HW228419   4.197   2.545   7.687  1.0410  0.3587 -0.4472
 5653SOL     OW28420   3.268   2.790   1.069 -0.4748 -0.0500  0.3311
 5653SOL    HW128421   3.192   2.751   1.112 -0.5542  0.3419  0.5486
 5653SOL    HW228422   3.256   2.884   1.062 -3.3273 -0.6423 -2.7626
 5654SOL     OW28423   1.305   1.441   6.374  0.1376 -0.0200  0.5975
 5654SOL    HW128424   1.265   1.447   6.287 -0.3796  1.6697  0.9538
 5654SOL    HW228425   1.397   1.447   6.351 -0.0325  0.2687 -0.0055
 5655SOL     OW28426   0.679   2.057   9.214 -0.1937 -0.5134 -0.3164
 5655SOL    HW128427   0.639   2.083   9.131  2.1767  4.0298 -0.0327
 5655SOL    HW228428   0.755   2.115   9.215 -1.6969  1.4164  1.4386
 5656SOL     OW28429   4.183   4.063  10.978  1.0930 -0.3599 -0.6263
 5656SOL    HW128430   4.124   3.990  10.998 -1.6249  2.3592  1.1207
 5656SOL    HW228431   4.234   4.061  11.059 -1.5488 -1.1936  1.0302
 5657SOL     OW28432   2.726   0.399  11.017  0.2716  0.3061 -0.5750
 5657SOL    HW128433   2.801   0.457  11.027  1.4103 -1.4574  1.2561
 5657SOL    HW228434   2.768   0.316  10.995  1.9119  1.5374 -2.0432
 5658SOL     OW28435   0.691   3.863   3.336  0.3295  0.1858  0.1164
 5658SOL    HW128436   0.669   3.770   3.327  1.7636 -0.0743 -0.7383
 5658SOL    HW228437   0.622   3.904   3.387 -1.3078  1.2345 -2.9840
 5659SOL     OW28438   4.129   2.781   7.077  0.0020  0.1948  0.8263
 5659SOL    HW128439   4.069   2.725   7.127 -0.2173 -2.0686 -1.9848
 5659SOL    HW228440   4.174   2.706   7.037  0.9563  0.7186  0.9349
 5660SOL     OW28441   0.708   2.764  12.090  0.1271  0.2558  0.1922
 5660SOL    HW128442   0.628   2.788  12.042 -0.4757 -1.1991  0.4682
 5660SOL    HW228443   0.724   2.672  12.069  1.6968  0.9479 -1.5605
 5661SOL     OW28444   0.338   1.324   4.679  0.3596 -0.1379  0.3443
 5661SOL    HW128445   0.369   1.412   4.656  0.7456 -0.3655 -0.0008
 5661SOL    HW228446   0.279   1.335   4.754  1.3358  4.4047  0.4122
 5662SOL     OW28447   0.986   0.607   0.827 -0.0554  0.2287  0.5802
 5662SOL    HW128448   0.930   0.662   0.772 -1.2420  1.4425  2.9959
 5662SOL    HW228449   0.973   0.518   0.793 -0.2629  0.9931 -1.3378
 5663SOL     OW28450   0.462   3.945   6.545 -0.1360  0.1026 -0.1566
 5663SOL    HW128451   0.436   4.034   6.566  1.7080  1.1200 -2.1407
 5663SOL    HW228452   0.405   3.890   6.599  0.0787 -0.3260 -0.3637
 5664SOL     OW28453   1.145   3.232   4.745  0.8374 -0.4568  0.2884
 5664SOL    HW128454   1.149   3.315   4.793 -1.9079  1.2543 -2.4527
 5664SOL    HW228455   1.194   3.169   4.798  1.5290 -0.5527 -0.4510
 5665SOL     OW28456   0.420   0.443   6.085 -0.4641 -0.3369  0.3578
 5665SOL    HW128457   0.515   0.454   6.080 -0.3906 -0.4357  1.5050
 5665SOL    HW228458   0.396   0.379   6.018 -0.8173  1.7125 -1.4730
 5666SOL     OW28459   3.918   0.817   9.717 -0.1600 -0.1195 -0.1029
 5666SOL    HW128460   3.961   0.823   9.632 -0.9418 -0.5167 -0.5345
 5666SOL    HW228461   3.866   0.739   9.696 -0.8810  0.3823 -0.1706
 5667SOL     OW28462   2.930   0.499   2.401  0.2906 -0.2286  0.6919
 5667SOL    HW128463   2.906   0.590   2.385 -0.1787 -0.2819  1.1049
 5667SOL    HW228464   2.918   0.464   2.313 -0.5900 -1.5087  1.3305
 5668SOL     OW28465   2.641   2.803  16.477 -0.5646  0.4574  0.0116
 5668SOL    HW128466   2.620   2.882  16.428 -1.6528 -0.8933 -1.7120
 5668SOL    HW228467   2.682   2.838  16.557 -1.9117  0.2107  0.8060
 5669SOL     OW28468   1.272   4.390   6.263 -0.5619  0.2104  0.4235
 5669SOL    HW128469   1.361   4.370   6.293 -0.3341  1.0337  0.3133
 5669SOL    HW228470   1.277   4.485   6.276  2.2379  0.3032 -1.3625
 5670SOL     OW28471   2.950   4.327   6.498 -0.8816  0.3257 -0.2765
 5670SOL    HW128472   3.004   4.251   6.474 -2.2421 -0.2238 -1.5784
 5670SOL    HW228473   2.912   4.298   6.580  3.0150 -0.4318  1.2690
 5671SOL     OW28474   2.929   1.644   1.901  0.7959 -0.2846 -0.2359
 5671SOL    HW128475   2.865   1.631   1.971  0.8028 -0.4814 -0.2673
 5671SOL    HW228476   2.903   1.572   1.843  0.3783  2.1013 -3.0530
 5672SOL     OW28477   1.948   3.333   6.430  0.1919  0.3844  0.0822
 5672SOL    HW128478   1.960   3.316   6.337 -0.1606  0.6070 -0.0015
 5672SOL    HW228479   1.853   3.324   6.425  0.1242  0.6592  0.9183
 5673SOL     OW28480   1.914   4.587   8.440  0.4450 -0.5701  0.2803
 5673SOL    HW128481   1.909   4.595   8.344 -1.9741  0.3822  0.5106
 5673SOL    HW228482   2.010   4.587   8.449  0.4131  0.5165  0.5431
 5674SOL     OW28483   2.382   3.841  14.542 -0.1030  0.5876 -0.5712
 5674SOL    HW128484   2.320   3.771  14.562  0.4879  0.0645 -0.5821
 5674SOL    HW228485   2.466   3.801  14.519 -0.1423 -0.2019  0.6778
 5675SOL     OW28486   3.841   3.696   4.244  0.0167 -0.0134  0.5854
 5675SOL    HW128487   3.773   3.686   4.177  0.8789 -1.9614  0.0124
 5675SOL    HW228488   3.889   3.766   4.200 -0.0417 -1.5598 -1.9393
 5676SOL     OW28489   2.421   0.208   4.461 -0.1132  0.0667 -0.4408
 5676SOL    HW128490   2.448   0.136   4.518  1.3555 -0.2851 -1.5520
 5676SOL    HW228491   2.339   0.236   4.501  0.9991  1.8624  0.5807
 5677SOL     OW28492   0.086   1.235   2.101 -0.8555 -1.0835  0.0926
 5677SOL    HW128493   0.174   1.238   2.064 -0.5182 -1.1322  0.8894
 5677SOL    HW228494   0.098   1.238   2.196 -2.9383  0.3722  0.3185
 5678SOL     OW28495   1.268   1.699   9.682 -0.0976 -0.3972  0.2532
 5678SOL    HW128496   1.259   1.653   9.765 -1.7544 -1.7994 -0.7021
 5678SOL    HW228497   1.323   1.776   9.699 -0.7388  0.0659  0.2274
 5679SOL     OW28498   1.288   0.710   7.484 -0.6319  0.1351  0.2988
 5679SOL    HW128499   1.211   0.699   7.539 -1.0052  0.2980 -0.1869
 5679SOL    HW228500   1.273   0.803   7.468  0.3519  0.0218 -1.3224
 5680SOL     OW28501   3.757   3.720   5.637 -0.2250  0.2828  0.2886
 5680SOL    HW128502   3.835   3.672   5.665 -0.6442 -0.5260  0.0652
 5680SOL    HW228503   3.718   3.657   5.576  0.1247 -0.6859  1.0635
 5681SOL     OW28504   1.588   3.775   3.093 -0.2819  0.2046  0.0389
 5681SOL    HW128505   1.495   3.790   3.082 -0.4059  0.7272  1.7614
 5681SOL    HW228506   1.586   3.681   3.077 -2.8446  0.5429 -1.5729
 5682SOL     OW28507   2.749   0.782   9.737 -0.5371  0.0151 -0.6341
 5682SOL    HW128508   2.680   0.715   9.741 -0.2416 -0.0990  2.4441
 5682SOL    HW228509   2.808   0.756   9.807  0.5649  0.3701 -1.4323
 5683SOL     OW28510   1.689   4.515   2.854  0.2119 -0.3240 -0.2045
 5683SOL    HW128511   1.616   4.576   2.860  1.5089  1.2263  0.0523
 5683SOL    HW228512   1.647   4.433   2.877 -0.3830  0.3748  1.1937
 5684SOL     OW28513   4.635   0.129  11.408 -0.3122  0.1947  0.5165
 5684SOL    HW128514   0.000   0.096  11.398  0.1276  0.9876  1.8356
 5684SOL    HW228515   4.594   0.045  11.427 -0.0668 -0.0937 -0.1881
 5685SOL     OW28516   0.992   2.584   7.691 -0.6206  0.0279 -0.3018
 5685SOL    HW128517   0.982   2.493   7.663  1.4587 -0.6311  1.1176
 5685SOL    HW228518   0.950   2.579   7.777 -1.6386  2.0379 -0.6749
 5686SOL     OW28519   0.621   2.498   5.122  0.5767 -0.2297  0.3280
 5686SOL    HW128520   0.627   2.511   5.217 -1.5920  2.4601  0.0838
 5686SOL    HW228521   0.572   2.416   5.118 -0.6969  0.5756 -0.5219
 5687SOL     OW28522   3.540   3.635  15.024  0.0700 -0.7493 -0.0451
 5687SOL    HW128523   3.594   3.658  14.949  0.5410  0.0446  0.5367
 5687SOL    HW228524   3.539   3.540  15.014  0.3940 -0.8312  0.6660
 5688SOL     OW28525   2.924   4.470   9.999 -0.2740  0.2458 -0.0939
 5688SOL    HW128526   2.864   4.529  10.042  0.9192  1.9236 -0.7345
 5688SOL    HW228527   2.898   4.488   9.909  1.0220  3.8845  0.2807
 5689SOL     OW28528   1.765   2.968   1.214  0.5214 -0.1977  0.5795
 5689SOL    HW128529   1.791   2.880   1.187  1.6242  0.3693 -0.2117
 5689SOL    HW228530   1.674   2.964   1.243  0.7030  0.4162  1.2389
 5690SOL     OW28531   2.478   3.948   1.688 -0.3944  0.0259 -0.5266
 5690SOL    HW128532   2.395   3.941   1.735  1.1107 -1.0057  1.9775
 5690SOL    HW228533   2.544   3.973   1.753 -0.5914 -2.7945  0.7417
 5691SOL     OW28534   3.582   1.591   4.396  0.0169 -0.0963 -0.4740
 5691SOL    HW128535   3.635   1.519   4.361 -0.6059  0.6898 -3.0232
 5691SOL    HW228536   3.640   1.648   4.446 -1.2026 -0.5988  1.5252
 5692SOL     OW28537   2.527   2.207   9.886 -0.0984  0.2557 -0.3318
 5692SOL    HW128538   2.435   2.192   9.864  0.0577 -1.1028 -0.1080
 5692SOL    HW228539   2.519   2.288   9.936  0.1312  0.7862 -1.1483
 5693SOL     OW28540   4.157   0.181   4.614  0.2446  0.3739  0.9104
 5693SOL    HW128541   4.176   0.214   4.702  0.6218 -0.7516  1.2465
 5693SOL    HW228542   4.084   0.125   4.640  0.0078  0.4232  0.3569
 5694SOL     OW28543   3.519   1.519   6.514  0.8415  0.0131  0.0402
 5694SOL    HW128544   3.517   1.614   6.523  0.9594 -0.1530  1.7604
 5694SOL    HW228545   3.506   1.511   6.419  0.9610  0.6257 -0.0246
 5695SOL     OW28546   4.378   0.679   8.081 -0.6187  0.1092 -0.4130
 5695SOL    HW128547   4.297   0.709   8.039 -0.9208  1.9048  1.4377
 5695SOL    HW228548   4.404   0.768   8.106  1.6799 -0.9816  0.9688
 5696SOL     OW28549   2.019   0.566   2.421  0.3087 -0.0828 -0.4062
 5696SOL    HW128550   1.984   0.651   2.449 -1.0981 -0.6115 -0.5411
 5696SOL    HW228551   2.112   0.585   2.420  0.1875  0.6031  0.7416
 5697SOL     OW28552   1.641   4.584   5.465 -0.0024 -0.0932  0.0881
 5697SOL    HW128553   1.612   4.670   5.498  1.0853  0.6882 -0.9956
 5697SOL    HW228554   1.589   4.577   5.385 -1.3293 -0.8618  1.0304
 5698SOL     OW28555   3.039   0.865   2.899  0.2335 -0.4647 -0.4643
 5698SOL    HW128556   3.066   0.820   2.820  1.6896 -0.7966  0.2215
 5698SOL    HW228557   3.114   0.925   2.903 -0.9749  1.0466 -0.1455
 5699SOL     OW28558   2.238   4.484   7.425 -0.1519  0.3499  0.4867
 5699SOL    HW128559   2.152   4.507   7.390  0.0219  1.9870  1.1294
 5699SOL    HW228560   2.216   4.406   7.475 -3.5913  1.1342  0.2332
 5700SOL     OW28561   4.142   0.429  13.412  0.2239 -0.1273  0.0132
 5700SOL    HW128562   4.048   0.414  13.401  0.5732 -4.2011  2.5072
 5700SOL    HW228563   4.149   0.505  13.469 -1.3138 -0.6627  0.9060
 5701SOL     OW28564   4.656   2.343   2.985  0.1103 -0.1935 -0.2552
 5701SOL    HW128565   4.656   2.438   3.000  0.3971 -0.4992  1.6571
 5701SOL    HW228566   0.019   2.313   3.007 -0.7369 -0.5053  2.7045
 5702SOL     OW28567   3.939   1.651   1.399 -0.2457 -0.3166 -0.4507
 5702SOL    HW128568   3.935   1.557   1.412 -3.2625  0.1589  2.1927
 5702SOL    HW228569   3.986   1.674   1.480  0.5443  0.5293 -1.1482
 5703SOL     OW28570   2.257   4.396   9.237  0.0173 -0.5172 -0.4754
 5703SOL    HW128571   2.253   4.337   9.312 -0.3081  1.0613  0.7336
 5703SOL    HW228572   2.334   4.369   9.186 -0.5072  0.3140 -1.7222
 5704SOL     OW28573   1.045   3.882   7.025  0.5368  0.3573  0.2903
 5704SOL    HW128574   0.986   3.916   6.959  0.9164 -0.1135 -0.2932
 5704SOL    HW228575   0.987   3.837   7.087  0.9594 -1.1705 -0.4057
 5705SOL     OW28576   4.539   4.150   4.219 -0.5017 -0.2274 -0.1280
 5705SOL    HW128577   4.572   4.224   4.169 -1.6125 -0.4718 -1.2120
 5705SOL    HW228578   4.552   4.084   4.152  1.5691  0.1978 -0.1431
 5706SOL     OW28579   3.000   1.314  16.518  0.1621  0.0226 -0.3158
 5706SOL    HW128580   3.091   1.286  16.526 -0.9016 -3.1478  0.5914
 5706SOL    HW228581   3.013   1.396  16.469  0.5006  1.0839  1.5544
 5707SOL     OW28582   0.720   4.618   5.602  0.5870 -0.2930 -0.6026
 5707SOL    HW128583   0.784   4.555   5.567  0.3405  0.9976 -3.4234
 5707SOL    HW228584   0.721   4.602   5.696 -0.1472 -0.3756 -0.6122
 5708SOL     OW28585   0.475   1.789   2.265 -0.1820  0.4673 -0.5574
 5708SOL    HW128586   0.430   1.869   2.291 -0.0341  0.1222  0.7408
 5708SOL    HW228587   0.403   1.744   2.221 -0.3949 -0.7697  1.0805
 5709SOL     OW28588   2.915   3.415   4.309 -0.8123 -0.3780  0.2187
 5709SOL    HW128589   2.933   3.373   4.393 -3.7068  0.3886  1.2357
 5709SOL    HW228590   2.848   3.357   4.273  1.1947 -1.9471 -0.9962
 5710SOL     OW28591   2.867   3.731   7.647 -0.2179 -0.0910  0.2060
 5710SOL    HW128592   2.917   3.785   7.586  0.6859  1.5528  2.3493
 5710SOL    HW228593   2.786   3.724   7.598  0.5998  1.4556 -1.3956
 5711SOL     OW28594   4.148   0.529   9.855  0.4079  0.4379 -0.3513
 5711SOL    HW128595   4.139   0.526   9.759 -2.8973 -0.2981 -0.0238
 5711SOL    HW228596   4.073   0.473   9.874  0.1877  1.4124  1.5651
 5712SOL     OW28597   0.741   2.823  16.616  0.8431  0.1761 -0.1947
 5712SOL    HW128598   0.719   2.873  16.537  2.0908 -0.2972 -0.8358
 5712SOL    HW228599   0.697   2.870  16.687 -0.1128  0.2883 -0.8678
 5713SOL     OW28600   4.642   4.152   4.653  0.9667 -0.0221 -0.0917
 5713SOL    HW128601   4.654   4.208   4.576  1.0796  0.9541  0.6355
 5713SOL    HW228602   4.563   4.186   4.696  1.1516  0.9455 -0.5208
 5714SOL     OW28603   2.274   3.201   8.794  0.1051 -0.0039  0.5207
 5714SOL    HW128604   2.210   3.163   8.854  0.1688 -0.3631  0.3606
 5714SOL    HW228605   2.307   3.273   8.847  0.4225  1.4154 -1.5924
 5715SOL     OW28606   1.609   2.113   9.086  0.0493  0.0007 -0.1680
 5715SOL    HW128607   1.551   2.066   9.026 -0.6712  1.4061 -0.5762
 5715SOL    HW228608   1.543   2.142   9.148  0.1359 -2.5838  1.1421
 5716SOL     OW28609   1.475   4.233   1.564 -0.2711  0.1744  0.0823
 5716SOL    HW128610   1.465   4.152   1.614 -2.4037  0.0412 -0.5459
 5716SOL    HW228611   1.476   4.203   1.473  0.6547 -0.4196  0.2922
 5717SOL     OW28612   4.010   2.652   6.293 -0.0524 -0.0293 -0.1430
 5717SOL    HW128613   3.915   2.649   6.307  0.0113 -0.0275  0.3130
 5717SOL    HW228614   4.044   2.731   6.335 -0.7455 -0.2089  0.7613
 5718SOL     OW28615   1.014   3.445   9.430 -0.4316  0.0750 -0.1193
 5718SOL    HW128616   1.020   3.537   9.456  0.9445 -0.0447 -0.0480
 5718SOL    HW228617   1.051   3.449   9.342  0.6110 -1.7166  0.2492
 5719SOL     OW28618   2.297   1.305   2.339  0.3740 -0.3065  0.2272
 5719SOL    HW128619   2.305   1.238   2.407  1.3608 -0.1102  0.3044
 5719SOL    HW228620   2.220   1.279   2.290 -1.2623 -0.2989  2.7807
 5720SOL     OW28621   3.242   2.189   6.618 -0.4851  0.9278 -0.0496
 5720SOL    HW128622   3.168   2.249   6.622 -0.0047  1.4777  0.5168
 5720SOL    HW228623   3.263   2.186   6.524  0.9496  0.8739  0.2813
 5721SOL     OW28624   2.406   2.491  11.416  0.5648  0.1201  0.3332
 5721SOL    HW128625   2.426   2.397  11.423  2.2631  0.5155  0.6763
 5721SOL    HW228626   2.310   2.495  11.412  0.6179 -1.5553 -2.5266
 5722SOL     OW28627   0.342   2.869  16.830  0.2465  0.3913  0.3894
 5722SOL    HW128628   0.390   2.917  16.762 -2.2028  1.0245 -0.8846
 5722SOL    HW228629   0.414   2.829  16.879 -1.7905 -1.6559  1.6968
 5723SOL     OW28630   2.925   1.898  16.114 -0.2368 -0.0889  0.2340
 5723SOL    HW128631   2.891   1.987  16.126  1.7017  0.5620  1.0042
 5723SOL    HW228632   2.841   1.853  16.123 -0.5684  0.3323 -0.7424
 5724SOL     OW28633   1.675   1.227   1.852 -0.1499  0.0201  0.1916
 5724SOL    HW128634   1.613   1.277   1.799  1.2948 -0.0947 -1.6085
 5724SOL    HW228635   1.654   1.139   1.822 -0.1505 -0.5334  1.7930
 5725SOL     OW28636   4.048   3.842   4.148 -0.2818 -0.4591 -0.4144
 5725SOL    HW128637   4.061   3.883   4.062 -0.1233 -1.6584 -0.9635
 5725SOL    HW228638   4.093   3.759   4.132 -0.6289 -0.4252 -1.5766
 5726SOL     OW28639   2.322   3.331  14.037 -0.8889  0.3592  0.2950
 5726SOL    HW128640   2.346   3.407  14.090 -0.5092  0.3444  0.1402
 5726SOL    HW228641   2.347   3.254  14.088 -1.6781 -0.5346 -0.6462
 5727SOL     OW28642   2.692   3.111  14.828  0.2654  0.0294  0.1427
 5727SOL    HW128643   2.679   3.092  14.735 -0.7260 -3.7321  1.0443
 5727SOL    HW228644   2.718   3.025  14.861  0.0658 -0.7327 -1.6845
 5728SOL     OW28645   2.057   0.895  11.804  0.3106  0.4356  0.6757
 5728SOL    HW128646   2.119   0.945  11.750  0.6658  0.4053  1.0488
 5728SOL    HW228647   2.013   0.970  11.845 -0.6535 -0.8797  2.0320
 5729SOL     OW28648   0.366   0.656  12.497 -0.1617  0.0149  0.5812
 5729SOL    HW128649   0.454   0.620  12.483 -0.3942 -0.1816 -0.4010
 5729SOL    HW228650   0.334   0.671  12.408 -0.8961  0.0785  0.8556
 5730SOL     OW28651   4.447   3.369   3.042  0.5572  0.0686  0.0420
 5730SOL    HW128652   4.450   3.275   3.063 -0.2058 -0.0960 -0.5968
 5730SOL    HW228653   4.540   3.381   3.059  0.6043  1.5393 -1.2693
 5731SOL     OW28654   1.740   3.487   3.328 -0.2539  0.6131  0.5279
 5731SOL    HW128655   1.668   3.491   3.391 -1.3251  1.2863 -0.7340
 5731SOL    HW228656   1.686   3.526   3.259  1.4983  1.2870 -0.4575
 5732SOL     OW28657   3.295   2.685   4.357  0.7224 -0.3444 -0.1609
 5732SOL    HW128658   3.229   2.750   4.380  1.2367  0.5564 -1.2386
 5732SOL    HW228659   3.238   2.629   4.305 -0.8757 -1.0650  2.3676
 5733SOL     OW28660   1.937   0.952   2.363  0.6825  0.8454  0.7734
 5733SOL    HW128661   1.895   1.037   2.347  1.7081  2.1167  4.9653
 5733SOL    HW228662   1.893   0.926   2.443 -1.5258  1.8974 -0.1108
 5734SOL     OW28663   1.962   1.667   8.827  0.4575 -0.0741 -0.3789
 5734SOL    HW128664   1.934   1.589   8.779 -0.1780 -0.2366  0.2411
 5734SOL    HW228665   2.056   1.665   8.812  0.3062  3.6850 -1.7114
 5735SOL     OW28666   0.276   3.210  17.117  0.1535  0.5096  0.0244
 5735SOL    HW128667   0.262   3.266  17.040 -1.0440  0.3258  0.1083
 5735SOL    HW228668   0.240   3.130  17.077 -1.0035  0.4533  1.1775
 5736SOL     OW28669   4.176   0.679  14.863 -0.0873 -0.2349 -0.1227
 5736SOL    HW128670   4.121   0.641  14.932 -0.1009 -0.6119 -0.3392
 5736SOL    HW228671   4.119   0.748  14.829 -0.2911 -0.1522  0.3813
 5737SOL     OW28672   0.141   1.778   3.650 -0.0651 -0.6152  0.2036
 5737SOL    HW128673   0.118   1.715   3.719 -0.4937  0.0467  0.6748
 5737SOL    HW228674   0.092   1.739   3.577  0.4777  0.5221 -0.7624
 5738SOL     OW28675   0.115   0.713   9.016  0.4222  0.2405 -0.0265
 5738SOL    HW128676   0.058   0.645   9.051  0.8212  0.4406  0.9945
 5738SOL    HW228677   0.085   0.715   8.925  1.2675 -0.6684 -0.3250
 5739SOL     OW28678   1.419   2.822   6.482  0.5570  0.0355 -0.0309
 5739SOL    HW128679   1.422   2.885   6.411 -0.2024  1.1344  0.9126
 5739SOL    HW228680   1.457   2.875   6.552  1.8806 -0.3108 -0.5077
 5740SOL     OW28681   3.009   3.052   5.761 -0.0995  0.7055  0.0973
 5740SOL    HW128682   2.976   3.079   5.846 -0.8423  0.1202  0.0056
 5740SOL    HW228683   3.006   2.957   5.776 -1.2857  0.4394 -1.7491
 5741SOL     OW28684   1.496   3.847  16.588 -0.1393 -0.0560  0.2507
 5741SOL    HW128685   1.506   3.905  16.513  0.1637 -0.4947 -0.0477
 5741SOL    HW228686   1.541   3.893  16.660 -0.9063  1.2526 -0.1034
 5742SOL     OW28687   4.262   2.479   3.351  0.5526  0.2515 -0.3997
 5742SOL    HW128688   4.245   2.573   3.345  0.2346  0.3418  2.2684
 5742SOL    HW228689   4.239   2.461   3.442 -0.0136 -0.3576 -0.6648
 5743SOL     OW28690   3.126   1.265   5.817  0.2094 -0.2400  0.3471
 5743SOL    HW128691   3.197   1.285   5.877  0.2931 -0.5512  0.3501
 5743SOL    HW228692   3.175   1.265   5.735 -2.6686  0.5231 -1.3754
 5744SOL     OW28693   3.264   3.720   9.312  0.0885  0.5078  0.0374
 5744SOL    HW128694   3.195   3.782   9.336  0.7622  1.0785  0.5187
 5744SOL    HW228695   3.304   3.749   9.231 -1.0424  0.1969 -0.6301
 5745SOL     OW28696   2.529   2.464  16.661 -0.8484  0.9750 -0.5975
 5745SOL    HW128697   2.547   2.498  16.749  2.0822 -0.8120 -0.5011
 5745SOL    HW228698   2.518   2.370  16.675 -0.5573  1.1479  0.7903
 5746SOL     OW28699   0.492   1.964   6.852 -0.2078  0.0216  0.0108
 5746SOL    HW128700   0.503   2.027   6.781 -1.1394 -1.6936 -1.6341
 5746SOL    HW228701   0.402   1.977   6.881  0.0622 -0.5469  1.0957
 5747SOL     OW28702   2.274   0.183   3.467  0.6182  0.0290 -0.9152
 5747SOL    HW128703   2.215   0.137   3.526  1.7352  1.4592  1.3047
 5747SOL    HW228704   2.364   0.156   3.486  1.0681  1.3781 -1.1272
 5748SOL     OW28705   4.100   0.174   1.703  0.2098  0.0708 -0.0563
 5748SOL    HW128706   4.051   0.101   1.743 -0.5328  1.3124  1.3313
 5748SOL    HW228707   4.163   0.178   1.775 -3.4548 -0.3249  3.1901
 5749SOL     OW28708   1.973   0.397   3.604  0.0921  0.2927  0.5620
 5749SOL    HW128709   1.881   0.420   3.612  0.3416  0.7610  2.1095
 5749SOL    HW228710   2.016   0.448   3.673  1.2952  1.2493 -0.9026
 5750SOL     OW28711   1.702   0.252   6.080  0.6242 -0.1023  0.1223
 5750SOL    HW128712   1.646   0.248   6.157 -0.4275 -0.1060 -0.6410
 5750SOL    HW228713   1.771   0.191   6.108  0.8223 -0.8721 -2.0196
 5751SOL     OW28714   4.342   0.380   5.910  0.6689  0.3854 -0.4393
 5751SOL    HW128715   4.336   0.378   5.815 -1.0642 -1.4825 -0.2861
 5751SOL    HW228716   4.419   0.437   5.916  0.1951  1.0909 -0.9919
 5752SOL     OW28717   3.712   0.938  10.078 -0.4981  0.3067  0.6340
 5752SOL    HW128718   3.764   0.994  10.022 -0.9630  0.2656  0.1649
 5752SOL    HW228719   3.623   0.964  10.055 -1.1324 -1.0140  1.5578
 5753SOL     OW28720   2.298   0.854   1.836 -0.1993 -0.8885 -0.3165
 5753SOL    HW128721   2.235   0.782   1.835  0.6220 -1.6369  1.2121
 5753SOL    HW228722   2.369   0.810   1.883 -0.6955  0.1285  1.4038
 5754SOL     OW28723   3.926   0.893   4.029 -0.3267 -0.2834 -0.0732
 5754SOL    HW128724   3.881   0.945   3.962  1.6499 -0.4352 -1.4952
 5754SOL    HW228725   3.978   0.831   3.978 -0.0562  1.1374 -1.5301
 5755SOL     OW28726   2.656   2.421   3.315  0.3249  0.2337  0.1114
 5755SOL    HW128727   2.620   2.375   3.391  0.2128  1.4202  0.7828
 5755SOL    HW228728   2.579   2.415   3.260  0.8886  0.4684 -0.6967
 5756SOL     OW28729   2.941   3.691   5.665 -0.1181 -0.1067  0.2161
 5756SOL    HW128730   2.917   3.656   5.579 -1.6193 -2.8637  1.7318
 5756SOL    HW228731   2.970   3.781   5.648  1.5135 -0.5465  0.6261
 5757SOL     OW28732   0.260   3.459  10.413  0.1541  0.4230  0.3972
 5757SOL    HW128733   0.325   3.461  10.343 -1.6814  0.6245 -1.3088
 5757SOL    HW228734   0.271   3.372  10.450  0.0878  0.3539  0.2553
 5758SOL     OW28735   0.890   1.851  16.801  0.9530 -0.5577 -0.5431
 5758SOL    HW128736   0.900   1.907  16.724  1.3113  0.4254  0.2184
 5758SOL    HW228737   0.803   1.878  16.831  0.9605 -0.9086 -0.2081
 5759SOL     OW28738   0.857   2.831   4.604  0.1407  0.2533  0.5173
 5759SOL    HW128739   0.775   2.790   4.633 -1.0316  2.3048  0.1153
 5759SOL    HW228740   0.893   2.829   4.693  0.1672 -2.4685  0.4433
 5760SOL     OW28741   1.598   1.911  11.310 -0.7034  0.4191  0.4058
 5760SOL    HW128742   1.504   1.924  11.294 -0.7854  0.6868  1.0978
 5760SOL    HW228743   1.615   1.999  11.343  0.6293 -0.3670  1.7904
 5761SOL     OW28744   0.776   3.614   5.814  0.1665 -0.0669 -0.5366
 5761SOL    HW128745   0.846   3.669   5.778  0.6685 -1.2516 -1.4048
 5761SOL    HW228746   0.771   3.657   5.899 -0.6993 -0.4533 -0.3943
 5762SOL     OW28747   3.503   1.274   7.716 -0.3082 -0.2857 -0.7834
 5762SOL    HW128748   3.457   1.358   7.705 -0.9207 -0.6495 -0.9839
 5762SOL    HW228749   3.445   1.212   7.671 -0.1381  0.1877 -1.6608
 5763SOL     OW28750   3.519   3.444   8.210  0.1141  0.1232  0.0517
 5763SOL    HW128751   3.442   3.501   8.201 -0.8641 -0.9415  1.6230
 5763SOL    HW228752   3.466   3.365   8.200 -0.7632  1.1439 -3.2879
 5764SOL     OW28753   1.016   3.829   8.229 -0.0297 -0.2903 -0.1963
 5764SOL    HW128754   0.956   3.895   8.264  0.5294  0.6156 -0.9618
 5764SOL    HW228755   1.044   3.785   8.310 -0.0475 -1.5665 -0.8870
 5765SOL     OW28756   0.032   2.014   3.127 -0.2779 -0.6589 -0.3252
 5765SOL    HW128757   0.047   2.006   3.222  0.4387 -0.6453 -0.4374
 5765SOL    HW228758   0.093   2.083   3.102  1.1898 -1.5302  0.8426
 5766SOL     OW28759   3.783   2.448  13.599 -0.1730  0.2008  0.4328
 5766SOL    HW128760   3.733   2.468  13.679  0.6749  1.4797  0.6460
 5766SOL    HW228761   3.781   2.353  13.594 -3.2863  0.4324 -2.4216
 5767SOL     OW28762   3.579   3.647   7.968  0.3783  0.1025 -0.0025
 5767SOL    HW128763   3.498   3.619   8.011  2.1713 -0.8549  2.8121
 5767SOL    HW228764   3.561   3.626   7.876  3.2770  0.7850 -0.7117
 5768SOL     OW28765   0.888   4.257   9.058 -0.2254 -0.3009  1.2309
 5768SOL    HW128766   0.952   4.211   9.112  0.6026 -1.8743 -1.0703
 5768SOL    HW228767   0.931   4.342   9.052  0.7165 -0.8958 -0.5226
 5769SOL     OW28768   2.848   1.095   8.035  0.2930 -0.0140 -0.0172
 5769SOL    HW128769   2.886   1.180   8.056 -0.3561  0.0852  0.7318
 5769SOL    HW228770   2.797   1.120   7.958  2.2711  0.2528 -1.2585
 5770SOL     OW28771   0.493   4.071   2.066 -0.2605 -0.0931  0.3723
 5770SOL    HW128772   0.493   3.985   2.025 -2.8659  0.3025 -0.5000
 5770SOL    HW228773   0.453   4.120   1.994  0.2017  1.6922  1.3345
 5771SOL     OW28774   3.131   1.491  10.299  0.0916 -0.6080  0.4701
 5771SOL    HW128775   3.073   1.546  10.351 -0.2292  0.2448 -0.7705
 5771SOL    HW228776   3.116   1.521  10.209 -0.3752  0.8966  1.0538
 5772SOL     OW28777   0.745   3.128   4.324 -0.0258  0.2368  0.0380
 5772SOL    HW128778   0.740   3.146   4.418 -0.7663  2.5970 -0.4517
 5772SOL    HW228779   0.833   3.160   4.303  0.1975 -0.2112  0.2867
 5773SOL     OW28780   3.867   1.094   3.070  0.0532  0.1852  0.3025
 5773SOL    HW128781   3.857   1.119   2.978 -1.0185 -1.1100  0.0566
 5773SOL    HW228782   3.952   1.132   3.088 -0.8107  1.4654  1.6302
 5774SOL     OW28783   1.840   1.959   7.972 -0.0097 -0.1569  0.1318
 5774SOL    HW128784   1.889   1.914   8.041  4.1262  2.7367 -0.9356
 5774SOL    HW228785   1.794   2.027   8.020  1.6913  0.1630  1.3308
 5775SOL     OW28786   2.996   2.604   7.825 -0.3406  0.1514  0.0078
 5775SOL    HW128787   2.969   2.651   7.904 -1.0450 -1.1134  0.5233
 5775SOL    HW228788   2.909   2.589   7.789 -0.2326  0.7175 -0.4654
 5776SOL     OW28789   4.602   0.508   5.502 -0.2338 -0.2931  0.5047
 5776SOL    HW128790   4.595   0.450   5.578  3.0404  0.0642  1.1000
 5776SOL    HW228791   4.530   0.474   5.448  0.7822 -3.1739  0.9460
 5777SOL     OW28792   1.144   1.788   8.781 -0.2026  0.3754 -0.1528
 5777SOL    HW128793   1.085   1.716   8.801 -0.4164  0.8675  0.9758
 5777SOL    HW228794   1.221   1.770   8.835 -1.1367 -1.2099  0.6367
 5778SOL     OW28795   0.874   3.022  10.135  0.6449  0.2625 -0.1425
 5778SOL    HW128796   0.940   3.027  10.066  0.6601 -0.3992 -0.1751
 5778SOL    HW228797   0.815   3.096  10.118 -1.9833 -1.2189  2.5167
 5779SOL     OW28798   1.547   3.222   7.930  0.0164  0.4026  0.0518
 5779SOL    HW128799   1.596   3.298   7.900 -1.0253  0.1444 -2.3336
 5779SOL    HW228800   1.477   3.268   7.976 -1.4359 -2.6617  0.9267
 5780SOL     OW28801   4.149   1.120   5.925  0.1078 -0.6266  0.3907
 5780SOL    HW128802   4.055   1.106   5.935  0.2409 -0.6693  1.5367
 5780SOL    HW228803   4.162   1.071   5.844 -2.2822 -0.0025 -0.3800
 5781SOL     OW28804   1.050   4.462   0.928  0.5088  0.1204 -0.2200
 5781SOL    HW128805   1.126   4.504   0.889  0.0900  2.8449  1.9003
 5781SOL    HW228806   0.984   4.461   0.858 -2.6757 -0.4246  2.7597
 5782SOL     OW28807   2.563   0.284  14.636 -0.1915 -0.4946 -0.3551
 5782SOL    HW128808   2.528   0.323  14.717 -0.9554 -1.2983 -0.2980
 5782SOL    HW228809   2.518   0.202  14.622  1.0440 -1.1394 -0.5559
 5783SOL     OW28810   3.637   3.821   9.703 -0.4183  0.0041  0.2419
 5783SOL    HW128811   3.654   3.740   9.751 -2.1934  0.1405  1.1045
 5783SOL    HW228812   3.696   3.877   9.752  2.1399 -0.8726 -1.8426
 5784SOL     OW28813   1.210   4.690   7.129  0.4366  0.3681  0.0303
 5784SOL    HW128814   1.219   4.628   7.056 -0.6212  0.4965 -0.2150
 5784SOL    HW228815   1.301   4.694   7.158 -0.0107  1.0232  1.3184
 5785SOL     OW28816   4.618   2.683   6.920  0.2016 -0.3862 -0.0560
 5785SOL    HW128817   4.534   2.645   6.895  0.3836 -0.3629 -0.6961
 5785SOL    HW228818   4.623   2.662   7.014  1.6068  0.5343  0.0742
 5786SOL     OW28819   1.241   2.929   5.964  0.6832  0.1486 -0.5923
 5786SOL    HW128820   1.170   2.980   5.926 -1.2182  0.3210  3.2721
 5786SOL    HW228821   1.304   2.997   5.989  1.7248 -0.5100 -1.4487
 5787SOL     OW28822   0.308   4.155   3.523 -0.0476 -0.6553  0.9477
 5787SOL    HW128823   0.373   4.170   3.593 -0.9118  3.1578  0.9759
 5787SOL    HW228824   0.253   4.088   3.563 -1.9568  1.0417  1.1941
 5788SOL     OW28825   4.211   1.120   0.064 -0.2385  0.1280 -0.3728
 5788SOL    HW128826   4.297   1.083   0.079 -0.1758  0.1513 -0.6892
 5788SOL    HW228827   4.221   1.200   0.012  0.4418 -1.7877 -3.1383
 5789SOL     OW28828   1.166   0.244   2.482 -0.2394 -0.1053 -0.1449
 5789SOL    HW128829   1.184   0.236   2.388 -2.4812 -0.6922 -0.5397
 5789SOL    HW228830   1.192   0.334   2.500 -0.4300  0.6240 -3.5265
 5790SOL     OW28831   3.428   2.265   7.290 -0.5907  0.1841  0.2854
 5790SOL    HW128832   3.457   2.339   7.235  0.0391  1.3998  2.2567
 5790SOL    HW228833   3.473   2.283   7.372 -0.2686  0.9995 -0.0620
 5791SOL     OW28834   4.217   1.590   3.303 -0.0203  0.2318  0.6832
 5791SOL    HW128835   4.245   1.540   3.226 -1.9594 -0.8444  0.6855
 5791SOL    HW228836   4.151   1.644   3.260  0.1533  0.7324  1.0499
 5792SOL     OW28837   2.855   3.677   4.411  0.4998 -0.1439 -0.2877
 5792SOL    HW128838   2.769   3.673   4.369 -0.4446  0.2799  1.6187
 5792SOL    HW228839   2.890   3.596   4.375  0.6964 -0.6299  1.0256
 5793SOL     OW28840   1.947   3.825  13.831 -0.7510  0.1867 -0.3956
 5793SOL    HW128841   1.924   3.770  13.756 -0.7454  2.0317 -1.7462
 5793SOL    HW228842   1.924   3.764  13.901 -0.1177 -0.1029 -0.4396
 5794SOL     OW28843   0.975   2.404  12.809  0.0061  0.2701 -0.1247
 5794SOL    HW128844   0.912   2.338  12.781 -2.0838  1.9956  0.5505
 5794SOL    HW228845   1.003   2.436  12.724  0.2560 -1.9401 -0.8778
 5795SOL     OW28846   4.524   4.348  10.641  0.3410 -0.0634  0.1741
 5795SOL    HW128847   4.512   4.296  10.720 -1.6810  0.9195  0.5226
 5795SOL    HW228848   4.507   4.288  10.569  0.7567 -1.2132  1.0439
 5796SOL     OW28849   4.526   1.873   1.286  0.5183 -0.2218 -0.3365
 5796SOL    HW128850   4.469   1.935   1.241  1.9799 -0.4734 -2.5696
 5796SOL    HW228851   4.612   1.896   1.249 -0.1060  0.9030 -1.1004
 5797SOL     OW28852   0.912   1.556   7.350  0.0642  0.0880 -0.3365
 5797SOL    HW128853   0.920   1.490   7.281 -0.7017 -0.3846  0.0295
 5797SOL    HW228854   0.935   1.508   7.429 -1.1653  0.3089  0.1574
 5798SOL     OW28855   1.845   1.877  15.371  0.2589  0.0379  0.1220
 5798SOL    HW128856   1.869   1.967  15.392 -2.1728  0.4263  1.2670
 5798SOL    HW228857   1.905   1.827  15.426 -1.2764 -0.9017  0.9620
 5799SOL     OW28858   2.630   3.902   4.939  0.4311  0.3090 -0.2329
 5799SOL    HW128859   2.618   3.809   4.956  1.3000  0.4197  1.0121
 5799SOL    HW228860   2.548   3.941   4.972  0.5770  0.4035  0.0206
 5800SOL     OW28861   0.665   0.927   6.798  0.7636 -0.0635  0.3260
 5800SOL    HW128862   0.672   0.893   6.887  0.1404 -0.4219  0.2337
 5800SOL    HW228863   0.658   0.844   6.750 -1.6011 -0.4441  1.3438
 5801SOL     OW28864   1.267   3.583   8.654 -0.1057  0.3440 -0.5336
 5801SOL    HW128865   1.362   3.574   8.658 -0.2902 -0.4364  2.5573
 5801SOL    HW228866   1.264   3.640   8.731 -2.2957  0.6214 -0.8272
 5802SOL     OW28867   0.641   3.439  13.282  0.6054  0.0465 -0.1841
 5802SOL    HW128868   0.671   3.386  13.208  0.9700 -0.3550  0.2575
 5802SOL    HW228869   0.556   3.463  13.245  0.1734 -2.2896 -0.6917
 5803SOL     OW28870   0.899   0.551   5.915 -0.0459 -0.1841 -0.3497
 5803SOL    HW128871   0.938   0.638   5.905 -1.4960  0.5343  0.2634
 5803SOL    HW228872   0.973   0.498   5.886 -0.0035 -0.0155 -0.5479
 5804SOL     OW28873   1.784   1.721  12.558  0.2173 -0.0483 -0.2232
 5804SOL    HW128874   1.844   1.660  12.601  1.5834 -0.1003 -2.1905
 5804SOL    HW228875   1.721   1.733  12.629  2.1960 -0.3506  1.5657
 5805SOL     OW28876   4.040   1.816   9.257 -0.3675 -0.2458 -0.4917
 5805SOL    HW128877   3.963   1.763   9.238 -1.0265  0.3475  0.5388
 5805SOL    HW228878   4.012   1.874   9.328 -0.1509  1.2102 -1.6013
 5806SOL     OW28879   1.414   3.412  11.353  0.0888  0.3211  0.1503
 5806SOL    HW128880   1.417   3.474  11.280 -4.2295 -1.1776 -1.2982
 5806SOL    HW228881   1.474   3.451  11.416 -1.0777 -2.2965  2.8627
 5807SOL     OW28882   0.364   4.622   5.654 -0.9354 -0.4600 -0.1135
 5807SOL    HW128883   0.442   4.612   5.708 -0.3729  1.1493 -0.6368
 5807SOL    HW228884   0.307   4.639   5.729 -2.4096 -1.3633 -1.0172
 5808SOL     OW28885   4.554   2.895   1.281 -0.1037  0.1169  0.3409
 5808SOL    HW128886   4.487   2.848   1.231 -0.5546  1.0703  0.0640
 5808SOL    HW228887   4.626   2.906   1.219  0.6070 -1.8082  0.7922
 5809SOL     OW28888   4.127   0.670   3.962 -0.3247 -0.5647 -0.1444
 5809SOL    HW128889   4.124   0.629   4.049  4.2642 -2.0212 -0.6530
 5809SOL    HW228890   4.073   0.611   3.911 -1.0976 -0.1016  0.1431
 5810SOL     OW28891   3.781   0.554   6.361 -0.9070  0.1722  0.5289
 5810SOL    HW128892   3.861   0.604   6.380  0.2969 -1.4946 -0.1935
 5810SOL    HW228893   3.802   0.480   6.418 -3.3914 -1.2198 -0.3944
 5811SOL     OW28894   0.353   1.507   6.124 -0.4466  0.3755 -0.0850
 5811SOL    HW128895   0.353   1.446   6.198  0.0358  1.0745  0.4869
 5811SOL    HW228896   0.326   1.586   6.172  1.4440  1.1426 -0.3226
 5812SOL     OW28897   4.200   3.275   2.911  0.4551  0.4160  0.0189
 5812SOL    HW128898   4.239   3.229   2.985  0.4960  3.7702  2.0687
 5812SOL    HW228899   4.274   3.283   2.851  1.0228  2.4853  1.0016
 5813SOL     OW28900   2.722   1.454   3.971  0.6551 -0.2973  0.1645
 5813SOL    HW128901   2.750   1.393   3.904 -0.0606  0.2880 -0.6765
 5813SOL    HW228902   2.728   1.537   3.924  0.7330  0.1342  0.9291
 5814SOL     OW28903   0.736   3.623  16.031 -0.4103  0.4152 -0.3918
 5814SOL    HW128904   0.827   3.611  16.056  0.0497 -0.1488 -2.3790
 5814SOL    HW228905   0.684   3.568  16.091  0.9289  0.8462  1.1399
 5815SOL     OW28906   2.061   0.122   3.632 -0.1936 -0.7721 -0.6675
 5815SOL    HW128907   2.004   0.050   3.607 -1.7720  0.5329 -0.7800
 5815SOL    HW228908   2.001   0.195   3.615  0.7456  0.1683  0.0034
 5816SOL     OW28909   4.204   0.732   3.666  0.3700 -0.1880  0.4989
 5816SOL    HW128910   4.161   0.688   3.592 -0.1172  0.1852  0.5611
 5816SOL    HW228911   4.124   0.759   3.712  1.0251  0.3613  1.2978
 5817SOL     OW28912   0.531   0.373  12.116  0.1502 -0.3321  0.2293
 5817SOL    HW128913   0.555   0.441  12.179  0.7344 -1.9808  1.7832
 5817SOL    HW228914   0.614   0.357  12.071  0.8629  0.2393  1.3472
 5818SOL     OW28915   2.525   3.562   5.523  0.3721  0.7801  0.1397
 5818SOL    HW128916   2.528   3.629   5.590  1.4121  0.2569  0.6280
 5818SOL    HW228917   2.612   3.521   5.527  0.5288  1.0211 -0.8026
 5819SOL     OW28918   4.168   2.696   4.612  0.1969  0.0546 -0.2565
 5819SOL    HW128919   4.153   2.767   4.674 -0.4908 -1.3257  1.1586
 5819SOL    HW228920   4.088   2.648   4.632 -0.5127  1.5633  0.5402
 5820SOL     OW28921   3.298   4.273   7.977 -0.3091 -0.8418 -0.0830
 5820SOL    HW128922   3.346   4.198   8.013  2.8917  0.8494 -0.7416
 5820SOL    HW228923   3.226   4.284   8.039 -1.2541  0.4649 -1.4128
 5821SOL     OW28924   0.674   3.244   5.918  0.5464  0.3704 -0.1443
 5821SOL    HW128925   0.762   3.281   5.922  0.2188  1.4212 -2.6255
 5821SOL    HW228926   0.642   3.248   6.008  0.5831  1.7249 -0.1796
 5822SOL     OW28927   3.654   4.245   2.673  0.1048  0.1739  0.3227
 5822SOL    HW128928   3.567   4.279   2.653 -0.5673 -0.1840  2.6136
 5822SOL    HW228929   3.639   4.154   2.646  0.1618  0.8745 -2.0545
 5823SOL     OW28930   1.924   4.452   1.006  0.0992 -0.0949 -0.3838
 5823SOL    HW128931   2.017   4.434   1.017 -0.7780 -2.6718  3.0096
 5823SOL    HW228932   1.928   4.528   0.947 -1.8823 -0.8524 -1.4864
 5824SOL     OW28933   4.433   2.513   6.745  0.0223 -0.0227 -0.5332
 5824SOL    HW128934   4.432   2.419   6.726  1.7867 -0.3823  1.0890
 5824SOL    HW228935   4.411   2.546   6.658 -4.2528 -0.4615  0.3591
 5825SOL     OW28936   2.564   1.660  15.268  0.2650 -0.6446  0.0593
 5825SOL    HW128937   2.574   1.576  15.223  0.3332 -1.9083  2.4736
 5825SOL    HW228938   2.646   1.659  15.318  0.5539 -0.4871 -0.4047
 5826SOL     OW28939   1.620   4.413   3.519  0.5437 -0.3180  0.6653
 5826SOL    HW128940   1.579   4.463   3.448 -0.4409 -0.0446  1.4314
 5826SOL    HW228941   1.543   4.379   3.564 -0.0933  1.0465  0.6235
 5827SOL     OW28942   1.443   4.323   5.257 -0.4180 -0.0278 -0.3973
 5827SOL    HW128943   1.396   4.401   5.289 -0.0425 -0.8071  2.0809
 5827SOL    HW228944   1.397   4.312   5.174  0.4834  0.2150 -0.9288
 5828SOL     OW28945   1.108   3.440   0.183 -0.7670 -0.9984  0.7097
 5828SOL    HW128946   1.094   3.349   0.156  1.0250 -1.3978  1.1377
 5828SOL    HW228947   1.197   3.461   0.154 -2.2068  0.7889 -2.4184
 5829SOL     OW28948   3.966   4.653  15.925  0.6409 -0.1416  0.5118
 5829SOL    HW128949   4.037   4.643  15.989 -0.9286  0.3142  2.3188
 5829SOL    HW228950   3.978   0.022  15.908  1.3594  0.4457  4.1923
 5830SOL     OW28951   2.389   3.135   1.104  0.4360  0.0077  0.0893
 5830SOL    HW128952   2.344   3.219   1.105 -1.4129 -0.9525 -0.9889
 5830SOL    HW228953   2.349   3.086   1.032 -0.3138 -1.3754  1.4366
 5831SOL     OW28954   3.091   0.141   1.510 -0.2444  0.3847 -0.4646
 5831SOL    HW128955   3.105   0.049   1.487 -1.3563 -0.1317  0.9189
 5831SOL    HW228956   3.054   0.184   1.432 -0.3659  1.7387  0.3383
 5832SOL     OW28957   1.139   2.327   9.072  1.3062  0.1514  0.2890
 5832SOL    HW128958   1.158   2.237   9.046 -0.6483  1.1318 -4.5790
 5832SOL    HW228959   1.154   2.386   8.997  1.1968  1.1442  1.0462
 5833SOL     OW28960   0.578   1.269  11.556 -0.2969  0.3025 -0.0600
 5833SOL    HW128961   0.538   1.254  11.642 -2.3004 -2.7638 -1.5437
 5833SOL    HW228962   0.646   1.202  11.563  1.9698  2.4792 -0.9091
 5834SOL     OW28963   0.399   1.712  11.237  0.4646  0.1368  0.1101
 5834SOL    HW128964   0.473   1.680  11.289 -0.0199 -1.9635 -0.4798
 5834SOL    HW228965   0.330   1.726  11.302  2.0982  1.2957  1.6288
 5835SOL     OW28966   1.336   3.489   2.159  0.0645 -0.0574  0.0107
 5835SOL    HW128967   1.327   3.430   2.234  0.2480 -0.2904 -0.1506
 5835SOL    HW228968   1.272   3.459   2.095 -0.9694  2.5197 -0.1555
 5836SOL     OW28969   0.551   1.891   1.400  0.4195 -0.1133  1.1441
 5836SOL    HW128970   0.465   1.898   1.357  0.8287  0.2757  0.3939
 5836SOL    HW228971   0.538   1.816   1.458 -1.1909  0.7351  1.8745
 5837SOL     OW28972   3.070   4.153   2.788  0.4239 -0.0265  0.0882
 5837SOL    HW128973   3.110   4.187   2.868  0.7556 -0.7429  0.2223
 5837SOL    HW228974   3.118   4.074   2.765  2.1664  0.2604  2.7641
 5838SOL     OW28975   0.053   4.554   5.524 -0.0398 -0.1410 -0.7547
 5838SOL    HW128976   0.009   4.473   5.548 -0.2879  0.4985  0.9893
 5838SOL    HW228977   0.059   4.587   5.614  0.7138  0.6238 -1.0884
 5839SOL     OW28978   2.985   1.231   0.067 -0.0957 -0.3573 -0.4216
 5839SOL    HW128979   3.031   1.148   0.071  1.4636  0.4765 -0.8549
 5839SOL    HW228980   2.977   1.241   0.161  1.0394 -0.8287 -0.2705
 5840SOL     OW28981   3.294   0.364  11.887  0.5806 -0.0063  0.1622
 5840SOL    HW128982   3.359   0.418  11.931  0.2506  0.4387  0.1027
 5840SOL    HW228983   3.229   0.340  11.953  0.5957  1.0460  0.5570
 5841SOL     OW28984   4.663   0.004   7.672 -0.3599 -0.2496 -0.0937
 5841SOL    HW128985   4.671   4.636   7.695  2.8962  0.7311  2.7223
 5841SOL    HW228986   4.610   0.036   7.745 -1.0972  1.5575 -1.3979
 5842SOL     OW28987   3.285   2.955   9.186  0.1273  0.1704 -0.9821
 5842SOL    HW128988   3.352   2.935   9.251  0.4551  0.8677 -1.1129
 5842SOL    HW228989   3.258   3.042   9.216  1.3664 -0.1218  1.0383
 5843SOL     OW28990   1.248   4.447   8.358  0.1729  0.2131  0.1451
 5843SOL    HW128991   1.259   4.508   8.431 -0.5377 -0.1495  0.5507
 5843SOL    HW228992   1.291   4.374   8.402 -0.8140 -0.6290 -0.3146
 5844SOL     OW28993   1.598   3.574   2.079 -0.0079  0.1313 -0.4833
 5844SOL    HW128994   1.529   3.559   2.144  0.8501 -1.6539  0.0130
 5844SOL    HW228995   1.677   3.587   2.131 -0.5387 -1.6061  0.7430
 5845SOL     OW28996   2.369   0.760  12.736 -0.0793 -0.3565  0.1205
 5845SOL    HW128997   2.394   0.686  12.791  1.8048  0.0960 -0.1293
 5845SOL    HW228998   2.428   0.764  12.662 -0.9696 -1.9538 -0.6775
 5846SOL     OW28999   3.842   1.962   2.100  0.1503 -0.1681  0.4088
 5846SOL    HW129000   3.920   1.915   2.131 -0.8345 -1.9955  0.1634
 5846SOL    HW229001   3.821   1.920   2.016  1.9745  0.1489 -0.2111
 5847SOL     OW29002   2.081   0.680   0.922  0.1973 -0.0771 -0.0605
 5847SOL    HW129003   2.039   0.699   1.005 -0.0995 -0.9454 -0.0049
 5847SOL    HW229004   2.004   0.685   0.865 -0.9105  0.2588  1.4892
 5848SOL     OW29005   1.042   3.607  17.198  0.7938  0.1649 -0.2308
 5848SOL    HW129006   1.088   3.526  17.221 -1.8464 -1.6874 -1.3505
 5848SOL    HW229007   0.951   3.580  17.183  0.1732  1.2608  1.5298
 5849SOL     OW29008   1.272   3.991   4.764 -0.3761  0.0705  0.1596
 5849SOL    HW129009   1.350   4.003   4.819  0.3206 -0.8237 -0.6142
 5849SOL    HW229010   1.222   3.928   4.815 -0.6715 -0.2615 -0.5430
 5850SOL     OW29011   1.829   1.485   3.517  0.5335 -0.0949 -0.1150
 5850SOL    HW129012   1.872   1.441   3.590  0.2480  1.4167  0.9597
 5850SOL    HW229013   1.773   1.416   3.480 -0.6401  2.0480 -2.3277
 5851SOL     OW29014   3.738   0.844   5.280  0.1467  0.2005  0.0746
 5851SOL    HW129015   3.702   0.863   5.194 -1.4270 -1.5543  0.3466
 5851SOL    HW229016   3.816   0.900   5.276 -0.0353  0.2812 -2.3445
 5852SOL     OW29017   2.671   0.011   6.789 -0.8238  0.0552 -0.2831
 5852SOL    HW129018   2.640   0.095   6.757 -0.3200 -0.2560 -1.5881
 5852SOL    HW229019   2.714   4.701   6.710 -0.7551  1.7173 -0.9515
 5853SOL     OW29020   2.881   4.133   5.314 -0.3983  0.0570  0.7045
 5853SOL    HW129021   2.943   4.195   5.276 -0.7176  0.5885  1.0450
 5853SOL    HW229022   2.812   4.126   5.247  0.6233 -2.7427 -0.0434
 5854SOL     OW29023   1.691   2.459   2.893 -0.5196 -0.0768 -0.2447
 5854SOL    HW129024   1.684   2.416   2.978  1.8154 -0.3607 -0.2123
 5854SOL    HW229025   1.668   2.391   2.830 -0.4802  1.5112 -1.9970
 5855SOL     OW29026   3.424   2.705   9.896 -0.2851  0.7961 -0.5151
 5855SOL    HW129027   3.367   2.774   9.861  1.5467  2.6804  0.1772
 5855SOL    HW229028   3.362   2.649   9.941  1.4779  0.0660  1.0087
 5856SOL     OW29029   3.803   2.215   5.764 -0.5516  0.1155  0.4501
 5856SOL    HW129030   3.709   2.231   5.762 -0.4901  0.3040 -0.6039
 5856SOL    HW229031   3.838   2.284   5.820 -1.0912  0.1949  0.6891
 5857SOL     OW29032   0.060   1.162   2.697 -0.1795 -0.3432  0.4710
 5857SOL    HW129033   0.035   1.255   2.702  0.1199 -0.1999 -0.7577
 5857SOL    HW229034   0.028   1.123   2.778 -1.7311  1.3861  0.7016
 5858SOL     OW29035   1.880   0.078  14.795 -0.0666  0.1960 -0.5958
 5858SOL    HW129036   1.897   0.049  14.885 -0.8441 -1.2471 -0.9020
 5858SOL    HW229037   1.966   0.058  14.757  0.0168  0.9646 -0.8024
 5859SOL     OW29038   2.529   4.259   0.644 -0.0024  0.5461 -0.8541
 5859SOL    HW129039   2.596   4.328   0.651  0.3378 -0.0986  2.0861
 5859SOL    HW229040   2.456   4.301   0.688 -0.1346  2.0987 -2.5497
 5860SOL     OW29041   1.635   3.157   9.530  0.2756 -0.1338  0.4653
 5860SOL    HW129042   1.655   3.100   9.456 -1.1477  0.9676 -0.7676
 5860SOL    HW229043   1.547   3.174   9.496 -0.2814 -1.6205  1.1654
 5861SOL     OW29044   1.910   1.918   6.334  0.5180  0.1035 -0.3374
 5861SOL    HW129045   1.940   1.827   6.330 -0.4895 -0.2687  0.2960
 5861SOL    HW229046   1.856   1.923   6.255 -1.0323  3.3776  0.9330
 5862SOL     OW29047   1.298   0.893   6.682  0.5712 -0.7709 -0.1170
 5862SOL    HW129048   1.324   0.811   6.725 -0.5164 -0.4596  1.1624
 5862SOL    HW229049   1.292   0.953   6.757 -1.0351  0.5746 -1.3246
 5863SOL     OW29050   3.681   4.277   4.758 -0.0746 -0.6888  0.1433
 5863SOL    HW129051   3.754   4.242   4.706 -1.4310 -2.6665 -0.4098
 5863SOL    HW229052   3.615   4.287   4.690  1.7706 -0.6786 -1.6544
 5864SOL     OW29053   0.859   3.635  15.179  0.1458 -0.3848 -0.5719
 5864SOL    HW129054   0.837   3.606  15.268  2.0030  1.0241  0.3389
 5864SOL    HW229055   0.852   3.557  15.123  2.2130 -1.5682  0.8263
 5865SOL     OW29056   4.587   0.136   1.887  0.0888 -0.2709  0.0021
 5865SOL    HW129057   4.629   0.094   1.813  1.1012  1.9068 -0.6759
 5865SOL    HW229058   4.602   0.072   1.956  2.3944 -2.0667 -2.2024
 5866SOL     OW29059   2.749   4.410   3.168  0.7697 -0.0912  0.0212
 5866SOL    HW129060   2.728   4.403   3.261  1.8897 -0.2717  0.2523
 5866SOL    HW229061   2.813   4.481   3.171  1.0586 -0.3143 -0.7824
 5867SOL     OW29062   0.779   0.234   7.301 -0.0773  0.9643  0.2631
 5867SOL    HW129063   0.733   0.196   7.226 -0.9904  1.4135  0.5936
 5867SOL    HW229064   0.870   0.214   7.278 -0.6711 -4.0495  2.1051
 5868SOL     OW29065   4.691   3.146   2.178  0.1173  0.3053  0.2743
 5868SOL    HW129066   0.029   3.075   2.196  1.3360  1.4660  0.6352
 5868SOL    HW229067   4.623   3.124   2.242 -0.6569  1.5725 -0.1088
 5869SOL     OW29068   3.628   0.752   4.881  0.3002 -0.7930  0.2530
 5869SOL    HW129069   3.554   0.741   4.822 -0.6761 -0.7739  1.4684
 5869SOL    HW229070   3.659   0.662   4.874  1.6570 -0.4044  1.2142
 5870SOL     OW29071   0.584   3.189   7.557 -0.6669  0.0918 -0.0642
 5870SOL    HW129072   0.674   3.220   7.544  0.2049 -2.6726 -0.6515
 5870SOL    HW229073   0.576   3.130   7.482  0.5028  0.5430 -0.5526
 5871SOL     OW29074   0.872   2.904   5.368  0.7062 -0.4497  0.2442
 5871SOL    HW129075   0.778   2.900   5.347 -0.0998 -1.9657  4.1777
 5871SOL    HW229076   0.904   2.912   5.278 -0.2268  1.1119  0.0425
 5872SOL     OW29077   2.008   3.294   6.173 -0.0033  0.2474 -0.0293
 5872SOL    HW129078   1.992   3.373   6.122 -0.6290  1.0471  1.4100
 5872SOL    HW229079   2.044   3.236   6.106  1.5941  0.3817  0.7319
 5873SOL     OW29080   2.812   4.089   6.131  0.0611 -0.1339  0.6519
 5873SOL    HW129081   2.812   4.083   6.035 -2.1245 -1.5159  0.7194
 5873SOL    HW229082   2.907   4.084   6.142 -0.1296 -0.6305  2.0606
 5874SOL     OW29083   1.254   4.667   6.625  0.3487 -0.7132  0.1794
 5874SOL    HW129084   1.175   4.642   6.675  0.1955  1.3592  0.9726
 5874SOL    HW229085   1.282   4.581   6.595 -0.9594 -1.0793 -0.0292
 5875SOL     OW29086   1.245   3.430   9.814  0.0925 -0.4436  0.6211
 5875SOL    HW129087   1.247   3.402   9.905  0.2174 -2.2224  0.0680
 5875SOL    HW229088   1.153   3.415   9.794  0.3340 -3.3468  1.8048
 5876SOL     OW29089   1.813   0.497  10.588  0.1132 -0.1314  0.1798
 5876SOL    HW129090   1.728   0.521  10.623 -0.9909 -0.5662 -2.2417
 5876SOL    HW229091   1.863   0.479  10.668  2.5806 -0.2050 -1.3520
 5877SOL     OW29092   2.060   1.031   1.088  0.1343  0.9112 -0.3082
 5877SOL    HW129093   2.014   1.011   1.007 -1.2861  0.0340  0.7096
 5877SOL    HW229094   2.118   0.955   1.097 -0.9330  0.4075  2.3192
 5878SOL     OW29095   0.302   2.255  12.399 -0.5422 -0.0349  0.0678
 5878SOL    HW129096   0.302   2.160  12.407  2.0172 -0.0996 -0.4564
 5878SOL    HW229097   0.349   2.276  12.480 -1.3129  0.0767  0.4820
 5879SOL     OW29098   1.811   1.840  16.775 -0.0114  0.4467  0.1652
 5879SOL    HW129099   1.755   1.915  16.789 -2.0707 -1.0808  0.1060
 5879SOL    HW229100   1.876   1.875  16.714  1.8703 -1.6903  0.8905
 5880SOL     OW29101   4.413   2.210   7.042 -0.5448  0.3730 -0.0130
 5880SOL    HW129102   4.448   2.184   6.957 -1.2708 -1.3348  0.2117
 5880SOL    HW229103   4.470   2.169   7.108  1.6319  0.9917 -1.5418
 5881SOL     OW29104   0.340   0.746   4.863 -0.3522  0.2076 -0.2080
 5881SOL    HW129105   0.362   0.655   4.841  2.0869  0.7800 -0.0979
 5881SOL    HW229106   0.324   0.737   4.957 -1.2778 -3.1742 -0.7041
 5882SOL     OW29107   0.546   4.026   7.406  0.5590 -0.4261  0.2500
 5882SOL    HW129108   0.552   4.120   7.419 -0.6476 -0.1145 -1.4628
 5882SOL    HW229109   0.623   4.011   7.351 -0.2611 -1.6441 -0.5740
 5883SOL     OW29110   2.187   1.687   9.056 -0.2854  0.2463  0.0104
 5883SOL    HW129111   2.140   1.606   9.036  0.3181 -0.7757  2.7212
 5883SOL    HW229112   2.112   1.747   9.060 -0.3823  0.1434 -0.2682
 5884SOL     OW29113   2.654   1.358   1.956 -0.0950 -0.1484  0.1650
 5884SOL    HW129114   2.570   1.317   1.973 -0.5090  0.2372 -0.9285
 5884SOL    HW229115   2.695   1.354   2.042 -1.6187  1.1616  0.9481
 5885SOL     OW29116   3.533   0.022   5.097  0.6691 -0.4998 -0.5058
 5885SOL    HW129117   3.444   0.041   5.127  0.5006  0.8000 -1.8423
 5885SOL    HW229118   3.536   0.066   5.012 -2.8723  0.9243  0.0946
 5886SOL     OW29119   0.314   1.847   9.193  0.2003  0.2329  0.1340
 5886SOL    HW129120   0.247   1.910   9.219 -0.4514 -1.2158  2.0414
 5886SOL    HW229121   0.316   1.783   9.265 -0.0749  0.4488  0.3336
 5887SOL     OW29122   4.364   0.566   2.565 -0.0730  0.4946  0.6455
 5887SOL    HW129123   4.451   0.604   2.555 -1.4046  2.7235 -2.2198
 5887SOL    HW229124   4.315   0.637   2.608 -1.4547 -1.8663  2.9807
 5888SOL     OW29125   1.233   4.082   6.755 -0.7286  0.2651  0.2660
 5888SOL    HW129126   1.165   4.078   6.688  1.7277  1.3327 -2.2640
 5888SOL    HW229127   1.205   4.141   6.825 -1.5205  0.6622 -0.3921
 5889SOL     OW29128   0.446   1.037   8.819 -0.4833  0.2000 -0.0381
 5889SOL    HW129129   0.506   1.094   8.867  0.6303  0.9758 -2.3270
 5889SOL    HW229130   0.422   0.967   8.879 -0.1518  0.2012  0.0975
 5890SOL     OW29131   1.865   0.878  11.470  0.4584 -0.1423  0.2560
 5890SOL    HW129132   1.884   0.957  11.520 -1.1404 -0.6924  1.7765
 5890SOL    HW229133   1.803   0.909  11.404  2.2985  0.5827 -1.1034
 5891SOL     OW29134   3.888   3.261   4.746 -0.4055 -0.0118 -0.5189
 5891SOL    HW129135   3.944   3.229   4.676 -0.4635 -0.8949 -0.1715
 5891SOL    HW229136   3.813   3.202   4.737 -0.6211  0.2660 -0.5277
 5892SOL     OW29137   1.360   1.991   1.576 -0.1227  0.4905  0.4364
 5892SOL    HW129138   1.308   1.912   1.591  1.4330 -0.4303  0.9078
 5892SOL    HW229139   1.295   2.052   1.541 -0.5214 -0.3890 -0.3552
 5893SOL     OW29140   2.544   3.322   6.695 -0.2765 -0.3231 -0.7455
 5893SOL    HW129141   2.615   3.383   6.675  1.0172 -1.2095  1.1068
 5893SOL    HW229142   2.539   3.318   6.790 -1.9504 -0.0351 -0.8364
 5894SOL     OW29143   0.829   2.150  17.076 -0.3507  0.1148 -0.3809
 5894SOL    HW129144   0.767   2.149  17.149 -0.2826  0.8962 -0.3108
 5894SOL    HW229145   0.901   2.176  17.134 -0.4763  1.2496 -0.7261
 5895SOL     OW29146   1.629   2.179  11.398 -0.3686  0.3704 -0.2628
 5895SOL    HW129147   1.689   2.248  11.427  2.8363 -2.7325  0.6184
 5895SOL    HW229148   1.544   2.220  11.407  0.2666  1.5721  0.2479
 5896SOL     OW29149   2.812   0.079   8.080 -0.0195 -0.3852 -0.3351
 5896SOL    HW129150   2.840   0.125   8.159 -2.3579 -1.2454  1.0112
 5896SOL    HW229151   2.719   0.103   8.084  0.2291  0.2873  1.2571
 5897SOL     OW29152   1.177   4.108  16.045  0.1009  0.4078  0.5761
 5897SOL    HW129153   1.151   4.196  16.018  0.9508  0.4987  0.0353
 5897SOL    HW229154   1.106   4.084  16.104  0.0234  2.3452  1.2623
 5898SOL     OW29155   0.052   1.917   2.871  0.1901  0.0434  0.4369
 5898SOL    HW129156   0.106   1.982   2.826 -0.0532  1.1218  1.7005
 5898SOL    HW229157   0.053   1.951   2.960 -0.9777 -2.3994  1.3724
 5899SOL     OW29158   2.800   3.820   7.945 -0.4459  0.3442  0.1430
 5899SOL    HW129159   2.809   3.809   7.850 -0.9667 -0.7398  0.2247
 5899SOL    HW229160   2.735   3.761   7.982  1.0028 -1.0540  0.4524
 5900SOL     OW29161   3.436   4.510   4.698  0.0567  0.2536 -0.7193
 5900SOL    HW129162   3.494   4.467   4.635 -2.7061 -1.0607 -2.3489
 5900SOL    HW229163   3.357   4.517   4.645 -0.2672  1.6129 -0.0522
 5901SOL     OW29164   4.642   2.761   8.453  0.8160 -0.3277  0.0757
 5901SOL    HW129165   4.712   2.705   8.486 -0.2361 -1.3414  0.5600
 5901SOL    HW229166   4.662   2.740   8.361 -0.4335  2.5619 -0.8608
 5902SOL     OW29167   0.613   3.377  16.208 -0.9446 -0.3278  0.2695
 5902SOL    HW129168   0.554   3.356  16.136 -2.2663  0.1087  1.2360
 5902SOL    HW229169   0.657   3.292  16.216 -0.0216  0.0194 -1.1558
 5903SOL     OW29170   3.223   3.507  17.068  0.2690 -0.2395  0.1439
 5903SOL    HW129171   3.178   3.515  17.152  2.1588 -0.5400  1.2059
 5903SOL    HW229172   3.311   3.539  17.089  0.9531 -1.9776 -0.0388
 5904SOL     OW29173   1.836   4.292   5.759 -0.2910  0.9778  0.5510
 5904SOL    HW129174   1.904   4.224   5.762  0.2283  1.4607 -0.3069
 5904SOL    HW229175   1.833   4.320   5.850 -1.2848  0.0587  0.7972
 5905SOL     OW29176   1.745   0.633  11.552 -0.5017 -0.0487 -0.5278
 5905SOL    HW129177   1.661   0.670  11.523  0.0721  1.4766 -0.2565
 5905SOL    HW229178   1.806   0.692  11.508  0.9647 -0.0693  1.4538
 5906SOL     OW29179   0.381   0.216  13.823 -0.5684  0.1649 -0.2069
 5906SOL    HW129180   0.402   0.124  13.807  2.5583  1.1323 -1.5748
 5906SOL    HW229181   0.470   0.251  13.823 -1.0454  1.3857 -0.6986
 5907SOL     OW29182   0.529   4.300  12.350  0.0749 -0.3683  0.5786
 5907SOL    HW129183   0.468   4.350  12.296 -1.2887 -0.8569  1.6473
 5907SOL    HW229184   0.611   4.297  12.301  1.2026 -0.7920  2.4755
 5908SOL     OW29185   2.714   4.459   7.275 -0.0390 -0.0128 -0.0577
 5908SOL    HW129186   2.723   4.507   7.193 -1.1613  0.7998  0.2967
 5908SOL    HW229187   2.626   4.488   7.297  0.0598  1.0812 -1.1157
 5909SOL     OW29188   3.732   0.149   8.769 -0.1173 -0.2453  0.4931
 5909SOL    HW129189   3.747   0.061   8.734  0.8033 -0.5606  1.6951
 5909SOL    HW229190   3.821   0.182   8.762  0.0332 -0.7408  0.0657
 5910SOL     OW29191   3.407   2.524   1.312 -0.2872  0.4308  0.1456
 5910SOL    HW129192   3.450   2.609   1.308  0.3507 -0.0025 -2.8131
 5910SOL    HW229193   3.450   2.479   1.238  0.5197  0.7077  0.4495
 5911SOL     OW29194   0.050   1.372   5.564 -0.0907  0.9363  0.1869
 5911SOL    HW129195   0.111   1.438   5.595 -0.7144  1.8287 -0.4849
 5911SOL    HW229196   0.074   1.382   5.473  1.5979 -0.3505  0.5007
 5912SOL     OW29197   3.794   2.367   3.030  0.6137  0.1434  0.2834
 5912SOL    HW129198   3.717   2.423   3.032  0.0792 -0.5667 -0.5229
 5912SOL    HW229199   3.811   2.361   3.124  0.0988 -0.4913  0.3388
 5913SOL     OW29200   3.441   1.761  12.504  0.0581 -0.5704  0.2615
 5913SOL    HW129201   3.489   1.843  12.493 -0.5742  0.0491  2.1545
 5913SOL    HW229202   3.481   1.706  12.438 -1.0067 -1.2520  0.1781
 5914SOL     OW29203   3.986   1.869   5.403 -0.3625  0.0005 -0.3879
 5914SOL    HW129204   4.033   1.799   5.449  0.8475  1.5027  0.6351
 5914SOL    HW229205   3.901   1.825   5.395  1.0096 -3.1215  2.0714
 5915SOL     OW29206   3.320   2.018   0.963 -0.3037  1.0474  0.8159
 5915SOL    HW129207   3.267   1.952   0.919 -0.1694  2.1739 -1.0051
 5915SOL    HW229208   3.388   2.037   0.899 -1.1253  0.5415 -0.2126
 5916SOL     OW29209   3.923   2.561   4.680 -0.5388  0.0760  0.1222
 5916SOL    HW129210   3.905   2.573   4.587 -1.4005  0.6338  0.3579
 5916SOL    HW229211   3.883   2.639   4.718 -0.7934 -0.1958  0.4195
 5917SOL     OW29212   4.153   1.611   5.824 -0.1038  0.4433 -0.0486
 5917SOL    HW129213   4.148   1.529   5.872 -2.1720  0.8934  0.4912
 5917SOL    HW229214   4.134   1.672   5.895 -2.0189  2.0197 -1.9311
 5918SOL     OW29215   4.566   2.610   9.856 -0.4597 -0.9325  0.3290
 5918SOL    HW129216   4.661   2.623   9.859 -0.9472  2.5577 -0.5165
 5918SOL    HW229217   4.549   2.612   9.950 -0.8456 -1.7564  0.2795
 5919SOL     OW29218   2.621   0.949   3.357  0.0726 -0.9292  0.2391
 5919SOL    HW129219   2.655   0.957   3.268 -1.3139 -1.4104 -0.3408
 5919SOL    HW229220   2.533   0.983   3.337  0.4452 -2.2299 -3.5697
 5920SOL     OW29221   0.091   4.314   9.359 -0.5140 -0.1976 -0.2534
 5920SOL    HW129222   0.067   4.305   9.451  0.4498  0.3336  0.0504
 5920SOL    HW229223   0.182   4.283   9.357  0.0799  1.4930  0.6727
 5921SOL     OW29224   2.336   2.845   6.068 -0.4514 -0.3097  0.6053
 5921SOL    HW129225   2.332   2.765   6.121  0.6020 -2.0775 -1.9610
 5921SOL    HW229226   2.396   2.889   6.128 -1.3397 -0.4585  1.6101
 5922SOL     OW29227   1.013   0.263   6.927  0.1668  0.2220 -0.2501
 5922SOL    HW129228   1.084   0.232   6.871  0.4199 -1.6506  1.1402
 5922SOL    HW229229   1.061   0.297   7.003  0.7281 -2.4553  0.5656
 5923SOL     OW29230   4.404   2.888   5.172 -0.2771  0.1742  0.1915
 5923SOL    HW129231   4.429   2.890   5.265 -0.3689  0.9967  0.1923
 5923SOL    HW229232   4.453   2.963   5.140 -0.3100  0.6370  1.2360
 5924SOL     OW29233   2.992   2.598  15.645 -0.0918  0.2538  0.4265
 5924SOL    HW129234   2.906   2.564  15.670 -1.1934  2.4498 -0.4207
 5924SOL    HW229235   2.986   2.589  15.550  1.8091  0.1775  0.3050
 5925SOL     OW29236   4.400   0.287  17.407  0.2541 -0.2663  0.0765
 5925SOL    HW129237   4.321   0.238  17.430  0.2667  0.6515  2.0172
 5925SOL    HW229238   4.355   0.371  17.397 -1.7476 -1.7704 -3.7090
 5926SOL     OW29239   0.191   2.756   5.148  0.3070 -0.2437  0.2306
 5926SOL    HW129240   0.199   2.852   5.143 -0.0004 -0.2893 -1.1282
 5926SOL    HW229241   0.208   2.734   5.056  0.7578 -1.5007  0.6145
 5927SOL     OW29242   3.924   0.168   2.534  0.1605 -0.2566  0.7292
 5927SOL    HW129243   3.990   0.156   2.603 -1.8693  0.5105  2.8142
 5927SOL    HW229244   3.879   0.085   2.547 -1.0658  0.2021 -0.6902
 5928SOL     OW29245   1.860   3.256   9.960 -0.8902  0.6198 -0.0147
 5928SOL    HW129246   1.840   3.248  10.054  0.4536  1.2248  0.3124
 5928SOL    HW229247   1.904   3.172   9.947 -0.0576  0.8903  1.0546
 5929SOL     OW29248   3.391   2.844   3.942 -0.7838  0.2803 -0.5719
 5929SOL    HW129249   3.436   2.769   3.903  0.0156 -0.5337  1.8612
 5929SOL    HW229250   3.378   2.895   3.862  0.1764  1.1825 -0.1710
 5930SOL     OW29251   0.130   0.491   6.069  0.3053  0.1176  0.4818
 5930SOL    HW129252   0.123   0.582   6.099 -1.7068  0.0402  0.2952
 5930SOL    HW229253   0.207   0.459   6.115  1.0188  0.4148 -0.5157
 5931SOL     OW29254   1.689   2.519   5.654  0.1489 -0.3647  0.5225
 5931SOL    HW129255   1.660   2.587   5.714  0.4761  1.6697 -1.6443
 5931SOL    HW229256   1.605   2.503   5.610  0.5594  0.2830 -0.4717
 5932SOL     OW29257   4.657   0.858   7.535 -0.3775 -0.3505  0.2513
 5932SOL    HW129258   4.585   0.880   7.595 -1.2329  0.0154 -0.9015
 5932SOL    HW229259   0.011   0.875   7.586 -0.4600 -0.1799  0.3212
 5933SOL     OW29260   2.267   3.089   4.154  0.6676 -0.0413  0.4591
 5933SOL    HW129261   2.341   3.132   4.110  0.8611 -3.2098 -2.2459
 5933SOL    HW229262   2.220   3.168   4.180  0.3542  0.5836 -2.0411
 5934SOL     OW29263   2.447   2.324  15.771  0.2595  0.2887  0.4723
 5934SOL    HW129264   2.530   2.286  15.798  0.2969  0.0926  0.0788
 5934SOL    HW229265   2.449   2.400  15.830  0.5722 -0.3142  1.2226
 5935SOL     OW29266   4.096   3.010  10.109 -0.3333  0.4895 -0.5837
 5935SOL    HW129267   4.147   2.938  10.073  3.5890  3.1421 -0.3251
 5935SOL    HW229268   4.127   3.085  10.057  2.8136 -1.7626 -1.9400
 5936SOL     OW29269   3.876   4.526   2.828  0.1308  1.1650 -0.4426
 5936SOL    HW129270   3.853   4.458   2.891  0.0986  0.8777 -0.7694
 5936SOL    HW229271   3.893   4.475   2.749 -1.3701  1.2996 -0.8610
 5937SOL     OW29272   3.215   2.274   8.222  0.5187  0.0204  0.6633
 5937SOL    HW129273   3.235   2.273   8.128  1.4738  0.3864  0.8619
 5937SOL    HW229274   3.135   2.327   8.223  0.9866  0.7098  2.1627
 5938SOL     OW29275   1.579   4.084   4.449  0.1035  0.0195 -0.0150
 5938SOL    HW129276   1.503   4.036   4.482  0.4762 -1.0265 -0.6664
 5938SOL    HW229277   1.620   4.020   4.391 -0.6859  0.4483 -1.0402
 5939SOL     OW29278   0.529   1.424   3.051 -0.3406  0.1027  0.5794
 5939SOL    HW129279   0.462   1.492   3.047  0.1395  0.4980 -0.6400
 5939SOL    HW229280   0.567   1.402   2.966  0.7203 -0.1159  1.1088
 5940SOL     OW29281   0.749   1.137   4.686  0.4663  0.5014  0.2156
 5940SOL    HW129282   0.685   1.084   4.639  0.6583  0.6393 -0.2036
 5940SOL    HW229283   0.686   1.203   4.715 -0.1579 -0.8680  1.9921
 5941SOL     OW29284   0.457   0.182   4.519 -0.3888 -0.2791 -0.0802
 5941SOL    HW129285   0.530   0.153   4.464 -0.1716  0.6965 -0.2929
 5941SOL    HW229286   0.442   0.103   4.571  0.5832  1.2194  2.4730
 5942SOL     OW29287   0.851   4.588   3.962  0.2140  0.2195 -0.1696
 5942SOL    HW129288   0.835   4.528   4.035 -1.2785  2.0097  0.9714
 5942SOL    HW229289   0.798   4.548   3.892  1.6101 -1.8362 -0.0391
 5943SOL     OW29290   0.209   4.561   9.268 -0.7500  0.2322 -0.1410
 5943SOL    HW129291   0.184   4.645   9.306  0.0903  0.5762 -0.3626
 5943SOL    HW229292   0.135   4.509   9.299  0.6684 -1.0052  1.1310
 5944SOL     OW29293   1.114   3.458  15.940 -0.0609  0.0396  0.3736
 5944SOL    HW129294   1.039   3.508  15.972 -1.1395 -0.0461 -2.0048
 5944SOL    HW229295   1.163   3.533  15.908  0.5433 -0.3680  0.3337
 5945SOL     OW29296   4.025   1.807   7.577 -0.0499  0.4038  0.4802
 5945SOL    HW129297   3.957   1.742   7.562  1.9032 -1.3128 -1.0653
 5945SOL    HW229298   3.978   1.881   7.540  0.3268 -0.0529 -0.9042
 5946SOL     OW29299   1.808   3.630  13.583  0.2923 -0.3236  0.0943
 5946SOL    HW129300   1.784   3.602  13.495 -0.1292 -0.6310  0.3024
 5946SOL    HW229301   1.853   3.551  13.612 -2.4969 -1.2676  1.9304
 5947SOL     OW29302   3.338   3.468   5.696 -0.4442 -0.3026  0.0304
 5947SOL    HW129303   3.270   3.404   5.675 -0.3821 -0.3183 -0.1216
 5947SOL    HW229304   3.406   3.439   5.635 -0.7073 -1.4193  0.2572
 5948SOL     OW29305   1.632   3.224   6.653  0.2286 -0.5982 -0.3363
 5948SOL    HW129306   1.558   3.201   6.710 -0.1578  0.5456 -0.3808
 5948SOL    HW229307   1.714   3.182   6.679 -0.3253 -1.5748 -0.1629
 5949SOL     OW29308   0.291   3.295  14.685  0.3728  0.0343  0.1564
 5949SOL    HW129309   0.271   3.382  14.652  4.2817  1.2519  0.9861
 5949SOL    HW229310   0.271   3.238  14.611 -0.5201  0.2541  0.2355
 5950SOL     OW29311   4.534   4.699   3.610 -0.4518  0.0897  0.0731
 5950SOL    HW129312   4.617   0.018   3.592 -1.0172  0.6434 -1.1682
 5950SOL    HW229313   4.551   4.675   3.701 -0.4046  0.3403  0.1304
 5951SOL     OW29314   0.196   0.081   7.050  0.4890  0.1632 -0.1533
 5951SOL    HW129315   0.153   0.075   7.135  0.7341 -2.8021 -0.2153
 5951SOL    HW229316   0.180   0.173   7.032  0.3893  0.0589 -0.6022
 5952SOL     OW29317   2.690   3.022  13.384  0.4051  0.6183  0.1169
 5952SOL    HW129318   2.701   3.115  13.402  1.6974  0.8044 -1.6968
 5952SOL    HW229319   2.740   3.006  13.304  2.8704  3.9284  1.0104
 5953SOL     OW29320   2.054   1.855   1.605  0.0828  0.4278  0.3022
 5953SOL    HW129321   2.133   1.873   1.656  0.1063 -0.0346  0.4316
 5953SOL    HW229322   2.043   1.939   1.560 -1.2767 -0.3213 -0.7761
 5954SOL     OW29323   3.526   3.417  16.153  0.1242  0.0994  0.0030
 5954SOL    HW129324   3.575   3.376  16.082  1.8302  2.1162  0.0027
 5954SOL    HW229325   3.514   3.340  16.209  0.3521 -0.7535 -1.1154
 5955SOL     OW29326   3.564   1.933  13.379  0.0276 -0.5481  0.3077
 5955SOL    HW129327   3.659   1.936  13.373 -0.0305 -0.2561 -0.4511
 5955SOL    HW229328   3.550   1.989  13.455 -0.9703  1.0316 -1.0545
 5956SOL     OW29329   1.887   0.523  16.731 -1.0765 -0.4239 -0.0021
 5956SOL    HW129330   1.835   0.443  16.734 -2.4104  0.4261 -0.3762
 5956SOL    HW229331   1.916   0.541  16.642 -0.2986 -0.8598  0.1569
 5957SOL     OW29332   0.470   0.707   4.507  0.0960 -0.4816  0.4088
 5957SOL    HW129333   0.458   0.631   4.565 -3.6846  0.7800  1.3096
 5957SOL    HW229334   0.383   0.745   4.515 -0.7779 -2.3979  0.0954
 5958SOL     OW29335   3.119   3.864  17.239  0.1817 -0.3108  0.3741
 5958SOL    HW129336   3.214   3.861  17.231  0.0042 -0.4855 -1.7361
 5958SOL    HW229337   3.108   3.815  17.158  1.3138 -0.0144  0.0489
 5959SOL     OW29338   1.471   0.259   7.548 -0.0426 -0.1178  0.0764
 5959SOL    HW129339   1.378   0.281   7.547 -0.7197 -2.8936  0.5296
 5959SOL    HW229340   1.482   0.208   7.467  1.1074 -0.3803  0.3972
 5960SOL     OW29341   1.613   4.620   9.215  0.0862  0.3986 -0.3176
 5960SOL    HW129342   1.695   4.597   9.259  0.1989  1.1017 -0.1588
 5960SOL    HW229343   1.616   4.561   9.140  2.3399 -1.7028  1.4191
 5961SOL     OW29344   4.494   4.377   6.835 -0.8201  0.9446  0.0484
 5961SOL    HW129345   4.536   4.462   6.851  0.1061  0.5663 -0.3643
 5961SOL    HW229346   4.459   4.400   6.749 -0.3804 -1.0075 -0.6473
 5962SOL     OW29347   1.825   0.277  10.067  0.4465 -0.0927  0.0915
 5962SOL    HW129348   1.903   0.313  10.108  0.7933  1.0412 -1.5584
 5962SOL    HW229349   1.850   0.185  10.062  1.9898  0.3697 -0.6344
 5963SOL     OW29350   1.021   3.391   9.147 -0.2140  0.6127  0.1790
 5963SOL    HW129351   0.939   3.368   9.102 -1.1895 -0.7215  2.6669
 5963SOL    HW229352   1.043   3.472   9.100  1.1988  0.6485  0.9134
 5964SOL     OW29353   2.723   3.254  16.304  0.0035  0.2534  0.5111
 5964SOL    HW129354   2.818   3.266  16.311  0.0416 -0.2409  0.8653
 5964SOL    HW229355   2.707   3.231  16.212  0.9395  0.7076  0.2328
 5965SOL     OW29356   0.671   0.329   8.910 -0.2917 -0.8489 -0.4665
 5965SOL    HW129357   0.667   0.410   8.859 -1.2046 -1.3803 -1.2377
 5965SOL    HW229358   0.600   0.293   8.857  0.4304 -0.6627 -1.5718
 5966SOL     OW29359   2.414   4.067   6.525 -0.6438 -0.5527  0.1814
 5966SOL    HW129360   2.355   3.993   6.510 -1.2283 -0.4894  2.0637
 5966SOL    HW229361   2.486   4.039   6.469 -1.4903 -3.1007  0.3478
 5967SOL     OW29362   1.600   1.287   5.621 -0.0514  0.4923 -0.4642
 5967SOL    HW129363   1.689   1.256   5.606 -0.5153  0.2086 -2.6466
 5967SOL    HW229364   1.573   1.219   5.683  0.2464  0.6097 -0.2091
 5968SOL     OW29365   2.767   0.203   8.338  0.1881  0.5728  0.2414
 5968SOL    HW129366   2.800   0.292   8.334  0.8309  0.2567 -1.5900
 5968SOL    HW229367   2.783   0.172   8.427  0.6526  1.9949  0.6549
 5969SOL     OW29368   4.639   3.166   2.621  0.2263 -0.1422  0.1734
 5969SOL    HW129369   4.695   3.127   2.688  1.6533  0.7933 -0.4626
 5969SOL    HW229370   4.706   3.174   2.553 -1.6370  0.7547 -1.5498
 5970SOL     OW29371   0.143   4.478  15.775 -0.1276 -0.5657  0.3612
 5970SOL    HW129372   0.091   4.506  15.699 -1.5585 -1.5239  0.9893
 5970SOL    HW229373   0.221   4.437  15.737  0.5217 -1.5489  2.7686
 5971SOL     OW29374   4.090   0.710   9.288  0.1997 -0.4483  0.0046
 5971SOL    HW129375   4.065   0.797   9.316  2.2655  0.3489 -0.5917
 5971SOL    HW229376   4.033   0.702   9.212  1.0683  0.5914 -0.7548
 5972SOL     OW29377   3.233   4.177  15.370  0.0885  0.0656  0.0788
 5972SOL    HW129378   3.318   4.152  15.406 -1.3498 -0.8243  2.8865
 5972SOL    HW229379   3.221   4.117  15.296 -0.5596 -0.8004  0.8875
 5973SOL     OW29380   1.725   4.368  11.974  0.1680 -0.7026  0.6537
 5973SOL    HW129381   1.805   4.318  11.995  0.1483 -1.2266 -0.5540
 5973SOL    HW229382   1.665   4.315  12.027 -1.6282  1.1595  0.4420
 5974SOL     OW29383   2.550   4.365   5.116  0.4413  0.0407  0.3180
 5974SOL    HW129384   2.569   4.441   5.170 -0.9457  0.5549  0.0846
 5974SOL    HW229385   2.619   4.301   5.135 -1.0990 -1.2192  1.7201
 5975SOL     OW29386   0.505   2.199  14.217 -0.3444 -0.1185  0.0547
 5975SOL    HW129387   0.566   2.265  14.183 -0.1704  1.1241  2.8031
 5975SOL    HW229388   0.475   2.247  14.294  1.3793 -0.3484  0.8618
 5976SOL     OW29389   0.090   0.883   4.267 -0.2659 -0.4808 -0.2590
 5976SOL    HW129390   0.180   0.870   4.235  1.1888  0.5914  3.3493
 5976SOL    HW229391   0.086   0.807   4.326 -1.2102  1.1189  1.7188
 5977SOL     OW29392   0.219   3.150   3.605  0.9976 -0.0503 -0.1113
 5977SOL    HW129393   0.284   3.148   3.534  1.6182 -0.8744  0.4893
 5977SOL    HW229394   0.240   3.231   3.651  1.5378 -1.6012  2.3390
 5978SOL     OW29395   4.355   0.814   5.823  0.6177 -0.0756  0.1609
 5978SOL    HW129396   4.379   0.769   5.742  0.4582  1.0623 -0.5209
 5978SOL    HW229397   4.292   0.880   5.796  0.5518  0.5649  1.8603
 5979SOL     OW29398   1.102   1.097   4.949 -0.8801  0.5009 -0.1468
 5979SOL    HW129399   1.115   1.191   4.935 -1.3628  1.0885  3.4638
 5979SOL    HW229400   1.100   1.089   5.044  0.1618  0.4872 -0.1261
 5980SOL     OW29401   2.531   2.219   8.342  0.3570 -0.4453  0.0206
 5980SOL    HW129402   2.438   2.215   8.322  0.0341  1.8216  1.0025
 5980SOL    HW229403   2.521   2.184   8.431 -2.7535  1.2920  0.3660
 5981SOL     OW29404   4.466   3.923   1.356  0.2851  0.3159  0.4626
 5981SOL    HW129405   4.423   3.993   1.405 -0.4581 -0.1723  0.5035
 5981SOL    HW229406   4.525   3.889   1.424 -0.2563 -0.1615  0.6970
 5982SOL     OW29407   0.375   4.416   8.068 -0.0697  0.4746 -0.2018
 5982SOL    HW129408   0.298   4.415   8.125 -0.2778  1.0721 -0.4762
 5982SOL    HW229409   0.342   4.402   7.979  0.0025  3.2491 -0.6840
 5983SOL     OW29410   0.282   0.306  15.095 -0.0159 -0.5075 -0.0979
 5983SOL    HW129411   0.359   0.283  15.044  2.0260  0.5363  2.5018
 5983SOL    HW229412   0.217   0.283  15.028  1.3088 -3.8620 -0.1863
 5984SOL     OW29413   1.991   2.969   4.740  0.4671  0.0230 -0.4448
 5984SOL    HW129414   2.049   3.045   4.732 -0.9888  1.2073  0.2927
 5984SOL    HW229415   2.041   2.920   4.805  1.7817  0.1825 -1.3214
 5985SOL     OW29416   2.831   1.127  12.383  0.2628 -0.2932 -0.0578
 5985SOL    HW129417   2.912   1.076  12.386 -0.4234 -1.4009 -0.6580
 5985SOL    HW229418   2.780   1.083  12.451  1.0314  0.7942  1.2319
 5986SOL     OW29419   4.036   1.125   0.735  0.2114  0.2316  0.1665
 5986SOL    HW129420   3.958   1.084   0.771  0.0561  1.3425  1.1158
 5986SOL    HW229421   4.018   1.123   0.641  1.2623 -0.3153 -0.0302
 5987SOL     OW29422   1.530   3.932  11.349 -0.2014  1.1275  0.7897
 5987SOL    HW129423   1.452   3.878  11.362  0.1077 -0.0166 -2.1305
 5987SOL    HW229424   1.528   3.979  11.432  1.4133 -0.6797  1.8406
 5988SOL     OW29425   4.647   3.537   1.402 -0.7138 -0.2658  0.4741
 5988SOL    HW129426   4.580   3.472   1.421 -1.1907  0.8207  2.5365
 5988SOL    HW229427   4.622   3.593   1.475 -1.4568 -0.1735  0.1452
 5989SOL     OW29428   3.920   4.256   0.015  0.1349 -0.4462 -0.1155
 5989SOL    HW129429   3.920   4.160   0.010 -0.9997 -0.3945 -0.9254
 5989SOL    HW229430   3.909   4.263   0.110 -0.8899 -0.8151 -0.2060
 5990SOL     OW29431   2.800   0.526  14.871 -0.4211  0.0984  0.2956
 5990SOL    HW129432   2.823   0.448  14.921 -1.3503  1.5428  2.9772
 5990SOL    HW229433   2.787   0.585  14.945  1.6836 -1.3749  1.8628
 5991SOL     OW29434   4.400   1.434   8.231  0.0764  0.3859 -0.2647
 5991SOL    HW129435   4.450   1.359   8.198  0.4890  1.2515 -1.5784
 5991SOL    HW229436   4.426   1.439   8.323 -2.6199  1.6817  0.4095
 5992SOL     OW29437   2.056   0.605  11.615 -0.2031  0.3546  0.0113
 5992SOL    HW129438   2.141   0.643  11.637  0.6157 -0.8837 -1.0549
 5992SOL    HW229439   2.083   0.513  11.620 -0.3079  0.3796  1.1471
 5993SOL     OW29440   0.748   3.506   0.812  0.4702 -0.0396  0.9162
 5993SOL    HW129441   0.724   3.570   0.746  2.2649  0.3207  0.6114
 5993SOL    HW229442   0.800   3.558   0.874  0.4293  0.2664  0.6903
 5994SOL     OW29443   0.317   3.731  13.818  0.0569 -0.1421  0.1453
 5994SOL    HW129444   0.276   3.733  13.732 -1.7894 -1.3738  1.0086
 5994SOL    HW229445   0.399   3.773  13.791 -0.4304 -0.1000 -1.2952
 5995SOL     OW29446   2.507   2.214   7.561  0.0353 -0.0955  0.1931
 5995SOL    HW129447   2.585   2.201   7.507 -0.4706 -2.0785 -0.0687
 5995SOL    HW229448   2.539   2.252   7.642 -0.9853 -1.1452  1.0861
 5996SOL     OW29449   2.763   2.346   5.369 -0.1138 -0.1922 -0.0402
 5996SOL    HW129450   2.682   2.366   5.414 -0.1177  1.3051 -0.7065
 5996SOL    HW229451   2.747   2.253   5.350 -0.2914 -0.7894  3.1266
 5997SOL     OW29452   2.924   1.897  16.900  0.3329 -0.2681 -0.5535
 5997SOL    HW129453   2.879   1.827  16.947  0.3551  1.3113  1.8637
 5997SOL    HW229454   2.859   1.968  16.901  1.0845  0.4295 -1.1382
 5998SOL     OW29455   3.539   4.309   1.863  0.0565  0.5367 -0.3357
 5998SOL    HW129456   3.570   4.249   1.795  0.2548 -0.3063  0.4964
 5998SOL    HW229457   3.446   4.304   1.838  0.0263 -0.1578 -0.0816
 5999SOL     OW29458   2.786   0.835   8.994  0.1451 -0.3116 -0.6910
 5999SOL    HW129459   2.798   0.786   9.075  2.7003  2.8763  0.8492
 5999SOL    HW229460   2.797   0.923   9.030  0.2588 -0.8037  0.4936
 6000SOL     OW29461   0.403   1.071   6.826  0.0242  0.6149 -0.2587
 6000SOL    HW129462   0.391   1.164   6.810  0.7433  0.5102 -1.4233
 6000SOL    HW229463   0.479   1.068   6.884 -1.5018  0.1051  1.7228
 6001SOL     OW29464   1.258   3.881   9.071  0.3718  0.4714 -0.5229
 6001SOL    HW129465   1.272   3.788   9.055  2.9631  0.7000  0.2584
 6001SOL    HW229466   1.350   3.908   9.068  1.3419 -2.5331  2.7504
 6002SOL     OW29467   3.096   4.313  16.290  0.2793  0.3924 -0.5625
 6002SOL    HW129468   3.188   4.316  16.318  0.2102  0.1730 -0.3092
 6002SOL    HW229469   3.100   4.246  16.222 -1.8900 -1.5988  1.2902
 6003SOL     OW29470   1.603   1.406  15.522 -0.7524  0.0965  0.3242
 6003SOL    HW129471   1.597   1.452  15.438  1.6132  0.0586  0.1248
 6003SOL    HW229472   1.610   1.478  15.585 -1.1008  0.2842  0.1514
 6004SOL     OW29473   2.660   3.007   8.459  0.4931 -0.3624  0.3882
 6004SOL    HW129474   2.580   3.059   8.454  0.9478  0.3786  1.0415
 6004SOL    HW229475   2.726   3.074   8.474  0.0759  0.3417 -0.8957
 6005SOL     OW29476   2.793   0.218   1.423 -0.0364  0.3411 -0.5096
 6005SOL    HW129477   2.848   0.209   1.346 -1.0995 -1.0272 -1.1011
 6005SOL    HW229478   2.732   0.145   1.413 -0.1634  0.4972 -0.8554
 6006SOL     OW29479   2.333   1.704   6.536 -0.0630 -0.6672 -0.2632
 6006SOL    HW129480   2.393   1.655   6.481 -0.9315 -1.0360 -0.8889
 6006SOL    HW229481   2.280   1.627   6.558 -0.5859 -0.2936 -0.2201
 6007SOL     OW29482   0.269   4.286   5.256  0.4072 -0.1485  0.2136
 6007SOL    HW129483   0.283   4.352   5.189  2.9548  0.2563  1.1447
 6007SOL    HW229484   0.282   4.207   5.203 -0.5595  0.5570 -1.0535
 6008SOL     OW29485   4.722   0.675   2.345 -0.0707 -0.1047 -0.3946
 6008SOL    HW129486   4.660   0.743   2.317  2.1797  1.9855 -0.3693
 6008SOL    HW229487   0.018   0.626   2.266 -1.8783 -2.0024  0.3363
 6009SOL     OW29488   4.071   2.972  11.317 -0.2881  0.6375 -0.1193
 6009SOL    HW129489   4.006   2.984  11.248 -1.4322  1.8511  1.1680
 6009SOL    HW229490   4.030   3.018  11.390 -0.2506 -1.3363  1.1371
 6010SOL     OW29491   0.746   2.526   4.616  0.4674 -0.1046  0.3001
 6010SOL    HW129492   0.706   2.464   4.555 -0.4107  0.5305  0.2338
 6010SOL    HW229493   0.815   2.575   4.571  0.7133  0.0364  0.8223
 6011SOL     OW29494   1.756   1.887   3.869  0.3203 -0.3053 -0.1660
 6011SOL    HW129495   1.760   1.933   3.953 -0.5433  1.9244 -1.3376
 6011SOL    HW229496   1.751   1.798   3.906  1.6943  0.1140  1.0346
 6012SOL     OW29497   3.721   4.462   5.402 -0.0056 -0.1927  0.1311
 6012SOL    HW129498   3.744   4.374   5.373 -0.8404  0.0838 -1.4086
 6012SOL    HW229499   3.626   4.450   5.406  0.1555 -1.6557 -0.1855
 6013SOL     OW29500   2.879   1.985  13.631 -0.8603 -0.2392  0.1469
 6013SOL    HW129501   2.811   2.001  13.696 -1.6275 -1.0913 -0.4417
 6013SOL    HW229502   2.876   1.889  13.625  0.1809 -0.4405  2.5483
 6014SOL     OW29503   4.275   1.647   4.411  0.3254 -0.3980 -0.1104
 6014SOL    HW129504   4.232   1.649   4.497 -0.8610 -0.1395 -0.7064
 6014SOL    HW229505   4.268   1.737   4.378 -2.9009 -1.8885 -3.5248
 6015SOL     OW29506   3.693   1.247   1.745 -0.5208  0.4959 -0.2057
 6015SOL    HW129507   3.630   1.189   1.703 -1.5629  1.5492 -0.0867
 6015SOL    HW229508   3.668   1.338   1.728  0.0727  0.9128  1.1403
 6016SOL     OW29509   1.613   2.840   5.661 -0.4029  0.1778 -0.8045
 6016SOL    HW129510   1.544   2.818   5.723  1.7809  0.5798  1.7460
 6016SOL    HW229511   1.569   2.897   5.598  0.1765 -0.4721 -1.7943
 6017SOL     OW29512   0.808   1.751   5.888  0.2488  0.1827  0.2527
 6017SOL    HW129513   0.881   1.718   5.941 -0.4196 -0.9172  0.4891
 6017SOL    HW229514   0.740   1.690   5.916 -3.1737  2.8097 -2.4298
 6018SOL     OW29515   1.898   1.248   2.017  0.3148 -0.1700 -0.2460
 6018SOL    HW129516   1.915   1.162   1.978  3.7198 -0.3897  1.7526
 6018SOL    HW229517   1.853   1.286   1.941 -1.1927 -0.2871  0.6003
 6019SOL     OW29518   1.575   0.777   0.787 -0.1223  0.2708  0.4231
 6019SOL    HW129519   1.635   0.758   0.859 -0.9899  1.4159  1.4643
 6019SOL    HW229520   1.637   0.778   0.714 -1.4210  1.0232 -0.6667
 6020SOL     OW29521   3.953   3.555   6.513  0.0726  0.2483 -0.6744
 6020SOL    HW129522   4.044   3.539   6.489  0.3332 -1.0508  1.1761
 6020SOL    HW229523   3.917   3.527   6.428 -1.4082 -1.2672  0.4510
 6021SOL     OW29524   0.870   2.926   7.214  0.1659  0.1547 -0.5782
 6021SOL    HW129525   0.929   2.998   7.236  0.5049 -0.6076  0.9353
 6021SOL    HW229526   0.913   2.889   7.137 -0.0219 -0.0776 -0.5688
 6022SOL     OW29527   3.701   2.405  15.919 -0.0997 -0.2764  0.2027
 6022SOL    HW129528   3.779   2.461  15.925 -0.1812  0.1792 -3.1038
 6022SOL    HW229529   3.630   2.464  15.892  0.5171 -0.3939 -1.6343
 6023SOL     OW29530   1.633   1.857  15.204 -0.1870 -0.0614 -0.1976
 6023SOL    HW129531   1.720   1.858  15.243  0.4505 -1.8055 -1.5558
 6023SOL    HW229532   1.659   1.869  15.112 -1.1112 -0.4813 -0.5220
 6024SOL     OW29533   0.058   2.560   5.575  0.2393  0.0440  0.5322
 6024SOL    HW129534   0.120   2.626   5.606 -0.2173  0.4811  0.5225
 6024SOL    HW229535   0.085   2.560   5.483 -2.0428 -1.0075 -0.1582
 6025SOL     OW29536   3.116   0.119   3.941  0.0285 -0.8604 -0.3940
 6025SOL    HW129537   3.069   0.154   4.016 -0.2572 -1.4879 -0.2795
 6025SOL    HW229538   3.133   0.030   3.973  0.1358 -1.0178 -0.8891
 6026SOL     OW29539   0.090   2.196   2.262  0.0364 -0.1701 -0.2381
 6026SOL    HW129540   0.028   2.168   2.330  0.4046 -0.0539  0.1447
 6026SOL    HW229541   0.035   2.268   2.229  0.0023  0.0581  0.3236
 6027SOL     OW29542   3.295   1.092  15.202 -0.0887  0.2614 -0.2753
 6027SOL    HW129543   3.388   1.114  15.192  0.1842 -0.3030  0.9049
 6027SOL    HW229544   3.278   1.151  15.276 -2.4382 -0.2189 -0.4407
 6028SOL     OW29545   4.482   2.906   6.491 -0.0097  0.0705 -0.0692
 6028SOL    HW129546   4.497   2.898   6.585  0.1781 -0.5876 -0.1534
 6028SOL    HW229547   4.475   2.815   6.462  0.5090 -1.1145  3.4837
 6029SOL     OW29548   1.246   2.707   7.690 -0.6983 -0.2091 -0.3665
 6029SOL    HW129549   1.217   2.691   7.780  2.1087  1.3103  0.8301
 6029SOL    HW229550   1.177   2.660   7.644 -0.9564 -2.5526  2.4342
 6030SOL     OW29551   2.032   1.830   0.101 -0.2754  0.1618 -0.3563
 6030SOL    HW129552   1.957   1.777   0.127 -1.1847  0.4927 -2.3016
 6030SOL    HW229553   1.993   1.910   0.065 -2.0387 -1.8637 -2.8761
 6031SOL     OW29554   1.505   4.358  12.346  0.4150  0.4294 -0.6066
 6031SOL    HW129555   1.487   4.445  12.309 -1.3093  0.4516  0.3187
 6031SOL    HW229556   1.589   4.382  12.385  0.3671 -0.3382 -0.0232
 6032SOL     OW29557   2.413   3.245   5.249  0.0104 -0.1196 -0.5535
 6032SOL    HW129558   2.371   3.298   5.182 -0.3304  0.6501  0.2770
 6032SOL    HW229559   2.504   3.275   5.244  0.7141 -1.8449  1.6897
 6033SOL     OW29560   1.311   3.836   3.120  0.3214  0.2940  0.0921
 6033SOL    HW129561   1.264   3.768   3.071 -0.7821  0.9331  0.2562
 6033SOL    HW229562   1.268   3.913   3.081  2.2149  1.5567  0.4979
 6034SOL     OW29563   3.801   3.256   6.726 -0.2714 -0.0096  0.3310
 6034SOL    HW129564   3.870   3.210   6.678  1.0687  1.5287  0.8052
 6034SOL    HW229565   3.773   3.322   6.664 -0.5955  0.0938  0.5848
 6035SOL     OW29566   4.472   2.096   5.414 -0.2546 -0.2572 -0.0731
 6035SOL    HW129567   4.389   2.143   5.414  0.2295  0.5955 -1.2071
 6035SOL    HW229568   4.451   2.038   5.340 -0.4292 -0.0710 -0.1673
 6036SOL     OW29569   1.602   3.543  11.510  0.5987 -0.2829  0.2709
 6036SOL    HW129570   1.594   3.601  11.585 -0.8030 -0.1543  0.0294
 6036SOL    HW229571   1.644   3.601  11.446 -0.7856  1.1032  0.6138
 6037SOL     OW29572   3.452   3.201   0.024  0.6802 -0.0143  0.3122
 6037SOL    HW129573   3.448   3.118  17.676 -0.8323  1.3123 -1.9415
 6037SOL    HW229574   3.452   3.177   0.117 -3.9913  1.3069  0.6774
 6038SOL     OW29575   4.147   0.523   3.125 -0.3172 -0.5023 -0.1599
 6038SOL    HW129576   4.064   0.516   3.173 -1.3365 -1.2702 -2.0206
 6038SOL    HW229577   4.161   0.435   3.089 -4.1426 -1.3618  0.3774
 6039SOL     OW29578   2.385   1.890   6.764 -0.0901 -0.1088  0.3191
 6039SOL    HW129579   2.358   1.966   6.712  2.1559  1.0075  0.7897
 6039SOL    HW229580   2.384   1.821   6.698  0.1691 -1.2948  1.5633
 6040SOL     OW29581   1.040   1.587  10.346 -0.2168  0.4358 -0.2149
 6040SOL    HW129582   1.007   1.498  10.339 -3.7336  1.4705  2.7938
 6040SOL    HW229583   1.112   1.574  10.407 -0.3267  0.9692  0.0325
 6041SOL     OW29584   4.518   1.086  10.837 -0.2732 -0.3890 -0.6314
 6041SOL    HW129585   4.543   1.151  10.902  1.5117 -0.7969 -0.9054
 6041SOL    HW229586   4.530   1.009  10.893 -0.6048 -0.7199 -1.0111
 6042SOL     OW29587   4.541   0.501   5.143 -0.5816  0.1920 -0.0630
 6042SOL    HW129588   4.613   0.441   5.165 -0.6837  0.0837 -0.0280
 6042SOL    HW229589   4.521   0.558   5.218 -0.6980 -0.7944  0.6590
 6043SOL     OW29590   2.081   2.160  10.621  0.0489  0.0454  0.0806
 6043SOL    HW129591   1.999   2.125  10.656  2.1514 -3.0901  1.8986
 6043SOL    HW229592   2.084   2.235  10.681 -0.9985 -0.7463  1.1253
 6044SOL     OW29593   1.614   1.004   5.399 -0.0053  0.1663 -0.2340
 6044SOL    HW129594   1.569   0.997   5.315  0.9284  0.6162 -0.7750
 6044SOL    HW229595   1.569   0.937   5.451 -1.8963  0.5794 -1.3109
 6045SOL     OW29596   2.733   4.200   8.329 -0.0836 -0.1413  0.3782
 6045SOL    HW129597   2.654   4.249   8.308  1.6137  2.2442 -0.5871
 6045SOL    HW229598   2.783   4.274   8.364 -1.4313  1.2044 -0.5646
 6046SOL     OW29599   3.744   4.043   6.724  0.1940  0.6053  0.1714
 6046SOL    HW129600   3.816   4.003   6.773 -1.8241 -0.2678  2.4237
 6046SOL    HW229601   3.761   4.137   6.717 -0.2472  0.5938 -1.0492
 6047SOL     OW29602   1.663   1.880   6.529  0.5620 -0.1024 -0.2504
 6047SOL    HW129603   1.748   1.898   6.569  0.6747 -1.0810 -0.0525
 6047SOL    HW229604   1.599   1.908   6.594 -1.0171  0.7629 -2.1575
 6048SOL     OW29605   0.448   1.483   7.782 -0.6771 -0.3684  0.3680
 6048SOL    HW129606   0.390   1.535   7.726  0.8779  1.9642  0.8859
 6048SOL    HW229607   0.499   1.553   7.824 -0.6099 -0.0563 -0.2374
 6049SOL     OW29608   1.847   2.263   2.030  0.5442 -0.5298  0.0019
 6049SOL    HW129609   1.783   2.228   2.092 -0.0874 -2.2678 -1.6263
 6049SOL    HW229610   1.838   2.357   2.048 -0.9923 -0.2737 -2.0886
 6050SOL     OW29611   0.767   2.868   8.676  0.0399  0.3033 -0.3320
 6050SOL    HW129612   0.681   2.831   8.699  0.2797  0.2699  0.5017
 6050SOL    HW229613   0.732   2.949   8.640  1.5349  0.8038 -0.6299
 6051SOL     OW29614   1.126   3.687  17.449 -0.3593 -0.0527  0.3337
 6051SOL    HW129615   1.060   3.631  17.489 -1.4273  0.3930 -0.8135
 6051SOL    HW229616   1.112   3.665  17.357  1.0690 -0.0399  0.1078
 6052SOL     OW29617   0.902   1.587   9.677  0.0774 -0.5962 -0.0081
 6052SOL    HW129618   0.808   1.574   9.694  0.0899 -0.2059  0.3512
 6052SOL    HW229619   0.900   1.682   9.663 -0.9563 -0.9529 -2.3349
 6053SOL     OW29620   3.479   1.835   7.414 -0.3980 -0.0154  0.5611
 6053SOL    HW129621   3.514   1.807   7.329 -0.8052 -1.5785  0.9135
 6053SOL    HW229622   3.423   1.904   7.380  0.4416 -0.0493 -0.9131
 6054SOL     OW29623   0.120   0.278   9.581 -0.5157 -0.3373  0.3184
 6054SOL    HW129624   0.209   0.266   9.614 -1.4501 -3.6081  1.6929
 6054SOL    HW229625   0.077   0.246   9.660 -3.4212  1.8821 -0.3573
 6055SOL     OW29626   3.543   2.547   8.036  0.0413 -0.5785 -0.0875
 6055SOL    HW129627   3.481   2.589   8.095  0.9944  1.9654 -0.9032
 6055SOL    HW229628   3.573   2.471   8.085 -0.0769  0.6547  1.8624
 6056SOL     OW29629   4.349   0.284   9.181 -0.3284 -0.0584  0.0257
 6056SOL    HW129630   4.278   0.331   9.137 -0.3287 -0.1431 -0.0651
 6056SOL    HW229631   4.366   0.227   9.106 -0.0899 -0.6926  0.5624
 6057SOL     OW29632   1.735   1.209   7.039  0.0473 -0.1597 -0.3316
 6057SOL    HW129633   1.830   1.218   7.045  0.0710 -0.3799 -0.3816
 6057SOL    HW229634   1.746   1.119   7.007 -2.1651  0.0618 -1.7271
 6058SOL     OW29635   2.432   4.332  10.895  0.1734  0.1302 -0.1122
 6058SOL    HW129636   2.519   4.356  10.927  0.4856  0.6580 -1.3534
 6058SOL    HW229637   2.443   4.242  10.865  0.5742  0.2230 -0.2499
 6059SOL     OW29638   0.477   3.074  12.267 -0.0462 -0.3566 -0.1112
 6059SOL    HW129639   0.464   3.169  12.273  0.6613 -0.2584 -0.0888
 6059SOL    HW229640   0.396   3.031  12.240  1.0949 -2.3384 -0.4394
 6060SOL     OW29641   3.666   2.312  14.306  0.3926  0.2070 -0.0226
 6060SOL    HW129642   3.733   2.271  14.253 -0.1158 -0.7208  0.0506
 6060SOL    HW229643   3.646   2.245  14.371 -1.5897  0.2491 -0.5944
 6061SOL     OW29644   4.093   3.320   5.613  0.3110 -0.7023 -0.4256
 6061SOL    HW129645   4.030   3.338   5.683  0.4137  1.0089 -0.7570
 6061SOL    HW229646   4.112   3.228   5.625  0.8004 -0.7433 -1.4948
 6062SOL     OW29647   3.029   0.261   8.140  0.3229  0.6179 -0.0032
 6062SOL    HW129648   3.121   0.280   8.121  0.0146  1.8693 -0.2700
 6062SOL    HW229649   3.019   0.306   8.224  1.6413  0.7542  0.0843
 6063SOL     OW29650   1.199   0.551   1.597  0.7269 -0.0058 -0.1118
 6063SOL    HW129651   1.205   0.645   1.612 -0.3942  0.0659 -0.1349
 6063SOL    HW229652   1.113   0.539   1.556  0.4933 -0.9188  0.6300
 6064SOL     OW29653   0.541   0.007   5.183 -0.1955  0.4444  0.1469
 6064SOL    HW129654   0.536   0.013   5.279 -0.5121  1.1782  0.0895
 6064SOL    HW229655   0.455   4.697   5.162 -0.3528  1.2074 -0.4515
 6065SOL     OW29656   2.600   2.959   8.116  0.0070 -0.0233 -0.8055
 6065SOL    HW129657   2.509   2.930   8.110 -0.4214  0.9511  1.1171
 6065SOL    HW229658   2.594   3.051   8.089  1.8643  0.3621  0.0671
 6066SOL     OW29659   3.988   2.274  10.265  0.2709  0.0029 -0.7686
 6066SOL    HW129660   4.077   2.258  10.233  1.5610 -0.7216  3.0744
 6066SOL    HW229661   4.012   2.321  10.345  0.5122 -1.2118 -0.1322
 6067SOL     OW29662   2.892   4.254   0.827  0.7631  0.5863  0.0153
 6067SOL    HW129663   2.803   4.248   0.863  0.2881  3.5900 -0.6661
 6067SOL    HW229664   2.940   4.310   0.888  2.1728 -0.5490 -0.0661
 6068SOL     OW29665   3.726   0.470  11.650  0.0713 -0.4584  0.1413
 6068SOL    HW129666   3.811   0.477  11.606  0.9633  1.7560  2.2634
 6068SOL    HW229667   3.713   0.375  11.648 -1.5668 -0.2219 -0.7288
 6069SOL     OW29668   2.770   4.006   2.173  0.1927 -0.5510 -0.2770
 6069SOL    HW129669   2.707   4.067   2.210  0.4515  0.5850 -1.7249
 6069SOL    HW229670   2.811   4.055   2.101  1.2741  0.8377  1.2754
 6070SOL     OW29671   3.699   3.337   8.030  0.1374  0.5485 -0.2135
 6070SOL    HW129672   3.628   3.390   8.066  0.7998  0.5769  1.0540
 6070SOL    HW229673   3.692   3.263   8.090  1.5322 -1.5414 -2.6182
 6071SOL     OW29674   2.230   2.743   0.426  0.2439  0.6133 -0.1327
 6071SOL    HW129675   2.176   2.783   0.494 -0.9057 -1.1532 -0.0191
 6071SOL    HW229676   2.165   2.733   0.357 -0.3361  2.2245  0.1794
 6072SOL     OW29677   2.659   2.891   6.465  0.1703 -0.0546  0.5113
 6072SOL    HW129678   2.674   2.985   6.455  1.0233 -0.1877  0.5636
 6072SOL    HW229679   2.658   2.884   6.561 -2.5973  0.9741  0.5642
 6073SOL     OW29680   2.733   4.102  10.167  0.5770  0.1664 -0.1134
 6073SOL    HW129681   2.758   4.025  10.117  0.4395  1.7372 -2.6110
 6073SOL    HW229682   2.799   4.167  10.140  0.8928 -0.3812 -0.6411
 6074SOL     OW29683   2.716   0.127   4.599 -0.3836  0.1565  0.2464
 6074SOL    HW129684   2.714   0.199   4.536 -1.0432  0.2782  0.4089
 6074SOL    HW229685   2.659   0.163   4.667  0.6519  1.3898  0.4587
 6075SOL     OW29686   0.080   0.602  13.040 -0.3968 -0.6246 -0.4503
 6075SOL    HW129687   0.039   0.678  13.081 -1.0524  0.2476 -2.7113
 6075SOL    HW229688   0.131   0.645  12.972  1.1225  0.1772  1.2063
 6076SOL     OW29689   3.255   4.433   7.323 -0.1412  0.3197 -0.1686
 6076SOL    HW129690   3.160   4.431   7.338 -0.2103 -1.9143 -0.8388
 6076SOL    HW229691   3.271   4.514   7.371 -2.0066  0.4667  0.2343
 6077SOL     OW29692   3.954   2.572   6.786  0.3624  0.2553  0.0709
 6077SOL    HW129693   4.048   2.584   6.804  0.2996 -1.4226  1.5249
 6077SOL    HW229694   3.916   2.648   6.742 -0.9093  0.5436  1.6825
 6078SOL     OW29695   4.451   2.460   0.033  0.0017  0.2773  0.0125
 6078SOL    HW129696   4.542   2.485   0.016  0.5349  0.1481  2.7021
 6078SOL    HW229697   4.447   2.370   0.003  2.7974 -0.1497  0.9063
 6079SOL     OW29698   0.590   0.744   2.834  0.0584  0.1769 -0.4355
 6079SOL    HW129699   0.637   0.813   2.881 -1.9905  0.5430  1.1177
 6079SOL    HW229700   0.519   0.726   2.896 -0.9644  0.2109 -1.6073
 6080SOL     OW29701   2.983   4.438   2.428 -0.5472 -0.1745 -0.6339
 6080SOL    HW129702   2.895   4.403   2.415 -1.0138  0.1136  1.8486
 6080SOL    HW229703   2.977   4.508   2.362  0.1812  0.4838 -0.0085
 6081SOL     OW29704   0.217   1.872   0.968 -0.2146  0.2474 -0.0336
 6081SOL    HW129705   0.285   1.918   1.017  0.9231 -2.6884  1.1182
 6081SOL    HW229706   0.140   1.910   1.011 -0.2926 -0.7546  0.6966
 6082SOL     OW29707   0.672   0.375  11.610  0.3119  0.4625  0.3844
 6082SOL    HW129708   0.726   0.316  11.558 -0.1276  0.9502 -0.6176
 6082SOL    HW229709   0.743   0.397  11.671  0.4986  0.9741 -0.0208
 6083SOL     OW29710   1.900   4.670   2.807 -0.2124  0.6242  0.1337
 6083SOL    HW129711   1.829   4.605   2.809 -0.5879  1.0793  2.5810
 6083SOL    HW229712   1.873   4.714   2.726 -0.3446  3.4423  1.6968
 6084SOL     OW29713   1.147   1.227   4.181 -0.5467  0.3476  0.4230
 6084SOL    HW129714   1.188   1.146   4.212  1.2629  2.2566  2.9786
 6084SOL    HW229715   1.199   1.238   4.102  0.3180 -0.4792  0.8710
 6085SOL     OW29716   2.172   2.527  15.092  0.6026  0.0096  0.6985
 6085SOL    HW129717   2.246   2.558  15.142  1.7745 -0.7958 -0.5226
 6085SOL    HW229718   2.189   2.435  15.111 -1.3849 -0.5782 -0.3229
 6086SOL     OW29719   3.111   3.847  13.214 -0.5365 -0.3197 -0.1948
 6086SOL    HW129720   3.175   3.781  13.242  0.4955  1.0350  0.6104
 6086SOL    HW229721   3.031   3.796  13.225 -0.6440  0.3960  2.5188
 6087SOL     OW29722   3.508   2.261   1.814  0.1664 -0.9696  0.0754
 6087SOL    HW129723   3.500   2.199   1.741  1.4171  1.2554 -1.9785
 6087SOL    HW229724   3.602   2.279   1.807  0.7011 -3.8901 -0.4790
 6088SOL     OW29725   1.145   3.052  12.520 -0.3447  0.3217 -0.0097
 6088SOL    HW129726   1.156   3.126  12.460  2.4374 -0.8247 -0.9296
 6088SOL    HW229727   1.107   3.095  12.596 -3.2927 -2.1017 -0.1266
 6089SOL     OW29728   4.659   0.670   7.342  0.4043 -0.0924  0.5080
 6089SOL    HW129729   0.023   0.691   7.310  0.5970 -2.4157 -0.5233
 6089SOL    HW229730   4.652   0.743   7.403 -0.7928  1.0661 -1.0270
 6090SOL     OW29731   2.587   3.409  13.851  0.0350  0.3374  0.5988
 6090SOL    HW129732   2.587   3.350  13.926  1.3508  0.0307  0.3630
 6090SOL    HW229733   2.585   3.493  13.898 -0.6111  0.6264  0.0501
 6091SOL     OW29734   3.472   2.581   8.689  0.1555  0.4464  0.2025
 6091SOL    HW129735   3.466   2.486   8.679 -0.0261  0.4181  0.5606
 6091SOL    HW229736   3.399   2.605   8.631  1.6114 -1.6321 -2.4794
 6092SOL     OW29737   2.122   2.333   2.571  0.4392  0.0565  0.0489
 6092SOL    HW129738   2.066   2.380   2.633  0.0122 -1.6411  0.9410
 6092SOL    HW229739   2.177   2.408   2.546  0.2918 -0.4879 -1.8738
 6093SOL     OW29740   0.799   0.304   5.326 -0.0231 -0.1186  0.2457
 6093SOL    HW129741   0.779   0.267   5.240 -0.3684  0.5809  0.0306
 6093SOL    HW229742   0.739   0.378   5.326 -0.4044 -0.4386  1.1911
 6094SOL     OW29743   0.371   1.120  12.894  0.1071  0.1197 -1.0398
 6094SOL    HW129744   0.372   1.027  12.872  0.5536  0.2179 -1.4585
 6094SOL    HW229745   0.464   1.143  12.894  0.4406 -1.2707  1.2817
 6095SOL     OW29746   3.654   3.454  15.688  0.0810  0.3706 -0.1752
 6095SOL    HW129747   3.724   3.447  15.753 -0.8050  0.3441  0.7800
 6095SOL    HW229748   3.670   3.540  15.649  1.6742 -0.2836 -0.9440
 6096SOL     OW29749   2.266   2.731   7.341  0.4201  0.1474  0.0178
 6096SOL    HW129750   2.175   2.754   7.361  0.7037  0.7587  0.6135
 6096SOL    HW229751   2.277   2.651   7.392  2.3692  1.8765  2.2933
 6097SOL     OW29752   2.739   1.741   8.396 -0.4712  0.4692  0.3630
 6097SOL    HW129753   2.731   1.669   8.333 -0.6247  3.1250 -2.6751
 6097SOL    HW229754   2.787   1.813   8.355 -0.4410  1.2699  1.8189
 6098SOL     OW29755   2.855   0.057  17.651 -0.1236  0.3223 -0.1848
 6098SOL    HW129756   2.829   0.113   0.025 -0.4803 -1.0083  0.7061
 6098SOL    HW229757   2.950   0.061  17.661  0.0473  1.8860 -2.2929
 6099SOL     OW29758   1.098   4.564   1.191  0.1780  0.2566 -0.5049
 6099SOL    HW129759   1.084   4.509   1.113 -0.8925 -0.3497  0.1156
 6099SOL    HW229760   1.181   4.531   1.224 -0.7594 -0.1245  1.4429
 6100SOL     OW29761   1.713   0.955   4.363  0.3683  0.0954  0.2227
 6100SOL    HW129762   1.626   0.974   4.328  0.1308  1.5468  1.6017
 6100SOL    HW229763   1.685   0.868   4.392  3.4580 -1.6799 -2.1509
 6101SOL     OW29764   3.073   0.853   3.450 -0.0939 -0.0509 -0.0026
 6101SOL    HW129765   3.043   0.920   3.389  1.4235  1.0781  0.5167
 6101SOL    HW229766   3.164   0.882   3.456  0.1399 -0.9076  0.6219
 6102SOL     OW29767   3.616   0.674  10.126 -0.3616  0.0692  0.3961
 6102SOL    HW129768   3.673   0.751  10.133  1.5239 -1.3071  0.2756
 6102SOL    HW229769   3.594   0.668  10.033 -0.2462  2.4489  0.2146
 6103SOL     OW29770   2.254   1.294   5.598 -0.3523  0.7791  0.6605
 6103SOL    HW129771   2.172   1.245   5.597 -0.9458  1.7255  2.1366
 6103SOL    HW229772   2.261   1.289   5.694  0.3600 -1.0978  0.5198
 6104SOL     OW29773   1.911   2.260   1.733 -0.1221  0.0981 -0.0293
 6104SOL    HW129774   2.001   2.227   1.740 -0.4683 -0.8186  0.0288
 6104SOL    HW229775   1.889   2.271   1.825  2.4024  5.0433 -0.0018
 6105SOL     OW29776   3.574   3.188   8.702 -0.0406 -0.0385  0.4546
 6105SOL    HW129777   3.508   3.120   8.715  0.5665 -0.9093 -1.1366
 6105SOL    HW229778   3.532   3.244   8.637  1.8244  2.9931  1.8138
 6106SOL     OW29779   4.308   3.376   7.362 -0.9639  0.4289  0.6387
 6106SOL    HW129780   4.332   3.289   7.394  1.1901  0.2977 -1.4015
 6106SOL    HW229781   4.315   3.429   7.442  0.9028  0.8324  0.2084
 6107SOL     OW29782   4.123   4.012   6.144  0.0126  0.1010 -0.2527
 6107SOL    HW129783   4.064   4.060   6.201 -1.1587 -2.6577  0.8893
 6107SOL    HW229784   4.071   3.932   6.142 -0.6390  0.5350 -0.4684
 6108SOL     OW29785   2.967   0.471  15.170 -0.3578  0.1352 -0.0440
 6108SOL    HW129786   2.885   0.420  15.168 -0.7306  0.7342 -0.1185
 6108SOL    HW229787   2.939   0.559  15.196 -1.7536 -0.0137 -1.0308
 6109SOL     OW29788   2.830   1.343   6.140 -1.0300 -0.0532  0.5059
 6109SOL    HW129789   2.913   1.389   6.132 -0.6534 -0.9026 -0.4277
 6109SOL    HW229790   2.766   1.410   6.117 -0.3722  0.1126 -0.8222
 6110SOL     OW29791   4.174   0.986   5.663 -0.0225 -0.0867 -0.2136
 6110SOL    HW129792   4.218   0.968   5.579 -0.0370 -0.2076 -0.1952
 6110SOL    HW229793   4.084   0.982   5.632  0.1182 -1.8714 -0.3980
 6111SOL     OW29794   0.817   0.769   0.716  0.4566 -0.1112  0.2641
 6111SOL    HW129795   0.812   0.863   0.735 -1.3422 -0.1765  0.1126
 6111SOL    HW229796   0.736   0.735   0.753  0.9340 -1.5262 -0.0062
 6112SOL     OW29797   0.069   0.686  13.395  0.1407  0.4485 -0.2092
 6112SOL    HW129798   0.149   0.732  13.419  0.3105  0.6072 -1.0607
 6112SOL    HW229799   0.099   0.598  13.376 -0.6970  0.0049  0.5503
 6113SOL     OW29800   2.643   2.589   2.774  0.4568 -0.0827 -0.5717
 6113SOL    HW129801   2.554   2.613   2.745 -0.1130 -1.7579 -0.2064
 6113SOL    HW229802   2.627   2.515   2.833  0.1160  1.3083  1.1073
 6114SOL     OW29803   0.304   1.479   6.625  0.6944  0.4113  0.2033
 6114SOL    HW129804   0.347   1.455   6.707  0.2683 -0.8873  0.0583
 6114SOL    HW229805   0.221   1.431   6.636  1.2581  0.0056  2.8218
 6115SOL     OW29806   3.006   1.670  10.452  0.2325 -0.5448  0.5238
 6115SOL    HW129807   2.993   1.718  10.534 -0.7772 -2.2401  1.3617
 6115SOL    HW229808   3.074   1.719  10.405 -1.6287 -0.1250 -1.7162
 6116SOL     OW29809   3.699   3.649   8.965  0.0074 -0.4618  0.3810
 6116SOL    HW129810   3.792   3.639   8.988 -0.4940 -1.3862  2.0045
 6116SOL    HW229811   3.704   3.631   8.871 -1.3046 -1.3319  0.4795
 6117SOL     OW29812   4.152   4.198   6.582  0.0211 -0.0160  0.0581
 6117SOL    HW129813   4.157   4.277   6.637 -0.4508 -0.5182  0.8180
 6117SOL    HW229814   4.151   4.125   6.644  0.1893 -0.9865 -1.0840
 6118SOL     OW29815   3.728   4.700   2.661 -0.1182 -0.2725  0.0177
 6118SOL    HW129816   3.779   4.646   2.721  0.4740  0.1279 -0.1162
 6118SOL    HW229817   3.639   4.665   2.658  0.2540 -1.0761 -1.5804
 6119SOL     OW29818   1.405   3.622   6.867 -0.1166  0.5337 -0.3680
 6119SOL    HW129819   1.419   3.707   6.908 -0.7495  1.1415 -1.4170
 6119SOL    HW229820   1.399   3.656   6.778  2.5041  0.9823 -0.3758
 6120SOL     OW29821   3.647   1.988   2.366  0.0682  0.0729 -0.1563
 6120SOL    HW129822   3.588   1.918   2.339  2.6088 -1.3545 -2.0020
 6120SOL    HW229823   3.701   1.979   2.287  0.2233  4.3365 -0.5354
 6121SOL     OW29824   3.636   1.548   3.853  0.0564  0.5696  0.6328
 6121SOL    HW129825   3.569   1.506   3.906 -0.7863  0.8171 -0.2408
 6121SOL    HW229826   3.672   1.607   3.919 -0.3109  2.5330 -0.9031
 6122SOL     OW29827   4.596   0.129   7.299  0.1703 -0.0715 -0.1651
 6122SOL    HW129828   4.514   0.176   7.286  0.2857  0.5707  1.2975
 6122SOL    HW229829   4.553   0.054   7.340  0.8459  1.1781  2.8787
 6123SOL     OW29830   4.701   4.100   6.060 -0.0814 -0.3468 -0.1556
 6123SOL    HW129831   4.610   4.091   6.086 -0.2242  2.3336  0.3156
 6123SOL    HW229832   4.717   4.006   6.055 -1.9162 -0.4993 -3.6723
 6124SOL     OW29833   3.635   0.814   4.525  0.7730 -0.1064  0.1329
 6124SOL    HW129834   3.581   0.874   4.474  0.6831 -1.6052 -1.5127
 6124SOL    HW229835   3.582   0.803   4.604  0.9108 -1.1003  0.0910
 6125SOL     OW29836   2.248   3.720  13.597  0.1550 -0.3270 -0.0436
 6125SOL    HW129837   2.344   3.725  13.601  0.0588  1.1662  0.5273
 6125SOL    HW229838   2.216   3.770  13.522  3.8582  2.3438  0.1423
 6126SOL     OW29839   0.195   3.890   6.730  0.4093 -0.6309 -0.0668
 6126SOL    HW129840   0.142   3.959   6.690 -0.4663 -1.6926 -0.7329
 6126SOL    HW229841   0.212   3.835   6.654  1.4789 -1.8726  1.0801
 6127SOL     OW29842   4.519   0.740   6.332  0.5634  0.1043 -0.2853
 6127SOL    HW129843   4.483   0.675   6.272 -3.1567  1.9276  0.0021
 6127SOL    HW229844   4.586   0.695   6.383  1.4598  0.7814 -0.8530
 6128SOL     OW29845   4.231   1.129  16.241  0.7851 -0.0031  0.4251
 6128SOL    HW129846   4.195   1.195  16.300 -3.6976 -1.4129 -0.7220
 6128SOL    HW229847   4.168   1.117  16.170  0.4351 -0.9986  0.9013
 6129SOL     OW29848   1.916   1.903   2.174  0.2867  0.2005  0.3289
 6129SOL    HW129849   1.965   1.931   2.097 -1.3435 -0.1644 -0.8177
 6129SOL    HW229850   1.966   1.824   2.196  1.4308  1.0236  0.7105
 6130SOL     OW29851   3.662   1.360   9.003  0.1572 -0.1624  0.5679
 6130SOL    HW129852   3.687   1.451   8.986  3.1553 -1.0294  0.3104
 6130SOL    HW229853   3.581   1.353   8.953 -0.0853 -2.3186  1.2393
 6131SOL     OW29854   0.764   2.670   8.414 -0.3060 -0.1703 -0.0087
 6131SOL    HW129855   0.854   2.685   8.445 -0.3621 -3.1488  1.5990
 6131SOL    HW229856   0.750   2.761   8.387 -0.0679 -1.0797 -3.2005
 6132SOL     OW29857   3.199   1.242   3.334  0.0493  0.1450 -0.3338
 6132SOL    HW129858   3.245   1.309   3.283 -1.3420  2.6760  1.7320
 6132SOL    HW229859   3.207   1.172   3.269  2.0922 -0.4238  0.5380
 6133SOL     OW29860   3.261   3.565   1.802 -0.5569  0.4787 -0.5632
 6133SOL    HW129861   3.257   3.487   1.748 -1.1841 -0.0285  0.2118
 6133SOL    HW229862   3.342   3.545   1.849 -1.1998  2.7117  1.5040
 6134SOL     OW29863   1.831   0.610   6.181  0.3529  0.6299  0.2607
 6134SOL    HW129864   1.797   0.566   6.103  0.0466  2.1942 -0.4929
 6134SOL    HW229865   1.905   0.659   6.145  1.3082 -2.8185 -2.3860
 6135SOL     OW29866   2.347   0.539  12.347  0.1419  0.5039 -0.0185
 6135SOL    HW129867   2.391   0.457  12.326  2.9964  2.3361 -1.1820
 6135SOL    HW229868   2.276   0.546  12.284  1.3426  0.3119 -1.3864
 6136SOL     OW29869   4.563   1.229   8.173 -0.6726 -0.4109  0.4820
 6136SOL    HW129870   4.597   1.166   8.237 -0.0674 -0.1567  0.4109
 6136SOL    HW229871   4.591   1.197   8.087 -0.5592  0.3234  0.2525
 6137SOL     OW29872   4.576   0.504  13.191  0.3748  0.6211 -0.4351
 6137SOL    HW129873   4.643   0.545  13.137  0.5256  0.5417 -0.3068
 6137SOL    HW229874   4.583   0.412  13.167  0.8533  0.2528  1.1095
 6138SOL     OW29875   4.425   0.389   6.347 -0.4367 -0.5029  0.1131
 6138SOL    HW129876   4.514   0.382   6.312  0.1526 -0.0139  1.4952
 6138SOL    HW229877   4.417   0.328   6.420 -1.8559  0.8760  1.1160
 6139SOL     OW29878   4.306   4.705   6.796  0.0297 -0.2935 -0.1731
 6139SOL    HW129879   4.256   0.055   6.764 -0.1117 -0.1688  0.3452
 6139SOL    HW229880   4.261   4.681   6.877 -0.7950 -0.8578 -0.8058
 6140SOL     OW29881   3.299   0.213   2.739  0.3718 -0.0488 -0.3283
 6140SOL    HW129882   3.228   0.179   2.684 -1.0348  1.1400  0.7600
 6140SOL    HW229883   3.314   0.156   2.814 -0.8909  0.0438 -0.0145
 6141SOL     OW29884   2.447   0.069   5.865  0.2822  0.2941  0.1610
 6141SOL    HW129885   2.501   0.089   5.942 -2.1066  1.2812  1.5707
 6141SOL    HW229886   2.360   0.085   5.901  1.0490  0.5079  1.9569
 6142SOL     OW29887   1.299   2.372   2.293  0.1808  0.1995  0.1475
 6142SOL    HW129888   1.265   2.283   2.282 -2.5256  1.0390  1.6009
 6142SOL    HW229889   1.219   2.419   2.315  0.1793  0.5085 -0.5388
 6143SOL     OW29890   2.840   0.659   0.593  0.0890 -0.0279  0.0447
 6143SOL    HW129891   2.861   0.571   0.561  2.3909  0.3603  0.5125
 6143SOL    HW229892   2.761   0.647   0.645  0.0254  0.6942  0.1067
 6144SOL     OW29893   3.100   3.870  14.909  0.0653 -0.3609  0.2073
 6144SOL    HW129894   3.192   3.846  14.925  0.2522  0.9814  1.1079
 6144SOL    HW229895   3.122   3.960  14.886 -0.6464  0.0242  1.0338
 6145SOL     OW29896   0.915   4.474  16.572 -0.3167  0.0892 -0.0305
 6145SOL    HW129897   0.841   4.534  16.584  1.0674  1.7918 -0.0230
 6145SOL    HW229898   0.866   4.391  16.569  0.6296 -0.4959  1.0503
 6146SOL     OW29899   2.473   0.036   2.204 -0.3102 -0.5250  0.4818
 6146SOL    HW129900   2.542   0.092   2.237 -1.0264  0.9556 -0.5355
 6146SOL    HW229901   2.430   0.014   2.287  1.0294  3.3735  2.1962
 6147SOL     OW29902   2.149   0.399   7.892  0.5195  0.0859  0.4362
 6147SOL    HW129903   2.108   0.486   7.895 -1.7731 -1.0868  2.8190
 6147SOL    HW229904   2.082   0.350   7.844  1.0637 -0.8777  0.6794
 6148SOL     OW29905   1.084   2.791   8.422  0.1607  0.0444 -0.2709
 6148SOL    HW129906   1.101   2.743   8.340 -1.0968  0.0329 -0.5247
 6148SOL    HW229907   1.098   2.884   8.401 -0.3797  0.3053  0.5304
 6149SOL     OW29908   4.390   4.358   7.086 -0.0346  0.1442  0.1784
 6149SOL    HW129909   4.429   4.352   6.999  1.4561 -0.8533  0.9144
 6149SOL    HW229910   4.321   4.292   7.075 -0.5416  0.7775 -0.4622
 6150SOL     OW29911   3.917   0.371   1.813 -0.1892 -0.0425  0.1151
 6150SOL    HW129912   3.841   0.314   1.823 -1.2945  1.4689  0.2724
 6150SOL    HW229913   3.959   0.329   1.738 -2.4915 -1.6761 -0.2377
 6151SOL     OW29914   0.445   0.977   3.721  0.0001  0.1186  0.1552
 6151SOL    HW129915   0.419   0.994   3.630 -1.6222 -0.6985  0.4682
 6151SOL    HW229916   0.431   0.883   3.716  2.2958 -0.1988 -0.3582
 6152SOL     OW29917   1.905   3.775   8.509 -0.3894  0.4040  0.4354
 6152SOL    HW129918   1.995   3.794   8.482 -0.7447  0.8614 -0.4313
 6152SOL    HW229919   1.921   3.774   8.603 -0.7604 -0.7069  0.4828
 6153SOL     OW29920   3.603   0.154  17.662  0.0948 -0.1825  0.2305
 6153SOL    HW129921   3.625   0.130  17.572 -0.4788  0.2235 -0.0193
 6153SOL    HW229922   3.685   0.175   0.006 -0.7679 -1.0118  2.2710
 6154SOL     OW29923   2.731   4.516  15.898 -0.3406 -0.5089  0.2449
 6154SOL    HW129924   2.789   4.498  15.972 -0.0934 -2.4380 -0.4325
 6154SOL    HW229925   2.791   4.517  15.823 -0.6813 -0.7879 -0.0340
 6155SOL     OW29926   1.909   2.191   2.412 -0.3486  0.4901  0.1059
 6155SOL    HW129927   1.990   2.147   2.386 -1.2235 -1.1968  0.2162
 6155SOL    HW229928   1.936   2.222   2.498  1.8713 -2.9500  0.6420
 6156SOL     OW29929   2.809   3.476   0.372  0.3542 -0.1525 -0.2181
 6156SOL    HW129930   2.821   3.384   0.396 -0.5788 -1.0999 -3.3877
 6156SOL    HW229931   2.900   3.505   0.371  0.1982  0.3416 -0.0830
 6157SOL     OW29932   0.550   1.327  17.061 -0.2484  0.3782 -0.5207
 6157SOL    HW129933   0.639   1.293  17.048  0.8182  1.9365  2.6469
 6157SOL    HW229934   0.551   1.357  17.152  2.1170 -1.6243  0.1078
 6158SOL     OW29935   2.283   2.272   8.275  0.0869 -0.0235  0.2270
 6158SOL    HW129936   2.237   2.297   8.196  1.3306 -0.1288 -0.5342
 6158SOL    HW229937   2.211   2.230   8.322  1.3165 -1.5136  0.8057
 6159SOL     OW29938   0.654   1.523   5.531  0.3497  0.1800 -0.2692
 6159SOL    HW129939   0.712   1.598   5.547  0.3885  0.0518  0.1774
 6159SOL    HW229940   0.662   1.474   5.613  3.5281 -1.0759 -1.3015
 6160SOL     OW29941   2.312   2.930   2.809 -0.1841 -0.4984 -0.3509
 6160SOL    HW129942   2.325   2.840   2.837  0.9575 -0.4659 -0.8005
 6160SOL    HW229943   2.318   2.911   2.715  1.5505 -3.7862  0.4651
 6161SOL     OW29944   2.593   1.646   1.939 -0.3550 -0.0693  0.3993
 6161SOL    HW129945   2.677   1.665   1.981 -0.4370  0.4724  0.3233
 6161SOL    HW229946   2.589   1.551   1.942 -0.2529 -0.1417 -2.1835
 6162SOL     OW29947   1.603   3.126   8.950  0.4619  0.0852  0.4271
 6162SOL    HW129948   1.562   3.183   8.885  0.9916  1.4173  1.2557
 6162SOL    HW229949   1.651   3.064   8.896  0.0010  0.7348 -0.7308
 6163SOL     OW29950   1.689   2.216   5.820 -0.1653 -0.3348  0.2228
 6163SOL    HW129951   1.742   2.251   5.892 -1.3393  0.3186  0.7612
 6163SOL    HW229952   1.748   2.220   5.744 -1.1831  2.3387 -0.4194
 6164SOL     OW29953   4.647   3.030  17.164 -0.2148  0.5150 -0.1826
 6164SOL    HW129954   4.567   3.002  17.121 -0.4527 -0.6088  0.9759
 6164SOL    HW229955   4.709   2.956  17.165 -1.7280 -0.7392  0.1598
 6165SOL     OW29956   1.244   4.111   4.215 -0.0292 -0.8052 -0.3230
 6165SOL    HW129957   1.216   4.088   4.304 -1.2308  1.8795  0.0093
 6165SOL    HW229958   1.195   4.045   4.166 -1.4172  0.8011 -1.1165
 6166SOL     OW29959   1.980   3.690   7.974  0.2117 -0.1995  0.0202
 6166SOL    HW129960   2.003   3.754   8.042 -0.9659  0.0919  0.1520
 6166SOL    HW229961   1.912   3.639   8.017  1.2140 -1.9219 -0.4595
 6167SOL     OW29962   1.238   1.185   3.925  0.0695 -0.0485 -0.2143
 6167SOL    HW129963   1.206   1.118   3.865  0.2528  0.0331 -0.4020
 6167SOL    HW229964   1.325   1.202   3.890 -0.1864  0.7670 -0.4697
 6168SOL     OW29965   1.931   0.292   7.749 -0.5873  0.2396  0.4129
 6168SOL    HW129966   1.922   0.234   7.673  1.8326 -0.7676  0.9300
 6168SOL    HW229967   1.838   0.317   7.754 -0.3169  0.6728  2.8059
 6169SOL     OW29968   3.240   1.904   5.990  0.9149 -0.3672  0.2061
 6169SOL    HW129969   3.165   1.844   5.989  1.1579 -0.6559 -0.7311
 6169SOL    HW229970   3.223   1.971   5.924 -0.2400  0.6531  1.5529
 6170SOL     OW29971   3.064   3.029   4.818 -0.5555  0.6634  0.2227
 6170SOL    HW129972   2.982   3.018   4.867  0.9946 -1.1664  2.4099
 6170SOL    HW229973   3.096   2.939   4.814 -1.1488  0.4206  1.0400
 6171SOL     OW29974   4.701   3.953   7.812 -0.1456  0.5742  0.4377
 6171SOL    HW129975   0.057   3.961   7.864 -0.7608  0.5965  1.3803
 6171SOL    HW229976   0.003   3.903   7.734 -1.1703  1.2341 -0.3325
 6172SOL     OW29977   0.173   4.281  13.875 -0.7139  0.8528  0.2560
 6172SOL    HW129978   0.108   4.275  13.945 -0.0243 -1.0797  0.7400
 6172SOL    HW229979   0.120   4.243  13.806 -0.1535 -3.2227  2.0903
 6173SOL     OW29980   0.855   2.314   7.448 -0.4788  0.6613  0.1369
 6173SOL    HW129981   0.793   2.295   7.377 -1.6094  1.2620  0.9639
 6173SOL    HW229982   0.901   2.389   7.411 -2.8455  1.3657 -1.4092
 6174SOL     OW29983   0.157   0.723  15.834 -0.4438  1.2365  0.5739
 6174SOL    HW129984   0.196   0.792  15.780 -1.4330 -0.4651 -2.3141
 6174SOL    HW229985   0.066   0.752  15.834 -1.3272 -1.5580 -0.2727
 6175SOL     OW29986   1.839   1.041   8.749  0.2319 -0.0448 -0.2957
 6175SOL    HW129987   1.816   1.070   8.660  0.6597  0.4272 -0.2536
 6175SOL    HW229988   1.796   0.956   8.753  0.4850 -0.0610  2.0570
 6176SOL     OW29989   1.822   2.252   6.692  0.5818 -0.2806  0.0486
 6176SOL    HW129990   1.848   2.269   6.602 -0.0919  1.1778  0.1215
 6176SOL    HW229991   1.870   2.315   6.746 -2.5537  2.8026 -0.7287
 6177SOL     OW29992   0.376   2.134  12.708 -0.9015 -0.4595 -0.1550
 6177SOL    HW129993   0.356   2.053  12.660  0.8627 -0.7695 -0.3648
 6177SOL    HW229994   0.328   2.119  12.790  0.9793  0.6376  1.1399
 6178SOL     OW29995   1.907   0.473   4.153 -0.3962  0.1224  0.6336
 6178SOL    HW129996   1.838   0.464   4.219  3.9438 -0.3497  5.1343
 6178SOL    HW229997   1.925   0.392   4.104  0.1621 -0.6855  2.1682
 6179SOL     OW29998   3.907   4.378  16.770 -0.5581  0.0205  0.5187
 6179SOL    HW129999   3.829   4.325  16.754 -0.3314 -0.1707  0.0404
 6179SOL    HW230000   3.926   4.389  16.677 -0.7410 -1.6815  0.2905
 6180SOL     OW30001   0.989   4.069   2.232 -0.1927  0.5092  0.1416
 6180SOL    HW130002   0.990   4.164   2.247  0.9957  1.0400 -3.3114
 6180SOL    HW230003   0.913   4.064   2.175 -0.0923 -0.3051  0.0811
 6181SOL     OW30004   1.828   0.622   3.347  0.5881 -0.1480 -0.6479
 6181SOL    HW130005   1.762   0.684   3.315  0.7918  0.1636 -0.4657
 6181SOL    HW230006   1.819   0.551   3.284  0.1269  1.6134 -2.5666
 6182SOL     OW30007   2.262   1.302   7.254 -0.1496  0.2255 -0.8883
 6182SOL    HW130008   2.246   1.388   7.291 -1.3330 -0.4999  0.3074
 6182SOL    HW230009   2.323   1.326   7.185  1.4868  2.1561  1.2386
 6183SOL     OW30010   2.930   3.822   1.084  0.0897 -0.4241  0.2453
 6183SOL    HW130011   2.910   3.915   1.099  1.9348  0.2541 -1.5183
 6183SOL    HW230012   2.898   3.787   1.167 -1.6838  1.5604  0.4200
 6184SOL     OW30013   3.013   0.771   7.707  0.1241 -0.2268  0.2690
 6184SOL    HW130014   3.094   0.808   7.673  1.0975 -2.5203  0.0628
 6184SOL    HW230015   2.956   0.844   7.685  0.6856 -0.2379 -1.2084
 6185SOL     OW30016   1.802   1.126   0.025  0.6191  0.4232 -0.7190
 6185SOL    HW130017   1.826   1.098   0.113 -1.0885 -2.6542 -1.2234
 6185SOL    HW230018   1.852   1.061  17.673  2.5853  1.0378  0.4207
 6186SOL     OW30019   4.339   4.706  16.966 -0.1119  0.0688 -0.2221
 6186SOL    HW130020   4.432   4.685  16.973 -0.3856 -1.6772 -1.8458
 6186SOL    HW230021   4.317   4.698  16.873  1.5727  0.3567 -0.6544
 6187SOL     OW30022   3.597   4.065   4.909 -0.2881 -0.6232 -0.0249
 6187SOL    HW130023   3.628   4.141   4.860 -0.6504 -0.8116 -0.5388
 6187SOL    HW230024   3.677   4.036   4.953 -0.9696 -1.4718  0.6694
 6188SOL     OW30025   0.029   1.406   8.304  0.0381 -0.5421 -0.7941
 6188SOL    HW130026   4.684   1.356   8.261  0.3061 -2.0840  0.5381
 6188SOL    HW230027   0.097   1.416   8.238 -0.1638  0.6648 -0.8211
 6189SOL     OW30028   3.169   1.746   6.269  0.2881  0.3021 -1.8509
 6189SOL    HW130029   3.238   1.739   6.203  1.1927 -0.7507 -0.7831
 6189SOL    HW230030   3.098   1.779   6.214 -0.9057  2.8924  1.3039
 6190SOL     OW30031   4.356   0.822  14.383  0.1800  0.2986 -0.2706
 6190SOL    HW130032   4.317   0.759  14.444  0.1210  1.4446  0.8681
 6190SOL    HW230033   4.292   0.893  14.389 -0.1369 -0.2374  2.7786
 6191SOL     OW30034   3.537   1.538  15.001 -0.4985  0.1753 -0.3335
 6191SOL    HW130035   3.566   1.614  15.052 -0.0588 -0.4393  0.3310
 6191SOL    HW230036   3.556   1.469  15.065  0.6766 -0.2049 -1.0907
 6192SOL     OW30037   0.585   4.128   0.385  0.2024  0.2378 -0.0477
 6192SOL    HW130038   0.615   4.218   0.372  0.9837 -0.0627 -0.3395
 6192SOL    HW230039   0.666   4.081   0.364 -1.8783 -3.8106  1.0357
 6193SOL     OW30040   2.806   3.261  12.044 -0.0049 -0.2667 -0.1392
 6193SOL    HW130041   2.887   3.213  12.032 -0.2707 -0.3905 -1.5057
 6193SOL    HW230042   2.747   3.197  12.084 -1.3981  0.2859 -1.3008
 6194SOL     OW30043   3.823   1.227   2.809  0.3229 -0.0425  0.2194
 6194SOL    HW130044   3.876   1.307   2.800  0.7823 -0.4077 -0.3548
 6194SOL    HW230045   3.734   1.261   2.798 -0.3518 -1.2958  1.8525
 6195SOL     OW30046   2.034   3.063  15.658 -0.3240  0.1691 -0.1724
 6195SOL    HW130047   2.115   3.081  15.706 -1.6096 -0.5861  2.3172
 6195SOL    HW230048   2.025   3.154  15.631  2.5456 -0.3571 -2.8633
 6196SOL     OW30049   4.090   1.139   4.348 -0.3440 -0.0241  0.0558
 6196SOL    HW130050   4.117   1.058   4.303 -2.2241 -0.8125  0.3559
 6196SOL    HW230051   4.074   1.192   4.270  1.2003 -0.8433 -0.8190
 6197SOL     OW30052   3.701   2.664   1.621  0.1359  0.3499 -0.1540
 6197SOL    HW130053   3.641   2.592   1.636 -0.6491  0.8287 -1.0267
 6197SOL    HW230054   3.758   2.624   1.556  1.0564  0.3330  0.6502
 6198SOL     OW30055   2.275   2.775   2.461  0.1464  0.3156  0.4885
 6198SOL    HW130056   2.317   2.717   2.397 -0.4925  0.2570  0.1276
 6198SOL    HW230057   2.293   2.858   2.417 -0.0314  0.0204 -0.1411
 6199SOL     OW30058   2.802   4.539  17.507 -0.5523 -0.3760  0.3970
 6199SOL    HW130059   2.822   4.602  17.575  1.0397  0.5857 -0.9780
 6199SOL    HW230060   2.856   4.566  17.433 -1.3498  1.5708  0.5342
 6200SOL     OW30061   2.965   3.329   6.584  0.0101  0.2178  0.0010
 6200SOL    HW130062   2.999   3.270   6.651 -2.3297 -0.2192  0.7640
 6200SOL    HW230063   3.015   3.295   6.509 -0.8135 -2.6409  0.7569
 6201SOL     OW30064   1.033   3.664   2.093  0.0747 -0.5827 -0.3609
 6201SOL    HW130065   0.963   3.724   2.120  1.6994  1.2689 -0.2436
 6201SOL    HW230066   1.015   3.651   2.000 -1.2138 -0.2080 -0.1608
 6202SOL     OW30067   3.634   3.898  15.051 -0.0968  0.0529 -0.8273
 6202SOL    HW130068   3.627   3.817  15.102  0.7463  0.1313 -0.5898
 6202SOL    HW230069   3.677   3.879  14.967  0.7391  0.6607 -0.5380
 6203SOL     OW30070   4.085   1.623  14.860  0.2951  0.5567  0.0589
 6203SOL    HW130071   3.999   1.634  14.820  0.1777  0.0705  0.1845
 6203SOL    HW230072   4.116   1.533  14.851  0.4148  0.6922 -0.8361
 6204SOL     OW30073   3.681   2.172  16.061 -0.4584  0.4734  0.0657
 6204SOL    HW130074   3.703   2.181  16.154 -0.7003 -0.8406  0.2522
 6204SOL    HW230075   3.720   2.247  16.017 -0.9136  1.8541  2.0057
 6205SOL     OW30076   3.348   0.645  15.819 -0.0925 -0.6054 -0.3386
 6205SOL    HW130077   3.399   0.599  15.886  0.9739 -0.7616 -1.2565
 6205SOL    HW230078   3.318   0.719  15.871 -0.0323 -0.1649 -0.9302
 6206SOL     OW30079   4.164   0.701   2.707 -0.5389  0.5796 -0.2510
 6206SOL    HW130080   4.129   0.738   2.626  0.7283 -1.4254 -1.7172
 6206SOL    HW230081   4.116   0.741   2.779 -0.7260 -0.2628  0.0910
 6207SOL     OW30082   3.386   1.185   6.747 -0.3218 -0.3441 -0.2104
 6207SOL    HW130083   3.352   1.104   6.709 -0.4656 -0.6662  0.6102
 6207SOL    HW230084   3.335   1.194   6.828  2.1974  1.3946  1.1886
 6208SOL     OW30085   2.403   3.034   7.423  0.0062  0.1058 -0.2256
 6208SOL    HW130086   2.361   3.085   7.493 -1.3904 -2.8871  1.1415
 6208SOL    HW230087   2.458   2.977   7.477  0.4400  0.3990 -0.3608
 6209SOL     OW30088   0.319   1.176  12.602  0.7538  0.6704 -0.4184
 6209SOL    HW130089   0.401   1.156  12.556  0.8439 -0.0352  0.0542
 6209SOL    HW230090   0.290   1.243  12.541  1.6665 -0.2380 -1.8612
 6210SOL     OW30091   4.087   3.815   5.348 -0.1960  0.1926 -0.0389
 6210SOL    HW130092   4.054   3.725   5.348 -1.5474  0.6904 -2.8496
 6210SOL    HW230093   4.170   3.796   5.305 -0.8829 -0.5583 -1.0444
 6211SOL     OW30094   2.453   1.060  11.320  0.3233  0.0283 -0.1844
 6211SOL    HW130095   2.480   1.147  11.290 -0.2778  0.3249  0.1164
 6211SOL    HW230096   2.448   1.064  11.416  0.0199 -1.1147 -0.1478
 6212SOL     OW30097   2.614   2.021   9.639  0.0648  0.4530  0.0769
 6212SOL    HW130098   2.669   2.057   9.569 -1.9682  0.1839 -1.6556
 6212SOL    HW230099   2.616   2.093   9.702  1.7963  0.5728 -0.1187
 6213SOL     OW30100   1.634   1.731  14.590 -0.2905 -0.1221  0.1970
 6213SOL    HW130101   1.700   1.748  14.657  0.3493 -0.4832 -0.3461
 6213SOL    HW230102   1.627   1.636  14.583  1.6327 -0.1348 -1.6287
 6214SOL     OW30103   1.591   4.231   2.939  0.2785  0.0447  0.3863
 6214SOL    HW130104   1.605   4.136   2.942 -0.2722 -0.1378 -2.5517
 6214SOL    HW230105   1.566   4.237   2.847 -0.5483 -1.0378  0.5397
 6215SOL     OW30106   0.061   0.344  12.918 -0.1242  0.1898  0.3070
 6215SOL    HW130107   0.091   0.425  12.959 -0.0741  0.6110 -0.5586
 6215SOL    HW230108   0.041   0.379  12.831 -1.6650  0.6657  0.8557
 6216SOL     OW30109   4.128   1.342  14.819  0.3917  0.0441  0.1998
 6216SOL    HW130110   4.090   1.330  14.906 -0.2504  2.9578  0.3269
 6216SOL    HW230111   4.198   1.277  14.822  1.0671  0.6760 -1.5266
 6217SOL     OW30112   2.475   4.495   4.851 -0.0835 -0.2088 -0.2898
 6217SOL    HW130113   2.518   4.567   4.898 -1.0705 -0.1242  0.4764
 6217SOL    HW230114   2.450   4.441   4.925  0.0822 -0.8133 -0.6800
 6218SOL     OW30115   3.782   4.314   6.696  0.1455  0.3465  0.7014
 6218SOL    HW130116   3.841   4.334   6.769 -0.0143 -0.2556  0.9916
 6218SOL    HW230117   3.717   4.381   6.718  1.1082  0.8633  1.9440
 6219SOL     OW30118   3.562   3.186  13.045  0.5159 -0.5648  0.0331
 6219SOL    HW130119   3.561   3.094  13.019  0.5346 -1.0746  1.8638
 6219SOL    HW230120   3.649   3.209  13.013  1.1516 -0.4904  1.8379
 6220SOL     OW30121   2.154   3.883   8.482  0.3816 -0.3789  0.0945
 6220SOL    HW130122   2.199   3.930   8.412 -0.8950 -1.3959 -1.4347
 6220SOL    HW230123   2.226   3.829   8.513  0.7052 -0.5751 -1.0078
 6221SOL     OW30124   0.448   3.892   2.949 -0.7459 -0.1781 -0.0520
 6221SOL    HW130125   0.409   3.835   2.882 -0.6538 -1.1869  0.7577
 6221SOL    HW230126   0.429   3.977   2.909  1.2343  0.8813  1.2071
 6222SOL     OW30127   1.755   1.042   7.915 -0.3030 -0.3773  0.1263
 6222SOL    HW130128   1.692   1.020   7.846  0.7082 -1.1377 -0.5361
 6222SOL    HW230129   1.804   0.960   7.908 -1.8470 -1.3072  0.2101
 6223SOL     OW30130   4.030   0.616  15.071 -0.2159 -0.0916  0.0521
 6223SOL    HW130131   4.091   0.570  15.128  0.3692  0.8252  0.1669
 6223SOL    HW230132   3.993   0.666  15.145 -0.9659 -2.6048  1.3773
 6224SOL     OW30133   2.715   1.557   4.838  0.2223 -0.2702  0.1927
 6224SOL    HW130134   2.653   1.493   4.804  1.2437 -0.9379 -0.4059
 6224SOL    HW230135   2.703   1.549   4.933 -0.3242 -0.8540  0.0748
 6225SOL     OW30136   2.856   1.480   7.987 -0.0139  0.1948  0.0581
 6225SOL    HW130137   2.918   1.442   8.049  0.7320 -0.4674 -1.1091
 6225SOL    HW230138   2.780   1.421   7.991 -1.1466  1.5025 -1.9097
 6226SOL     OW30139   1.669   2.525   0.668  0.0967  0.0017 -0.4303
 6226SOL    HW130140   1.745   2.520   0.610 -0.3083 -0.8475 -0.8926
 6226SOL    HW230141   1.595   2.554   0.614 -1.3387  1.1099  2.1327
 6227SOL     OW30142   1.333   1.549   5.149 -0.0494  0.3116  0.1094
 6227SOL    HW130143   1.256   1.555   5.206  1.0296 -2.0469  1.8169
 6227SOL    HW230144   1.313   1.460   5.121  0.7891 -0.0255  0.5660
 6228SOL     OW30145   1.530   2.459  17.413  0.2136 -0.5631 -0.1704
 6228SOL    HW130146   1.613   2.477  17.368  0.7921  0.4102  1.2526
 6228SOL    HW230147   1.508   2.543  17.454  0.5761  1.1103 -3.4244
 6229SOL     OW30148   0.539   1.694   4.369  0.0491  0.5238  0.1833
 6229SOL    HW130149   0.534   1.621   4.308  0.7800  0.8078 -0.2087
 6229SOL    HW230150   0.633   1.702   4.386 -0.4983  3.1063  2.2392
 6230SOL     OW30151   0.024   0.334   5.179  0.2347  0.2527  0.2039
 6230SOL    HW130152   0.053   0.266   5.118  0.0789  1.1839 -0.9085
 6230SOL    HW230153   0.095   0.397   5.171  0.9859 -0.5689  0.5002
 6231SOL     OW30154   2.055   3.371  11.247  0.2930 -0.5406 -0.4836
 6231SOL    HW130155   1.976   3.405  11.290 -0.2058 -0.8570 -1.1508
 6231SOL    HW230156   2.118   3.353  11.317 -2.3970  0.0395  2.1123
 6232SOL     OW30157   0.128   2.465   3.679 -0.3085 -0.2359 -0.0224
 6232SOL    HW130158   0.088   2.403   3.740 -0.8771 -0.8881 -1.0636
 6232SOL    HW230159   0.175   2.404   3.622 -0.1608 -1.3957  1.3617
 6233SOL     OW30160   1.033   4.474  12.997  0.5958 -0.0695 -0.0425
 6233SOL    HW130161   1.074   4.531  13.063  0.4098  2.0017 -1.7009
 6233SOL    HW230162   1.028   4.536  12.925  1.5817  2.1823  1.8103
 6234SOL     OW30163   1.360   0.524   9.321 -0.0661 -0.4706  0.5509
 6234SOL    HW130164   1.287   0.469   9.350  1.2222 -2.2974  0.3142
 6234SOL    HW230165   1.433   0.465   9.339  0.7063  0.4486  0.4065
 6235SOL     OW30166   2.688   3.173   7.316  0.0842 -0.3206  0.5209
 6235SOL    HW130167   2.733   3.105   7.266  2.1257  0.0442  1.8800
 6235SOL    HW230168   2.723   3.150   7.402 -0.7098 -0.1894  0.8793
 6236SOL     OW30169   1.246   1.964   6.363  0.0964 -0.0830 -0.0214
 6236SOL    HW130170   1.230   1.879   6.405  0.5920  0.2761  0.8796
 6236SOL    HW230171   1.170   1.999   6.409  1.2125  1.2689  0.7888
 6237SOL     OW30172   3.998   1.743   3.923  0.0958 -0.5935 -0.7176
 6237SOL    HW130173   3.987   1.667   3.981 -0.0191 -1.0684 -1.3605
 6237SOL    HW230174   4.092   1.752   3.909  0.2708 -1.4224 -0.0637
 6238SOL     OW30175   2.678   1.630   3.598  0.1549  0.6196  0.1793
 6238SOL    HW130176   2.733   1.655   3.672  0.6550 -2.5407  0.8937
 6238SOL    HW230177   2.599   1.627   3.652 -0.1040 -0.5412 -0.2510
 6239SOL     OW30178   1.845   4.346  15.967  0.0034  0.1259 -0.1896
 6239SOL    HW130179   1.782   4.293  16.017 -1.0623  2.8652  1.3363
 6239SOL    HW230180   1.872   4.277  15.905  1.1263 -0.9995  1.5522
 6240SOL     OW30181   3.323   2.519  13.817 -0.3771  0.1486  0.1215
 6240SOL    HW130182   3.266   2.482  13.750 -1.6654 -0.8821  1.7897
 6240SOL    HW230183   3.294   2.610  13.811  1.4154  0.6575 -1.0109
 6241SOL     OW30184   1.722   3.186   3.832  0.2475  0.7008  0.0886
 6241SOL    HW130185   1.761   3.210   3.917 -1.8531 -1.1980  1.5926
 6241SOL    HW230186   1.699   3.271   3.795 -0.9318  0.1147 -0.5126
 6242SOL     OW30187   4.337   0.739   8.931  0.0175  0.0280 -0.0394
 6242SOL    HW130188   4.266   0.762   8.871  1.5508  0.4674 -1.6845
 6242SOL    HW230189   4.328   0.644   8.925  2.3129 -0.1057 -1.1883
 6243SOL     OW30190   3.624   1.763   7.160  0.4124 -0.0549  0.3099
 6243SOL    HW130191   3.657   1.821   7.092  1.7005  1.8442  2.5521
 6243SOL    HW230192   3.558   1.709   7.117  2.3080 -0.9360 -1.4655
 6244SOL     OW30193   1.769   1.677  13.877 -0.3337 -0.2658 -0.1216
 6244SOL    HW130194   1.864   1.686  13.873 -0.2224 -1.0124  0.7548
 6244SOL    HW230195   1.742   1.751  13.823  3.3014  1.2982  0.1843
 6245SOL     OW30196   0.111   3.806   7.600 -0.8479 -0.3346 -0.3311
 6245SOL    HW130197   0.192   3.858   7.605 -1.5661  0.3281  4.4486
 6245SOL    HW230198   0.143   3.729   7.553  1.0136  0.2517 -0.0319
 6246SOL     OW30199   2.240   0.014  12.031  0.3668 -0.2735 -0.4146
 6246SOL    HW130200   2.241   4.668  12.095 -0.1108 -0.2796 -0.4093
 6246SOL    HW230201   2.326   0.051  12.048 -0.1690  0.9165 -0.2687
 6247SOL     OW30202   2.332   3.507   4.736 -0.1478 -0.1484 -0.1805
 6247SOL    HW130203   2.384   3.525   4.657 -0.5365 -1.8722 -0.8291
 6247SOL    HW230204   2.250   3.535   4.696 -0.2035 -0.9616 -0.6357
 6248SOL     OW30205   2.955   1.039   2.300 -0.8068  0.2144 -0.5832
 6248SOL    HW130206   2.989   1.054   2.212  0.8169 -2.2616 -0.3905
 6248SOL    HW230207   2.909   1.122   2.315  2.7694  1.3277  4.3277
 6249SOL     OW30208   3.771   0.072  13.300  0.8798  0.8356 -0.2642
 6249SOL    HW130209   3.817   0.014  13.360 -0.7417 -1.1280 -0.9212
 6249SOL    HW230210   3.820   0.050  13.221  0.0231 -2.1280  0.0539
 6250SOL     OW30211   0.134   2.176   4.689  0.3214 -0.2887 -0.1260
 6250SOL    HW130212   0.090   2.253   4.654  3.5313  2.5239  1.9997
 6250SOL    HW230213   0.206   2.169   4.627 -0.1398 -0.8747 -0.5904
 6251SOL     OW30214   2.971   0.350   9.112 -0.0907 -0.3785  0.1383
 6251SOL    HW130215   2.959   0.429   9.059 -2.0274 -0.0712  1.0190
 6251SOL    HW230216   2.878   0.329   9.123  0.4599 -3.2873 -0.7126
 6252SOL     OW30217   1.230   2.189   8.599  0.3128  0.3044  0.6408
 6252SOL    HW130218   1.206   2.109   8.648  1.3916  0.6714  1.7691
 6252SOL    HW230219   1.156   2.239   8.633 -1.0911  0.5449 -2.8862
 6253SOL     OW30220   3.324   0.068  13.325  0.0867  0.3531  0.2098
 6253SOL    HW130221   3.292   0.053  13.237  0.5454  0.6045  0.0014
 6253SOL    HW230222   3.245   0.088  13.376  0.2476 -0.8771  0.9460
 6254SOL     OW30223   1.650   1.642  14.116  0.2105  0.5277  0.0653
 6254SOL    HW130224   1.618   1.552  14.122  0.3699  0.4892  0.3322
 6254SOL    HW230225   1.694   1.634  14.031 -0.1637  0.9219 -0.1656
 6255SOL     OW30226   2.458   2.158  16.455  0.1284 -0.5283 -0.0661
 6255SOL    HW130227   2.451   2.249  16.428 -0.4946 -0.2853  0.8962
 6255SOL    HW230228   2.506   2.162  16.538  2.4858  2.1038 -1.5588
 6256SOL     OW30229   0.860   1.545   4.724  0.5622 -0.0901 -0.0777
 6256SOL    HW130230   0.933   1.604   4.709  1.0826 -0.5712  0.5688
 6256SOL    HW230231   0.873   1.503   4.809 -0.0117  0.1041  0.1067
 6257SOL     OW30232   2.857   1.011   1.878 -0.2979  0.2096  0.9236
 6257SOL    HW130233   2.789   1.042   1.939 -1.4701 -1.0983  0.2934
 6257SOL    HW230234   2.846   0.916   1.876 -1.7454  0.4079 -0.4827
 6258SOL     OW30235   2.757   1.204   5.154 -0.1072 -0.1958 -0.3079
 6258SOL    HW130236   2.843   1.176   5.186 -0.4556 -0.5407  0.3449
 6258SOL    HW230237   2.768   1.205   5.059  1.1682 -0.7648 -0.1590
 6259SOL     OW30238   1.941   2.767   3.538  0.1480 -0.7539 -0.0673
 6259SOL    HW130239   2.007   2.832   3.560  0.4867 -1.8110  2.0247
 6259SOL    HW230240   1.899   2.809   3.462 -1.9362 -2.1518  0.3037
 6260SOL     OW30241   1.730   1.564   5.924  0.6477  0.9529 -0.3915
 6260SOL    HW130242   1.684   1.522   5.851 -2.7128  0.6973  1.8496
 6260SOL    HW230243   1.658   1.612   5.965  0.5701 -2.5915  3.6344
 6261SOL     OW30244   3.764   1.690   6.340  0.0628  0.6872  0.5809
 6261SOL    HW130245   3.683   1.651   6.307  0.8775 -1.9115  1.5857
 6261SOL    HW230246   3.738   1.770   6.384  0.4655 -0.2131  2.4338
 6262SOL     OW30247   3.976   2.294   1.451  0.0750 -0.3859 -0.0426
 6262SOL    HW130248   4.071   2.289   1.465  0.0569 -1.3823 -0.2806
 6262SOL    HW230249   3.968   2.217   1.395  2.0891 -2.2051  2.1581
 6263SOL     OW30250   3.685   4.097   8.585 -0.1198  0.4646  0.1543
 6263SOL    HW130251   3.737   4.172   8.613  1.3590  0.0275 -1.4149
 6263SOL    HW230252   3.594   4.103   8.614  0.7006 -0.0310  2.7733
 6264SOL     OW30253   4.167   0.459  11.772 -0.2493  0.0503  0.0229
 6264SOL    HW130254   4.134   0.545  11.800 -0.3309  0.3205 -0.9083
 6264SOL    HW230255   4.187   0.419  11.857  0.0496 -0.2222 -0.1745
 6265SOL     OW30256   3.906   0.370   7.175 -0.3440  0.2202  0.1586
 6265SOL    HW130257   3.988   0.324   7.191 -0.6606 -0.0440  1.0084
 6265SOL    HW230258   3.888   0.400   7.264 -0.7589 -4.2570  1.5874
 6266SOL     OW30259   2.699   4.392   4.422  0.3873  0.0531 -0.5032
 6266SOL    HW130260   2.709   4.297   4.428 -0.5352 -0.0759 -0.9135
 6266SOL    HW230261   2.604   4.402   4.432  0.4159  0.7177 -0.9021
 6267SOL     OW30262   2.048   1.355  15.283  0.0620  0.5283 -0.6218
 6267SOL    HW130263   2.016   1.303  15.356  1.2628 -0.0824 -0.5224
 6267SOL    HW230264   2.040   1.295  15.209 -0.3173  0.4319 -0.5007
 6268SOL     OW30265   0.979   0.422   8.719 -0.2776  0.4528 -0.0451
 6268SOL    HW130266   1.024   0.506   8.712  0.0558  0.1553 -1.5286
 6268SOL    HW230267   0.998   0.396   8.809 -0.1809 -1.6668 -0.6775
 6269SOL     OW30268   2.504   1.401   4.710  0.2608 -0.2512 -0.0559
 6269SOL    HW130269   2.448   1.363   4.777  1.2715  0.6212  1.2925
 6269SOL    HW230270   2.432   1.408   4.648  2.5706  2.6491 -2.4757
 6270SOL     OW30271   2.614   0.262  12.558  0.6427  0.1565 -0.0289
 6270SOL    HW130272   2.578   0.174  12.543 -0.6411  0.9182 -1.4386
 6270SOL    HW230273   2.686   0.260  12.622 -0.5385  2.2549  1.3391
 6271SOL     OW30274   3.819   3.340   8.817 -0.1872 -0.8528 -0.0148
 6271SOL    HW130275   3.804   3.418   8.763  1.3474 -0.5922 -0.0525
 6271SOL    HW230276   3.890   3.360   8.877 -1.0318  2.2275 -0.0616
 6272SOL     OW30277   4.112   4.197   9.853 -0.3418  0.0039 -0.0148
 6272SOL    HW130278   4.041   4.259   9.836 -0.6691 -0.6607 -1.0634
 6272SOL    HW230279   4.178   4.254   9.892 -0.6482  0.2356  0.1635
 6273SOL     OW30280   1.721   2.180   8.074  0.5211  0.0292 -0.8967
 6273SOL    HW130281   1.691   2.249   8.014  2.3227  1.0115 -0.6622
 6273SOL    HW230282   1.643   2.173   8.129  0.9750  1.6335 -0.0502
 6274SOL     OW30283   3.107   3.885   8.088  0.0609  0.5755  0.0038
 6274SOL    HW130284   3.037   3.934   8.130 -0.1424  1.0680 -0.9010
 6274SOL    HW230285   3.116   3.922   8.000 -0.1049  0.0345 -0.2371
 6275SOL     OW30286   3.124   2.171   8.821  0.0792 -0.1068  0.0032
 6275SOL    HW130287   3.054   2.126   8.868 -0.4309  0.1719 -0.4921
 6275SOL    HW230288   3.173   2.096   8.788  0.4066  0.7897 -1.5727
 6276SOL     OW30289   1.679   3.538   1.142 -0.1816 -0.0699 -0.5676
 6276SOL    HW130290   1.659   3.445   1.151  1.7200 -0.7590 -3.5587
 6276SOL    HW230291   1.603   3.563   1.088  0.2592 -0.6744 -1.4666
 6277SOL     OW30292   1.079   2.594   3.072  0.0616  0.3115  0.4917
 6277SOL    HW130293   1.034   2.510   3.079  0.9147 -0.2631 -0.8594
 6277SOL    HW230294   1.012   2.657   3.100 -2.0057 -1.7232  0.0511
 6278SOL     OW30295   4.325   0.176   9.987  1.1493 -0.0185 -0.5211
 6278SOL    HW130296   4.231   0.177  10.000  1.2431 -0.3278  0.1854
 6278SOL    HW230297   4.340   0.266   9.957 -1.4247  1.3373  2.2796
 6279SOL     OW30298   1.715   0.457   3.563 -0.1528 -0.3353  0.0086
 6279SOL    HW130299   1.737   0.496   3.478  2.0072 -1.4682  0.0396
 6279SOL    HW230300   1.683   0.537   3.604 -0.6802 -0.3129 -0.4473
 6280SOL     OW30301   2.155   4.175  13.935 -0.2892  0.7336 -0.3353
 6280SOL    HW130302   2.207   4.164  14.015  1.1927  1.0973 -1.2536
 6280SOL    HW230303   2.166   4.082  13.916 -0.8728  0.9905 -1.9578
 6281SOL     OW30304   4.032   1.275   7.827 -0.0679  0.2216  0.2223
 6281SOL    HW130305   3.990   1.201   7.784  1.5030  0.2359 -1.3044
 6281SOL    HW230306   4.065   1.229   7.904  2.7470  0.8212 -0.6447
 6282SOL     OW30307   3.592   2.981  14.393  0.5014  0.5075 -0.0879
 6282SOL    HW130308   3.668   2.984  14.451  1.4794 -1.8657 -1.1957
 6282SOL    HW230309   3.517   2.993  14.450  0.9374  0.9430  0.4023
 6283SOL     OW30310   3.454   3.945   1.823  0.0108 -0.2075  0.4872
 6283SOL    HW130311   3.424   4.035   1.837  0.7862  0.3612 -1.5583
 6283SOL    HW230312   3.368   3.903   1.822  1.0006 -2.1699 -1.2624
 6284SOL     OW30313   2.789   3.576   6.935 -0.4648 -0.0008 -0.1763
 6284SOL    HW130314   2.757   3.658   6.972  0.2149  0.1152  0.1551
 6284SOL    HW230315   2.784   3.524   7.015  1.4359 -2.7520 -1.8053
 6285SOL     OW30316   3.806   3.155   6.354  1.0225 -0.0709 -0.3993
 6285SOL    HW130317   3.876   3.164   6.418  1.7326 -0.3053 -1.1538
 6285SOL    HW230318   3.733   3.210   6.384  0.4131 -0.4186 -1.2582
 6286SOL     OW30319   2.981   2.592  14.083 -0.0061  0.2574 -0.3295
 6286SOL    HW130320   3.069   2.572  14.116  0.0285  2.2388  0.8038
 6286SOL    HW230321   2.928   2.535  14.139 -2.4575  2.6269 -0.2032
 6287SOL     OW30322   2.619   4.100   8.024  1.0452  0.3663 -0.8898
 6287SOL    HW130323   2.686   4.168   8.034  2.3742 -1.4941  2.9376
 6287SOL    HW230324   2.664   4.044   7.962  0.3880 -1.9142  0.6904
 6288SOL     OW30325   0.122   1.055   5.811 -0.5104  0.1754 -0.0897
 6288SOL    HW130326   0.060   1.004   5.864  0.4821  0.0160  0.9129
 6288SOL    HW230327   0.171   0.983   5.772 -0.4607  0.6870 -0.9842
 6289SOL     OW30328   0.667   3.972   5.018  1.5231 -0.1020  0.3662
 6289SOL    HW130329   0.676   3.930   5.104 -0.4844 -0.3280  0.4665
 6289SOL    HW230330   0.722   3.926   4.954  1.1751  2.0994 -1.5072
 6290SOL     OW30331   2.283   2.256   7.397 -0.3124  0.5879  0.9516
 6290SOL    HW130332   2.227   2.210   7.458  0.0103 -2.8248 -1.3439
 6290SOL    HW230333   2.365   2.240   7.443 -0.5596 -1.3034  0.7241
 6291SOL     OW30334   0.326   0.022   2.812 -0.0394 -0.2497  1.1574
 6291SOL    HW130335   0.400   4.685   2.808  0.1308  0.1774 -2.0468
 6291SOL    HW230336   0.371   0.107   2.813 -0.6345  0.0925 -1.7334
 6292SOL     OW30337   4.716   1.956   4.737 -0.1083 -0.1722 -0.6359
 6292SOL    HW130338   0.040   2.036   4.718 -1.1632  0.8629  1.1211
 6292SOL    HW230339   0.063   1.896   4.758  0.2403 -0.1296 -1.6711
 6293SOL     OW30340   2.125   3.521  17.051  0.3444 -0.3317 -0.1609
 6293SOL    HW130341   2.129   3.525  17.147  0.4961  1.3691 -0.2334
 6293SOL    HW230342   2.175   3.442  17.031  1.5436  0.3663  0.0647
 6294SOL     OW30343   3.841   0.979   2.719 -0.5001 -0.0945 -0.0200
 6294SOL    HW130344   3.873   0.972   2.629  2.7523  0.8867  1.0625
 6294SOL    HW230345   3.838   1.074   2.729 -0.1276 -0.3053  2.1615
 6295SOL     OW30346   1.739   2.448  16.442  0.2732  0.1037 -0.3156
 6295SOL    HW130347   1.791   2.382  16.487  1.5516  2.0009  0.9669
 6295SOL    HW230348   1.652   2.410  16.436  0.3275 -0.1397  0.4810
 6296SOL     OW30349   1.657   3.438   1.415  0.2355  0.3814 -0.1028
 6296SOL    HW130350   1.734   3.470   1.462 -0.7907  1.6429  0.7325
 6296SOL    HW230351   1.611   3.521   1.407 -1.1128 -0.3908 -0.4219
 6297SOL     OW30352   2.526   3.494  12.737  0.3944  0.4282 -0.1200
 6297SOL    HW130353   2.497   3.537  12.657 -0.4264 -1.0838 -0.6295
 6297SOL    HW230354   2.565   3.415  12.700  0.7338  1.5321 -2.0898
 6298SOL     OW30355   2.760   0.399   1.188 -0.3882 -0.1762  0.3197
 6298SOL    HW130356   2.854   0.383   1.176 -0.2072 -0.3159  1.9447
 6298SOL    HW230357   2.727   0.309   1.184 -1.3493  0.2094 -0.4619
 6299SOL     OW30358   4.301   1.423   3.100  0.0794  0.2171  0.3925
 6299SOL    HW130359   4.373   1.366   3.127 -1.4596 -2.3082 -0.7980
 6299SOL    HW230360   4.231   1.360   3.084 -1.4622  1.5953  1.6571
 6300SOL     OW30361   0.863   0.118   6.746 -0.8286  0.0392  0.0010
 6300SOL    HW130362   0.915   0.037   6.750 -0.6814  0.2598  2.4642
 6300SOL    HW230363   0.905   0.174   6.811  1.3018  0.1249 -1.4312
 6301SOL     OW30364   3.207   3.515  17.345  0.8601 -0.2433 -0.9302
 6301SOL    HW130365   3.180   3.596  17.389  2.6430 -0.2926  0.2808
 6301SOL    HW230366   3.291   3.494  17.386  0.6080 -0.5643 -0.5880
 6302SOL     OW30367   2.629   2.207   4.342  0.0480  0.3255 -0.5985
 6302SOL    HW130368   2.700   2.155   4.378  0.4838 -0.3703 -2.4190
 6302SOL    HW230369   2.671   2.293   4.339 -0.7279  0.7811  1.5925
 6303SOL     OW30370   0.336   2.943   2.380 -0.7987  0.0689 -0.2241
 6303SOL    HW130371   0.372   3.009   2.321 -0.9813  0.8494  0.5486
 6303SOL    HW230372   0.358   2.870   2.322 -0.9433 -1.6998  1.9499
 6304SOL     OW30373   1.369   4.009   8.812 -0.2701 -0.0874 -0.0963
 6304SOL    HW130374   1.305   4.081   8.809  1.7622  1.6853 -1.2028
 6304SOL    HW230375   1.443   4.051   8.855  0.1375  0.5094 -1.3869
 6305SOL     OW30376   1.183   2.586   1.392 -0.2246  0.1501 -0.4284
 6305SOL    HW130377   1.171   2.492   1.380  0.4107  0.2693 -2.0022
 6305SOL    HW230378   1.127   2.600   1.468 -0.8219 -1.1708 -0.6355
 6306SOL     OW30379   2.291   3.002   5.203  0.2761  0.0638 -0.0586
 6306SOL    HW130380   2.315   3.075   5.260 -1.0119 -0.2390  0.8559
 6306SOL    HW230381   2.335   3.037   5.125  0.5676  1.6091  0.8044
 6307SOL     OW30382   2.686   2.345   8.692  0.1321  0.0043  0.1834
 6307SOL    HW130383   2.734   2.377   8.616 -1.0586 -0.7236 -0.8802
 6307SOL    HW230384   2.689   2.249   8.686 -2.1383  0.0171 -1.3783
 6308SOL     OW30385   4.495   0.387   4.355 -0.6518 -0.4734 -0.5212
 6308SOL    HW130386   4.482   0.312   4.412 -1.5503  0.0584 -0.0196
 6308SOL    HW230387   4.415   0.379   4.303  0.2677 -0.4698 -1.9499
 6309SOL     OW30388   1.777   2.261  12.972  0.3468  0.1066 -0.3530
 6309SOL    HW130389   1.702   2.245  12.914  0.4028 -1.0291 -0.1071
 6309SOL    HW230390   1.733   2.223  13.048  0.6652  1.2788  0.4219
 6310SOL     OW30391   2.298   0.253   4.965  0.1903 -0.4041 -0.7155
 6310SOL    HW130392   2.358   0.261   5.039 -0.8099 -0.6717  0.1189
 6310SOL    HW230393   2.301   0.344   4.934  0.6116 -0.0274  0.4322
 6311SOL     OW30394   0.459   4.634  10.296  0.1146  0.1923  0.1334
 6311SOL    HW130395   0.393   4.581  10.340  1.3780 -2.2948 -0.9842
 6311SOL    HW230396   0.489   4.684  10.373  0.2167  1.6171 -0.8320
 6312SOL     OW30397   4.371   0.203   8.912 -0.3037 -0.1673 -0.4583
 6312SOL    HW130398   4.459   0.182   8.880  0.9812  0.5064  2.6557
 6312SOL    HW230399   4.317   0.159   8.847 -0.2536  1.1873 -1.4047
 6313SOL     OW30400   4.162   1.165   7.245  0.6730  0.5613 -0.0231
 6313SOL    HW130401   4.217   1.239   7.217  1.2609  1.1279  2.6370
 6313SOL    HW230402   4.126   1.188   7.331 -2.2208 -1.2902 -0.7700
 6314SOL     OW30403   3.587   3.862   3.099 -0.6160 -0.4148 -0.0274
 6314SOL    HW130404   3.577   3.881   3.006 -0.7085  0.4253  0.1489
 6314SOL    HW230405   3.543   3.778   3.100 -0.7775 -0.3711 -3.2999
 6315SOL     OW30406   4.328   0.524  12.039  0.3453  0.7456  0.4247
 6315SOL    HW130407   4.262   0.456  12.052 -2.7046  3.4805 -0.6643
 6315SOL    HW230408   4.398   0.488  11.984 -0.0472 -0.6152  0.8151
 6316SOL     OW30409   4.436   0.941   8.121 -1.0426  0.0868  0.0244
 6316SOL    HW130410   4.441   0.981   8.034 -1.6863  0.4663  0.1604
 6316SOL    HW230411   4.521   0.953   8.163 -0.6771  0.2834 -0.7796
 6317SOL     OW30412   3.593   1.348   0.782  0.2220 -0.0573  0.3716
 6317SOL    HW130413   3.580   1.321   0.691 -2.6018  0.6205  0.5811
 6317SOL    HW230414   3.527   1.417   0.784 -1.3007 -1.4807 -0.5603
 6318SOL     OW30415   3.049   3.126  11.699  0.2497 -0.0107 -0.5243
 6318SOL    HW130416   3.127   3.178  11.719 -0.8368  1.0357  0.9773
 6318SOL    HW230417   3.024   3.162  11.613  4.1441  1.2041 -1.1422
 6319SOL     OW30418   0.668   3.700   5.208 -0.0934  0.4356 -0.1582
 6319SOL    HW130419   0.720   3.675   5.132 -1.3141 -2.3512 -0.0599
 6319SOL    HW230420   0.640   3.613   5.237  2.5153 -0.0454  0.9204
 6320SOL     OW30421   2.552   3.085   2.921 -0.5706  0.1792 -0.1817
 6320SOL    HW130422   2.595   3.167   2.895  1.0711 -0.1892  1.4257
 6320SOL    HW230423   2.481   3.082   2.856 -0.8410  0.3405  0.1060
 6321SOL     OW30424   0.296   1.889   7.093 -0.3001  0.2989 -0.5219
 6321SOL    HW130425   0.220   1.831   7.081 -0.2738 -0.0650  0.9839
 6321SOL    HW230426   0.267   1.948   7.162  3.1981  2.8381 -1.2494
 6322SOL     OW30427   2.048   1.422   5.875 -0.2549  0.7888 -1.4504
 6322SOL    HW130428   2.005   1.340   5.898  1.7543  0.1002 -0.1817
 6322SOL    HW230429   2.105   1.443   5.950 -0.1253 -0.2593 -1.2596
 6323SOL     OW30430   3.929   0.226   6.135  0.3855  0.2663 -0.0437
 6323SOL    HW130431   3.979   0.304   6.111 -1.8527  1.3788 -1.0415
 6323SOL    HW230432   3.990   0.203   6.206  0.1342 -1.4895 -0.3814
 6324SOL     OW30433   4.426   3.788   5.007  0.3725  0.0352  0.0279
 6324SOL    HW130434   4.392   3.846   5.076 -2.0168  0.5436 -1.5664
 6324SOL    HW230435   4.516   3.766   5.031  0.7858  3.1345  1.4279
 6325SOL     OW30436   2.947   2.450  10.264 -0.2265  0.2050  0.0506
 6325SOL    HW130437   2.953   2.393  10.341 -2.6761  1.6196  1.2775
 6325SOL    HW230438   2.945   2.538  10.300 -1.9193 -0.0495  0.5746
 6326SOL     OW30439   4.215   4.150   7.534 -0.2916  0.3953 -0.2706
 6326SOL    HW130440   4.228   4.056   7.525 -0.3970  0.3935 -0.3902
 6326SOL    HW230441   4.270   4.175   7.460  1.6101 -0.2014  0.9254
 6327SOL     OW30442   2.686   0.352   0.864  0.3639 -0.4395 -0.2597
 6327SOL    HW130443   2.749   0.397   0.921  0.9306 -0.6273 -0.7396
 6327SOL    HW230444   2.737   0.289   0.814  1.3400  1.9986 -2.3592
 6328SOL     OW30445   3.098   2.042   3.922  0.3374 -0.3735  0.1012
 6328SOL    HW130446   3.157   2.103   3.877  2.3226 -0.1997  2.9451
 6328SOL    HW230447   3.037   2.014   3.853  1.6384 -0.5316 -0.9812
 6329SOL     OW30448   0.562   1.315   0.109  0.0675  0.3480 -0.5213
 6329SOL    HW130449   0.475   1.347   0.135  1.4686  0.2947  4.3040
 6329SOL    HW230450   0.537   1.249   0.044 -1.4722  0.1502  0.2581
 6330SOL     OW30451   1.230   1.172  17.219 -0.0990 -0.1307  0.1969
 6330SOL    HW130452   1.314   1.216  17.220 -0.4765  0.6034 -1.3816
 6330SOL    HW230453   1.259   1.082  17.204 -1.4756 -0.6596  0.6038
 6331SOL     OW30454   0.278   2.774   7.364  0.3567  0.3111  0.0439
 6331SOL    HW130455   0.355   2.789   7.418  1.7722  1.1852 -2.1908
 6331SOL    HW230456   0.225   2.713   7.414 -0.5817  3.0518  2.3513
 6332SOL     OW30457   0.764   0.800   5.714 -0.1463 -0.6138 -0.8085
 6332SOL    HW130458   0.795   0.891   5.712 -0.2973 -0.5743 -1.3835
 6332SOL    HW230459   0.799   0.765   5.632 -0.0246 -2.5191  0.0518
 6333SOL     OW30460   0.001   4.553  17.524 -0.1309 -0.0777 -0.3698
 6333SOL    HW130461   4.684   4.612  17.587  0.5733  1.2190 -1.1176
 6333SOL    HW230462   0.051   4.498  17.584 -0.4445 -0.1267 -0.1533
 6334SOL     OW30463   1.744   0.925   5.999  0.5707 -0.5713 -0.3104
 6334SOL    HW130464   1.659   0.968   5.995  1.0018  0.4626  1.3172
 6334SOL    HW230465   1.743   0.909   6.094 -0.3164  1.2388 -0.0236
 6335SOL     OW30466   3.961   3.906   6.828 -0.2421  0.2804 -0.1787
 6335SOL    HW130467   3.966   3.904   6.923  1.4137 -0.1672 -0.2771
 6335SOL    HW230468   4.054   3.894   6.807  0.3273  0.3947  2.3250
 6336SOL     OW30469   0.253   4.164   6.313  0.3215 -0.4136 -0.3569
 6336SOL    HW130470   0.224   4.102   6.380  1.9173 -0.1061  0.6212
 6336SOL    HW230471   0.320   4.114   6.266  0.7727  0.8172 -1.0156
 6337SOL     OW30472   2.248   4.417   8.898  0.0724  0.3180 -0.5178
 6337SOL    HW130473   2.188   4.343   8.900  2.0761 -1.3122 -0.6101
 6337SOL    HW230474   2.310   4.391   8.966 -2.4206 -2.0695  0.8252
 6338SOL     OW30475   1.207   3.253  11.488  0.3072 -0.0418 -0.7142
 6338SOL    HW130476   1.236   3.304  11.412  0.8302 -0.4214 -0.7690
 6338SOL    HW230477   1.172   3.174  11.448  1.2155 -0.7046 -0.1841
 6339SOL     OW30478   0.532   4.225   4.716 -0.4115 -0.2807 -0.1653
 6339SOL    HW130479   0.551   4.151   4.659 -0.2666 -0.0847 -0.3693
 6339SOL    HW230480   0.438   4.238   4.700 -1.0212 -3.6094  0.6388
 6340SOL     OW30481   3.446   1.565   8.641 -0.1218  0.3612 -0.0939
 6340SOL    HW130482   3.392   1.638   8.673 -1.0036  0.8722 -2.7389
 6340SOL    HW230483   3.375   1.523   8.592 -2.0968  1.6263  1.7087
 6341SOL     OW30484   2.319   0.655   8.605 -0.6287 -0.5475 -0.6286
 6341SOL    HW130485   2.395   0.614   8.564 -0.4739 -1.4318  0.5378
 6341SOL    HW230486   2.250   0.597   8.574  0.5580 -2.0713 -0.4129
 6342SOL     OW30487   2.032   0.808   1.398 -0.4109 -0.2096 -0.4003
 6342SOL    HW130488   2.091   0.883   1.394 -1.2372  0.5584  1.8983
 6342SOL    HW230489   2.026   0.807   1.494  1.0672 -0.8275 -0.3195
 6343SOL     OW30490   0.507   2.231   6.403 -0.4498 -0.2989 -0.1192
 6343SOL    HW130491   0.431   2.186   6.367 -0.7438 -0.3845  0.6129
 6343SOL    HW230492   0.509   2.186   6.487  1.9858  2.2811  1.1875
 6344SOL     OW30493   3.984   0.223   8.840  0.4628  0.3193  0.2027
 6344SOL    HW130494   4.049   0.277   8.884 -0.3079 -0.3085  2.1055
 6344SOL    HW230495   4.005   0.138   8.879 -0.3619  0.1190  0.2177
 6345SOL     OW30496   2.166   4.345   8.033  0.5486  0.5014  0.7099
 6345SOL    HW130497   2.241   4.287   8.046  2.3615  2.6845 -0.0137
 6345SOL    HW230498   2.106   4.325   8.106  0.0938  0.8846  0.4391
 6346SOL     OW30499   1.022   0.065   8.976  0.0929 -0.4437  0.3621
 6346SOL    HW130500   1.117   0.060   8.971  0.1759  0.1375  1.3503
 6346SOL    HW230501   1.005   0.158   8.960 -1.6224 -0.8215 -0.0692
 6347SOL     OW30502   1.571   1.919   2.753 -0.1858  0.2257  0.7146
 6347SOL    HW130503   1.665   1.920   2.768 -0.2384 -3.0571  1.2380
 6347SOL    HW230504   1.571   1.963   2.669  0.2911  1.1208  1.1872
 6348SOL     OW30505   2.336   2.118  14.933  0.7047  0.4648 -0.2568
 6348SOL    HW130506   2.262   2.152  14.984  1.0413  0.3809  0.2875
 6348SOL    HW230507   2.293   2.052  14.878  0.1456  0.1773  0.5165
 6349SOL     OW30508   0.406   2.758   6.572 -0.3189  0.0539 -0.1536
 6349SOL    HW130509   0.407   2.849   6.542  1.1404  0.0491 -0.1208
 6349SOL    HW230510   0.498   2.735   6.560 -0.1057  0.9222 -0.2202
 6350SOL     OW30511   1.367   2.218   6.772  0.1894 -0.3681 -0.0567
 6350SOL    HW130512   1.373   2.265   6.688 -0.9530 -1.4132 -0.7084
 6350SOL    HW230513   1.443   2.160   6.781  0.5076  0.2003  0.9223
 6351SOL     OW30514   3.261   1.342   6.533  0.5289  0.1178 -0.3441
 6351SOL    HW130515   3.309   1.336   6.450  1.6493 -3.2490  0.5516
 6351SOL    HW230516   3.320   1.302   6.597 -0.2872 -1.4896 -0.6138
 6352SOL     OW30517   3.480   1.832   1.368 -0.2335 -0.5566 -0.5412
 6352SOL    HW130518   3.406   1.774   1.348  0.0938 -1.4672  0.9009
 6352SOL    HW230519   3.473   1.888   1.291  1.6874  0.6084  0.1495
 6353SOL     OW30520   2.325   3.773   2.186  0.1260  0.0201 -0.2527
 6353SOL    HW130521   2.288   3.698   2.139  0.4377 -1.2226  1.4937
 6353SOL    HW230522   2.384   3.803   2.118  0.5942  2.0251  1.0425
 6354SOL     OW30523   0.930   1.326   9.688  0.0387  0.2013  0.0827
 6354SOL    HW130524   0.927   1.420   9.668  2.0078  0.4916  1.1799
 6354SOL    HW230525   0.899   1.316   9.778 -0.4837 -0.8871 -0.2200
 6355SOL     OW30526   2.746   1.055  11.566  0.2308 -0.1839  1.0325
 6355SOL    HW130527   2.656   1.083  11.577  0.2993  0.1580  0.7095
 6355SOL    HW230528   2.764   1.090  11.478  0.7538 -1.2027  0.7316
 6356SOL     OW30529   4.254   2.092  13.672 -0.3142  0.1671 -0.1823
 6356SOL    HW130530   4.335   2.047  13.698 -0.6786 -1.4770 -1.9081
 6356SOL    HW230531   4.192   2.028  13.706 -0.5533  0.2601 -0.4455
 6357SOL     OW30532   2.936   4.200   3.146  0.1870  0.1754  0.3611
 6357SOL    HW130533   2.899   4.288   3.156  3.2216  1.3304  1.3889
 6357SOL    HW230534   3.024   4.215   3.112 -1.0075 -0.4541 -2.9590
 6358SOL     OW30535   3.592   3.881   5.518  0.4322  0.3401 -0.1481
 6358SOL    HW130536   3.639   3.825   5.581 -1.6949 -2.1391 -0.7468
 6358SOL    HW230537   3.664   3.911   5.463  0.2388 -1.1221 -1.1939
 6359SOL     OW30538   0.668   0.757   8.712  0.1672  0.7005 -0.7718
 6359SOL    HW130539   0.635   0.843   8.737 -2.2501  0.0515 -1.7157
 6359SOL    HW230540   0.722   0.736   8.788  2.0900  0.7632 -2.1079
 6360SOL     OW30541   3.057   1.247   2.871 -0.0828  0.5023  0.4162
 6360SOL    HW130542   3.118   1.206   2.809 -2.8079 -2.2973 -0.4645
 6360SOL    HW230543   2.985   1.269   2.811  0.7773  1.9599 -0.0670
 6361SOL     OW30544   4.097   2.529  11.212 -0.3847 -0.3548  0.1274
 6361SOL    HW130545   4.006   2.553  11.195 -0.8613 -3.6253 -1.9918
 6361SOL    HW230546   4.113   2.508  11.120  0.9875  0.4441  0.1747
 6362SOL     OW30547   4.241   4.221   4.999 -0.4194  0.2632  0.2474
 6362SOL    HW130548   4.236   4.294   5.060 -0.9206 -1.5161  2.3427
 6362SOL    HW230549   4.267   4.147   5.054 -1.5031  0.3470  0.8685
 6363SOL     OW30550   1.353   2.363   8.834 -0.5666 -0.2739  0.1735
 6363SOL    HW130551   1.425   2.395   8.887 -0.7042  2.5874 -1.3706
 6363SOL    HW230552   1.392   2.288   8.790  0.5148  1.1325 -1.2652
 6364SOL     OW30553   1.961   4.075   3.376 -0.5566  0.7500  0.5666
 6364SOL    HW130554   1.906   4.112   3.445  0.1005  2.3819  0.2064
 6364SOL    HW230555   1.891   4.040   3.322  0.0933 -1.9113  1.4594
 6365SOL     OW30556   3.149   1.629  15.655  0.5508 -0.3199  0.5722
 6365SOL    HW130557   3.237   1.667  15.650  0.5517 -0.5044 -0.6784
 6365SOL    HW230558   3.165   1.545  15.612  0.3495  0.3698 -0.8289
 6366SOL     OW30559   1.489   3.458   9.314  0.0880 -0.5371 -0.1787
 6366SOL    HW130560   1.440   3.379   9.340  0.2445  0.0872  2.0130
 6366SOL    HW230561   1.553   3.465   9.385 -0.0586  2.2087 -0.3220
 6367SOL     OW30562   1.285   1.007   1.298  0.3000  0.1606  0.0617
 6367SOL    HW130563   1.347   1.040   1.232  0.1999  0.3175  0.0456
 6367SOL    HW230564   1.226   0.947   1.253  1.8427 -0.8594 -0.6392
 6368SOL     OW30565   3.357   1.686   3.843 -0.0653  0.1295  0.2238
 6368SOL    HW130566   3.329   1.727   3.761  1.7480  0.4879 -0.1987
 6368SOL    HW230567   3.332   1.594   3.835  1.1672 -0.0024 -1.8893
 6369SOL     OW30568   0.131   2.455   9.620  0.5208 -0.1862  0.3059
 6369SOL    HW130569   0.124   2.539   9.575 -1.8369 -1.1984 -1.2094
 6369SOL    HW230570   0.121   2.485   9.710  0.0209  0.0347  0.1748
 6370SOL     OW30571   2.466   0.178   1.295 -0.0280 -0.3596  0.1009
 6370SOL    HW130572   2.451   0.209   1.384 -2.8851 -0.5873 -0.2774
 6370SOL    HW230573   2.540   0.119   1.311  0.4067 -0.2382 -1.4425
 6371SOL     OW30574   1.050   4.271   8.244  0.0373 -0.6565 -0.3445
 6371SOL    HW130575   1.113   4.333   8.283 -0.6449 -0.9299  1.2020
 6371SOL    HW230576   1.097   4.244   8.166  1.2880  0.4677  0.0145
 6372SOL     OW30577   2.432   0.663   9.264  0.3033  0.1128  0.1988
 6372SOL    HW130578   2.426   0.662   9.359  0.4938 -1.6369  0.1829
 6372SOL    HW230579   2.527   0.649   9.261  0.5274  1.4964  1.0597
 6373SOL     OW30580   2.026   3.730   2.962  0.1505 -0.6504 -0.8972
 6373SOL    HW130581   2.121   3.729   2.949  0.1513 -1.3920 -0.8524
 6373SOL    HW230582   2.012   3.711   3.055 -0.6608  1.1179 -0.6657
 6374SOL     OW30583   4.543   3.022   4.626  0.2290  0.3393  0.5458
 6374SOL    HW130584   4.611   2.964   4.592 -1.2772 -0.2637 -1.4006
 6374SOL    HW230585   4.572   3.104   4.584 -0.6357 -0.6699 -2.0215
 6375SOL     OW30586   4.301   0.805   6.595  0.0027  0.0677 -0.2759
 6375SOL    HW130587   4.281   0.720   6.556 -1.0160  0.3287 -0.3271
 6375SOL    HW230588   4.256   0.792   6.678  0.6285 -1.6570 -0.1999
 6376SOL     OW30589   2.006   1.356   4.442  0.3816  0.6220 -0.1644
 6376SOL    HW130590   1.986   1.262   4.444  2.7118  0.1278  0.6591
 6376SOL    HW230591   2.083   1.357   4.385  0.6383 -0.6264  0.1530
 6377SOL     OW30592   1.518   3.828   5.898  0.0761  0.2854  0.2669
 6377SOL    HW130593   1.561   3.907   5.867  0.6917  0.0402  0.4793
 6377SOL    HW230594   1.440   3.858   5.945  0.5782 -1.2463  2.0957
 6378SOL     OW30595   2.392   1.863   3.324 -0.0038 -0.1313 -0.5020
 6378SOL    HW130596   2.383   1.812   3.243  0.1906 -1.6889  0.4472
 6378SOL    HW230597   2.378   1.805   3.399  0.4950  0.2157 -0.1417
 6379SOL     OW30598   0.365   3.439   3.136 -0.1540  0.2511 -0.5749
 6379SOL    HW130599   0.434   3.502   3.116  0.5059  0.4659  2.3725
 6379SOL    HW230600   0.397   3.352   3.113 -1.2656  0.1549 -1.7465
 6380SOL     OW30601   4.544   0.394   1.767  0.0711 -0.0328 -0.9439
 6380SOL    HW130602   4.582   0.309   1.791 -0.9728 -0.6827 -1.6065
 6380SOL    HW230603   4.475   0.411   1.832 -0.1504  0.9807 -1.4441
 6381SOL     OW30604   0.483   2.626  16.641 -0.0463 -0.6031 -0.3329
 6381SOL    HW130605   0.404   2.633  16.695 -1.1401  1.1700 -2.1890
 6381SOL    HW230606   0.532   2.689  16.694  0.8767 -0.6866 -1.0818
 6382SOL     OW30607   1.543   1.137   0.469 -0.0780 -0.1194  0.3772
 6382SOL    HW130608   1.529   1.093   0.553  0.9825  0.4739  0.8728
 6382SOL    HW230609   1.477   1.207   0.475  1.0899  1.1487 -1.6249
 6383SOL     OW30610   3.114   4.241  14.978  0.4587  0.3844  0.0904
 6383SOL    HW130611   3.123   4.268  15.069 -1.0945  1.5873 -0.1044
 6383SOL    HW230612   3.038   4.184  14.982 -0.6915  1.9621  0.8340
 6384SOL     OW30613   4.151   4.460   6.749 -0.0335 -0.0800  0.1540
 6384SOL    HW130614   4.202   4.531   6.788 -0.2270 -0.6009  1.3582
 6384SOL    HW230615   4.077   4.466   6.809 -1.8599 -0.5342 -2.0153
 6385SOL     OW30616   1.044   4.085   9.221 -0.1635 -0.1254  0.8386
 6385SOL    HW130617   1.021   4.118   9.308  1.7372 -0.4393  1.4606
 6385SOL    HW230618   1.070   3.997   9.251 -1.6008 -0.9228 -0.2834
 6386SOL     OW30619   4.683   4.553  10.035  0.3599  0.0661  0.6176
 6386SOL    HW130620   4.639   4.615   9.977 -0.4864 -1.5940 -0.5094
 6386SOL    HW230621   0.050   4.580  10.041  0.1190  0.9955  0.1601
 6387SOL     OW30622   1.124   0.279   7.953  0.7837 -0.1264  0.8263
 6387SOL    HW130623   1.161   0.263   8.040 -0.0419  0.4308  1.2788
 6387SOL    HW230624   1.160   0.203   7.908  0.1205  0.9631 -1.5323
 6388SOL     OW30625   0.455   0.414   0.791 -0.2594 -0.2607 -0.4563
 6388SOL    HW130626   0.526   0.359   0.824 -1.4881  0.4507  3.3633
 6388SOL    HW230627   0.382   0.401   0.852  1.3518 -0.1203  1.4982
 6389SOL     OW30628   4.618   1.934   6.535  0.5767 -0.0167 -0.2464
 6389SOL    HW130629   4.671   1.855   6.524 -1.0926 -1.3757  1.5588
 6389SOL    HW230630   4.542   1.910   6.482  1.5145 -1.5707 -0.8887
 6390SOL     OW30631   4.100   1.586  14.048  0.1104 -0.1005 -0.4150
 6390SOL    HW130632   4.052   1.608  14.127  0.4203  1.6517 -0.7053
 6390SOL    HW230633   4.030   1.568  13.986 -0.3376  2.1865 -0.5776
 6391SOL     OW30634   0.188   1.385   7.085 -0.4297 -0.4801  0.0500
 6391SOL    HW130635   0.155   1.452   7.145  2.0255  2.7372 -2.2088
 6391SOL    HW230636   0.218   1.320   7.149 -2.4018  0.1063  1.5608
 6392SOL     OW30637   0.212   4.213  16.907  0.2394  0.1849 -0.0414
 6392SOL    HW130638   0.275   4.143  16.925  0.8474  0.6927 -0.1764
 6392SOL    HW230639   0.250   4.273  16.971 -0.8463 -0.3228  1.0793
 6393SOL     OW30640   1.426   1.501   1.553 -0.6216  0.4547 -0.2110
 6393SOL    HW130641   1.408   1.408   1.568 -1.2845  0.4421 -1.0465
 6393SOL    HW230642   1.520   1.507   1.571 -0.6707 -0.0476  0.2206
 6394SOL     OW30643   4.560   4.648   4.617 -0.3703 -0.4459 -0.3133
 6394SOL    HW130644   4.534   4.639   4.525 -0.8321 -3.4450  0.1151
 6394SOL    HW230645   4.509   4.578   4.659  2.4403 -1.2529  1.6796
 6395SOL     OW30646   1.058   0.957   8.729 -0.2546  0.0016  0.3648
 6395SOL    HW130647   1.096   0.933   8.814  0.0611  1.6367  0.6868
 6395SOL    HW230648   0.984   1.015   8.747 -0.8152 -0.3416 -0.8166
 6396SOL     OW30649   1.137   4.183   7.963  0.0296 -0.0199  0.7697
 6396SOL    HW130650   1.138   4.140   7.878  1.1456  1.5055  0.0150
 6396SOL    HW230651   1.213   4.135   7.996 -0.0603  1.4012  3.0498
 6397SOL     OW30652   3.017   4.662  11.613  0.1247 -0.5024 -0.7398
 6397SOL    HW130653   3.008   0.031  11.593  1.8668 -0.6230 -2.1017
 6397SOL    HW230654   2.925   4.634  11.612  0.0409 -0.3612  1.9600
 6398SOL     OW30655   1.524   1.578   9.525  0.3875  0.3364 -0.2748
 6398SOL    HW130656   1.524   1.625   9.441  3.1006  0.3736 -0.2537
 6398SOL    HW230657   1.433   1.588   9.552  0.1147  1.9380 -1.7088
 6399SOL     OW30658   2.566   2.596   9.083 -0.1698  0.0848  0.1976
 6399SOL    HW130659   2.606   2.651   9.016  1.2908 -0.0245  0.9896
 6399SOL    HW230660   2.611   2.636   9.157  0.5136  1.0786 -0.7437
 6400SOL     OW30661   4.049   3.679   5.775 -0.1558  0.0442 -0.4211
 6400SOL    HW130662   4.105   3.715   5.843 -0.6773  0.6001 -0.2804
 6400SOL    HW230663   3.972   3.665   5.830  0.2701 -0.8096 -0.0610
 6401SOL     OW30664   0.038   0.441   4.599  0.5402 -0.3921  0.2416
 6401SOL    HW130665   0.019   0.534   4.587 -0.7156 -0.9063 -1.7239
 6401SOL    HW230666   0.017   0.396   4.517  0.6322  0.5930 -0.3175
 6402SOL     OW30667   0.629   0.976   5.964  0.3496 -0.2271  0.4064
 6402SOL    HW130668   0.584   0.892   5.959  0.9074 -0.1990 -4.3751
 6402SOL    HW230669   0.697   0.958   5.899 -0.5645 -3.0167  0.2260
 6403SOL     OW30670   3.769   0.529   2.064 -0.5798  0.4059  0.2381
 6403SOL    HW130671   3.786   0.473   1.988 -0.5961  1.5756 -0.6306
 6403SOL    HW230672   3.741   0.615   2.034 -2.9846 -0.8220 -0.9890
 6404SOL     OW30673   0.787   3.519  15.408 -0.4089  0.1811  0.6960
 6404SOL    HW130674   0.699   3.535  15.441 -1.6375 -1.0440 -2.0042
 6404SOL    HW230675   0.792   3.427  15.434  0.8045  0.5012  1.6380
 6405SOL     OW30676   3.742   4.445  15.813 -0.1757  0.3649  0.0601
 6405SOL    HW130677   3.661   4.492  15.792  0.8836  1.7591 -0.8339
 6405SOL    HW230678   3.798   4.496  15.871  2.2528 -0.8606 -1.2132
 6406SOL     OW30679   2.328   1.422   1.392 -0.0116 -0.0648 -0.1239
 6406SOL    HW130680   2.251   1.456   1.346  0.2247  0.9685  0.2528
 6406SOL    HW230681   2.395   1.461   1.337  2.1537 -0.8313  1.9719
 6407SOL     OW30682   2.618   2.514  16.413 -0.2567  0.7347 -0.0803
 6407SOL    HW130683   2.574   2.474  16.487 -0.3238 -1.3035 -1.2141
 6407SOL    HW230684   2.624   2.602  16.450 -0.5043  0.8444 -0.2990
 6408SOL     OW30685   4.111   0.898   4.227 -0.0490 -0.0405 -0.0334
 6408SOL    HW130686   4.108   0.805   4.205 -0.3146 -0.1207  0.3368
 6408SOL    HW230687   4.052   0.911   4.153 -2.0844 -1.6099  1.3038
 6409SOL     OW30688   0.888   4.583   4.542 -0.3063 -0.1367 -0.4457
 6409SOL    HW130689   0.984   4.592   4.538 -0.3205 -0.0087 -0.5168
 6409SOL    HW230690   0.859   4.672   4.521  1.1646  0.3672 -0.3524
 6410SOL     OW30691   4.568   0.661   9.944  0.5354  0.1770  0.7440
 6410SOL    HW130692   4.615   0.713   9.879  0.5789  0.2359  0.8210
 6410SOL    HW230693   4.643   0.605   9.968  1.7512  2.0341  1.2786
 6411SOL     OW30694   1.287   0.569  16.113 -0.1622  0.1542  0.0408
 6411SOL    HW130695   1.321   0.487  16.077  1.7291  1.7372 -1.7224
 6411SOL    HW230696   1.193   0.561  16.103 -0.3017  2.1554 -0.2341
 6412SOL     OW30697   3.903   2.817  13.579  0.5480  0.3138  0.0435
 6412SOL    HW130698   3.947   2.732  13.578  0.8660  0.4849 -0.4059
 6412SOL    HW230699   3.843   2.806  13.653 -2.2226  1.3582 -2.0619
 6413SOL     OW30700   2.593   2.113  14.975 -0.3125 -0.1407 -0.1360
 6413SOL    HW130701   2.500   2.112  14.952 -0.1725  3.2451 -0.9431
 6413SOL    HW230702   2.583   2.044  15.040 -1.4324  0.0502 -0.0903
 6414SOL     OW30703   3.301   0.240  13.056  0.3095 -0.0550 -0.0431
 6414SOL    HW130704   3.394   0.217  13.061  0.8218  1.6066 -1.8858
 6414SOL    HW230705   3.299   0.311  13.120  0.0098  0.0372 -0.1559
 6415SOL     OW30706   1.899   1.207   1.214 -0.0197 -0.0052  0.3067
 6415SOL    HW130707   1.955   1.143   1.171 -0.5341  1.2551 -2.2178
 6415SOL    HW230708   1.820   1.213   1.160 -0.4150 -0.3044  0.8537
 6416SOL     OW30709   1.506   0.341   7.203  0.0825 -0.5332  0.6502
 6416SOL    HW130710   1.562   0.284   7.257  0.3482 -2.0183 -1.1656
 6416SOL    HW230711   1.484   0.419   7.253  0.3707  0.8039 -1.2838
 6417SOL     OW30712   1.195   3.494   8.174  0.4173  0.0777  0.1049
 6417SOL    HW130713   1.193   3.560   8.244  1.3270 -1.1158  1.2708
 6417SOL    HW230714   1.100   3.497   8.157  0.2357 -2.1333  0.7287
 6418SOL     OW30715   4.259   2.935   7.242  0.3328  0.5743 -0.2265
 6418SOL    HW130716   4.216   2.875   7.181  1.0829  1.2520 -1.4130
 6418SOL    HW230717   4.310   2.868   7.287 -0.1452  0.0677 -0.4272
 6419SOL     OW30718   1.607   2.607   3.982 -0.7050  0.0530  0.0818
 6419SOL    HW130719   1.555   2.652   3.915 -0.3465 -0.6571 -0.6699
 6419SOL    HW230720   1.540   2.555   4.026 -1.2943  0.3938 -0.4263
 6420SOL     OW30721   1.103   2.553   3.384  0.7875 -0.2423  0.2554
 6420SOL    HW130722   1.059   2.548   3.469 -0.6798 -1.6841 -0.5909
 6420SOL    HW230723   1.078   2.464   3.359 -0.8100  0.3836 -0.4344
 6421SOL     OW30724   0.864   4.697  10.945  0.2730  0.0069 -0.1354
 6421SOL    HW130725   0.930   4.643  10.988  0.8894  0.2444 -0.7633
 6421SOL    HW230726   0.808   4.621  10.930 -0.0080  0.8966 -3.6576
 6422SOL     OW30727   1.277   2.798   3.194  0.1312 -0.0380  0.2516
 6422SOL    HW130728   1.315   2.828   3.111 -0.0646 -0.5713 -0.0273
 6422SOL    HW230729   1.254   2.883   3.232  0.5015 -0.2825  1.0313
 6423SOL     OW30730   1.589   3.424   6.237  0.5049 -0.5565  0.1725
 6423SOL    HW130731   1.653   3.490   6.263  1.0826 -1.7729  1.8630
 6423SOL    HW230732   1.515   3.467   6.280 -1.6542 -3.5659 -0.5901
 6424SOL     OW30733   1.496   4.657   0.485 -0.1691 -0.6885 -0.8803
 6424SOL    HW130734   1.587   4.678   0.465 -0.1664 -0.1087 -0.2584
 6424SOL    HW230735   1.506   4.666   0.580  0.3213  1.2995 -1.1283
 6425SOL     OW30736   1.319   2.819   1.509  0.4267  0.4468  0.1046
 6425SOL    HW130737   1.412   2.798   1.508  0.1444 -0.7085 -2.0703
 6425SOL    HW230738   1.268   2.756   1.458 -1.5499  1.3187  0.9712
 6426SOL     OW30739   0.118   0.937  13.047  0.2050 -0.1558  0.1745
 6426SOL    HW130740   0.129   1.032  13.046  0.3020 -0.1683 -0.0328
 6426SOL    HW230741   0.210   0.916  13.028  0.0335 -0.7820  0.0514
 6427SOL     OW30742   1.731   2.888  11.370  0.0904 -0.2040 -0.1486
 6427SOL    HW130743   1.732   2.981  11.390 -0.3936 -0.3950  0.7420
 6427SOL    HW230744   1.651   2.893  11.318 -0.1608 -1.3393  0.1367
 6428SOL     OW30745   3.546   0.702   6.387  0.3554  0.3367  0.1176
 6428SOL    HW130746   3.632   0.675   6.353  0.2690 -0.3793  0.4525
 6428SOL    HW230747   3.532   0.632   6.452 -2.1662 -0.2937 -1.1117
 6429SOL     OW30748   1.441   4.152   4.039 -0.4430 -0.7855 -0.3105
 6429SOL    HW130749   1.392   4.139   4.121 -0.9543 -1.2991 -0.6981
 6429SOL    HW230750   1.379   4.204   3.988  0.6677 -0.2453 -1.1118
 6430SOL     OW30751   1.814   1.125   8.411  0.6520  0.0967  0.2615
 6430SOL    HW130752   1.756   1.187   8.456  0.3683 -2.6250  3.6722
 6430SOL    HW230753   1.768   1.123   8.328 -0.9942 -0.0729  1.1859
 6431SOL     OW30754   1.612   2.260   2.732  0.2227 -0.7267 -0.2175
 6431SOL    HW130755   1.531   2.230   2.691  0.4371  0.0634 -1.2421
 6431SOL    HW230756   1.671   2.187   2.711  0.8620 -0.1893 -0.2784
 6432SOL     OW30757   4.658   1.220   4.874 -0.0803 -0.0675 -0.3361
 6432SOL    HW130758   4.640   1.127   4.862 -0.2430 -0.3188  1.7111
 6432SOL    HW230759   4.713   1.207   4.951 -1.0228  2.3895  0.7557
 6433SOL     OW30760   1.165   3.490   6.831 -0.6071  0.1363 -1.0075
 6433SOL    HW130761   1.127   3.500   6.918  0.4461 -2.0910 -0.3089
 6433SOL    HW230762   1.244   3.540   6.850 -1.2305  0.6233  0.3034
 6434SOL     OW30763   1.382   0.603   3.288 -0.1973  0.2919 -0.8093
 6434SOL    HW130764   1.410   0.514   3.306 -0.5042  0.3175 -0.1896
 6434SOL    HW230765   1.329   0.632   3.363  0.7554  0.6813 -0.2916
 6435SOL     OW30766   4.516   2.280  14.517 -0.1693 -0.0827  0.5807
 6435SOL    HW130767   4.562   2.197  14.503  1.0235  1.1590 -2.8207
 6435SOL    HW230768   4.549   2.309  14.602  0.6833 -0.2012  0.2917
 6436SOL     OW30769   1.672   0.175   0.506 -0.4236 -0.2147  0.8741
 6436SOL    HW130770   1.663   0.165   0.411 -0.5213 -0.1181  0.8721
 6436SOL    HW230771   1.751   0.126   0.527  0.0351  0.6067  1.0846
 6437SOL     OW30772   1.560   4.158   9.046 -0.7489  0.4686  0.8241
 6437SOL    HW130773   1.472   4.192   9.031 -0.5185  0.6899 -0.0360
 6437SOL    HW230774   1.588   4.207   9.124  0.6307  1.2680 -0.1671
 6438SOL     OW30775   0.423   3.943   0.257  0.4553  0.1347 -0.5220
 6438SOL    HW130776   0.465   3.918   0.174  0.3574 -0.8119 -0.2789
 6438SOL    HW230777   0.459   4.028   0.282 -2.0479  1.0319  0.0262
 6439SOL     OW30778   4.346   2.526   2.707  0.5221  0.0137 -0.1266
 6439SOL    HW130779   4.336   2.612   2.668  0.6863  0.2888  0.4373
 6439SOL    HW230780   4.321   2.545   2.797 -1.7358 -1.6516 -0.4092
 6440SOL     OW30781   1.597   4.686   8.267 -0.3287 -0.4134  0.4380
 6440SOL    HW130782   1.692   4.671   8.263 -0.6666 -2.6195  0.3264
 6440SOL    HW230783   1.555   4.601   8.250  0.1806 -0.8840  1.5489
 6441SOL     OW30784   2.435   3.095   9.583  0.1864 -0.2853  0.2193
 6441SOL    HW130785   2.488   3.175   9.591 -3.7619  2.1598  1.9965
 6441SOL    HW230786   2.469   3.028   9.642 -0.8546 -0.9879  0.0170
 6442SOL     OW30787   4.594   4.443  13.694 -0.4323 -0.4581  0.1830
 6442SOL    HW130788   4.498   4.448  13.688 -0.2869  2.6918  0.5398
 6442SOL    HW230789   4.608   4.355  13.730 -2.1404 -1.6026 -1.9736
 6443SOL     OW30790   1.800   4.271   8.486  0.2177 -0.2951 -0.6337
 6443SOL    HW130791   1.763   4.259   8.574  2.7431 -3.0322  0.0436
 6443SOL    HW230792   1.817   4.365   8.497  2.4353 -0.8070  0.2109
 6444SOL     OW30793   3.015   2.215   2.026  0.8870  0.4949 -0.0576
 6444SOL    HW130794   3.109   2.228   2.040  0.9218  1.1206 -0.8824
 6444SOL    HW230795   2.979   2.289   2.074 -0.6209 -1.9668  2.5924
 6445SOL     OW30796   2.295   3.358   6.215  0.3024  0.3988 -0.4820
 6445SOL    HW130797   2.343   3.340   6.296  0.9740 -1.1654 -1.2117
 6445SOL    HW230798   2.204   3.365   6.241  0.3377 -3.2668  0.5980
 6446SOL     OW30799   2.591   4.611   7.626 -0.0198 -0.3582  0.4251
 6446SOL    HW130800   2.644   4.651   7.557  0.2259 -1.4422 -0.0207
 6446SOL    HW230801   2.645   4.617   7.705 -0.5479  1.4142  0.6549
 6447SOL     OW30802   3.666   3.015   2.520 -0.3152 -0.0114  0.4983
 6447SOL    HW130803   3.705   2.942   2.473 -3.1659  0.2821 -2.3613
 6447SOL    HW230804   3.732   3.027   2.588  0.6668  1.3623 -0.6971
 6448SOL     OW30805   2.398   3.928   5.121  0.4466 -0.1123  0.0275
 6448SOL    HW130806   2.317   3.899   5.163 -0.1254 -0.2399 -1.1813
 6448SOL    HW230807   2.461   3.898   5.187 -0.4077 -0.7348  0.5531
 6449SOL     OW30808   0.333   2.953  17.273 -0.5456 -0.1845 -0.5190
 6449SOL    HW130809   0.318   3.038  17.315 -0.9840 -0.2425 -0.5549
 6449SOL    HW230810   0.420   2.960  17.235 -0.7158 -1.6467 -1.2001
 6450SOL     OW30811   1.132   1.848   3.647 -0.1292  0.0730 -0.3606
 6450SOL    HW130812   1.212   1.901   3.655  0.0172 -0.0632 -0.9421
 6450SOL    HW230813   1.097   1.875   3.563  0.1273 -0.7880 -0.7457
 6451SOL     OW30814   0.664   3.393   6.356 -0.1053 -0.2291 -0.1601
 6451SOL    HW130815   0.655   3.338   6.434 -1.6378  0.3582  0.0806
 6451SOL    HW230816   0.710   3.335   6.296  0.4216  1.7546 -1.6567
 6452SOL     OW30817   2.612   0.968   2.283 -0.0403  0.0047  0.1497
 6452SOL    HW130818   2.664   0.928   2.352  0.0058 -1.3741 -0.6870
 6452SOL    HW230819   2.530   0.927   2.310 -0.7708  2.6603  1.9352
 6453SOL     OW30820   3.831   3.180   2.206  0.2691 -0.2743 -0.5189
 6453SOL    HW130821   3.788   3.144   2.129 -2.4853 -0.0795  0.9336
 6453SOL    HW230822   3.856   3.095   2.243 -2.1988 -0.7910 -0.0840
 6454SOL     OW30823   0.467   3.622   3.789  0.9935 -0.3838 -0.2000
 6454SOL    HW130824   0.539   3.586   3.841  0.5378  0.1067  0.7730
 6454SOL    HW230825   0.525   3.687   3.748  0.6434 -1.5080 -2.4672
 6455SOL     OW30826   1.740   2.812   6.255 -0.5362 -0.6033  0.1627
 6455SOL    HW130827   1.758   2.840   6.345  1.7487 -2.1773  0.1919
 6455SOL    HW230828   1.806   2.865   6.210 -1.3972  2.0043  1.9480
 6456SOL     OW30829   2.650   4.024  16.224  0.1582 -0.2868 -0.1701
 6456SOL    HW130830   2.578   3.981  16.177  0.2231  0.9923 -1.4244
 6456SOL    HW230831   2.710   4.016  16.150 -0.1140 -4.4783  0.0596
 6457SOL     OW30832   1.798   3.942   3.644 -0.8701 -0.1220 -0.0710
 6457SOL    HW130833   1.745   4.002   3.696 -0.4318 -1.0161  1.4288
 6457SOL    HW230834   1.727   3.891   3.605  0.3791  0.5058 -3.1482
 6458SOL     OW30835   0.168   4.617   2.616 -0.6683  0.0087 -0.3781
 6458SOL    HW130836   0.215   4.534   2.618 -0.0199  0.3628 -1.3225
 6458SOL    HW230837   0.204   4.652   2.698 -1.2328  0.4667 -0.3224
 6459SOL     OW30838   3.006   1.349   3.505  0.1993 -0.2459  0.2271
 6459SOL    HW130839   2.993   1.257   3.525 -1.3513  0.5073  2.6965
 6459SOL    HW230840   3.072   1.335   3.437 -1.0609  0.9514 -1.2482
 6460SOL     OW30841   4.359   4.110   6.373 -0.1151 -0.5548  0.2923
 6460SOL    HW130842   4.276   4.125   6.418 -0.2780  1.2916 -0.6437
 6460SOL    HW230843   4.397   4.037   6.422  1.9020  1.9890  2.5128
 6461SOL     OW30844   3.673   2.342   4.712 -0.7056 -0.4535  0.3886
 6461SOL    HW130845   3.652   2.296   4.794 -1.0040 -1.4058 -0.2273
 6461SOL    HW230846   3.614   2.416   4.725 -0.8624 -0.7866  1.5471
 6462SOL     OW30847   0.263   4.364  15.031 -0.4257  0.1370  0.1449
 6462SOL    HW130848   0.354   4.357  15.002  0.2025  1.3934  1.8744
 6462SOL    HW230849   0.206   4.385  14.956 -0.3316  1.0668  0.3409
 6463SOL     OW30850   0.876   4.581   2.395 -0.6958 -0.0877 -0.0280
 6463SOL    HW130851   0.898   4.631   2.474  0.0300  0.4947 -0.6040
 6463SOL    HW230852   0.805   4.633   2.358  1.3679  1.1715 -2.1771
 6464SOL     OW30853   1.634   1.748   8.264  0.3162 -0.3582  0.1514
 6464SOL    HW130854   1.680   1.824   8.299 -0.3265 -1.3881  3.2363
 6464SOL    HW230855   1.712   1.697   8.244 -0.0433 -1.6110  2.0113
 6465SOL     OW30856   0.182   3.554  13.031 -0.1220 -0.0425 -0.1447
 6465SOL    HW130857   0.131   3.482  12.992 -0.2499  0.4048 -0.8037
 6465SOL    HW230858   0.171   3.626  12.970 -2.4711 -0.1872  0.1033
 6466SOL     OW30859   1.378   2.850   9.412 -0.1527 -0.2464  0.3517
 6466SOL    HW130860   1.454   2.851   9.354 -1.0132  1.3653 -0.7431
 6466SOL    HW230861   1.310   2.869   9.348 -1.8294 -0.9321  1.9338
 6467SOL     OW30862   0.900   2.686   9.611  0.0069 -0.5105 -0.5761
 6467SOL    HW130863   0.950   2.618   9.656 -0.6222 -2.6415 -3.1347
 6467SOL    HW230864   0.949   2.763   9.641  2.4525 -1.8663 -1.1030
 6468SOL     OW30865   2.530   2.771   4.082 -0.1927 -0.4102  0.6017
 6468SOL    HW130866   2.497   2.798   4.167  0.2028 -1.3161  1.0505
 6468SOL    HW230867   2.441   2.764   4.047  0.0643 -1.6358  0.1872
 6469SOL     OW30868   2.796   4.506   6.170  0.6214 -0.4667 -1.0245
 6469SOL    HW130869   2.832   4.589   6.140  0.8486 -0.5815 -1.0768
 6469SOL    HW230870   2.743   4.478   6.095 -0.2401  1.0228 -0.9517
 6470SOL     OW30871   4.454   1.238   3.227  0.4061 -0.3555  0.9126
 6470SOL    HW130872   4.422   1.227   3.317 -0.4736  0.6679  0.7322
 6470SOL    HW230873   4.457   1.145   3.207 -1.1366  0.0075 -1.0153
 6471SOL     OW30874   4.075   0.571   4.647 -0.7272  0.7345 -0.5307
 6471SOL    HW130875   4.051   0.486   4.683  0.4650  0.2875 -0.8111
 6471SOL    HW230876   4.153   0.554   4.595 -2.1825 -2.4304 -1.6919
 6472SOL     OW30877   1.564   4.724   4.343 -0.6562 -0.2314  0.0179
 6472SOL    HW130878   1.643   0.042   4.375  0.7287 -2.4950 -0.4555
 6472SOL    HW230879   1.569   4.645   4.397 -1.4854 -0.5061 -0.3102
 6473SOL     OW30880   2.964   0.524   3.546  0.1496  0.2665 -0.0819
 6473SOL    HW130881   2.893   0.551   3.489 -0.3975 -1.0942 -0.0380
 6473SOL    HW230882   3.034   0.567   3.496 -1.5811  3.1982  0.0202
 6474SOL     OW30883   2.736   4.471   8.081  0.5829  0.5943  0.2410
 6474SOL    HW130884   2.795   4.538   8.114  1.0302 -0.0246  0.7039
 6474SOL    HW230885   2.798   4.410   8.041  2.0198  0.5830  2.4938
 6475SOL     OW30886   2.623   0.627   0.737  0.3084  0.3841 -0.3585
 6475SOL    HW130887   2.623   0.541   0.779 -3.4374  1.1999  1.3138
 6475SOL    HW230888   2.638   0.679   0.816 -0.7484  1.4699 -0.8750
 6476SOL     OW30889   0.544   0.068   2.178 -0.6021 -0.1339 -0.1712
 6476SOL    HW130890   0.550   0.110   2.264  0.2599 -0.9278  0.1478
 6476SOL    HW230891   0.460   0.105   2.149  0.6574  1.4225 -1.7831
 6477SOL     OW30892   3.090   1.330   1.971 -0.2861 -0.2665  0.3849
 6477SOL    HW130893   3.062   1.388   2.043 -0.6164  0.2187 -0.1362
 6477SOL    HW230894   3.164   1.378   1.934  0.4631 -0.2971  1.8423
 6478SOL     OW30895   2.414   3.563  17.317  0.8359 -0.1258 -0.0101
 6478SOL    HW130896   2.319   3.564  17.326  0.9460 -0.8640  1.2755
 6478SOL    HW230897   2.444   3.588  17.405  1.2246 -0.4713 -0.0404
 6479SOL     OW30898   2.995   3.654  11.881 -0.0080  0.0980  0.1539
 6479SOL    HW130899   2.910   3.695  11.898  0.1448  0.4211  0.1463
 6479SOL    HW230900   2.973   3.611  11.798  1.6425  1.3369 -0.9301
 6480SOL     OW30901   1.739   1.538   1.155  0.7580  0.2038  0.6157
 6480SOL    HW130902   1.764   1.446   1.164  1.0059  0.0463 -1.8216
 6480SOL    HW230903   1.667   1.550   1.217  0.8409 -1.9623  1.1204
 6481SOL     OW30904   0.132   2.946   2.584 -0.2178  0.5268 -0.8671
 6481SOL    HW130905   0.206   2.935   2.525 -0.6821  0.6578 -1.4779
 6481SOL    HW230906   0.112   3.033   2.550  2.8919  1.2881 -0.6892
 6482SOL     OW30907   0.407   4.318   7.743  0.1659 -0.5067 -0.5142
 6482SOL    HW130908   0.497   4.288   7.747  0.8089  1.8679  2.2548
 6482SOL    HW230909   0.413   4.398   7.691  0.0056 -0.2976 -0.2062
 6483SOL     OW30910   0.392   1.018   4.846 -0.3826  0.1572 -0.0712
 6483SOL    HW130911   0.409   1.052   4.759  0.8730 -2.2280 -0.7413
 6483SOL    HW230912   0.378   0.926   4.824  0.0194 -0.5425  2.5837
 6484SOL     OW30913   0.896   3.169   7.465  0.6219  0.1044 -0.0450
 6484SOL    HW130914   0.899   3.265   7.462  2.5998  0.0438  0.3191
 6484SOL    HW230915   0.982   3.145   7.431  1.3531  0.8298  1.2952
 6485SOL     OW30916   1.645   2.459   8.602  0.0754  0.1048 -0.0448
 6485SOL    HW130917   1.564   2.410   8.618 -0.2953  0.6289 -0.3498
 6485SOL    HW230918   1.646   2.468   8.507  1.0471 -0.9817 -0.1398
 6486SOL     OW30919   3.961   1.993   3.792  0.0624  0.6225 -0.4179
 6486SOL    HW130920   3.869   1.978   3.814  0.1752  2.0477  1.0300
 6486SOL    HW230921   3.994   1.912   3.830 -0.6013  0.5728  0.0498
 6487SOL     OW30922   0.693   3.811  14.987 -0.9568  0.0826  0.4699
 6487SOL    HW130923   0.775   3.860  14.990 -1.6283  1.1378  1.4263
 6487SOL    HW230924   0.717   3.730  15.031  2.0194  0.3437 -0.6905
 6488SOL     OW30925   3.900   4.723   8.400 -0.0784 -0.2914 -0.1387
 6488SOL    HW130926   3.891   0.087   8.438  0.8908  0.1533 -0.9221
 6488SOL    HW230927   3.873   0.016   8.310  2.0529  0.9624 -0.5532
 6489SOL     OW30928   2.264   1.336   9.197  0.2395 -0.5081 -0.6436
 6489SOL    HW130929   2.342   1.377   9.233 -0.6595  0.4794  0.1652
 6489SOL    HW230930   2.205   1.337   9.272  1.8736 -0.3581  0.6410
 6490SOL     OW30931   3.944   0.690  11.182 -0.3273  0.8174 -0.3019
 6490SOL    HW130932   3.931   0.779  11.151  0.6281  0.7924 -0.7642
 6490SOL    HW230933   3.957   0.644  11.099 -0.4563  1.1926 -0.5266
 6491SOL     OW30934   2.045   4.116   5.770  0.1585 -0.6200  0.1907
 6491SOL    HW130935   2.104   4.113   5.845  0.2617 -1.7538  0.0574
 6491SOL    HW230936   2.095   4.095   5.691  1.9017  0.6534  0.9470
 6492SOL     OW30937   1.954   1.399  12.942  0.1659  0.2738 -0.2396
 6492SOL    HW130938   2.016   1.386  13.013 -0.9834  3.3428  1.3075
 6492SOL    HW230939   1.927   1.308  12.926  2.2388 -0.2060 -0.9851
 6493SOL     OW30940   1.894   2.128   1.044  0.5172 -0.1753 -0.3187
 6493SOL    HW130941   1.961   2.191   1.071 -0.2881 -0.6807  2.8366
 6493SOL    HW230942   1.903   2.064   1.115  0.0831 -1.0506 -1.0605
 6494SOL     OW30943   1.419   0.506   8.909 -0.4379  0.5635  0.4028
 6494SOL    HW130944   1.422   0.566   8.835 -1.0134 -0.1014 -0.1612
 6494SOL    HW230945   1.488   0.529   8.971 -1.2415  0.4102  1.3557
 6495SOL     OW30946   1.699   3.989   9.974 -0.1641 -0.2412  0.5389
 6495SOL    HW130947   1.744   4.055  10.027 -0.7911 -0.3942  1.2694
 6495SOL    HW230948   1.617   4.032   9.952  0.3337  0.0866 -0.6746
 6496SOL     OW30949   2.162   2.252   8.896  0.2368 -0.0253 -0.3775
 6496SOL    HW130950   2.253   2.271   8.920  0.3761  1.0384 -1.7240
 6496SOL    HW230951   2.111   2.246   8.977  1.0273 -3.5979 -0.1496
 6497SOL     OW30952   2.868   2.519   3.497 -0.0156 -0.5659  0.9695
 6497SOL    HW130953   2.822   2.470   3.429 -2.3635  1.6015  1.0068
 6497SOL    HW230954   2.952   2.537   3.454 -0.0674 -2.0116  0.2499
 6498SOL     OW30955   2.320   0.440   7.190 -0.0878 -0.1737 -0.1393
 6498SOL    HW130956   2.407   0.403   7.175 -0.1608 -1.3664  2.4583
 6498SOL    HW230957   2.325   0.518   7.134 -0.1543 -1.3345 -1.7459
 6499SOL     OW30958   2.099   3.285   2.124  0.3712  0.0933  0.0103
 6499SOL    HW130959   2.127   3.251   2.040 -0.3871 -2.1067  0.6613
 6499SOL    HW230960   2.184   3.325   2.144 -1.0731  2.8679  0.7662
 6500SOL     OW30961   1.245   3.919   6.027  0.0072  0.6969  0.2351
 6500SOL    HW130962   1.149   3.914   6.026  0.0082  0.3510  1.4387
 6500SOL    HW230963   1.267   3.977   6.100  1.7556  1.0689 -0.6070
 6501SOL     OW30964   3.854   4.553   4.655  0.0542  0.5180 -0.1734
 6501SOL    HW130965   3.893   4.471   4.625 -1.3334 -1.1961  2.7199
 6501SOL    HW230966   3.834   4.596   4.572 -3.8416 -2.1228 -0.6076
 6502SOL     OW30967   4.269   0.232   2.161 -0.2042  0.1891  0.7886
 6502SOL    HW130968   4.194   0.208   2.216  0.8925  1.9666  3.0789
 6502SOL    HW230969   4.337   0.254   2.225  0.7790  1.4554 -0.7061
 6503SOL     OW30970   1.445   3.131   6.873 -0.3122 -0.2038 -0.4729
 6503SOL    HW130971   1.487   3.177   6.946  0.3830  0.7973 -1.4933
 6503SOL    HW230972   1.377   3.090   6.927  1.3226 -0.4014  1.4338
 6504SOL     OW30973   3.747   2.165  12.782 -0.3033 -0.2977 -0.2052
 6504SOL    HW130974   3.776   2.116  12.859 -2.4156 -1.0879  0.0826
 6504SOL    HW230975   3.832   2.190  12.745  0.0175  0.2552  0.8982
 6505SOL     OW30976   4.222   1.737   7.764  0.3823 -0.2645  0.1954
 6505SOL    HW130977   4.160   1.760   7.695 -2.9757  0.0720  3.3082
 6505SOL    HW230978   4.236   1.643   7.753 -1.8970 -0.3237 -2.2338
 6506SOL     OW30979   4.059   4.454   4.366  0.4483 -0.0243 -0.1768
 6506SOL    HW130980   4.073   4.547   4.349  0.4536 -0.1332 -0.7472
 6506SOL    HW230981   4.139   4.419   4.328  0.9215  0.2427  0.5537
 6507SOL     OW30982   1.588   0.251   9.739  0.4148  0.0810  0.2528
 6507SOL    HW130983   1.671   0.218   9.776  1.6446 -0.0123 -2.5994
 6507SOL    HW230984   1.531   0.278   9.811  1.8842  0.0325  1.4324
 6508SOL     OW30985   0.950   0.659   2.103  0.3892  0.0384 -0.2376
 6508SOL    HW130986   0.915   0.585   2.054  2.0572 -0.4975 -0.6052
 6508SOL    HW230987   0.878   0.685   2.161 -0.2401 -2.3906  0.0906
 6509SOL     OW30988   1.039   0.301   3.568 -0.2575  0.6631 -0.4217
 6509SOL    HW130989   1.063   0.390   3.596 -1.0336  1.2340 -1.5464
 6509SOL    HW230990   0.947   0.294   3.593  0.5236 -2.3405  1.5802
 6510SOL     OW30991   3.278   0.805   6.968 -0.3478  0.0497  0.5217
 6510SOL    HW130992   3.352   0.794   6.909 -0.6792  0.0052  0.1105
 6510SOL    HW230993   3.243   0.716   6.979 -0.3216  0.3483  3.0715
 6511SOL     OW30994   3.901   0.030  17.519 -0.0249  0.4811  0.4373
 6511SOL    HW130995   3.816   0.056  17.484 -1.0638 -1.7329  1.3082
 6511SOL    HW230996   3.879   4.675  17.568  0.4857 -1.1530 -1.9415
 6512SOL     OW30997   3.978   3.401   2.135 -0.6582 -0.4591  0.1064
 6512SOL    HW130998   3.919   3.349   2.190 -0.4367 -1.9419 -1.0604
 6512SOL    HW230999   4.061   3.402   2.182 -0.3481  0.3787 -0.4402
 6513SOL     OW31000   0.183   2.176   3.906  0.1599 -0.8440  0.5961
 6513SOL    HW131001   0.105   2.141   3.862  1.6359  2.3187 -4.5591
 6513SOL    HW231002   0.192   2.116   3.980 -2.4623 -0.8866  0.8955
 6514SOL     OW31003   0.341   2.008   2.390  0.4215  0.1995  0.4873
 6514SOL    HW131004   0.397   2.023   2.466  0.3510  1.9629  0.1909
 6514SOL    HW231005   0.254   1.989   2.426  1.1699  1.7663  3.1749
 6515SOL     OW31006   3.687   4.050  17.012  0.0626 -0.4408  0.6854
 6515SOL    HW131007   3.729   4.032  16.928  1.8683  1.7025  1.1259
 6515SOL    HW231008   3.637   3.969  17.002 -0.2461  0.0882 -2.1817
 6516SOL     OW31009   2.793   3.236   8.569  0.5275  0.4147  0.3700
 6516SOL    HW131010   2.750   3.230   8.654  1.2468 -1.9452  0.5641
 6516SOL    HW231011   2.761   3.318   8.533  0.6593  0.1896 -0.2739
 6517SOL     OW31012   1.242   1.524   8.769 -0.6016  0.0401  0.8002
 6517SOL    HW131013   1.316   1.467   8.746 -0.4688  0.7769 -0.5653
 6517SOL    HW231014   1.279   1.608   8.742 -0.3021 -0.0314  0.9877
 6518SOL     OW31015   3.732   3.004   6.772 -1.1751 -0.1577 -0.4389
 6518SOL    HW131016   3.744   2.984   6.865  1.5572  1.3683 -0.4389
 6518SOL    HW231017   3.752   3.097   6.771  0.0010 -0.4111 -1.3226
 6519SOL     OW31018   1.618   0.237   8.293 -0.3522  0.4148  0.0479
 6519SOL    HW131019   1.651   0.148   8.294  0.5886  0.7528 -2.0276
 6519SOL    HW231020   1.564   0.242   8.372 -2.7317  1.9326 -1.6556
 6520SOL     OW31021   1.551   3.169  11.347  0.5786  0.0653 -0.0912
 6520SOL    HW131022   1.530   3.127  11.431 -0.8956 -0.8940 -0.9376
 6520SOL    HW231023   1.489   3.242  11.345 -3.0648 -2.9964 -0.3052
 6521SOL     OW31024   1.766   2.274   7.511 -0.8820 -0.2118  0.1672
 6521SOL    HW131025   1.780   2.187   7.547  0.0270 -0.7023 -1.3652
 6521SOL    HW231026   1.836   2.326   7.551 -1.6744 -0.2046  1.5153
 6522SOL     OW31027   1.746   4.493   9.968 -0.6935 -0.5069 -0.0878
 6522SOL    HW131028   1.813   4.511  10.035 -1.2397  0.3505  0.2280
 6522SOL    HW231029   1.739   4.399   9.981 -0.5831 -0.2657  1.7367
 6523SOL     OW31030   4.026   3.349   1.109 -0.3831 -0.2692  0.4233
 6523SOL    HW131031   4.105   3.372   1.059 -0.5426 -1.7818 -0.5105
 6523SOL    HW231032   3.980   3.292   1.047 -0.5204  0.5324 -0.2196
 6524SOL     OW31033   0.510   1.820   8.984 -0.4281  0.2127 -0.3937
 6524SOL    HW131034   0.431   1.855   9.026 -2.0093 -1.6430 -1.8203
 6524SOL    HW231035   0.524   1.740   9.035  0.9781  0.9892  0.4384
 6525SOL     OW31036   1.148   2.504   5.030 -0.7629  0.0576 -0.2492
 6525SOL    HW131037   1.188   2.559   4.962  1.1554 -0.8539  0.1300
 6525SOL    HW231038   1.056   2.530   5.021 -0.3155  0.7931 -2.7069
 6526SOL     OW31039   1.278   0.999   8.372  0.4160  0.2831 -0.5567
 6526SOL    HW131040   1.355   1.050   8.346  0.7187  1.8544  3.3204
 6526SOL    HW231041   1.241   0.998   8.284  1.0678 -3.6728 -0.7981
 6527SOL     OW31042   4.633   4.453   7.603  0.2170  0.1022  0.2415
 6527SOL    HW131043   4.707   4.404   7.638 -0.1567 -1.9583 -1.9001
 6527SOL    HW231044   4.653   4.453   7.509 -2.1187 -2.5993 -0.2463
 6528SOL     OW31045   2.608   3.201   0.446 -0.2463  0.0395 -0.0089
 6528SOL    HW131046   2.684   3.210   0.503 -0.3463  0.5482  0.0407
 6528SOL    HW231047   2.655   3.204   0.362 -0.3334  2.2179  0.0293
 6529SOL     OW31048   4.211   0.570  14.234 -0.0216  0.3621 -0.2075
 6529SOL    HW131049   4.132   0.614  14.263  0.4453  2.6547 -2.3832
 6529SOL    HW231050   4.272   0.643  14.221  1.0818 -0.8879 -2.1855
 6530SOL     OW31051   2.854   3.956  16.911 -0.2080 -0.0880  0.0728
 6530SOL    HW131052   2.821   4.045  16.926  1.0850  0.4469 -0.2547
 6530SOL    HW231053   2.890   3.966  16.823  0.5067 -1.0083  0.2643
 6531SOL     OW31054   4.685   3.206   7.760 -0.4275 -0.4234  0.3170
 6531SOL    HW131055   0.000   3.120   7.772  0.8848 -0.2190 -2.5293
 6531SOL    HW231056   0.007   3.253   7.829 -2.3020  3.1621 -0.8455
 6532SOL     OW31057   4.472   3.198   7.501 -0.0471 -0.0279 -0.6884
 6532SOL    HW131058   4.487   3.164   7.413  0.2556  0.9047 -1.0021
 6532SOL    HW231059   4.483   3.118   7.551  2.3347  0.7314  0.0097
 6533SOL     OW31060   4.221   0.154  12.733 -0.0113 -0.3263 -0.4790
 6533SOL    HW131061   4.138   0.198  12.718  0.4321  0.8110  0.3723
 6533SOL    HW231062   4.255   0.214  12.800 -0.3605 -0.3122 -0.3190
 6534SOL     OW31063   1.827   3.446   8.113 -0.5474  0.2631 -0.1742
 6534SOL    HW131064   1.837   3.461   8.207  1.4454  0.3093 -0.3882
 6534SOL    HW231065   1.817   3.351   8.115 -1.3385  0.3475 -0.0848
 6535SOL     OW31066   0.070   4.150   1.407  0.8201 -0.6541  0.4411
 6535SOL    HW131067   0.106   4.062   1.414  0.1234 -0.9163  0.7678
 6535SOL    HW231068   0.037   4.164   1.496  0.7572  1.6194  0.0699
 6536SOL     OW31069   0.019   3.986   4.427 -0.0582  0.0558 -0.2026
 6536SOL    HW131070   4.722   4.079   4.432  0.9039  0.3839 -2.3974
 6536SOL    HW231071   4.708   3.957   4.512  2.6487  3.2349  1.9794
 6537SOL     OW31072   3.275   1.463   3.213 -0.5526 -0.1612 -0.0212
 6537SOL    HW131073   3.187   1.487   3.185 -0.2595 -0.4124 -1.1664
 6537SOL    HW231074   3.317   1.459   3.127  0.6797  0.5443  0.5426
 6538SOL     OW31075   0.757   4.674   3.462  0.3926 -0.7869  0.5438
 6538SOL    HW131076   0.796   0.034   3.440 -0.6061  0.2655  2.7883
 6538SOL    HW231077   0.827   4.613   3.437  0.7742 -1.3010  2.8579
 6539SOL     OW31078   3.521   0.371   0.712  0.1035  0.3862 -0.3541
 6539SOL    HW131079   3.497   0.460   0.736  2.2104  1.0787 -0.8152
 6539SOL    HW231080   3.487   0.367   0.622  0.0090 -1.0353 -0.2581
 6540SOL     OW31081   2.492   0.190   1.591 -0.4845  0.3372 -0.1667
 6540SOL    HW131082   2.480   0.241   1.671 -0.9249 -1.2768  0.8017
 6540SOL    HW231083   2.474   0.098   1.610 -0.8646  0.4793  0.1489
 6541SOL     OW31084   1.084   1.098   5.238  0.1304  0.0795 -0.8152
 6541SOL    HW131085   0.992   1.077   5.257  0.6039 -0.6517  0.7093
 6541SOL    HW231086   1.129   1.079   5.320 -0.9997  2.1460  0.2896
 6542SOL     OW31087   1.871   2.989  13.082 -0.3024  0.1735  0.2396
 6542SOL    HW131088   1.852   3.018  12.993 -1.1229 -0.3780  0.2359
 6542SOL    HW231089   1.868   2.894  13.071 -0.2259  0.4071 -1.7946
 6543SOL     OW31090   1.985   2.352   9.420  0.2041 -0.2533 -0.0580
 6543SOL    HW131091   1.902   2.325   9.381  0.7530 -1.9525 -0.0577
 6543SOL    HW231092   1.972   2.333   9.512 -0.2479 -0.6421 -0.2023
 6544SOL     OW31093   0.966   4.241   2.972 -0.1301 -0.3770  0.0790
 6544SOL    HW131094   0.964   4.146   2.979 -0.4952 -0.3855 -0.1534
 6544SOL    HW231095   0.981   4.256   2.878  1.5756  1.2187  0.5904
 6545SOL     OW31096   3.210   2.087  12.697  0.1779  0.0915 -0.4611
 6545SOL    HW131097   3.191   2.174  12.663 -0.1743 -0.5539 -1.9107
 6545SOL    HW231098   3.189   2.031  12.622  1.7166  0.5053 -1.1923
 6546SOL     OW31099   4.547   1.958   2.729 -1.3332  0.2161 -1.0612
 6546SOL    HW131100   4.526   2.051   2.740  0.4340  0.4540  0.3712
 6546SOL    HW231101   4.616   1.952   2.794  0.3888  1.2141 -2.8104
 6547SOL     OW31102   4.078   2.385   3.920  0.1064  0.5516 -0.2206
 6547SOL    HW131103   4.107   2.381   3.829  1.7863 -2.7401  0.4771
 6547SOL    HW231104   3.991   2.424   3.910  0.1180  0.7067  0.2754
 6548SOL     OW31105   1.638   4.588   7.520  0.2875 -0.2612  0.7045
 6548SOL    HW131106   1.733   4.588   7.517  0.2790 -0.3120  0.4175
 6548SOL    HW231107   1.622   4.498   7.493  2.0437  0.0352 -1.2748
 6549SOL     OW31108   3.844   0.891   6.326  0.3402 -0.0450 -0.9767
 6549SOL    HW131109   3.791   0.889   6.247  1.9964  0.0153 -2.0856
 6549SOL    HW231110   3.912   0.827   6.303 -1.5889 -2.5237  0.1584
 6550SOL     OW31111   0.521   0.010   5.451 -0.0849 -0.8144 -0.0003
 6550SOL    HW131112   0.604   4.697   5.480 -0.4782 -3.1123 -1.8507
 6550SOL    HW231113   0.463   4.686   5.509 -0.1480 -0.4185  0.2692
 6551SOL     OW31114   2.496   0.419  10.585 -0.4029 -0.4314 -0.6156
 6551SOL    HW131115   2.462   0.444  10.670  3.0439 -1.7832  1.1525
 6551SOL    HW231116   2.584   0.392  10.611 -1.3187 -1.5815  1.3246
 6552SOL     OW31117   3.869   1.125  14.960  0.2816  0.1074 -0.3264
 6552SOL    HW131118   3.861   1.031  14.945 -2.1907  0.6029 -2.0939
 6552SOL    HW231119   3.935   1.127  15.030 -0.2196  1.5299  0.1152
 6553SOL     OW31120   0.117   2.936   9.572  0.2286  0.1542 -0.1406
 6553SOL    HW131121   0.183   3.005   9.580 -0.6087  0.9458  0.0970
 6553SOL    HW231122   0.053   2.978   9.514  1.3683 -0.2083 -1.6536
 6554SOL     OW31123   3.209   1.892   1.230  0.1609  0.4761  0.0776
 6554SOL    HW131124   3.151   1.860   1.299  0.8997  0.9828  0.9311
 6554SOL    HW231125   3.156   1.882   1.151 -0.1531 -1.2164  0.4907
 6555SOL     OW31126   1.946   0.880  16.454  0.3100  0.2004 -0.2134
 6555SOL    HW131127   1.973   0.969  16.434 -0.8785 -0.1325 -3.2817
 6555SOL    HW231128   1.853   0.883  16.478  0.7889  0.6567  1.5527
 6556SOL     OW31129   4.303   1.815   9.296  0.0924 -0.0741 -0.0688
 6556SOL    HW131130   4.302   1.894   9.351  1.0052  1.1464 -1.7650
 6556SOL    HW231131   4.211   1.815   9.271  0.3472  2.3790 -1.0890
 6557SOL     OW31132   0.640   2.096   3.532 -0.1112  0.2601 -0.0273
 6557SOL    HW131133   0.572   2.031   3.551 -0.3373  0.2130 -0.9855
 6557SOL    HW231134   0.649   2.136   3.618  0.0190 -2.2549  1.1420
 6558SOL     OW31135   3.205   4.469   5.888  0.1854  0.3594  0.9496
 6558SOL    HW131136   3.194   4.405   5.959 -0.6537 -0.6894 -0.1369
 6558SOL    HW231137   3.137   4.443   5.826  1.1886  1.6321 -0.6944
 6559SOL     OW31138   1.514   1.019   0.696 -0.3736  0.0015 -0.5620
 6559SOL    HW131139   1.581   0.963   0.736  0.4754 -1.3034 -3.7671
 6559SOL    HW231140   1.473   1.060   0.772 -1.6991 -0.5908 -0.9471
 6560SOL     OW31141   4.240   0.249   4.858  0.4045  0.8231  0.1631
 6560SOL    HW131142   4.195   0.297   4.928  1.5724 -0.1976  1.6073
 6560SOL    HW231143   4.329   0.263   4.890 -0.1298 -1.3169  2.5425
 6561SOL     OW31144   3.540   2.432   1.538 -0.2514  0.0705  0.3705
 6561SOL    HW131145   3.497   2.452   1.455  0.3429 -0.3583 -0.0361
 6561SOL    HW231146   3.477   2.478   1.593  1.5753  1.7876  1.0288
 6562SOL     OW31147   2.354   1.358   8.772  0.3986 -0.0411 -0.2101
 6562SOL    HW131148   2.398   1.273   8.760 -0.5653 -0.2495 -2.3022
 6562SOL    HW231149   2.406   1.396   8.843 -1.3298  1.7647  0.0721
 6563SOL     OW31150   1.551   0.254   6.830 -0.1244  0.2480 -0.5102
 6563SOL    HW131151   1.604   0.231   6.907  1.5341  2.7716 -0.9160
 6563SOL    HW231152   1.490   0.181   6.817 -0.7666  0.4177  1.6219
 6564SOL     OW31153   2.801   1.672   6.934 -0.0087 -0.1668  0.5783
 6564SOL    HW131154   2.749   1.725   6.873 -2.1038 -2.0214  0.7770
 6564SOL    HW231155   2.752   1.591   6.948 -0.7088  0.4102  1.4776
 6565SOL     OW31156   3.584   0.724   1.733 -0.6233 -0.4204  0.3622
 6565SOL    HW131157   3.534   0.754   1.657 -0.0286  0.2079  0.2263
 6565SOL    HW231158   3.548   0.774   1.807  2.2179  2.0477  0.0578
 6566SOL     OW31159   2.771   1.648  17.281 -0.2168  0.2461  0.4564
 6566SOL    HW131160   2.801   1.710  17.348 -0.2232  0.8119 -0.0647
 6566SOL    HW231161   2.791   1.571  17.333  1.1691  0.7071  0.6105
 6567SOL     OW31162   0.929   1.538  14.890 -0.2121  0.2491 -0.4272
 6567SOL    HW131163   0.959   1.599  14.956 -1.0892  1.3517 -1.0567
 6567SOL    HW231164   0.994   1.536  14.819  0.2147 -0.3045 -0.0222
 6568SOL     OW31165   3.059   1.527   2.181  0.3115  0.0608 -0.0297
 6568SOL    HW131166   2.998   1.551   2.251  0.5794  2.6130 -0.6560
 6568SOL    HW231167   3.111   1.466   2.233 -1.0747  0.6385  2.0461
 6569SOL     OW31168   1.663   1.301   7.287  0.2826 -1.2313 -0.3975
 6569SOL    HW131169   1.570   1.303   7.308  0.4304  2.1000 -0.1462
 6569SOL    HW231170   1.658   1.305   7.192 -1.0943  0.9583 -0.2266
 6570SOL     OW31171   2.990   1.619   0.183 -0.3495  0.3908 -0.2194
 6570SOL    HW131172   2.943   1.567   0.248  1.3725  0.2424  0.9150
 6570SOL    HW231173   3.066   1.638   0.238  1.2154 -0.7500 -1.9974
 6571SOL     OW31174   3.632   4.543   4.256 -0.0023 -0.5081 -0.0548
 6571SOL    HW131175   3.682   4.488   4.196 -1.3712  0.9144 -2.4715
 6571SOL    HW231176   3.595   4.609   4.198 -0.2838 -0.7677 -0.1709
 6572SOL     OW31177   1.342   3.590  11.817  0.0459  0.6308 -0.1316
 6572SOL    HW131178   1.399   3.658  11.781 -1.7138  1.7821 -0.7297
 6572SOL    HW231179   1.320   3.626  11.903  0.8821 -0.6245  0.6103
 6573SOL     OW31180   2.175   4.616   2.575 -0.2317  0.1968 -0.2946
 6573SOL    HW131181   2.083   4.606   2.552 -0.2501 -0.9440  0.2639
 6573SOL    HW231182   2.214   4.529   2.569 -1.6145 -0.3312 -1.4328
 6574SOL     OW31183   3.166   2.426   2.934 -0.0091 -0.0183 -0.3010
 6574SOL    HW131184   3.206   2.382   3.009  0.2661  0.1520 -0.3452
 6574SOL    HW231185   3.220   2.505   2.925 -0.1169  0.1677  0.6727
 6575SOL     OW31186   2.924   1.548   1.112 -0.2836 -0.0843  0.4313
 6575SOL    HW131187   2.978   1.519   1.186 -0.1961  0.6351  0.6435
 6575SOL    HW231188   2.939   1.471   1.057 -1.3401 -2.3778  3.3532
 6576SOL     OW31189   3.696   0.554   6.080 -0.4242 -0.0381 -0.0887
 6576SOL    HW131190   3.680   0.463   6.054  1.0933  0.4216 -2.6771
 6576SOL    HW231191   3.707   0.539   6.174  0.8812 -0.1440 -0.2495
 6577SOL     OW31192   0.379   1.192  10.333  0.5972 -0.6255 -0.6491
 6577SOL    HW131193   0.439   1.267  10.342  1.0993 -0.8854 -1.7604
 6577SOL    HW231194   0.442   1.121  10.345 -0.3161 -1.0210  1.8726
 6578SOL     OW31195   0.648   1.442   6.297  0.3779 -0.3880 -0.7672
 6578SOL    HW131196   0.686   1.421   6.383 -0.0184 -0.0132 -0.4983
 6578SOL    HW231197   0.563   1.399   6.294  0.4658 -0.7134  1.1734
 6579SOL     OW31198   1.874   4.503  15.743  0.0211  0.3162 -0.0131
 6579SOL    HW131199   1.875   4.595  15.769  0.2038 -0.5341  2.9627
 6579SOL    HW231200   1.831   4.464  15.819 -0.9924 -0.6474 -1.0736
 6580SOL     OW31201   0.273   1.552  16.658 -0.3203 -0.5986 -0.0997
 6580SOL    HW131202   0.191   1.526  16.701 -2.3809  2.6957 -1.9988
 6580SOL    HW231203   0.271   1.640  16.696 -2.4560 -1.8624  2.6815
 6581SOL     OW31204   0.434   3.023   9.445 -0.2242 -0.1585  0.2015
 6581SOL    HW131205   0.380   3.049   9.520  1.0077  0.8828  0.7269
 6581SOL    HW231206   0.511   3.079   9.455  0.5952 -1.0350 -1.2099
 6582SOL     OW31207   1.363   0.257   4.519 -0.2228  0.2801  0.5457
 6582SOL    HW131208   1.399   0.218   4.599 -0.7399 -0.9950  0.1594
 6582SOL    HW231209   1.425   0.327   4.496  0.6209 -0.9423 -0.9213
 6583SOL     OW31210   2.725   0.336   3.147 -0.0852  0.4646 -0.4271
 6583SOL    HW131211   2.759   0.247   3.160  0.1358  0.5013 -0.7497
 6583SOL    HW231212   2.647   0.352   3.201 -1.0298  0.6179 -1.8215
 6584SOL     OW31213   3.167   2.066   8.384  0.6525  0.0013 -0.0322
 6584SOL    HW131214   3.118   2.122   8.444  0.0064  1.0998 -1.5990
 6584SOL    HW231215   3.188   2.127   8.313  1.8658 -1.4435 -0.9198
 6585SOL     OW31216   0.120   0.261  13.815  0.2260  0.3763 -0.4620
 6585SOL    HW131217   0.093   0.351  13.837 -1.9041 -0.7365  1.4862
 6585SOL    HW231218   0.214   0.278  13.828 -0.2681 -0.6922  4.8465
 6586SOL     OW31219   0.683   3.755   3.700 -0.0373 -0.4283 -0.7460
 6586SOL    HW131220   0.752   3.695   3.671  1.4357  0.0690  1.7760
 6586SOL    HW231221   0.731   3.835   3.724 -1.4069 -0.1913  1.1801
 6587SOL     OW31222   4.500   1.834   7.496 -0.4000 -0.2497 -0.4291
 6587SOL    HW131223   4.513   1.761   7.557  0.9875  0.5106  0.1750
 6587SOL    HW231224   4.571   1.887   7.531 -1.2341 -0.1648  1.1159
 6588SOL     OW31225   0.701   4.258  12.121 -0.2501  0.3916  0.6313
 6588SOL    HW131226   0.646   4.267  12.044  1.1318  0.6621 -0.3282
 6588SOL    HW231227   0.758   4.335  12.124  0.8960 -0.5339  3.4489
 6589SOL     OW31228   3.775   4.295   2.969  0.8291  0.3453 -0.8942
 6589SOL    HW131229   3.724   4.239   2.911 -0.0097  0.1555  0.0119
 6589SOL    HW231230   3.755   4.269   3.059 -2.1332  1.4113 -1.2519
 6590SOL     OW31231   3.723   4.721   1.190 -0.6171  0.0166 -0.7602
 6590SOL    HW131232   3.805   0.045   1.175 -0.7918 -0.0614 -1.9128
 6590SOL    HW231233   3.738   4.684   1.277 -0.9898 -1.3810 -1.3049
 6591SOL     OW31234   1.718   3.183   5.844  0.1456 -0.1443  0.1346
 6591SOL    HW131235   1.637   3.233   5.833 -0.6425 -1.8966 -2.0808
 6591SOL    HW231236   1.786   3.250   5.850  0.6982 -0.8924  2.2045
 6592SOL     OW31237   4.461   1.535   5.873 -0.6170 -0.4333 -0.6501
 6592SOL    HW131238   4.452   1.564   5.783  0.0225  0.3109 -0.4831
 6592SOL    HW231239   4.436   1.617   5.916 -0.5730 -1.0902  0.6224
 6593SOL     OW31240   3.807   2.524   1.406  0.1776 -0.2998 -0.1951
 6593SOL    HW131241   3.862   2.454   1.370 -1.9821 -1.1113 -1.9234
 6593SOL    HW231242   3.783   2.572   1.327 -1.5801 -1.5779 -0.4382
 6594SOL     OW31243   4.158   0.929   8.240  0.1742 -0.2358 -0.6436
 6594SOL    HW131244   4.242   0.935   8.193  0.9869 -2.6386  0.4542
 6594SOL    HW231245   4.122   0.850   8.198 -0.0344  0.4088 -1.6779
 6595SOL     OW31246   2.124   1.255   0.927 -0.5304 -0.4954 -0.0402
 6595SOL    HW131247   2.108   1.173   0.972  2.6650 -0.1921  1.6151
 6595SOL    HW231248   2.128   1.235   0.833  1.6496  4.8798 -1.1234
 6596SOL     OW31249   3.279   3.542   8.106 -0.2002 -0.1180 -0.3086
 6596SOL    HW131250   3.250   3.574   8.191  1.0372 -0.0213  0.0786
 6596SOL    HW231251   3.239   3.602   8.043  1.3703  1.9902  0.7168
 6597SOL     OW31252   3.906   1.783  16.855  0.4656  0.2853  0.0479
 6597SOL    HW131253   3.834   1.790  16.793  1.9443 -2.4909 -1.9984
 6597SOL    HW231254   3.962   1.720  16.810 -1.5238 -1.3186 -0.1997
 6598SOL     OW31255   3.424   2.527  11.621 -0.5292  0.1752  0.1255
 6598SOL    HW131256   3.509   2.484  11.622 -0.5361  0.1443 -0.6142
 6598SOL    HW231257   3.445   2.611  11.580  2.7196 -0.9301 -0.4978
 6599SOL     OW31258   4.399   4.695  12.837  0.2047 -0.2496 -0.3489
 6599SOL    HW131259   4.434   4.646  12.762 -2.5130  0.0042 -1.7949
 6599SOL    HW231260   4.323   0.014  12.798 -0.8800 -1.3044  0.5616
 6600SOL     OW31261   4.597   0.104   6.054 -0.0007  0.1959 -0.6490
 6600SOL    HW131262   4.514   0.057   6.052 -0.5824  1.2348 -1.5583
 6600SOL    HW231263   4.649   0.030   6.084 -1.7269 -1.0858 -0.8383
 6601SOL     OW31264   1.598   2.860  17.610 -0.3307  0.0302 -0.6723
 6601SOL    HW131265   1.514   2.816  17.626 -0.5584  0.5833 -0.3523
 6601SOL    HW231266   1.659   2.787  17.624  0.5032  0.4691 -2.1060
 6602SOL     OW31267   0.998   1.210   9.461 -0.1404  0.6160  0.4650
 6602SOL    HW131268   0.965   1.262   9.387 -2.8201 -0.2834  1.0189
 6602SOL    HW231269   0.964   1.258   9.536 -0.7113 -1.0534  1.2750
 6603SOL     OW31270   0.699   4.464   3.734  0.2448 -0.5009  0.3173
 6603SOL    HW131271   0.771   4.475   3.673  1.0646 -1.3507  1.1207
 6603SOL    HW231272   0.672   4.374   3.719 -0.5563 -0.2537  0.2795
 6604SOL     OW31273   0.790   4.380   0.722 -0.0040  0.3074  0.0903
 6604SOL    HW131274   0.775   4.437   0.647 -0.4574  1.1390  0.8120
 6604SOL    HW231275   0.719   4.317   0.705 -1.9012  2.3963  0.3878
 6605SOL     OW31276   2.230   0.453  12.576  0.2090  0.8913  0.1064
 6605SOL    HW131277   2.271   0.438  12.491  0.7456  1.2446  0.3023
 6605SOL    HW231278   2.302   0.498  12.621 -0.4927 -0.6038  2.6950
 6606SOL     OW31279   2.635   2.285  11.372 -0.2886  0.0431 -0.2707
 6606SOL    HW131280   2.719   2.280  11.327 -1.1416 -1.9871 -1.6314
 6606SOL    HW231281   2.661   2.264  11.462 -2.0512 -2.1037 -0.2626
 6607SOL     OW31282   1.995   2.685   2.530 -0.4739 -0.1161  0.3169
 6607SOL    HW131283   2.088   2.665   2.532 -0.2797  0.6771 -1.8049
 6607SOL    HW231284   1.993   2.780   2.525  0.5866  0.0032  2.1958
 6608SOL     OW31285   3.321   2.885   5.656  0.1106 -0.8502  0.1061
 6608SOL    HW131286   3.386   2.929   5.601 -1.8986  1.1303 -0.6901
 6608SOL    HW231287   3.359   2.797   5.662  0.1632 -0.7151  1.6844
 6609SOL     OW31288   0.116   0.036   6.794 -0.4282 -0.1879 -0.1951
 6609SOL    HW131289   0.043   4.705   6.820  0.8519 -2.0621 -0.6425
 6609SOL    HW231290   0.171   0.040   6.872  0.0066  1.3608 -0.5785
 6610SOL     OW31291   4.202   1.359  12.369  0.5445  0.0854  0.4757
 6610SOL    HW131292   4.166   1.410  12.442 -2.8292 -0.2913 -0.9012
 6610SOL    HW231293   4.249   1.294  12.421  0.9330 -1.9284 -2.3892
 6611SOL     OW31294   1.069   0.453   5.537  0.2802 -0.0087 -0.4865
 6611SOL    HW131295   0.989   0.413   5.570 -1.0339  2.5883 -0.5275
 6611SOL    HW231296   1.110   0.477   5.620 -1.1357 -1.3075  0.5882
 6612SOL     OW31297   2.512   3.781   7.717 -0.1542  0.3195  0.5783
 6612SOL    HW131298   2.532   3.747   7.629 -1.3245  1.5638 -0.1789
 6612SOL    HW231299   2.510   3.877   7.709  2.1707  0.3903  1.0470
 6613SOL     OW31300   3.337   3.500  13.747  0.2175 -0.0239 -0.1684
 6613SOL    HW131301   3.295   3.542  13.672  1.2161  0.5046 -0.4339
 6613SOL    HW231302   3.363   3.420  13.702  2.7285  1.0485 -0.6506
 6614SOL     OW31303   3.114   3.212   3.616 -0.5116 -0.1238  0.1136
 6614SOL    HW131304   3.207   3.225   3.633 -1.2170  1.1309  2.9852
 6614SOL    HW231305   3.121   3.119   3.636  3.2422  0.0651 -0.2680
 6615SOL     OW31306   2.619   0.889   7.957  0.5602  0.6468  0.4351
 6615SOL    HW131307   2.534   0.846   7.971  1.2396 -1.4590 -1.8374
 6615SOL    HW231308   2.677   0.813   7.948  0.8167  0.8980 -0.0436
 6616SOL     OW31309   1.664   3.488   7.853 -0.4587  0.6685 -0.0444
 6616SOL    HW131310   1.631   3.542   7.924 -2.3072 -0.8002  0.2099
 6616SOL    HW231311   1.738   3.452   7.900 -0.3730  1.1507  0.1874
 6617SOL     OW31312   2.418   2.084  17.245  0.1651  0.0686 -0.5211
 6617SOL    HW131313   2.339   2.077  17.191 -1.2730  0.1778  1.5665
 6617SOL    HW231314   2.468   2.005  17.226  1.2227  0.9951 -1.5788
 6618SOL     OW31315   3.957   3.606  16.261  0.8674 -0.4915  0.0158
 6618SOL    HW131316   3.983   3.696  16.243 -0.7331 -0.5218 -2.4225
 6618SOL    HW231317   3.898   3.592  16.187  0.7543  1.9634 -0.3589
 6619SOL     OW31318   0.878   2.673   8.958  0.3551 -0.1848  0.5610
 6619SOL    HW131319   0.895   2.763   8.931 -0.0053  0.1840  1.5601
 6619SOL    HW231320   0.946   2.637   8.901 -0.4273  2.2455 -1.9302
 6620SOL     OW31321   2.977   1.826   0.495 -0.2754 -0.0989 -0.2318
 6620SOL    HW131322   2.962   1.799   0.585  1.5284 -3.2662 -0.8865
 6620SOL    HW231323   3.011   1.914   0.513  0.5162 -0.3090 -0.7232
 6621SOL     OW31324   0.881   4.049   5.274  0.3919  1.0154 -0.0338
 6621SOL    HW131325   0.843   4.060   5.361 -0.3657  0.5301 -0.3091
 6621SOL    HW231326   0.912   3.959   5.269  0.2575  1.2247 -4.0950
 6622SOL     OW31327   0.449   3.513   5.054 -0.0801  0.8514  0.2908
 6622SOL    HW131328   0.389   3.438   5.056  0.6547  0.2871  1.2487
 6622SOL    HW231329   0.493   3.504   5.138  1.0268 -1.3404 -0.5089
 6623SOL     OW31330   3.005   0.373  17.481  0.2820 -0.2916 -0.3488
 6623SOL    HW131331   3.090   0.380  17.437 -0.4411 -2.0193 -2.0382
 6623SOL    HW231332   3.009   0.283  17.514  2.3053 -0.0348  0.0540
 6624SOL     OW31333   0.250   1.699   3.025  0.2423  0.0983  0.0177
 6624SOL    HW131334   0.174   1.741   3.066 -0.8662 -0.8817 -1.0132
 6624SOL    HW231335   0.232   1.715   2.933  0.0738 -1.8627 -0.2849
 6625SOL     OW31336   2.165   2.405  10.768 -0.0730 -0.1833  0.1129
 6625SOL    HW131337   2.172   2.469  10.698 -0.0601  1.0474  1.2366
 6625SOL    HW231338   2.239   2.424  10.826  1.0924 -1.0816 -1.0621
 6626SOL     OW31339   4.155   1.015  12.121 -0.0702  0.3026 -0.0730
 6626SOL    HW131340   4.211   0.938  12.107  0.8530  1.0007 -0.2276
 6626SOL    HW231341   4.216   1.080  12.155  0.0178  1.1796 -1.9077
 6627SOL     OW31342   4.350   1.568   9.444  0.1410 -0.0537  0.6289
 6627SOL    HW131343   4.377   1.599   9.530  0.2995 -0.4596  0.7250
 6627SOL    HW231344   4.318   1.650   9.404 -0.1481 -0.0882  0.7948
 6628SOL     OW31345   2.025   4.002   2.935 -0.6281 -0.2448  0.5691
 6628SOL    HW131346   1.988   3.915   2.948  0.9402 -1.1660 -1.1278
 6628SOL    HW231347   1.956   4.062   2.964 -0.4691 -0.2510  0.9553
 6629SOL     OW31348   0.785   3.260   4.561  0.1156 -0.3406 -0.4415
 6629SOL    HW131349   0.811   3.352   4.550  0.8671 -0.5654 -0.5648
 6629SOL    HW231350   0.766   3.271   4.654 -0.9351  1.1563 -0.8256
 6630SOL     OW31351   2.119   2.346   8.656  0.3084  0.4817 -0.7616
 6630SOL    HW131352   2.130   2.311   8.745  1.3125 -0.8376 -1.4136
 6630SOL    HW231353   2.199   2.398   8.650  0.8437 -0.3290 -0.6586
 6631SOL     OW31354   2.615   0.621   6.226 -0.2445 -0.0125 -0.5208
 6631SOL    HW131355   2.696   0.571   6.234 -0.4278 -0.5259 -1.8765
 6631SOL    HW231356   2.647   0.702   6.188  0.3707 -0.4451 -0.9244
 6632SOL     OW31357   2.719   2.387   9.033 -0.2779  1.0392 -0.3140
 6632SOL    HW131358   2.661   2.462   9.026  0.0048  1.3803  1.0651
 6632SOL    HW231359   2.665   2.322   9.077  1.1037 -1.1279 -1.8178
 6633SOL     OW31360   2.089   1.701  14.950 -0.0231 -0.1150 -0.1247
 6633SOL    HW131361   2.143   1.628  14.920 -0.5081  0.2813 -1.9421
 6633SOL    HW231362   2.031   1.678  15.022  0.3642  0.7389  0.4665
 6634SOL     OW31363   0.721   1.872   2.230  0.6302 -0.0213 -0.0651
 6634SOL    HW131364   0.632   1.867   2.264  1.0617 -1.9295  0.7884
 6634SOL    HW231365   0.722   1.956   2.185 -3.0359 -0.7274 -1.4963
 6635SOL     OW31366   4.414   1.471   4.673  0.2003  0.6949 -0.0828
 6635SOL    HW131367   4.363   1.552   4.676 -1.0539 -0.1138  0.1407
 6635SOL    HW231368   4.453   1.475   4.761  0.4558 -2.0003 -0.0979
 6636SOL     OW31369   2.851   0.173   6.437  0.0328  0.1544  0.3211
 6636SOL    HW131370   2.837   0.263   6.468 -1.3250 -0.3543  1.2046
 6636SOL    HW231371   2.924   0.193   6.379 -0.2419 -1.6579 -0.6140
 6637SOL     OW31372   3.628   1.424  15.873 -0.4866  0.4503  0.0312
 6637SOL    HW131373   3.631   1.495  15.937  0.2593 -0.2516  0.7765
 6637SOL    HW231374   3.717   1.398  15.894 -0.3480 -0.2579 -1.4008
 6638SOL     OW31375   4.243   4.592   7.298  0.4123 -0.2601 -0.0825
 6638SOL    HW131376   4.198   4.573   7.380  2.3721 -1.0466  0.8338
 6638SOL    HW231377   4.334   4.586   7.329  0.8198 -0.2532 -1.2753
 6639SOL     OW31378   1.701   0.430   1.426  0.5186 -0.4317 -0.4702
 6639SOL    HW131379   1.617   0.472   1.443  0.3077 -0.2810 -1.8817
 6639SOL    HW231380   1.680   0.341   1.400  1.3336 -0.6263 -0.4630
 6640SOL     OW31381   1.431   1.249   1.653 -0.0609 -0.6244 -0.3176
 6640SOL    HW131382   1.372   1.295   1.712  1.6467 -0.1700  1.0512
 6640SOL    HW231383   1.462   1.173   1.703  1.4926  1.3003  1.6903
 6641SOL     OW31384   2.836   3.641   4.060 -0.5260 -0.3048 -0.0393
 6641SOL    HW131385   2.858   3.548   4.048 -0.5689 -0.3609  0.3130
 6641SOL    HW231386   2.798   3.660   3.974 -1.8251 -3.2386 -0.1053
 6642SOL     OW31387   0.232   0.083   1.989  0.3649  0.3598  0.1143
 6642SOL    HW131388   0.289   0.150   1.952 -0.9457  1.0760 -0.5933
 6642SOL    HW231389   0.171   0.131   2.045 -2.5565  0.4121 -3.0637
 6643SOL     OW31390   0.207   2.466   0.523  0.1107  0.3153 -0.1615
 6643SOL    HW131391   0.180   2.476   0.614 -0.3726 -3.3605  0.1149
 6643SOL    HW231392   0.299   2.493   0.530  0.0213  0.3947  0.7323
 6644SOL     OW31393   1.076   3.361   3.342 -0.3905  0.2084 -0.6836
 6644SOL    HW131394   1.023   3.304   3.398 -0.0197  0.7985  0.2789
 6644SOL    HW231395   1.048   3.333   3.256 -1.3090  0.9642 -0.6378
 6645SOL     OW31396   2.511   1.711   3.834  0.1226  0.2662 -0.6306
 6645SOL    HW131397   2.482   1.720   3.925 -1.9556 -1.1677 -1.1469
 6645SOL    HW231398   2.604   1.721   3.854 -0.2455  0.5687  0.9594
 6646SOL     OW31399   3.847   4.494   3.693  0.6497 -0.4442  0.3174
 6646SOL    HW131400   3.906   4.421   3.711  0.9584  0.5136  3.1718
 6646SOL    HW231401   3.898   4.548   3.632  1.6964 -0.6479  0.9989
 6647SOL     OW31402   2.571   1.204   2.583 -0.1455  0.3612  0.0380
 6647SOL    HW131403   2.554   1.218   2.676  1.8016 -3.0909  0.9094
 6647SOL    HW231404   2.661   1.171   2.590 -0.0738  0.7183  0.7577
 6648SOL     OW31405   0.195   2.978  17.019  0.6335 -0.3871  0.0035
 6648SOL    HW131406   0.133   2.998  16.949 -0.3533 -0.9119  0.7287
 6648SOL    HW231407   0.263   2.940  16.965 -0.8044  0.1431 -2.1811
 6649SOL     OW31408   1.255   2.281   4.637  0.2296 -0.5412 -0.3064
 6649SOL    HW131409   1.168   2.318   4.620 -0.0733 -1.2712 -0.3832
 6649SOL    HW231410   1.249   2.209   4.574  2.6394 -0.9094 -0.1074
 6650SOL     OW31411   3.599   0.762   7.048  0.4280 -0.6821 -0.1549
 6650SOL    HW131412   3.581   0.764   6.954 -2.2104  0.4570  0.3554
 6650SOL    HW231413   3.598   0.668   7.064 -0.5301 -0.5504  0.5813
 6651SOL     OW31414   1.014   2.430   8.216 -0.5463 -0.7509  0.9719
 6651SOL    HW131415   1.037   2.346   8.255 -1.3373 -1.3402  0.1884
 6651SOL    HW231416   1.098   2.475   8.219 -0.1170 -1.6054  1.6754
 6652SOL     OW31417   4.111   0.288   5.704  0.2694 -0.0814  0.3743
 6652SOL    HW131418   4.066   0.261   5.624  0.2292  0.9233  0.0548
 6652SOL    HW231419   4.198   0.305   5.667 -0.7550 -0.0887 -2.0395
 6653SOL     OW31420   3.041   4.452  11.880  0.3731 -0.0588  0.9008
 6653SOL    HW131421   2.968   4.392  11.898  0.2783 -0.2973 -0.3237
 6653SOL    HW231422   3.060   4.435  11.788 -0.2064  1.1754  0.5626
 6654SOL     OW31423   2.435   3.793   9.680  0.0079  0.2523 -0.2566
 6654SOL    HW131424   2.480   3.802   9.596 -2.2042 -0.4623 -1.5188
 6654SOL    HW231425   2.388   3.710   9.672 -0.4466  0.6620 -1.8803
 6655SOL     OW31426   3.149   0.447  13.875 -0.4006 -0.1829 -0.3465
 6655SOL    HW131427   3.065   0.423  13.837 -0.2491 -0.1348 -0.7123
 6655SOL    HW231428   3.207   0.474  13.803  1.4370 -0.8110  0.8870
 6656SOL     OW31429   3.904   3.298   5.820  0.0416  0.4121  0.3310
 6656SOL    HW131430   3.819   3.334   5.843  1.0757  1.5367  2.3585
 6656SOL    HW231431   3.931   3.258   5.903 -1.1895  0.0689  0.5656
 6657SOL     OW31432   2.096   1.879   4.906  0.5456  0.6015 -0.8485
 6657SOL    HW131433   2.056   1.865   4.820 -2.0272 -0.3078  0.4998
 6657SOL    HW231434   2.023   1.839   4.954  1.9308 -1.0591 -0.1340
 6658SOL     OW31435   4.263   2.044   1.094  0.3094  0.6793 -0.2520
 6658SOL    HW131436   4.196   2.004   1.149 -0.9806  0.5892 -1.8788
 6658SOL    HW231437   4.251   1.980   1.024 -2.7521  0.2256  0.6934
 6659SOL     OW31438   0.104   0.999  12.667 -0.1436 -0.1068  0.4014
 6659SOL    HW131439   0.140   0.913  12.646 -0.4154 -0.5979  1.9576
 6659SOL    HW231440   0.178   1.055  12.643 -2.0422  2.2042 -0.0592
 6660SOL     OW31441   3.824   1.925   8.505  0.0882 -0.2519  0.3045
 6660SOL    HW131442   3.831   2.017   8.531  2.4644  0.4526 -2.8841
 6660SOL    HW231443   3.872   1.935   8.423  0.0039 -0.2292  0.2577
 6661SOL     OW31444   4.453   3.563  17.621  0.0544 -0.0826 -0.0270
 6661SOL    HW131445   4.484   3.528   0.006 -0.5395 -0.8674 -0.1343
 6661SOL    HW231446   4.470   3.478  17.581  0.5931 -0.3352  0.7387
 6662SOL     OW31447   3.546   0.676   2.502  0.9291 -0.0859 -0.2591
 6662SOL    HW131448   3.562   0.753   2.555  0.2072 -0.6016  0.6960
 6662SOL    HW231449   3.499   0.616   2.559 -0.3335 -0.5166 -1.7526
 6663SOL     OW31450   4.609   1.152   3.902 -0.1441 -0.2834  0.4118
 6663SOL    HW131451   4.668   1.076   3.905  0.9702  0.5151 -1.4967
 6663SOL    HW231452   4.621   1.190   3.989 -2.2495 -2.4154  1.6383
 6664SOL     OW31453   0.691   3.264   6.649  0.0008 -0.0550 -0.0403
 6664SOL    HW131454   0.757   3.275   6.717 -0.3004 -1.9781  0.5579
 6664SOL    HW231455   0.612   3.247   6.699  0.5063 -2.2006  0.0074
 6665SOL     OW31456   0.402   4.411  13.684 -0.2738  0.3937  0.0799
 6665SOL    HW131457   0.481   4.464  13.668  1.2736 -1.9714 -0.1394
 6665SOL    HW231458   0.361   4.396  13.600  1.5823 -1.7362 -0.4631
 6666SOL     OW31459   4.470   3.198   9.030  0.2409 -0.2211 -0.1147
 6666SOL    HW131460   4.515   3.249   8.963  0.6194  0.9166  1.0110
 6666SOL    HW231461   4.432   3.138   8.965 -2.3299 -0.2843  1.4657
 6667SOL     OW31462   3.850   0.746  15.244 -0.0911 -0.9895 -0.4593
 6667SOL    HW131463   3.881   0.834  15.266  1.2135 -0.9777 -2.4056
 6667SOL    HW231464   3.763   0.739  15.283 -1.2374 -0.3443 -2.9341
 6668SOL     OW31465   3.062   4.176  10.358 -0.3422 -0.2914 -0.2220
 6668SOL    HW131466   3.011   4.241  10.408 -0.4789  0.6047 -1.5237
 6668SOL    HW231467   3.020   4.176  10.271 -1.1019 -1.1818  0.1414
 6669SOL     OW31468   3.489   1.898  11.104  0.1349  0.2568 -0.4571
 6669SOL    HW131469   3.502   1.810  11.068  0.4718  0.9497 -2.0174
 6669SOL    HW231470   3.414   1.873  11.158  0.5633 -0.2455 -0.0828
 6670SOL     OW31471   0.027   3.180   3.255 -0.5312 -0.2577  0.0140
 6670SOL    HW131472   0.022   3.192   3.350  0.5635 -1.2128  0.1919
 6670SOL    HW231473   4.693   3.104   3.250 -0.1334 -0.5930  0.5370
 6671SOL     OW31474   2.198   1.575   2.917 -0.7812  1.0234 -0.1008
 6671SOL    HW131475   2.258   1.630   2.967 -0.4020  0.1953  0.3664
 6671SOL    HW231476   2.174   1.519   2.991 -0.1001  0.2549 -0.4630
 6672SOL     OW31477   0.360   2.875   1.045  0.6982  0.0285 -0.2448
 6672SOL    HW131478   0.374   2.904   0.955 -2.3622 -0.0912 -0.7442
 6672SOL    HW231479   0.265   2.876   1.055  0.8591 -0.8408  1.4111
 6673SOL     OW31480   4.245   2.486   6.319 -0.4443  0.4857  0.3286
 6673SOL    HW131481   4.159   2.527   6.328 -0.5685  0.2418  0.2556
 6673SOL    HW231482   4.264   2.514   6.230 -1.3342 -1.2476 -0.4075
 6674SOL     OW31483   1.132   2.316   1.368 -0.3693  0.4477 -0.7175
 6674SOL    HW131484   1.101   2.253   1.434 -0.6119  1.2307 -0.0767
 6674SOL    HW231485   1.137   2.259   1.292 -0.0400  0.8998 -1.0298
 6675SOL     OW31486   3.241   3.296   3.245  0.3571  0.2205 -0.1732
 6675SOL    HW131487   3.197   3.213   3.263 -2.4125  2.0487  1.6314
 6675SOL    HW231488   3.324   3.283   3.290 -1.4966 -2.4274  2.5239
 6676SOL     OW31489   3.928   0.949   5.539 -0.3927 -0.2297  0.1795
 6676SOL    HW131490   3.965   0.877   5.487 -1.1178  0.6714 -1.5909
 6676SOL    HW231491   3.836   0.920   5.544 -0.9731  1.6872  0.3519
 6677SOL     OW31492   4.453   1.734  16.783 -0.1412 -0.2901  0.4094
 6677SOL    HW131493   4.368   1.761  16.818  0.3394  1.8180 -0.0814
 6677SOL    HW231494   4.456   1.642  16.811  0.2960 -0.0462  1.1344
 6678SOL     OW31495   0.463   2.710   4.963  0.5291  0.1237  0.3710
 6678SOL    HW131496   0.392   2.649   4.983  0.4979  1.2953  3.8854
 6678SOL    HW231497   0.528   2.668   5.020  0.1277 -1.7342 -0.5347
 6679SOL     OW31498   1.454   3.420   1.849  0.1669  0.4160  0.0511
 6679SOL    HW131499   1.542   3.434   1.813  1.2379  0.6561  2.7411
 6679SOL    HW231500   1.471   3.448   1.939  1.2509 -0.0788 -0.0009
 6680SOL     OW31501   3.781   0.457   2.978 -0.0564 -0.2494  0.0883
 6680SOL    HW131502   3.692   0.472   2.945  0.6449 -3.6761 -3.4640
 6680SOL    HW231503   3.821   0.456   2.891  0.8722  1.2781  0.5011
 6681SOL     OW31504   1.813   3.866   1.414  0.3721 -0.2095  0.1120
 6681SOL    HW131505   1.851   3.782   1.391  0.0534 -0.6234  1.1150
 6681SOL    HW231506   1.769   3.887   1.332  1.9396  0.3654 -0.5918
 6682SOL     OW31507   4.357   1.016   2.654 -0.1640  0.3357 -0.0967
 6682SOL    HW131508   4.306   0.966   2.591 -0.2373 -0.6726  0.7542
 6682SOL    HW231509   4.390   1.084   2.596  1.3595 -0.5566 -0.2884
 6683SOL     OW31510   0.747   3.681   6.971  0.3173 -0.8519  0.4179
 6683SOL    HW131511   0.659   3.643   6.962  0.2857 -0.5114 -0.6651
 6683SOL    HW231512   0.754   3.700   7.065 -0.1895 -2.0170  0.6941
 6684SOL     OW31513   4.260   4.548   0.472  0.2504  0.0925  0.5453
 6684SOL    HW131514   4.250   4.472   0.528 -1.0558 -0.4419 -0.4144
 6684SOL    HW231515   4.316   4.515   0.402 -1.2499 -0.5087 -0.3672
 6685SOL     OW31516   3.394   2.571   4.576  0.1339  0.1574 -0.2495
 6685SOL    HW131517   3.349   2.590   4.494 -0.6900 -0.6866 -0.0046
 6685SOL    HW231518   3.340   2.495   4.600  2.6693 -2.2827 -2.3035
 6686SOL     OW31519   4.108   3.823   2.987  0.3902 -0.3816  0.4566
 6686SOL    HW131520   4.119   3.741   3.035 -0.1769 -0.5023  0.3869
 6686SOL    HW231521   4.173   3.808   2.918 -0.5960  1.8852 -0.9443
 6687SOL     OW31522   1.531   0.787   5.563  0.1543  0.2175 -0.3371
 6687SOL    HW131523   1.585   0.725   5.513  0.6150  0.5077 -0.1963
 6687SOL    HW231524   1.563   0.776   5.652 -0.8600 -0.6730 -0.0793
 6688SOL     OW31525   2.893   4.383   4.637 -0.3047  0.3098 -0.7092
 6688SOL    HW131526   2.956   4.419   4.575  0.2206  0.6881  0.0608
 6688SOL    HW231527   2.815   4.394   4.582 -1.4398  3.8946  1.6799
 6689SOL     OW31528   3.063   0.699   2.007 -0.1249  0.1391 -0.0546
 6689SOL    HW131529   3.128   0.736   2.065  0.0048  2.2601 -1.5712
 6689SOL    HW231530   3.077   0.763   1.938 -0.7834  1.0679  0.6819
 6690SOL     OW31531   4.193   2.433  10.994 -0.0505  0.5977 -0.0834
 6690SOL    HW131532   4.264   2.380  11.029 -0.5196  0.3637  0.5325
 6690SOL    HW231533   4.142   2.363  10.952  2.2452 -1.9132  1.3050
 6691SOL     OW31534   1.504   1.444   9.263  0.7532 -0.0661  0.5627
 6691SOL    HW131535   1.447   1.387   9.314 -0.5968  0.3183 -0.5102
 6691SOL    HW231536   1.491   1.527   9.310 -1.1440  0.0497 -0.1678
 6692SOL     OW31537   0.671   0.127  15.823 -0.2982  0.1317 -0.2421
 6692SOL    HW131538   0.618   0.168  15.891 -0.9314  0.1267 -0.7402
 6692SOL    HW231539   0.676   0.195  15.756  1.1553  0.9605  0.6985
 6693SOL     OW31540   3.515   0.870  12.506  0.6463 -0.1907 -0.1831
 6693SOL    HW131541   3.506   0.923  12.426  0.3797  0.6060  0.3724
 6693SOL    HW231542   3.607   0.885  12.524  0.5153  0.7360 -0.2726
 6694SOL     OW31543   1.191   3.714   9.506 -0.4384  0.6578  0.0910
 6694SOL    HW131544   1.173   3.752   9.592 -0.1464  1.1320 -0.0531
 6694SOL    HW231545   1.269   3.662   9.524  0.4919  0.9359 -3.1096
 6695SOL     OW31546   1.650   1.179  11.145  0.2456  0.4944  0.3406
 6695SOL    HW131547   1.730   1.200  11.097 -0.0858 -2.2442 -1.4284
 6695SOL    HW231548   1.614   1.267  11.156 -2.4727 -0.9744  2.9672
 6696SOL     OW31549   1.620   4.097   0.443  0.1282  0.2494  0.4014
 6696SOL    HW131550   1.675   4.027   0.406  0.5771  0.1908  1.1818
 6696SOL    HW231551   1.678   4.151   0.497 -0.4324 -0.1993  1.4466
 6697SOL     OW31552   2.008   1.989   1.940  0.0503 -0.5204 -0.0784
 6697SOL    HW131553   2.047   2.063   1.894  0.5307 -0.8315 -0.1761
 6697SOL    HW231554   1.929   1.963   1.892  0.0216 -0.3314 -0.1341
 6698SOL     OW31555   1.947   3.601   3.932  0.3342  0.0525 -0.1024
 6698SOL    HW131556   2.001   3.627   4.006 -0.1158  0.4779  0.0809
 6698SOL    HW231557   1.889   3.540   3.978  0.8461  0.6547  1.3247
 6699SOL     OW31558   4.234   3.535   5.516 -0.1736 -0.3688  0.0531
 6699SOL    HW131559   4.150   3.577   5.533 -0.2111 -0.1205 -0.7341
 6699SOL    HW231560   4.196   3.450   5.538 -2.1506  1.0176  2.0410
 6700SOL     OW31561   1.420   2.012  14.971 -0.3142  0.0206 -0.0835
 6700SOL    HW131562   1.396   2.078  15.037  0.3673 -0.6198  0.8030
 6700SOL    HW231563   1.350   1.952  14.998 -1.0328  1.6067  1.6069
 6701SOL     OW31564   3.386   0.187   3.065 -0.1031  0.0262 -0.0363
 6701SOL    HW131565   3.469   0.171   3.019  0.4869  1.8464  0.3522
 6701SOL    HW231566   3.393   0.282   3.077 -2.4050 -0.0824  1.9327
 6702SOL     OW31567   3.162   3.509  13.499  0.2427 -0.0746 -0.0314
 6702SOL    HW131568   3.186   3.577  13.436 -0.0302 -0.5527 -0.6532
 6702SOL    HW231569   3.067   3.512  13.487  0.3868 -0.9817 -1.5328
 6703SOL     OW31570   3.497   3.578   7.708  0.0260 -0.8618  0.3821
 6703SOL    HW131571   3.505   3.522   7.630  0.1650 -1.0483  0.5323
 6703SOL    HW231572   3.407   3.552   7.728 -1.2445  2.7788 -0.6123
 6704SOL     OW31573   1.268   2.148   8.047 -0.0574  0.3638 -0.1525
 6704SOL    HW131574   1.234   2.133   8.135 -0.1693 -0.0755 -0.2737
 6704SOL    HW231575   1.193   2.118   7.995 -1.6354  0.2115  2.1889
 6705SOL     OW31576   0.116   0.819  12.434  0.6372  0.3319  0.1092
 6705SOL    HW131577   0.066   0.803  12.354 -2.6214  0.2244  2.1685
 6705SOL    HW231578   0.206   0.823  12.401  0.7358  1.4670  0.5151
 6706SOL     OW31579   1.074   3.200  16.758  0.0645  0.3742  0.2578
 6706SOL    HW131580   1.032   3.123  16.720 -0.8388  0.9203  0.1277
 6706SOL    HW231581   1.165   3.175  16.743  0.5120  1.3097  1.4089
 6707SOL     OW31582   0.304   0.439   8.296 -0.0737 -0.1631  0.2995
 6707SOL    HW131583   0.241   0.382   8.251  1.7446 -0.6165 -1.6910
 6707SOL    HW231584   0.248   0.515   8.311 -0.5464 -0.2715 -0.8971
 6708SOL     OW31585   1.013   3.021   1.200  0.3368 -0.2721 -0.1292
 6708SOL    HW131586   1.048   2.934   1.180  2.5511  0.0007  2.4715
 6708SOL    HW231587   0.929   2.998   1.239  0.3200 -1.0343 -0.6258
 6709SOL     OW31588   2.141   2.529  11.443  0.6228  0.4011 -0.2914
 6709SOL    HW131589   2.083   2.601  11.469  1.5774  1.7611 -1.9610
 6709SOL    HW231590   2.114   2.459  11.502  1.0679 -0.1572 -0.7500
 6710SOL     OW31591   2.301   2.000   2.069 -0.4330  0.2062  0.7984
 6710SOL    HW131592   2.376   2.058   2.083 -0.5015  0.3220  0.6926
 6710SOL    HW231593   2.228   2.057   2.044 -1.2794 -2.4514 -2.8424
 6711SOL     OW31594   3.194   0.051   5.799 -0.0413 -0.3576 -0.2522
 6711SOL    HW131595   3.160   4.688   5.781 -1.1744  0.4091 -1.7847
 6711SOL    HW231596   3.272   0.034   5.852  0.5208  1.6054 -0.4488
 6712SOL     OW31597   3.181   2.115   5.810  0.1291 -0.0117 -0.0790
 6712SOL    HW131598   3.142   2.201   5.793 -1.1648 -0.1172  2.3567
 6712SOL    HW231599   3.196   2.075   5.724  1.0612  0.7993 -0.2907
 6713SOL     OW31600   3.833   1.504   5.702 -0.6456  0.0326  0.2670
 6713SOL    HW131601   3.847   1.505   5.607  1.1058  0.7562  0.5249
 6713SOL    HW231602   3.924   1.514   5.731 -0.0845 -0.4179 -1.3198
 6714SOL     OW31603   0.386   0.315   7.960 -0.0583 -0.8278 -0.1141
 6714SOL    HW131604   0.333   0.369   7.902  0.5892  1.2463  1.2262
 6714SOL    HW231605   0.474   0.329   7.926 -0.5971  1.3189 -0.6209
 6715SOL     OW31606   4.658   0.855   8.585 -0.4630  0.8501  0.7684
 6715SOL    HW131607   4.655   0.831   8.677 -2.2001 -1.2587  0.1684
 6715SOL    HW231608   0.011   0.806   8.558 -0.3707  0.8693  1.0018
 6716SOL     OW31609   0.852   4.582   8.037 -0.0837  1.0628  0.1021
 6716SOL    HW131610   0.770   4.578   8.086 -0.5290 -0.3706 -0.7593
 6716SOL    HW231611   0.823   4.580   7.946  0.5008 -0.0659 -0.0597
 6717SOL     OW31612   2.247   1.907  16.446 -0.0241 -0.2340 -0.2842
 6717SOL    HW131613   2.318   1.966  16.470 -0.5863 -0.5861  2.2645
 6717SOL    HW231614   2.290   1.839  16.394  1.1565  0.5776 -0.3685
 6718SOL     OW31615   3.693   1.489   4.747 -0.3563 -0.2010 -0.1918
 6718SOL    HW131616   3.780   1.493   4.786  0.8367 -2.5991 -2.5671
 6718SOL    HW231617   3.688   1.575   4.706  1.3863 -0.1855 -0.3783
 6719SOL     OW31618   4.057   3.167   1.300 -0.4581 -0.0811  0.2316
 6719SOL    HW131619   4.136   3.134   1.259 -1.4506 -0.8530 -1.0678
 6719SOL    HW231620   4.038   3.237   1.238 -0.7957 -0.1384  0.2693
 6720SOL     OW31621   1.972   2.139   6.469  0.1061  0.6180  0.0758
 6720SOL    HW131622   2.046   2.160   6.411 -1.7576  0.0484 -2.5204
 6720SOL    HW231623   1.943   2.058   6.427 -0.2799 -0.3686  2.2681
 6721SOL     OW31624   4.021   2.260   4.151  0.0134  0.2147  0.2105
 6721SOL    HW131625   4.099   2.276   4.098  0.5020 -1.1268  0.4971
 6721SOL    HW231626   3.985   2.185   4.104 -0.6257  1.0537 -0.6383
 6722SOL     OW31627   1.532   2.718   3.703  0.3956  0.0525 -0.6019
 6722SOL    HW131628   1.540   2.752   3.614  0.5554 -0.6460 -0.8560
 6722SOL    HW231629   1.507   2.796   3.753  3.1236  1.1247 -0.9425
 6723SOL     OW31630   0.369   1.401   6.880  0.8877 -0.3532 -0.6463
 6723SOL    HW131631   0.320   1.401   6.963 -0.5440  0.2331 -1.4952
 6723SOL    HW231632   0.451   1.443   6.905  0.8571 -0.5829 -0.1445
 6724SOL     OW31633   4.544   2.506  13.630 -0.6179  0.2373 -0.0854
 6724SOL    HW131634   4.521   2.418  13.600  0.0753 -0.6655  2.0332
 6724SOL    HW231635   4.467   2.562  13.619  0.3748  1.1987 -2.0463
 6725SOL     OW31636   3.966   1.694   6.543 -0.3118  0.2063 -0.3415
 6725SOL    HW131637   3.888   1.665   6.494 -0.3421  0.1680 -0.2706
 6725SOL    HW231638   3.964   1.789   6.533  0.9400  0.4953  2.2205
 6726SOL     OW31639   0.589   1.452   7.038  0.2508  0.1442  0.0948
 6726SOL    HW131640   0.619   1.525   6.984  1.2578 -2.6301 -3.1266
 6726SOL    HW231641   0.604   1.497   7.121 -2.1601 -2.1168  1.7692
 6727SOL     OW31642   4.449   4.188   9.803  0.6522  0.0151 -0.0499
 6727SOL    HW131643   4.397   4.241   9.863 -0.4625 -1.5884  0.3950
 6727SOL    HW231644   4.537   4.216   9.826  1.2340 -1.2075 -0.8037
 6728SOL     OW31645   2.974   4.422   7.374 -0.3444  0.0974  0.2782
 6728SOL    HW131646   2.892   4.451   7.333 -0.1028  0.0171 -0.2606
 6728SOL    HW231647   2.953   4.331   7.395 -1.6199  0.3400  0.0530
 6729SOL     OW31648   2.659   3.149   6.211 -0.1630 -0.2532  0.5758
 6729SOL    HW131649   2.700   3.235   6.208  1.5883 -1.1211 -0.2042
 6729SOL    HW231650   2.673   3.134   6.304 -1.3647 -0.0362  0.7930
 6730SOL     OW31651   3.918   0.437   2.747  0.4595  0.0672 -0.3380
 6730SOL    HW131652   3.885   0.474   2.665 -0.8665  0.6985  0.4713
 6730SOL    HW231653   3.996   0.388   2.720  0.0948 -0.4106 -0.5324
 6731SOL     OW31654   2.225   0.419  11.227 -0.4052 -0.9104 -0.7109
 6731SOL    HW131655   2.305   0.401  11.179  0.2449  0.4571 -0.1700
 6731SOL    HW231656   2.162   0.355  11.196 -1.0373  0.0488 -1.4003
 6732SOL     OW31657   1.699   0.203   3.895 -0.0129  0.1245  0.8121
 6732SOL    HW131658   1.683   0.196   3.989 -1.3991  1.8262  0.7154
 6732SOL    HW231659   1.620   0.170   3.852 -0.2226  0.7179  0.7381
 6733SOL     OW31660   4.095   1.549  12.213 -0.1873 -0.1429  0.2062
 6733SOL    HW131661   4.143   1.490  12.271  0.5326 -0.4505 -0.7115
 6733SOL    HW231662   4.095   1.634  12.257  0.6707 -0.5756  1.0313
 6734SOL     OW31663   0.090   4.455  13.445  0.3923  0.1601  0.7203
 6734SOL    HW131664   0.018   4.516  13.459  0.5568  0.9969 -2.2936
 6734SOL    HW231665   0.068   4.411  13.363 -0.5802  0.5335  0.7862
 6735SOL     OW31666   4.433   1.466   8.513 -0.4668  0.2339  0.3783
 6735SOL    HW131667   4.471   1.408   8.579 -1.4013 -0.3337  0.4159
 6735SOL    HW231668   4.375   1.514   8.572 -0.6841 -0.4892  0.7455
 6736SOL     OW31669   4.723   3.303  17.133  0.0196 -0.4749 -0.4661
 6736SOL    HW131670   4.702   3.210  17.142  0.4460 -0.5396 -0.1399
 6736SOL    HW231671   0.090   3.306  17.160 -0.6229  0.5296  1.6474
 6737SOL     OW31672   1.031   0.508   4.861  0.4078 -0.3199 -0.8566
 6737SOL    HW131673   1.089   0.437   4.886  0.2676  0.6043  2.1076
 6737SOL    HW231674   1.024   0.560   4.942  2.3831  0.6474 -1.3216
 6738SOL     OW31675   3.006   3.023  11.183  0.8875  0.7622  0.3416
 6738SOL    HW131676   3.047   3.067  11.109  0.1692 -0.3201 -0.6945
 6738SOL    HW231677   2.977   2.940  11.145  1.4646  1.4244 -1.5707
 6739SOL     OW31678   4.620   2.565   7.864 -0.2423  0.0058  0.0424
 6739SOL    HW131679   4.708   2.600   7.851 -1.1872  3.0977  2.1683
 6739SOL    HW231680   4.607   2.536   7.773 -0.4972  1.5541 -0.4169
 6740SOL     OW31681   2.045   1.217   2.241  0.1277 -0.3453 -0.7450
 6740SOL    HW131682   2.094   1.150   2.193  1.9780 -0.0885  0.7608
 6740SOL    HW231683   1.974   1.226   2.178 -1.1872 -0.2943  0.7340
 6741SOL     OW31684   4.086   1.668   1.650  0.7257  0.0376 -0.1667
 6741SOL    HW131685   4.174   1.707   1.655  1.0685 -0.8556  0.9412
 6741SOL    HW231686   4.112   1.592   1.596  0.2804  0.0273 -0.3617
 6742SOL     OW31687   2.920   2.633   2.896 -0.0808 -0.4128 -0.1674
 6742SOL    HW131688   2.970   2.566   2.942  1.0315 -0.6918 -1.7866
 6742SOL    HW231689   2.850   2.645   2.960 -0.3287 -0.6163 -0.3999
 6743SOL     OW31690   3.329   0.447   6.246  0.1578  0.1627  0.0721
 6743SOL    HW131691   3.309   0.521   6.303  1.8022  1.2849 -0.7928
 6743SOL    HW231692   3.317   0.481   6.158  0.3068 -1.1216 -0.4491
 6744SOL     OW31693   2.074   4.381   3.708 -0.3761  0.1086 -0.2715
 6744SOL    HW131694   2.103   4.298   3.669 -1.7716  0.4596 -2.0915
 6744SOL    HW231695   1.978   4.373   3.701 -0.4044  0.0265  0.2294
 6745SOL     OW31696   1.083   2.745   1.194 -0.2257  0.3763  0.0723
 6745SOL    HW131697   1.098   2.675   1.259 -0.5369  0.7222  0.5181
 6745SOL    HW231698   1.037   2.692   1.129 -0.6303 -1.4464  1.8302
 6746SOL     OW31699   2.448   3.880  17.561 -0.1557 -0.2295  0.5391
 6746SOL    HW131700   2.517   3.871  17.627 -0.5253 -0.3562  0.9090
 6746SOL    HW231701   2.443   3.792  17.524 -0.0005  0.3647 -0.8750
 6747SOL     OW31702   1.768   2.690   4.259 -0.2612 -0.2149  0.2782
 6747SOL    HW131703   1.830   2.719   4.193  1.2040 -3.6925  0.0959
 6747SOL    HW231704   1.765   2.597   4.236 -0.9329 -0.4401  1.2730
 6748SOL     OW31705   2.671   1.548   4.519  0.0947  0.2600  0.0937
 6748SOL    HW131706   2.651   1.519   4.429  1.9799  0.3375 -0.3435
 6748SOL    HW231707   2.609   1.502   4.576 -0.4795  1.0303  0.1003
 6749SOL     OW31708   2.751   0.686   2.078  0.0375 -0.2036 -0.2972
 6749SOL    HW131709   2.760   0.734   2.160  0.0185 -1.5078  0.4776
 6749SOL    HW231710   2.830   0.709   2.029 -1.1761  1.1068 -1.6229
 6750SOL     OW31711   3.048   1.970   7.761  0.4056  0.0995  0.1724
 6750SOL    HW131712   3.051   1.914   7.683  0.8186 -0.4224  0.5669
 6750SOL    HW231713   3.063   1.902   7.826 -2.9399 -1.7681 -1.0436
 6751SOL     OW31714   1.666   0.378   7.718  0.6303 -0.2669 -0.3807
 6751SOL    HW131715   1.688   0.463   7.679  1.5744 -1.2918 -2.0753
 6751SOL    HW231716   1.592   0.348   7.666  0.3771  0.1781 -0.2775
 6752SOL     OW31717   4.460   4.173  11.460  0.5638 -0.4274  0.2761
 6752SOL    HW131718   4.549   4.164  11.426  0.8056  0.9114  0.5581
 6752SOL    HW231719   4.484   4.238  11.527 -1.1448 -0.0152  0.4702
 6753SOL     OW31720   0.859   3.481   2.506  0.4746  0.0215  1.2071
 6753SOL    HW131721   0.814   3.501   2.424  0.1726 -1.8445  0.9246
 6753SOL    HW231722   0.891   3.396   2.479 -0.2624  0.2152 -0.2476
 6754SOL     OW31723   3.174   3.615   7.502 -0.0077 -0.6717  0.4797
 6754SOL    HW131724   3.188   3.643   7.412  3.2734 -0.0420  1.1744
 6754SOL    HW231725   3.084   3.646   7.508  0.3440  0.3239  0.4742
 6755SOL     OW31726   0.992   2.345   5.478  0.2313 -0.0466 -0.1061
 6755SOL    HW131727   0.915   2.346   5.421 -0.4251  0.6341  0.7840
 6755SOL    HW231728   1.016   2.252   5.481 -1.8589 -0.6061 -0.4526
 6756SOL     OW31729   0.892   2.861   7.562  0.3457  0.3688  0.3036
 6756SOL    HW131730   0.966   2.824   7.610 -1.2070  0.1800  2.5561
 6756SOL    HW231731   0.925   2.948   7.540  0.0537  0.3300 -0.2799
 6757SOL     OW31732   0.212   3.743   1.900 -0.1574 -0.1232  0.6021
 6757SOL    HW131733   0.266   3.821   1.907 -0.8211  0.5877 -2.5907
 6757SOL    HW231734   0.188   3.730   1.992 -1.5573 -1.4347  0.0560
 6758SOL     OW31735   4.220   1.068   0.484 -0.5479  0.2646  0.4364
 6758SOL    HW131736   4.303   1.066   0.533  0.0263 -2.2219 -0.5984
 6758SOL    HW231737   4.216   1.153   0.442 -0.4463 -0.1603 -0.4224
 6759SOL     OW31738   1.473   3.750   1.822  0.2678 -0.0887 -0.0870
 6759SOL    HW131739   1.543   3.775   1.762 -1.0786  0.0927 -1.5913
 6759SOL    HW231740   1.492   3.656   1.826  2.2508  0.2638 -1.2188
 6760SOL     OW31741   1.472   4.408   5.984 -0.2155 -0.2303 -0.1181
 6760SOL    HW131742   1.376   4.405   5.980 -0.3126  2.9114  0.3568
 6760SOL    HW231743   1.483   4.502   5.997  1.7548 -0.3837 -0.6960
 6761SOL     OW31744   2.143   2.096   7.587  0.2769  0.1951  0.1261
 6761SOL    HW131745   2.199   2.023   7.561  0.3619 -0.3245  1.7586
 6761SOL    HW231746   2.148   2.088   7.682 -3.2714 -2.2440  0.0761
 6762SOL     OW31747   2.859   2.183   4.505 -0.5026  0.1451 -0.0336
 6762SOL    HW131748   2.940   2.193   4.456 -0.4368  0.0223  0.0514
 6762SOL    HW231749   2.870   2.254   4.569  0.0197  0.2551 -0.2466
 6763SOL     OW31750   1.362   2.762   1.189 -0.5122  0.0089  0.0959
 6763SOL    HW131751   1.270   2.780   1.206 -0.9950 -1.6376 -0.8061
 6763SOL    HW231752   1.357   2.750   1.094  2.3963 -0.7976  0.0538
 6764SOL     OW31753   3.438   0.578   6.035  0.4532  0.6213 -0.1638
 6764SOL    HW131754   3.465   0.555   5.946 -1.6465 -1.4218 -0.2569
 6764SOL    HW231755   3.526   0.576   6.074 -0.3993  0.5785  1.7414
 6765SOL     OW31756   3.094   0.777   0.803  0.5147 -0.0336  0.0844
 6765SOL    HW131757   3.153   0.702   0.792 -0.1728 -0.3910 -1.0686
 6765SOL    HW231758   3.005   0.749   0.782  0.7045 -1.5792  1.2584
 6766SOL     OW31759   0.045   1.290  15.555  0.1456 -0.0693  0.2686
 6766SOL    HW131760   0.037   1.359  15.621 -1.6604 -1.0395  1.0475
 6766SOL    HW231761   0.094   1.225  15.606 -1.6990 -1.2993  0.4535
 6767SOL     OW31762   2.721   1.281   7.017  0.3224  0.4058  0.2261
 6767SOL    HW131763   2.788   1.234   6.967  0.5680 -0.2571  1.1791
 6767SOL    HW231764   2.670   1.331   6.954  0.4979  0.9081  0.4775
 6768SOL     OW31765   3.626   3.142   4.704  0.7361  0.4362  0.0987
 6768SOL    HW131766   3.538   3.180   4.715  0.6613  0.8080 -1.7425
 6768SOL    HW231767   3.612   3.080   4.632 -0.5700 -0.8260  1.4462
 6769SOL     OW31768   4.408   3.345   8.713  0.4759  0.0037  0.1181
 6769SOL    HW131769   4.497   3.377   8.697 -0.2217  1.6155 -0.5254
 6769SOL    HW231770   4.367   3.360   8.627 -0.7777 -3.4951  0.1051
 6770SOL     OW31771   2.470   4.504  15.829 -0.0698 -0.2545  0.1569
 6770SOL    HW131772   2.562   4.510  15.852  0.0347  1.3131 -0.6625
 6770SOL    HW231773   2.440   4.453  15.904  1.3469 -1.9353 -0.4403
 6771SOL     OW31774   4.304   4.143  11.249 -0.1281  0.1372  0.0383
 6771SOL    HW131775   4.392   4.150  11.211  0.3342  1.8129  1.4078
 6771SOL    HW231776   4.324   4.135  11.343 -0.0582 -0.5157 -0.0297
 6772SOL     OW31777   3.946   2.846   5.136  0.7424  0.1507 -0.0354
 6772SOL    HW131778   3.986   2.912   5.079  0.4527 -0.3062 -0.7566
 6772SOL    HW231779   3.979   2.764   5.101 -1.9913 -0.2487 -1.6943
 6773SOL     OW31780   4.676   1.031  10.517  0.1381 -0.5590  0.4176
 6773SOL    HW131781   4.588   1.001  10.492  0.6133 -1.0715 -0.6258
 6773SOL    HW231782   4.649   1.105  10.571 -1.0709 -0.5653 -0.1690
 6774SOL     OW31783   1.858   3.808   2.428 -0.3031  0.1970  0.0044
 6774SOL    HW131784   1.807   3.834   2.505 -0.6514 -0.4120 -0.0287
 6774SOL    HW231785   1.912   3.888   2.424 -0.6458  0.5342  2.0857
 6775SOL     OW31786   4.006   0.477   7.649 -0.0817 -0.4728 -0.1807
 6775SOL    HW131787   3.945   0.462   7.722 -0.7427  0.5031 -0.5408
 6775SOL    HW231788   4.053   0.557   7.673 -1.0769 -0.4806  1.8186
 6776SOL     OW31789   3.618   4.267   6.424  0.0814 -0.4133 -0.7200
 6776SOL    HW131790   3.698   4.270   6.477  0.0512  1.3270 -0.7587
 6776SOL    HW231791   3.602   4.174   6.409  0.1276 -0.2457 -1.8260
 6777SOL     OW31792   0.128   0.314   4.845 -0.4527  0.1749  0.7558
 6777SOL    HW131793   0.076   0.239   4.817  2.4217 -1.8675  0.8286
 6777SOL    HW231794   0.096   0.383   4.786 -0.5148 -1.5578 -1.2287
 6778SOL     OW31795   0.985   0.924   3.352 -0.4169  1.1321 -0.2261
 6778SOL    HW131796   1.037   0.947   3.430 -0.1369  1.5666 -0.5419
 6778SOL    HW231797   0.911   0.879   3.393  0.4459  1.6232  1.8967
 6779SOL     OW31798   0.480   3.675   4.845  0.4497  0.3359 -0.5541
 6779SOL    HW131799   0.413   3.743   4.845  1.0659  0.9192  1.4880
 6779SOL    HW231800   0.452   3.627   4.923 -0.6488 -0.3068 -1.3415
 6780SOL     OW31801   0.558   4.303   7.385  0.1086 -0.3735  0.0546
 6780SOL    HW131802   0.611   4.373   7.422 -1.1319  1.3781 -1.4539
 6780SOL    HW231803   0.480   4.321   7.437 -0.9979  0.4432 -1.8646
 6781SOL     OW31804   4.251   3.639  15.945 -0.5076  0.2378 -0.3683
 6781SOL    HW131805   4.259   3.734  15.955  1.0603 -0.0241  0.9014
 6781SOL    HW231806   4.315   3.627  15.876  1.8136  1.2887  1.5952
 6782SOL     OW31807   2.282   0.864   1.079  0.0090 -0.2171 -0.1070
 6782SOL    HW131808   2.258   0.812   1.002 -1.0614 -0.9102  0.6916
 6782SOL    HW231809   2.356   0.917   1.050  1.1182 -1.7897 -0.1510
 6783SOL     OW31810   1.424   0.457   6.967 -0.0356 -0.1761 -0.5099
 6783SOL    HW131811   1.438   0.413   7.051  2.1730  0.5361 -0.5229
 6783SOL    HW231812   1.471   0.395   6.911 -0.2809  0.8721 -1.8822
 6784SOL     OW31813   3.483   1.202   4.975  0.0207  0.1468  0.2882
 6784SOL    HW131814   3.463   1.283   5.023 -0.6401 -0.8335  1.6919
 6784SOL    HW231815   3.521   1.227   4.891  3.2376 -0.5646  1.5460
 6785SOL     OW31816   0.247   3.237  10.603 -0.1209  0.1751  1.1455
 6785SOL    HW131817   0.184   3.184  10.652 -0.3141 -2.7000 -2.1846
 6785SOL    HW231818   0.332   3.193  10.611  0.6193  1.6613  1.5313
 6786SOL     OW31819   2.563   0.150  12.863  0.1365  0.0394  0.5088
 6786SOL    HW131820   2.646   0.199  12.857 -1.6125  2.9321 -0.2882
 6786SOL    HW231821   2.580   0.083  12.797 -0.4656  0.3034  0.0852
 6787SOL     OW31822   4.492   0.416   8.072  0.4224 -0.1665  0.1341
 6787SOL    HW131823   4.429   0.384   8.008  0.2359 -3.3214  1.8971
 6787SOL    HW231824   4.440   0.484   8.115  0.8998  0.1985  0.1354
 6788SOL     OW31825   1.065   0.065   2.813 -0.4391  0.4557 -0.4483
 6788SOL    HW131826   1.117   0.131   2.859  0.8694 -0.9250  0.0563
 6788SOL    HW231827   1.126   0.023   2.753  0.2488 -0.7372  1.0948
 6789SOL     OW31828   3.383   4.394   4.939  0.0606  0.2673  0.5177
 6789SOL    HW131829   3.447   4.439   4.994  0.1102  1.1672 -0.2910
 6789SOL    HW231830   3.420   4.415   4.853 -0.9202 -0.1899 -0.0173
 6790SOL     OW31831   2.355   1.617   8.536  0.3290 -0.5167 -0.3181
 6790SOL    HW131832   2.436   1.634   8.584 -1.0621 -0.6030  2.0413
 6790SOL    HW231833   2.313   1.702   8.548 -2.0711 -1.6711 -0.6654
 6791SOL     OW31834   2.521   2.762   3.068 -0.2710  0.1327 -0.3602
 6791SOL    HW131835   2.592   2.716   3.113  1.1739  0.7134 -2.0521
 6791SOL    HW231836   2.577   2.804   3.003  1.5457 -2.4746 -0.4461
 6792SOL     OW31837   3.519   3.130  11.131 -0.5679 -0.2478  0.6287
 6792SOL    HW131838   3.463   3.053  11.123 -2.1552  0.9203  0.2346
 6792SOL    HW231839   3.530   3.158  11.040  2.1076  0.2906  1.1337
 6793SOL     OW31840   0.068   0.044   4.706  1.3938  0.2487  0.7370
 6793SOL    HW131841   4.708   0.011   4.673  0.4032  1.6191  1.8947
 6793SOL    HW231842   0.104   0.073   4.622  0.4708 -0.6131  0.0427
 6794SOL     OW31843   2.657   1.105   6.729 -0.8330  0.7843  0.2478
 6794SOL    HW131844   2.618   1.176   6.780  0.1840 -0.6520  3.0477
 6794SOL    HW231845   2.671   1.038   6.797 -0.0283 -0.1028 -0.7958
 6795SOL     OW31846   4.293   4.216   3.830  0.6128  0.0215 -0.0084
 6795SOL    HW131847   4.354   4.269   3.779  2.5993 -0.3322  1.9970
 6795SOL    HW231848   4.263   4.152   3.765  1.2237  0.3007 -0.5576
 6796SOL     OW31849   3.974   2.902   4.689  0.4838  0.5925  0.0085
 6796SOL    HW131850   3.997   2.906   4.596  3.3554  0.6411  0.7030
 6796SOL    HW231851   3.881   2.882   4.684  0.2660  1.2387  1.5301
 6797SOL     OW31852   3.444   0.894   4.342  0.4078 -0.4048 -0.0376
 6797SOL    HW131853   3.436   0.922   4.251 -0.2424 -0.9198 -0.1391
 6797SOL    HW231854   3.455   0.799   4.334  0.9175 -0.3601  0.1153
 6798SOL     OW31855   4.601   0.470  10.932 -0.1410  0.8367 -0.6688
 6798SOL    HW131856   4.654   0.525  10.874  0.8443  1.4033  0.7682
 6798SOL    HW231857   4.618   0.377  10.913 -2.2703  0.4531 -0.7032
 6799SOL     OW31858   3.162   2.683   4.789  0.3298  0.2443  0.2994
 6799SOL    HW131859   3.117   2.696   4.873 -0.0907  0.4234  0.0442
 6799SOL    HW231860   3.093   2.658   4.728  1.4140 -0.6526 -0.5437
 6800SOL     OW31861   2.616   2.198   7.821  0.5243  0.1828  0.2829
 6800SOL    HW131862   2.692   2.234   7.866  1.9016  0.0094 -1.8731
 6800SOL    HW231863   2.621   2.103   7.833 -1.5848 -0.0955 -1.0856
 6801SOL     OW31864   2.346   1.095   7.900 -0.3352  0.2494 -0.4884
 6801SOL    HW131865   2.361   1.150   7.822  1.5572 -0.4223 -0.5888
 6801SOL    HW231866   2.273   1.142   7.942 -0.3784 -0.2517 -0.0126
 6802SOL     OW31867   0.024   4.182  11.763  0.1845  0.2516  0.1655
 6802SOL    HW131868   0.114   4.214  11.756  0.1119  0.0893 -1.4787
 6802SOL    HW231869   0.026   4.139  11.848  0.0815  1.5092  0.8121
 6803SOL     OW31870   4.656   2.387  16.755  0.4042  0.3422  0.6958
 6803SOL    HW131871   4.675   2.480  16.744  0.4102  0.3117  0.4553
 6803SOL    HW231872   4.640   2.384  16.849  0.4091  2.0989  0.7472
 6804SOL     OW31873   4.459   3.592   5.701 -0.3106  0.5983  0.5474
 6804SOL    HW131874   4.383   3.586   5.643 -0.0792  1.8731  0.1211
 6804SOL    HW231875   4.472   3.500   5.723  2.8283  0.6185 -1.3048
 6805SOL     OW31876   1.816   2.953   7.771  0.1146  0.3150 -0.4213
 6805SOL    HW131877   1.909   2.951   7.751  0.6991 -0.9947  2.4295
 6805SOL    HW231878   1.780   2.961   7.682  0.6702  2.4107 -0.4475
 6806SOL     OW31879   2.161   4.662   6.963 -0.1947 -0.2317  0.4218
 6806SOL    HW131880   2.129   4.658   6.872 -2.9736 -0.1285  1.3971
 6806SOL    HW231881   2.247   4.619   6.964 -0.2100 -0.3342 -1.3941
 6807SOL     OW31882   4.200   1.348  16.986 -0.5628 -0.5864 -0.3354
 6807SOL    HW131883   4.284   1.379  16.955 -1.2192 -0.5090 -2.0477
 6807SOL    HW231884   4.176   1.405  17.060 -0.3154  0.8820 -1.3835
 6808SOL     OW31885   1.656   2.554  15.307 -0.4539  0.0248  0.0807
 6808SOL    HW131886   1.670   2.497  15.232 -0.8936 -1.7352  1.3124
 6808SOL    HW231887   1.740   2.599  15.295 -0.3094 -0.8713 -2.2095
 6809SOL     OW31888   4.160   1.442  16.147  0.0002 -0.3300 -0.0819
 6809SOL    HW131889   4.112   1.521  16.169 -0.6398 -0.3329 -1.4834
 6809SOL    HW231890   4.150   1.396  16.230 -0.8768  1.1228  0.6131
 6810SOL     OW31891   1.041   1.278   8.126  0.3872 -0.0277  0.8136
 6810SOL    HW131892   1.115   1.221   8.144  0.4027 -0.4901 -0.6793
 6810SOL    HW231893   0.972   1.223   8.164 -1.5234  1.8843  0.1679
 6811SOL     OW31894   2.411   4.009  11.021 -0.1378 -0.1528 -0.1894
 6811SOL    HW131895   2.414   3.919  11.054 -0.0289 -0.3957 -0.8535
 6811SOL    HW231896   2.349   4.040  11.087  0.8099  1.1182  0.1071
 6812SOL     OW31897   3.417   1.841   9.847  0.1419 -0.5164  0.6246
 6812SOL    HW131898   3.486   1.798   9.798 -1.1715 -1.9010  0.0019
 6812SOL    HW231899   3.336   1.820   9.801  0.5554  2.7501 -1.5598
 6813SOL     OW31900   4.422   4.171   2.605  0.4289 -0.4277 -0.0345
 6813SOL    HW131901   4.390   4.256   2.635 -0.0785 -0.7012  0.1959
 6813SOL    HW231902   4.474   4.142   2.680  0.5987 -1.4160 -0.5331
 6814SOL     OW31903   4.025   3.482   1.873 -1.1519  0.4021  0.0541
 6814SOL    HW131904   4.078   3.405   1.855  0.3964  1.5722 -0.3969
 6814SOL    HW231905   4.030   3.469   1.968 -0.5493 -0.9211 -0.1637
 6815SOL     OW31906   3.743   0.699   8.366  0.3981  0.8128 -1.0160
 6815SOL    HW131907   3.729   0.759   8.440  1.4424 -1.2768  0.8543
 6815SOL    HW231908   3.657   0.697   8.322 -0.4473  0.9615  0.6347
 6816SOL     OW31909   4.062   4.317   2.169 -0.5752  0.2149 -0.1838
 6816SOL    HW131910   4.077   4.318   2.264  1.3710  0.3210 -0.4826
 6816SOL    HW231911   4.085   4.227   2.144 -0.4217  0.6344 -1.5661
 6817SOL     OW31912   1.152   3.631   4.242  0.0171  0.5530  0.4019
 6817SOL    HW131913   1.206   3.643   4.320 -1.0904 -0.2108  1.3099
 6817SOL    HW231914   1.083   3.694   4.265 -1.3419 -0.3781 -1.1015
 6818SOL     OW31915   1.223   4.227   9.077  0.2709 -0.3432 -0.2927
 6818SOL    HW131916   1.207   4.195   8.988 -2.0205  0.9700 -0.3621
 6818SOL    HW231917   1.172   4.156   9.118 -0.8722 -0.3308 -1.6890
 6819SOL     OW31918   1.395   1.257   9.415  0.9519 -0.0241 -0.3596
 6819SOL    HW131919   1.344   1.246   9.495 -0.8294 -0.5933 -1.5674
 6819SOL    HW231920   1.388   1.167   9.384 -0.9260 -0.3838  1.1505
 6820SOL     OW31921   4.600   3.925   1.596  0.3395  0.3111 -0.6023
 6820SOL    HW131922   4.621   3.843   1.640  0.4748  0.4637 -0.3827
 6820SOL    HW231923   4.650   3.987   1.649 -1.0897  1.3246 -0.4232
 6821SOL     OW31924   4.256   0.428   0.015  0.2685  0.1246 -0.0058
 6821SOL    HW131925   4.189   0.362   0.032  0.5262 -0.9905 -3.1931
 6821SOL    HW231926   4.220   0.450  17.628 -0.8099 -0.5084  0.2940
 6822SOL     OW31927   2.978   2.269   9.138  0.0784  0.5587  0.6650
 6822SOL    HW131928   3.025   2.352   9.127  0.4936  0.5272  2.2810
 6822SOL    HW231929   2.897   2.284   9.088  0.8336 -1.8995 -1.2599
 6823SOL     OW31930   0.555   4.017   5.652 -0.0054  0.0087  0.1421
 6823SOL    HW131931   0.545   4.095   5.597  1.5815 -0.1377 -0.3486
 6823SOL    HW231932   0.574   4.051   5.740  1.9755  2.3814 -1.2010
 6824SOL     OW31933   1.621   0.169   2.531  0.1647  0.3338 -0.0858
 6824SOL    HW131934   1.562   0.164   2.456 -0.0059 -0.0368  0.0746
 6824SOL    HW231935   1.605   0.260   2.556 -0.2459  0.7023 -1.6691
 6825SOL     OW31936   2.320   3.481   2.982  0.0718  0.4852  0.6166
 6825SOL    HW131937   2.361   3.538   2.916 -2.0802  0.0529 -1.1170
 6825SOL    HW231938   2.282   3.539   3.048  0.4624 -1.6705  2.7316
 6826SOL     OW31939   2.862   3.961   8.212  0.5525 -0.5735 -0.3563
 6826SOL    HW131940   2.817   4.042   8.236  3.5527  1.2560 -0.9922
 6826SOL    HW231941   2.804   3.943   8.138  1.5874  3.4883 -2.1573
 6827SOL     OW31942   2.097   2.541   7.061 -0.2825  0.9071  0.1783
 6827SOL    HW131943   2.105   2.500   7.147 -3.8372 -2.4849 -1.1097
 6827SOL    HW231944   2.021   2.596   7.075 -1.7348 -1.1806  0.4872
 6828SOL     OW31945   2.246   3.293  11.427  0.6615  0.3477 -0.3233
 6828SOL    HW131946   2.293   3.293  11.511  0.1638  0.5156 -0.0483
 6828SOL    HW231947   2.278   3.211  11.392  0.6048 -0.5575  1.7232
 6829SOL     OW31948   3.842   3.697  15.202  0.1393  0.7548 -0.2293
 6829SOL    HW131949   3.904   3.685  15.129 -1.7235 -1.2447 -1.4807
 6829SOL    HW231950   3.872   3.777  15.245  2.0602 -0.2016  0.2359
 6830SOL     OW31951   2.244   3.850  12.539 -0.3685 -0.1342 -0.4643
 6830SOL    HW131952   2.209   3.864  12.628 -1.7507  1.2791 -1.2319
 6830SOL    HW231953   2.333   3.827  12.565  0.5121  2.6028 -0.9960
 6831SOL     OW31954   1.947   4.625  12.028  0.0839  0.0524 -0.7317
 6831SOL    HW131955   1.988   4.588  11.950  2.4473 -0.7401  0.8713
 6831SOL    HW231956   2.012   4.693  12.045  1.7005 -2.0202  1.5397
 6832SOL     OW31957   2.849   4.180   7.485 -0.0567  0.0757  1.0897
 6832SOL    HW131958   2.902   4.225   7.550  2.5365 -1.0107 -0.2545
 6832SOL    HW231959   2.910   4.111   7.459 -0.1657  0.3495  0.1137
 6833SOL     OW31960   2.167   0.284   4.407 -0.0370  0.1241 -0.3388
 6833SOL    HW131961   2.088   0.235   4.382  0.1571 -0.6361  0.5322
 6833SOL    HW231962   2.216   0.269   4.326  1.3469  0.3650  0.4525
 6834SOL     OW31963   1.015   0.671   4.097  0.1738  0.4770 -0.1153
 6834SOL    HW131964   1.092   0.666   4.154 -0.8789 -0.2278  1.2571
 6834SOL    HW231965   1.062   0.660   4.015 -1.4133 -0.8684 -0.8410
 6835SOL     OW31966   4.012   1.005  11.884  0.0635  0.1099  0.2908
 6835SOL    HW131967   3.927   1.038  11.913  0.4527  1.4867 -0.1622
 6835SOL    HW231968   4.049   0.998  11.971  1.4169  0.1980 -0.2805
 6836SOL     OW31969   1.962   1.820  10.915 -0.2322 -0.4913 -0.5715
 6836SOL    HW131970   2.005   1.792  10.835  4.0159 -0.6213  1.7574
 6836SOL    HW231971   1.994   1.748  10.970  0.2269 -0.4838 -0.8332
 6837SOL     OW31972   3.861   0.547   9.408 -0.2900  0.5461  0.1317
 6837SOL    HW131973   3.828   0.596   9.333 -1.9072 -1.3293 -0.3626
 6837SOL    HW231974   3.948   0.516   9.383 -0.2570  0.6690  0.0941
 6838SOL     OW31975   2.744   2.385  16.200  0.2302  0.0108  1.2761
 6838SOL    HW131976   2.683   2.382  16.273  1.0592  2.0461  2.0276
 6838SOL    HW231977   2.822   2.428  16.233 -0.2193  1.4813  0.4438
 6839SOL     OW31978   3.301   3.856   3.543 -0.2180  0.5593  0.7949
 6839SOL    HW131979   3.341   3.808   3.470  2.3494  2.5757  0.8760
 6839SOL    HW231980   3.320   3.783   3.602 -0.6313  1.0271  1.4977
 6840SOL     OW31981   3.039   2.012   9.030 -0.3866 -0.4278 -0.1875
 6840SOL    HW131982   3.061   1.959   9.107 -0.4241 -0.4132 -0.1663
 6840SOL    HW231983   3.040   2.102   9.062  2.6376 -0.7381  0.5912
 6841SOL     OW31984   1.734   0.787  14.172 -0.0925  0.0017  0.5532
 6841SOL    HW131985   1.738   0.778  14.077  1.1282 -1.0937  0.6997
 6841SOL    HW231986   1.787   0.712  14.200  1.0366 -0.5118 -2.9561
 6842SOL     OW31987   3.191   2.273   7.667 -0.2812  0.8144 -0.4980
 6842SOL    HW131988   3.256   2.202   7.672 -0.5542  0.7400  1.6509
 6842SOL    HW231989   3.111   2.221   7.664 -1.6359  2.7714  2.0017
 6843SOL     OW31990   3.477   4.668   6.366  0.0304 -0.2460  0.6298
 6843SOL    HW131991   3.504   0.036   6.358 -0.8499  0.1493  2.1714
 6843SOL    HW231992   3.381   4.665   6.360 -0.0432 -0.7363  1.9607
 6844SOL     OW31993   4.612   2.372   6.476 -0.0549  0.1669  0.6578
 6844SOL    HW131994   4.706   2.378   6.496  0.3818  0.2045 -1.4459
 6844SOL    HW231995   4.605   2.388   6.382  0.8279 -2.6331  0.1172
 6845SOL     OW31996   3.995   2.204   4.513 -0.3535 -0.0241 -0.0779
 6845SOL    HW131997   3.909   2.163   4.506 -0.4818  0.2402 -0.0298
 6845SOL    HW231998   3.989   2.294   4.481  0.7715  0.2998  0.5924
 6846SOL     OW31999   0.274   1.218   7.277  0.2118 -0.0119  0.3885
 6846SOL    HW132000   0.302   1.302   7.313  1.0332  0.5589 -1.5780
 6846SOL    HW232001   0.227   1.169   7.344  0.6439 -0.4333  0.3864
 6847SOL     OW32002   3.675   0.342   3.367  0.3734 -0.3693 -0.2369
 6847SOL    HW132003   3.619   0.377   3.297 -3.7302 -1.8413  2.3003
 6847SOL    HW232004   3.655   0.403   3.437  0.5122 -0.5489 -0.0416
 6848SOL     OW32005   1.049   0.006   3.852  0.0707  0.1183 -0.3719
 6848SOL    HW132006   0.981   4.679   3.895 -2.2886  2.5436 -1.2258
 6848SOL    HW232007   1.008   0.092   3.856  0.4141  0.2485  0.3043
 6849SOL     OW32008   1.082   3.706   5.832 -0.1264  0.2356 -0.0228
 6849SOL    HW132009   1.077   3.654   5.912  0.0057 -2.1283 -1.5403
 6849SOL    HW232010   1.089   3.637   5.766  0.4609 -0.4809  0.7850
 6850SOL     OW32011   2.761   0.036   7.175 -0.1132 -0.4877  0.8900
 6850SOL    HW132012   2.729   4.687   7.123 -1.4197  1.1992 -0.6748
 6850SOL    HW232013   2.841   0.039   7.123 -0.7063  0.0700  0.0164
 6851SOL     OW32014   3.309   1.591   1.357 -0.4208 -0.4440  0.2377
 6851SOL    HW132015   3.354   1.564   1.437 -0.6115 -0.6150  0.2845
 6851SOL    HW232016   3.250   1.657   1.393 -0.9933 -1.5359  1.2818
 6852SOL     OW32017   1.919   4.527   3.044  0.0110 -0.2488 -0.4148
 6852SOL    HW132018   2.000   4.500   3.089 -0.1407 -0.0298 -0.0104
 6852SOL    HW232019   1.944   4.571   2.963 -2.7233  3.6679  0.8580
 6853SOL     OW32020   0.563   1.089   6.601  0.2104  0.4343 -0.4413
 6853SOL    HW132021   0.553   1.019   6.666  1.1151 -0.3877 -1.1964
 6853SOL    HW232022   0.473   1.088   6.568 -0.7719  2.1057  2.2044
 6854SOL     OW32023   1.884   0.092   1.418 -0.0615 -0.4789  0.4297
 6854SOL    HW132024   1.953   0.044   1.464 -1.3193 -2.8135 -0.1001
 6854SOL    HW232025   1.886   0.056   1.329 -0.2378  2.1993 -0.6747
 6855SOL     OW32026   2.062   1.133   3.956 -0.0914 -0.2592  0.7770
 6855SOL    HW132027   2.123   1.059   3.957 -0.3684 -0.5038 -0.3391
 6855SOL    HW232028   2.128   1.200   3.975 -0.1653 -0.5545  2.0641
 6856SOL     OW32029   1.296   2.648  11.230  0.2249 -0.0943 -0.1399
 6856SOL    HW132030   1.343   2.714  11.281 -0.5950 -0.9654  1.7725
 6856SOL    HW232031   1.365   2.614  11.174  0.3109  0.0437 -0.1154
 6857SOL     OW32032   1.487   0.739   7.263  0.3103  0.6548 -0.1770
 6857SOL    HW132033   1.472   0.734   7.357  0.2951 -2.5618 -0.3681
 6857SOL    HW232034   1.402   0.710   7.229  1.1965 -2.1905  0.0824
 6858SOL     OW32035   3.882   3.863   3.196 -0.1364 -0.1087 -0.6423
 6858SOL    HW132036   3.803   3.835   3.149 -0.4887 -0.1483 -0.0365
 6858SOL    HW232037   3.933   3.891   3.120 -0.4633 -0.7916 -1.1141
 6859SOL     OW32038   3.907   0.622  13.845 -0.5907  0.2592 -0.3475
 6859SOL    HW132039   3.875   0.706  13.813 -1.0936  0.0354 -0.4402
 6859SOL    HW232040   3.898   0.566  13.768 -2.2583 -0.6272  0.4936
 6860SOL     OW32041   0.310   0.559  14.462  0.6217  0.5059  0.3144
 6860SOL    HW132042   0.259   0.586  14.538 -0.2869  0.9565 -0.4625
 6860SOL    HW232043   0.242   0.525  14.404 -1.0680 -0.2143  2.7094
 6861SOL     OW32044   1.241   2.377   1.849 -0.0453 -0.0651 -0.1100
 6861SOL    HW132045   1.267   2.378   1.940  0.9097 -0.4292 -0.3855
 6861SOL    HW232046   1.145   2.370   1.848 -0.0622  0.0436  0.9767
 6862SOL     OW32047   4.627   3.219   0.526 -0.6538 -0.0724  0.1184
 6862SOL    HW132048   4.593   3.205   0.438 -1.7651  0.1861  0.4985
 6862SOL    HW232049   4.634   3.314   0.514  0.4184 -0.1837 -0.1521
 6863SOL     OW32050   3.728   3.581   5.392 -0.3071 -0.5124  0.1033
 6863SOL    HW132051   3.792   3.516   5.421 -1.1980 -0.2648  2.6597
 6863SOL    HW232052   3.724   3.573   5.297  0.2064  0.3134  0.0098
 6864SOL     OW32053   1.574   4.093   3.697 -0.2931 -0.6611 -0.3772
 6864SOL    HW132054   1.539   4.115   3.611  0.7461 -0.5644 -0.7817
 6864SOL    HW232055   1.528   4.151   3.757  0.3587  1.4799 -1.9365
 6865SOL     OW32056   1.086   1.839   6.979  0.5581 -0.6343  0.1966
 6865SOL    HW132057   1.046   1.770   6.927  3.9764 -2.1485 -0.4549
 6865SOL    HW232058   1.073   1.807   7.069 -0.3557 -1.0794 -0.0971
 6866SOL     OW32059   2.537   2.558  10.640  0.5102 -0.2513 -0.1477
 6866SOL    HW132060   2.541   2.553  10.736 -1.9835 -1.4773 -0.1123
 6866SOL    HW232061   2.452   2.523  10.614  0.8008 -1.0223 -0.0577
 6867SOL     OW32062   4.085   3.051   2.672  0.1839 -0.3326 -0.1280
 6867SOL    HW132063   4.051   2.962   2.681  0.0248 -0.0244  2.2326
 6867SOL    HW232064   4.169   3.039   2.629 -0.0423  1.1094 -0.9961
 6868SOL     OW32065   1.436   3.390   4.165  0.5751 -0.2912  0.3538
 6868SOL    HW132066   1.449   3.314   4.107 -1.1574 -0.2784 -0.0507
 6868SOL    HW232067   1.400   3.340   4.238 -2.6255  1.0998 -0.3066
 6869SOL     OW32068   2.271   2.013   7.202  0.5789 -0.6153  0.6560
 6869SOL    HW132069   2.196   1.956   7.219  0.3865  0.1567  2.3931
 6869SOL    HW232070   2.222   2.086   7.164  1.3031 -1.2077 -1.4408
 6870SOL     OW32071   4.006   0.529   5.840  0.5918  0.4001  0.3443
 6870SOL    HW132072   4.030   0.441   5.813 -1.5608 -0.8111  2.4447
 6870SOL    HW232073   4.052   0.543   5.922 -1.4660 -0.4207  1.6205
 6871SOL     OW32074   3.490   0.123  10.502 -0.1024  0.1490 -0.6123
 6871SOL    HW132075   3.568   0.135  10.555 -0.7033 -0.3860  0.4020
 6871SOL    HW232076   3.507   0.040  10.457 -2.7053 -0.1545 -1.0866
 6872SOL     OW32077   2.340   3.599   6.461 -0.8087  0.1677  0.6580
 6872SOL    HW132078   2.434   3.584   6.453 -1.1178 -0.8992 -0.9785
 6872SOL    HW232079   2.312   3.543   6.534  0.4220 -0.3287  0.7530
 6873SOL     OW32080   4.210   3.861   7.572  0.7087  0.1962  0.1040
 6873SOL    HW132081   4.298   3.861   7.610  0.5422  2.0396  0.4553
 6873SOL    HW232082   4.146   3.873   7.643 -0.8772 -1.6912 -0.9906
 6874SOL     OW32083   1.443   0.141   3.762 -0.4085 -0.0195  0.1066
 6874SOL    HW132084   1.418   0.137   3.669 -0.6368  0.5465  0.1404
 6874SOL    HW232085   1.366   0.184   3.798 -0.4859 -0.1120  0.0495
 6875SOL     OW32086   1.059   3.044  16.394  0.3341  0.7589  0.6733
 6875SOL    HW132087   1.053   2.951  16.372  1.4966  0.9852 -0.6060
 6875SOL    HW232088   1.154   3.045  16.402  0.3478  0.0022  0.5862
 6876SOL     OW32089   2.391   4.623  17.511  0.3565  0.5060 -0.6245
 6876SOL    HW132090   2.332   4.662  17.446 -0.0428  1.6187  0.3851
 6876SOL    HW232091   2.431   4.548  17.468  1.8979  0.6416  0.5753
 6877SOL     OW32092   3.396   0.912  16.466 -0.2065 -0.9117  0.0821
 6877SOL    HW132093   3.489   0.894  16.453  0.2719  2.3094 -0.9196
 6877SOL    HW232094   3.361   0.830  16.501  0.8580 -0.7275  1.5890
 6878SOL     OW32095   3.102   3.412  12.025 -0.1161  0.2064  0.6521
 6878SOL    HW132096   3.037   3.359  12.071  0.5372 -3.2397 -2.3256
 6878SOL    HW232097   3.173   3.349  12.013 -0.7185  0.0226 -1.9013
 6879SOL     OW32098   2.114   4.318   4.577 -0.2546  0.2367 -0.5747
 6879SOL    HW132099   2.131   4.299   4.485 -2.0552 -1.5460 -0.5167
 6879SOL    HW232100   2.197   4.364   4.591  0.5239 -0.8401 -1.6619
 6880SOL     OW32101   0.199   1.867   7.480  0.2980  0.3417  0.3519
 6880SOL    HW132102   0.180   1.945   7.428 -0.8441 -0.5063 -0.5063
 6880SOL    HW232103   0.203   1.801   7.410 -0.3390  0.0339  0.6000
 6881SOL     OW32104   3.676   2.086   6.997 -0.2049  0.3974  0.0845
 6881SOL    HW132105   3.748   2.106   7.058  0.6939  0.1978 -0.9044
 6881SOL    HW232106   3.616   2.158   7.017 -1.0745 -0.8318  1.8459
 6882SOL     OW32107   1.965   0.298   2.741  0.3083 -0.0216  0.4047
 6882SOL    HW132108   2.056   0.277   2.722 -0.0634 -0.3229 -0.9819
 6882SOL    HW232109   1.922   0.218   2.712  0.1259  0.7826 -1.5358
 6883SOL     OW32110   4.499   0.684   3.652 -0.6435  0.0032 -0.4185
 6883SOL    HW132111   4.482   0.683   3.746 -0.9370  0.5675 -0.4603
 6883SOL    HW232112   4.413   0.705   3.615 -1.6019 -1.0738  1.2244
 6884SOL     OW32113   4.639   4.102   4.986 -0.3729  0.5522 -0.7204
 6884SOL    HW132114   4.612   4.141   5.069 -0.5961  2.9928 -1.9371
 6884SOL    HW232115   4.572   4.140   4.929 -0.8134  0.0912 -0.5016
 6885SOL     OW32116   3.941   3.540   6.216 -0.1294  0.4811  0.0480
 6885SOL    HW132117   3.914   3.524   6.126  0.7687 -1.3153  0.1074
 6885SOL    HW232118   4.020   3.592   6.203  0.2116  0.7147  3.1449
 6886SOL     OW32119   1.541   1.103   3.992 -0.7875 -0.1016 -0.7056
 6886SOL    HW132120   1.627   1.138   4.015 -2.0435  2.7283 -0.3283
 6886SOL    HW232121   1.507   1.174   3.937  3.1715  0.9379 -1.7600
 6887SOL     OW32122   3.304   4.417  12.018  0.1936 -0.3736 -0.0718
 6887SOL    HW132123   3.215   4.445  11.997  0.6725  0.7731 -0.5791
 6887SOL    HW232124   3.286   4.353  12.087  0.4479  0.0208  0.3552
 6888SOL     OW32125   3.713   4.224   5.711 -0.2297 -0.1386  0.3742
 6888SOL    HW132126   3.764   4.297   5.748 -0.8055  0.0654  0.7744
 6888SOL    HW232127   3.780   4.191   5.651 -0.9077  2.0254 -1.5964
 6889SOL     OW32128   2.773   2.145  16.850  0.2513  0.1629  0.3614
 6889SOL    HW132129   2.812   2.181  16.929  0.8720  0.0791  0.0992
 6889SOL    HW232130   2.688   2.127  16.888 -0.4099  0.0397 -1.1773
 6890SOL     OW32131   2.430   1.229   2.031 -0.0323  0.0773  0.2692
 6890SOL    HW132132   2.379   1.160   2.073 -1.0404  0.3222 -0.5433
 6890SOL    HW232133   2.359   1.290   2.013 -0.6752 -1.0173 -0.9322
 6891SOL     OW32134   4.645   4.176   7.190 -0.0026 -0.6302  0.1323
 6891SOL    HW132135   4.679   4.140   7.108  0.4923  1.8266 -0.7683
 6891SOL    HW232136   4.613   4.262   7.163  0.4454 -0.7994 -0.9359
 6892SOL     OW32137   2.139   2.264   0.777  0.5057  0.5414  0.3579
 6892SOL    HW132138   2.212   2.206   0.754 -0.4266 -0.6246  0.3461
 6892SOL    HW232139   2.113   2.227   0.862  1.1943 -1.6265 -0.3693
 6893SOL     OW32140   1.826   2.566   4.526  0.0324  0.1884 -0.0126
 6893SOL    HW132141   1.801   2.548   4.435 -0.6756  0.0816  0.2057
 6893SOL    HW232142   1.902   2.623   4.511 -0.1501  0.1339 -1.1282
 6894SOL     OW32143   1.310   0.566  13.262 -0.9445 -0.0593 -0.0243
 6894SOL    HW132144   1.317   0.618  13.182 -0.9407 -0.2127 -0.1238
 6894SOL    HW232145   1.367   0.617  13.319 -0.9430 -0.6412  0.4932
 6895SOL     OW32146   4.221   2.247   1.639 -0.2830  0.1044  0.4400
 6895SOL    HW132147   4.152   2.186   1.664 -0.9800  0.5514 -0.3543
 6895SOL    HW232148   4.242   2.279   1.727  1.0519  2.2886 -0.6670
 6896SOL     OW32149   4.109   2.124  11.869  0.2995  0.1688 -0.0464
 6896SOL    HW132150   4.065   2.082  11.795  0.6913 -1.8556  0.8631
 6896SOL    HW232151   4.104   2.213  11.834 -0.8656  0.1522  0.0829
 6897SOL     OW32152   0.718   0.826   8.062  0.2667  0.3741 -0.2768
 6897SOL    HW132153   0.692   0.850   8.151 -1.4405 -2.3646 -0.0369
 6897SOL    HW232154   0.796   0.774   8.081  0.9361  2.1934  1.9893
 6898SOL     OW32155   0.961   3.164  12.703 -0.0423  0.1210  0.2592
 6898SOL    HW132156   0.951   3.117  12.785 -2.5942  1.7030  0.8488
 6898SOL    HW232157   0.930   3.252  12.724  1.1969  0.8930 -1.1692
 6899SOL     OW32158   4.556   4.394   9.190 -0.0794  0.5273 -0.0656
 6899SOL    HW132159   4.461   4.395   9.175  0.5346  1.0869 -3.8063
 6899SOL    HW232160   4.566   4.408   9.284 -1.0196 -1.1544  0.2814
 6900SOL     OW32161   1.933   0.992   1.908 -0.5929  0.2411  0.1883
 6900SOL    HW132162   1.960   0.937   1.981 -0.8661  4.3167  3.3217
 6900SOL    HW232163   1.997   0.961   1.843  0.5115  1.1875  0.8214
 6901SOL     OW32164   3.169   3.907   1.790 -0.4659 -0.5979  0.4440
 6901SOL    HW132165   3.074   3.901   1.786 -0.5712  0.3871  1.3177
 6901SOL    HW232166   3.190   3.975   1.726 -0.2743 -1.0007  0.0784
 6902SOL     OW32167   1.320   3.299   4.389  0.0863 -0.3890  0.1039
 6902SOL    HW132168   1.234   3.323   4.425  0.6725 -2.7065  3.0840
 6902SOL    HW232169   1.333   3.209   4.419 -1.2348 -0.6369 -0.0737
 6903SOL     OW32170   1.821   1.644  12.299 -0.1018  0.1048 -0.1494
 6903SOL    HW132171   1.812   1.679  12.387 -0.7671  0.4845 -0.3664
 6903SOL    HW232172   1.766   1.703  12.247  1.0768 -0.0346 -1.5648
 6904SOL     OW32173   1.578   3.989  16.370 -0.3274  0.3146 -0.2892
 6904SOL    HW132174   1.484   4.001  16.355  0.2292 -0.7226 -4.5995
 6904SOL    HW232175   1.616   4.028  16.291 -1.5525  3.1901  0.5253
 6905SOL     OW32176   1.305   0.120  10.225 -0.0947  0.4476 -0.0151
 6905SOL    HW132177   1.399   0.102  10.227 -0.0083  0.8283 -0.6281
 6905SOL    HW232178   1.308   0.211  10.255 -1.8938  1.0181 -1.5655
 6906SOL     OW32179   2.867   1.461   9.969  0.6488  0.3428 -0.3209
 6906SOL    HW132180   2.787   1.502   9.937  1.3619  0.1331 -2.3331
 6906SOL    HW232181   2.841   1.438  10.059  2.5174 -0.1694  0.0785
 6907SOL     OW32182   2.405   4.010  12.933 -0.6316  0.4025  0.1482
 6907SOL    HW132183   2.413   4.084  12.872 -1.6768  0.2084 -0.2150
 6907SOL    HW232184   2.398   3.940  12.868  3.1469  0.0309  0.1296
 6908SOL     OW32185   4.142   0.003   6.013  0.6072  0.4433 -0.7005
 6908SOL    HW132186   4.200   0.074   6.042  3.0026 -1.4250 -0.9098
 6908SOL    HW232187   4.073   0.039   5.957 -0.3986  0.8054  0.7724
 6909SOL     OW32188   0.304   3.422   8.446 -0.0217 -1.0291 -0.3805
 6909SOL    HW132189   0.266   3.485   8.507  0.6211 -0.8906 -0.1194
 6909SOL    HW232190   0.285   3.337   8.486 -2.8981 -0.7372 -1.1196
 6910SOL     OW32191   4.176   3.300   6.202  0.0066 -0.3514 -1.0768
 6910SOL    HW132192   4.173   3.391   6.171  1.2322 -0.0111 -0.1507
 6910SOL    HW232193   4.260   3.277   6.163  1.0252  1.0231  0.3368
 6911SOL     OW32194   3.371   3.357  12.365  0.1531  0.1535 -0.6289
 6911SOL    HW132195   3.387   3.370  12.459  1.3009  1.0421 -0.9373
 6911SOL    HW232196   3.438   3.293  12.342  0.1479 -0.3949  0.8943
 6912SOL     OW32197   2.998   2.723  13.856  0.1030  0.2273  0.3264
 6912SOL    HW132198   2.923   2.710  13.798 -0.0350  1.9870  0.0926
 6912SOL    HW232199   2.981   2.676  13.937  1.5900  1.0304  1.0931
 6913SOL     OW32200   0.029   2.105   6.365 -0.3331  0.2786  0.2429
 6913SOL    HW132201   4.686   2.170   6.342 -0.0338  0.0549 -1.2341
 6913SOL    HW232202   4.712   2.054   6.435 -0.8017  2.1603  1.3511
 6914SOL     OW32203   3.880   3.369   5.476 -0.0305  0.5059  0.2856
 6914SOL    HW132204   3.820   3.311   5.523  0.7495 -1.3538 -1.0188
 6914SOL    HW232205   3.965   3.343   5.511  1.3195  2.4686 -1.5698
 6915SOL     OW32206   0.291   3.451  14.275 -0.2313 -0.4063  0.5259
 6915SOL    HW132207   0.285   3.545  14.261 -2.7809 -0.7362 -0.6515
 6915SOL    HW232208   0.287   3.400  14.194  1.0687 -0.7215  0.6686
 6916SOL     OW32209   3.625   0.692  14.995  0.3714 -0.2191  0.2823
 6916SOL    HW132210   3.576   0.612  15.012  1.1571 -0.4305  1.5856
 6916SOL    HW232211   3.553   0.748  15.023  1.1902  1.8957 -1.8062
 6917SOL     OW32212   1.417   0.751   4.432  0.1646 -0.3471  0.3775
 6917SOL    HW132213   1.458   0.740   4.518  0.1102 -1.2267  0.2926
 6917SOL    HW232214   1.436   0.843   4.412 -0.6509  0.2541  2.3222
 6918SOL     OW32215   1.186   2.877   9.220 -0.1724  0.0499  0.2927
 6918SOL    HW132216   1.166   2.786   9.197 -1.0480  0.2433  0.2808
 6918SOL    HW232217   1.110   2.921   9.180  0.1016 -2.1142 -2.5907
 6919SOL     OW32218   1.712   0.375   8.025 -0.1889  0.2489  0.0507
 6919SOL    HW132219   1.690   0.320   8.100 -0.1660  0.8749  0.5149
 6919SOL    HW232220   1.687   0.319   7.951 -1.6499  1.4054 -0.3286
 6920SOL     OW32221   2.609   3.854   0.068  0.7478 -0.1173  0.4838
 6920SOL    HW132222   2.588   3.877   0.159 -1.1244 -1.6068  0.4357
 6920SOL    HW232223   2.700   3.829   0.085  1.1712  1.4197  0.4828
 6921SOL     OW32224   1.050   1.905   5.754 -0.0997  0.0177 -0.0996
 6921SOL    HW132225   1.015   1.859   5.830 -0.4840 -0.4159 -0.5348
 6921SOL    HW232226   0.969   1.950   5.727  0.8122  2.0075  0.4526
 6922SOL     OW32227   1.000   2.862   7.908 -0.8025 -0.6155  0.2962
 6922SOL    HW132228   1.075   2.804   7.913 -1.9486 -2.4248 -3.1797
 6922SOL    HW232229   1.034   2.944   7.871 -0.4238 -1.0359 -0.2736
 6923SOL     OW32230   0.613   1.654   4.709 -0.1324 -0.3454 -0.1476
 6923SOL    HW132231   0.699   1.618   4.730 -0.3928 -0.5874  0.4980
 6923SOL    HW232232   0.641   1.738   4.746  0.9799 -1.5604  1.7461
 6924SOL     OW32233   3.799   2.250  14.714  0.1051  0.4314  0.0101
 6924SOL    HW132234   3.889   2.218  14.719  0.7129  2.0628 -0.6923
 6924SOL    HW232235   3.760   2.194  14.647  1.1976 -0.7509  0.3591
 6925SOL     OW32236   1.981   3.369  16.559 -0.0728 -0.2504  0.4803
 6925SOL    HW132237   2.050   3.392  16.621 -0.1438  1.9255 -0.2359
 6925SOL    HW232238   1.933   3.452  16.563  1.7071  0.7977  0.1806
 6926SOL     OW32239   3.960   3.459   4.065 -0.8308 -0.0338 -0.0021
 6926SOL    HW132240   4.039   3.455   4.012 -1.5679 -0.0316 -1.0876
 6926SOL    HW232241   3.916   3.540   4.040 -5.0475 -1.9060  1.2889
 6927SOL     OW32242   1.240   0.270   1.692  0.3165 -0.2713  0.6851
 6927SOL    HW132243   1.161   0.221   1.670 -0.0264  0.3092  0.6062
 6927SOL    HW232244   1.236   0.356   1.649 -1.2134 -1.5765 -1.7631
 6928SOL     OW32245   4.100   1.144   3.341 -0.5159 -0.4565  0.1833
 6928SOL    HW132246   4.063   1.223   3.381 -0.6410 -0.9250  1.0038
 6928SOL    HW232247   4.149   1.186   3.271 -0.1228 -0.5497  0.4038
 6929SOL     OW32248   0.721   4.105   8.520 -0.3704  0.3160 -0.0961
 6929SOL    HW132249   0.741   4.011   8.529  0.4607  0.3187 -1.9182
 6929SOL    HW232250   0.630   4.099   8.549 -0.2565  1.0374  0.4040
 6930SOL     OW32251   4.500   1.035   2.404 -0.0231  0.2027  0.2094
 6930SOL    HW132252   4.588   1.009   2.431 -1.4565 -2.0852  2.7105
 6930SOL    HW232253   4.510   1.019   2.310  0.3966 -1.0019  0.4474
 6931SOL     OW32254   3.572   0.884   5.486 -0.2201 -0.1754 -0.4505
 6931SOL    HW132255   3.606   0.886   5.397 -1.5904  0.5270 -0.9656
 6931SOL    HW232256   3.569   0.977   5.511 -1.2634 -0.4510  0.4593
 6932SOL     OW32257   1.331   4.253   8.510 -0.0573 -0.6024 -1.0596
 6932SOL    HW132258   1.292   4.168   8.530  0.7854 -0.9197 -0.7656
 6932SOL    HW232259   1.364   4.275   8.597 -1.2830 -1.1524 -0.4610
 6933SOL     OW32260   3.927   4.412   9.854 -0.4270  0.0862  0.0032
 6933SOL    HW132261   3.927   4.503   9.883  1.9783  0.0509  0.0929
 6933SOL    HW232262   3.837   4.406   9.822 -0.1961 -1.3005 -0.3830
 6934SOL     OW32263   0.778   0.159   2.803  0.7708 -0.1037 -0.1013
 6934SOL    HW132264   0.837   0.170   2.729  0.4431  1.1876 -0.1820
 6934SOL    HW232265   0.830   0.205   2.870 -2.1829  1.4585  1.1059
 6935SOL     OW32266   2.508   3.567   4.535  0.0956  0.3428  0.2845
 6935SOL    HW132267   2.566   3.629   4.580  0.5882  0.2930 -0.2867
 6935SOL    HW232268   2.529   3.595   4.446  1.3723  0.1100  0.5070
 6936SOL     OW32269   1.289   4.056  10.696  0.5730 -0.3424 -0.1972
 6936SOL    HW132270   1.199   4.055  10.729  1.2015 -1.9225  1.5005
 6936SOL    HW232271   1.286   4.094  10.609  2.8708 -0.5065 -0.3443
 6937SOL     OW32272   2.549   1.903   2.959  0.3657 -0.5805  0.0278
 6937SOL    HW132273   2.618   1.933   2.901  0.9433 -2.0207 -0.0290
 6937SOL    HW232274   2.568   1.952   3.040 -1.5126 -1.3868  0.9524
 6938SOL     OW32275   2.837   4.610   2.001  0.4947 -0.2463 -0.5957
 6938SOL    HW132276   2.905   4.545   1.983 -1.2445 -1.4442 -2.8631
 6938SOL    HW232277   2.806   4.617   1.911  2.2446 -1.2373 -1.2803
 6939SOL     OW32278   4.627   4.625   6.883 -0.5084 -0.3816  0.0564
 6939SOL    HW132279   4.634   4.573   6.963 -1.4728 -0.1004  0.3285
 6939SOL    HW232280   4.570   4.697   6.911  0.0756  0.2624 -0.3871
 6940SOL     OW32281   2.168   0.435   8.469 -0.0957  0.2340 -0.5503
 6940SOL    HW132282   2.080   0.459   8.499 -1.0167 -0.0171 -3.0287
 6940SOL    HW232283   2.184   0.352   8.514  0.0313  0.4464 -0.2036
 6941SOL     OW32284   2.635   3.348   5.760  0.2704  0.0462 -0.2952
 6941SOL    HW132285   2.678   3.262   5.757 -0.9674 -0.6131  0.8148
 6941SOL    HW232286   2.688   3.398   5.822 -1.1322  2.4747 -1.0709
 6942SOL     OW32287   0.207   0.426   3.461 -0.2013 -0.3760 -0.4492
 6942SOL    HW132288   0.191   0.334   3.438  2.5654 -1.1287  0.5491
 6942SOL    HW232289   0.278   0.417   3.525  0.5266  1.3086 -1.0197
 6943SOL     OW32290   2.470   4.228   4.577  0.7820 -0.0418  0.0955
 6943SOL    HW132291   2.546   4.230   4.635  1.2974 -0.5820 -0.5692
 6943SOL    HW232292   2.403   4.186   4.631  1.2764 -3.4514 -1.9635
 6944SOL     OW32293   2.289   4.721  13.694 -0.1619 -0.3014 -0.2535
 6944SOL    HW132294   2.252   0.080  13.725  0.1436 -0.2663  0.0276
 6944SOL    HW232295   2.360   0.035  13.642 -1.3876  1.4658 -0.6312
 6945SOL     OW32296   0.159   3.494   3.568  0.1842  0.2058  0.5167
 6945SOL    HW132297   0.237   3.468   3.617  1.0086 -0.9612 -1.3807
 6945SOL    HW232298   0.098   3.440   3.618  1.4593 -1.0397  0.7433
 6946SOL     OW32299   1.335   2.164   0.944 -0.0036  0.1275  0.0175
 6946SOL    HW132300   1.313   2.190   0.855 -0.0392 -0.3584 -0.1142
 6946SOL    HW232301   1.425   2.190   0.963 -0.6780  1.1106  1.9314
 6947SOL     OW32302   3.632   2.980   2.981 -0.0132 -0.1914  0.1617
 6947SOL    HW132303   3.648   2.974   3.075 -1.6157  0.1500  0.4674
 6947SOL    HW232304   3.658   3.067   2.949 -2.9435  0.4591 -0.4992
 6948SOL     OW32305   4.574   0.965   4.837  0.8955  0.0804 -0.3683
 6948SOL    HW132306   4.522   0.985   4.759 -0.8208 -2.1155  0.2256
 6948SOL    HW232307   4.583   0.869   4.839 -0.1043 -0.0326 -1.2255
 6949SOL     OW32308   1.861   0.156  11.837 -0.4622  0.4740 -0.3655
 6949SOL    HW132309   1.954   0.171  11.855 -0.6139  2.1622 -0.9581
 6949SOL    HW232310   1.866   0.185  11.746 -0.6767  1.2447 -0.1374
 6950SOL     OW32311   4.585   4.025   3.187  0.2676  0.1146  0.5272
 6950SOL    HW132312   4.555   3.967   3.118 -0.2271 -0.3421  1.1230
 6950SOL    HW232313   4.653   4.065   3.133  0.3667  0.9250  1.2459
 6951SOL     OW32314   0.450   3.910   2.569  0.0079 -0.2919  0.1489
 6951SOL    HW132315   0.512   3.912   2.496  2.2161  1.2051  2.0503
 6951SOL    HW232316   0.367   3.898   2.523 -0.2197  1.3516  0.1401
 6952SOL     OW32317   1.905   0.716  17.420  0.0920  0.1247 -0.7629
 6952SOL    HW132318   1.955   0.725  17.339  0.3443  1.6678 -0.4407
 6952SOL    HW232319   1.919   0.624  17.442  1.9316  0.3312 -1.0539
 6953SOL     OW32320   0.952   1.275  11.723 -0.3295 -0.0733  0.0861
 6953SOL    HW132321   1.024   1.213  11.710  0.4438  1.0589 -0.9886
 6953SOL    HW232322   0.881   1.230  11.678 -0.4517 -0.5598  0.7526
 6954SOL     OW32323   1.901   2.581  16.279  0.4030 -0.4959 -0.3343
 6954SOL    HW132324   1.838   2.531  16.330  1.1128 -1.7282 -0.6823
 6954SOL    HW232325   1.858   2.569  16.194  0.0555  2.4345 -0.5879
 6955SOL     OW32326   4.669   0.864   3.741  0.6330  0.4234  0.0492
 6955SOL    HW132327   4.617   0.809   3.682  0.9694  1.5332 -1.2722
 6955SOL    HW232328   4.716   0.789   3.778 -1.9302  0.1938  2.8481
 6956SOL     OW32329   1.334   1.808  10.623  0.1451  0.0662  0.3585
 6956SOL    HW132330   1.373   1.792  10.537  1.7304  2.4999  0.6230
 6956SOL    HW232331   1.336   1.904  10.614  1.0775 -0.0831 -1.1797
 6957SOL     OW32332   1.749   4.613  17.680  0.2531 -0.8394 -0.4749
 6957SOL    HW132333   1.755   4.521   0.004  1.4374 -0.8951 -0.9984
 6957SOL    HW232334   1.833   4.651   0.008  0.1734 -0.4791 -0.7407
 6958SOL     OW32335   0.991   0.429   4.373  0.8005 -0.1006  0.7222
 6958SOL    HW132336   0.939   0.482   4.433 -0.4966 -0.1184 -0.3722
 6958SOL    HW232337   1.056   0.390   4.431  1.7759 -2.3293 -1.8526
 6959SOL     OW32338   4.191   0.481  15.205 -0.4823  0.5728 -0.4414
 6959SOL    HW132339   4.226   0.392  15.208 -0.8124  0.4948  1.0609
 6959SOL    HW232340   4.261   0.529  15.249 -0.6437  0.4683 -0.0706
 6960SOL     OW32341   0.585   2.001   5.616  0.1749  0.2432  0.0793
 6960SOL    HW132342   0.517   2.055   5.577  0.1764 -0.3055 -0.7003
 6960SOL    HW232343   0.531   1.950   5.676  0.3066  0.6533  0.5411
 6961SOL     OW32344   0.458   0.597   4.046 -0.3832  0.3634 -0.0420
 6961SOL    HW132345   0.513   0.675   4.054  1.0506 -0.7711  1.2997
 6961SOL    HW232346   0.478   0.544   4.124  1.3310  0.4120 -0.4383
 6962SOL     OW32347   2.062   3.553   2.314 -0.2916 -0.4297 -0.2751
 6962SOL    HW132348   2.024   3.501   2.244 -0.9905  1.5820 -1.3690
 6962SOL    HW232349   1.984   3.602   2.340  0.9280  2.5701 -2.3253
 6963SOL     OW32350   2.225   2.228   7.038 -0.0789  0.1973  0.4582
 6963SOL    HW132351   2.252   2.320   7.035  0.8718 -0.0449  1.5199
 6963SOL    HW232352   2.130   2.220   7.043 -0.2040  1.7947  0.4628
 6964SOL     OW32353   1.523   1.824   3.348  0.1992  0.4483 -0.1023
 6964SOL    HW132354   1.443   1.772   3.340  0.8870 -0.3019 -2.1533
 6964SOL    HW232355   1.536   1.876   3.269  2.3344  2.3058  1.4789
 6965SOL     OW32356   0.561   3.348   3.331 -0.3935  0.0536  0.3835
 6965SOL    HW132357   0.471   3.319   3.345 -0.8255 -0.0993 -2.6010
 6965SOL    HW232358   0.580   3.302   3.249 -1.3311  4.5942 -2.3821
 6966SOL     OW32359   4.195   3.384   9.636 -0.5096 -0.1128 -0.3690
 6966SOL    HW132360   4.188   3.293   9.663  0.6360 -0.1748 -0.2656
 6966SOL    HW232361   4.103   3.409   9.646 -0.5432  0.2446 -1.6044
 6967SOL     OW32362   4.667   2.007   8.490  0.1597 -0.1903 -0.0815
 6967SOL    HW132363   4.706   1.928   8.528 -1.4399  0.3161  2.6039
 6967SOL    HW232364   0.020   2.029   8.438  0.5693  1.3098  1.1759
 6968SOL     OW32365   0.448   0.601   3.060  0.1176  0.2797 -0.0889
 6968SOL    HW132366   0.540   0.599   3.084 -0.1648  1.5750  1.1342
 6968SOL    HW232367   0.420   0.510   3.076  0.7223 -0.4817 -3.4308
 6969SOL     OW32368   1.876   1.110   4.550  0.0794  0.0100 -0.3601
 6969SOL    HW132369   1.854   1.063   4.630  0.9658  1.0452  0.4897
 6969SOL    HW232370   1.861   1.045   4.480  1.1799 -1.1450  0.4915
 6970SOL     OW32371   0.713   2.296   4.066 -0.0156 -0.2152 -0.2258
 6970SOL    HW132372   0.707   2.383   4.028 -2.0709 -1.3247 -2.4179
 6970SOL    HW232373   0.773   2.317   4.138  1.1030 -0.5567 -1.0527
 6971SOL     OW32374   2.325   2.781  14.530 -0.0052  0.6691 -0.2129
 6971SOL    HW132375   2.308   2.715  14.462  0.0849  1.6018 -1.1532
 6971SOL    HW232376   2.287   2.742  14.608  1.9486 -0.2815  0.2538
 6972SOL     OW32377   3.672   0.181   2.977  0.3427 -0.4427 -0.0294
 6972SOL    HW132378   3.678   0.190   2.882 -2.9493 -2.2127 -0.4096
 6972SOL    HW232379   3.725   0.254   3.007 -0.0303 -0.5302  0.8388
 6973SOL     OW32380   0.147   1.109   8.882  0.3269  0.2789  0.2934
 6973SOL    HW132381   0.242   1.103   8.871 -0.0010 -0.2803 -2.1844
 6973SOL    HW232382   0.143   1.204   8.888  1.8959  0.3599  0.0249
 6974SOL     OW32383   0.632   2.205  12.642  0.6130  0.1340  0.0816
 6974SOL    HW132384   0.679   2.211  12.725  2.7725 -0.1481 -1.1284
 6974SOL    HW232385   0.548   2.169  12.670  0.2498  2.1663  1.5300
 6975SOL     OW32386   2.682   3.770  16.983  0.0682  0.1941  0.1852
 6975SOL    HW132387   2.641   3.761  16.897  3.0041  0.1103 -1.2160
 6975SOL    HW232388   2.733   3.850  16.971  0.9364 -0.0791  2.0836
 6976SOL     OW32389   3.305   0.434   4.506  0.4807 -0.5691 -0.4981
 6976SOL    HW132390   3.266   0.386   4.432  0.5943  0.9604 -1.5477
 6976SOL    HW232391   3.251   0.406   4.579 -1.3675  2.6856 -0.6311
 6977SOL     OW32392   1.625   0.761   2.449  0.0399 -0.4927 -0.4624
 6977SOL    HW132393   1.541   0.734   2.487 -0.3792  0.6573 -0.5798
 6977SOL    HW232394   1.597   0.840   2.403  1.9404  0.6398  0.3289
 6978SOL     OW32395   3.718   4.416  16.296  0.4108  0.2687  0.3553
 6978SOL    HW132396   3.692   4.481  16.231  0.6122 -0.9144 -0.8997
 6978SOL    HW232397   3.747   4.481  16.360  2.3111  2.2716 -2.4985
 6979SOL     OW32398   4.574   3.170   3.483 -1.1273  0.2957  0.4728
 6979SOL    HW132399   4.614   3.086   3.506 -0.9176  0.1916 -0.2805
 6979SOL    HW232400   4.485   3.142   3.464 -0.1195 -2.2709 -0.5408
 6980SOL     OW32401   0.540   0.976  15.276  0.2131 -0.1278 -0.5028
 6980SOL    HW132402   0.485   1.048  15.244 -0.3399 -0.1649  0.3607
 6980SOL    HW232403   0.497   0.977  15.361 -0.9539 -1.5264 -1.0752
 6981SOL     OW32404   2.015   2.636   3.785 -0.3436  0.0679  0.1571
 6981SOL    HW132405   1.978   2.640   3.696 -0.5573 -1.1626  0.2033
 6981SOL    HW232406   2.103   2.665   3.759 -0.1782 -0.0909  0.5411
 6982SOL     OW32407   1.391   1.510  14.710 -0.4807  1.0009 -0.3304
 6982SOL    HW132408   1.423   1.544  14.794  0.7826 -2.2010  0.5011
 6982SOL    HW232409   1.474   1.483  14.671 -0.6456  0.7889 -0.5288
 6983SOL     OW32410   0.939   2.542   9.369 -0.2241  0.1952 -1.0066
 6983SOL    HW132411   0.862   2.596   9.352 -0.9799 -0.2740  0.9017
 6983SOL    HW232412   0.978   2.590   9.442 -0.0675 -0.6670 -0.5129
 6984SOL     OW32413   2.914   1.294   9.661 -0.3399  0.5913  0.4627
 6984SOL    HW132414   2.925   1.263   9.571  0.1298 -3.2435  1.8470
 6984SOL    HW232415   2.901   1.214   9.713  1.4982 -0.4284 -0.6441
 6985SOL     OW32416   3.181   0.922   8.288  0.2803 -0.1711 -0.4677
 6985SOL    HW132417   3.231   1.003   8.299 -2.6652  1.7521 -1.2408
 6985SOL    HW232418   3.154   0.929   8.197 -0.2842 -0.5219 -0.3353
 6986SOL     OW32419   3.273   4.189   2.359  0.1865 -0.4248  0.2632
 6986SOL    HW132420   3.242   4.133   2.430 -0.8020 -1.1919 -0.7765
 6986SOL    HW232421   3.313   4.264   2.404 -3.5174  1.6901  0.0521
 6987SOL     OW32422   3.459   4.134   9.317  0.6629 -0.7454 -0.5978
 6987SOL    HW132423   3.389   4.177   9.368  0.7304 -1.1462 -0.1713
 6987SOL    HW232424   3.482   4.069   9.383  1.7114 -1.0318 -1.2504
 6988SOL     OW32425   2.772   1.143   9.424 -0.1326  0.4461 -0.0709
 6988SOL    HW132426   2.705   1.176   9.485  0.0870 -1.1483  1.0390
 6988SOL    HW232427   2.828   1.220   9.420  0.9937 -0.5141 -3.0633
 6989SOL     OW32428   2.511   2.833   5.461 -1.0002 -0.0720  0.0979
 6989SOL    HW132429   2.457   2.795   5.530 -1.2770  0.0106 -0.0707
 6989SOL    HW232430   2.523   2.922   5.495  0.4164 -0.8038  1.4838
 6990SOL     OW32431   3.704   2.846   6.114 -0.1164  0.1036 -0.3768
 6990SOL    HW132432   3.621   2.857   6.160  0.5025  0.2837  0.6723
 6990SOL    HW232433   3.696   2.912   6.045 -0.6073 -2.1430 -2.4842
 6991SOL     OW32434   3.283   1.442   4.097 -0.7071  0.5233 -0.9847
 6991SOL    HW132435   3.333   1.365   4.072 -0.4950 -0.7462  3.2407
 6991SOL    HW232436   3.284   1.448   4.193 -1.9315  0.4439 -0.9645
 6992SOL     OW32437   0.071   3.926   3.884  0.6118 -0.0666 -0.4443
 6992SOL    HW132438   0.117   3.878   3.815  2.9416  0.4798  0.7113
 6992SOL    HW232439   0.032   3.858   3.938 -2.1895  2.8415  1.1883
 6993SOL     OW32440   2.350   0.226  12.336  0.6120 -0.3997  0.3413
 6993SOL    HW132441   2.418   0.197  12.396  1.4032  0.3740 -0.1732
 6993SOL    HW232442   2.385   0.201  12.250  0.3857 -0.0665  0.1509
 6994SOL     OW32443   3.223   4.300  14.525 -0.2787 -0.6299 -0.0656
 6994SOL    HW132444   3.307   4.275  14.565 -0.1301 -1.9521 -1.1943
 6994SOL    HW232445   3.169   4.229  14.559 -0.6349  0.3207  1.3342
 6995SOL     OW32446   3.187   1.355  13.494  0.2705 -0.2344 -1.0557
 6995SOL    HW132447   3.115   1.413  13.518  0.2835 -0.9057  0.6232
 6995SOL    HW232448   3.262   1.413  13.506  1.7919 -2.5404  0.6175
 6996SOL     OW32449   3.976   3.185   4.254  0.4052 -0.0985  0.1859
 6996SOL    HW132450   3.966   3.273   4.292 -3.2587 -0.2450 -0.3764
 6996SOL    HW232451   3.890   3.172   4.215  1.6600  0.5391 -2.7870
 6997SOL     OW32452   0.922   0.096   1.316 -0.4180  0.0425 -0.0538
 6997SOL    HW132453   1.003   0.147   1.324 -0.7496  0.3721  1.1716
 6997SOL    HW232454   0.942   0.007   1.343  0.3030  0.4480  0.7658
 6998SOL     OW32455   3.723   0.954   2.133 -0.3393 -0.4356 -0.0599
 6998SOL    HW132456   3.777   0.915   2.201  0.1314 -2.1200 -1.4165
 6998SOL    HW232457   3.662   0.881   2.122 -3.5953  1.9766  1.8735
 6999SOL     OW32458   4.253   1.962   1.468 -0.1541 -0.5169  0.1607
 6999SOL    HW132459   4.273   1.899   1.537 -1.1424 -1.3081 -0.2674
 6999SOL    HW232460   4.239   1.907   1.391  1.3454 -0.1944 -0.3396
 7000SOL     OW32461   4.456   2.632   6.455 -0.2060  0.2371 -0.0144
 7000SOL    HW132462   4.516   2.557   6.462  0.3544  0.8069  1.3929
 7000SOL    HW232463   4.381   2.588   6.415 -0.5755  0.4547  0.4369
 7001SOL     OW32464   1.868   2.720   7.151 -0.6172 -0.1905 -0.0214
 7001SOL    HW132465   1.831   2.634   7.169 -2.8618  0.2424 -2.5223
 7001SOL    HW232466   1.785   2.766   7.137 -1.5601 -2.3500 -1.5513
 7002SOL     OW32467   0.324   4.000   1.443 -0.0539  0.5281  0.4136
 7002SOL    HW132468   0.309   3.907   1.456  1.0587  0.6149  2.3688
 7002SOL    HW232469   0.419   4.000   1.433 -0.0602  0.0398  0.3392
 7003SOL     OW32470   1.258   1.136   8.984  0.0097 -0.3035  0.4677
 7003SOL    HW132471   1.218   1.183   9.057  1.8618  1.0193  0.6330
 7003SOL    HW232472   1.221   1.048   8.991 -0.0296 -0.4144 -1.0940
 7004SOL     OW32473   4.052   2.740   4.340  0.6077 -0.1120 -0.1166
 7004SOL    HW132474   4.100   2.742   4.423 -1.0468 -0.2120  0.8441
 7004SOL    HW232475   4.029   2.832   4.326 -1.1932 -0.7057 -1.1324
 7005SOL     OW32476   3.989   2.513  14.773  0.4380  0.6679 -0.0480
 7005SOL    HW132477   3.934   2.529  14.696  1.0337  0.7331 -0.4611
 7005SOL    HW232478   4.048   2.587  14.764 -0.3612  1.2969 -0.0449
 7006SOL     OW32479   4.363   4.382   2.307 -0.4857 -0.1669  0.2345
 7006SOL    HW132480   4.317   4.329   2.372  0.8112 -0.0806  1.2327
 7006SOL    HW232481   4.323   4.468   2.319 -0.3978 -0.3848  2.1428
 7007SOL     OW32482   3.390   1.621   3.001 -0.0887 -0.2225  0.3913
 7007SOL    HW132483   3.307   1.664   3.022 -1.1368 -2.5314  1.0338
 7007SOL    HW232484   3.431   1.694   2.954 -1.5716  0.3269 -0.0431
 7008SOL     OW32485   3.264   0.508   4.910  0.2876  0.0270  0.0347
 7008SOL    HW132486   3.208   0.578   4.945 -0.6088 -0.3191 -0.6955
 7008SOL    HW232487   3.199   0.488   4.842  0.1318 -0.5512  0.3531
 7009SOL     OW32488   0.020   2.051   9.758 -0.4882 -0.3221 -0.0344
 7009SOL    HW132489   4.718   2.085   9.844  2.1830  0.0687  0.6388
 7009SOL    HW232490   0.091   2.112   9.739  0.2126 -1.6083 -1.5080
 7010SOL     OW32491   0.171   4.334   2.870 -0.0335  0.1126 -0.2362
 7010SOL    HW132492   0.179   4.347   2.964 -0.8470  2.0051 -0.4109
 7010SOL    HW232493   0.091   4.380   2.842 -1.2833 -3.4265 -2.4497
 7011SOL     OW32494   2.138   1.374  12.564 -0.6451  0.5979  0.1252
 7011SOL    HW132495   2.094   1.289  12.569  1.0048 -0.2649  0.0898
 7011SOL    HW232496   2.105   1.404  12.480 -0.6803  2.0134  0.6468
 7012SOL     OW32497   1.451   2.596   1.366 -0.5494  0.0181 -0.1273
 7012SOL    HW132498   1.421   2.509   1.341  0.4653  0.1710 -1.8900
 7012SOL    HW232499   1.388   2.654   1.323 -0.7272 -0.2367 -0.2097
 7013SOL     OW32500   3.720   2.234  13.187 -0.3943 -0.2591 -0.1694
 7013SOL    HW132501   3.772   2.169  13.140  0.3259  1.2484 -1.4677
 7013SOL    HW232502   3.693   2.292  13.116  0.9686 -0.2119 -0.6608
 7014SOL     OW32503   1.804   2.344  11.508  0.2064  0.4475  0.2132
 7014SOL    HW132504   1.826   2.352  11.601 -1.1514  0.1835  0.5496
 7014SOL    HW232505   1.892   2.315  11.483  0.7039  0.9417  1.3876
 7015SOL     OW32506   3.742   3.343   7.727  0.1523 -0.0824 -0.3610
 7015SOL    HW132507   3.649   3.347   7.703  0.6656  0.2778 -2.2634
 7015SOL    HW232508   3.734   3.322   7.820 -2.7828 -0.3084 -0.6641
 7016SOL     OW32509   2.733   4.198  13.230 -0.0322  0.2379  0.0229
 7016SOL    HW132510   2.644   4.229  13.250 -1.0336 -2.1717 -0.6297
 7016SOL    HW232511   2.734   4.102  13.226  0.8320  0.1820  1.9658
 7017SOL     OW32512   1.950   0.216   4.049  0.6256  0.0458 -0.1700
 7017SOL    HW132513   1.980   0.126   4.045  4.5896  1.4200 -1.0186
 7017SOL    HW232514   1.878   0.208   3.987 -0.6633  1.5140  1.1405
 7018SOL     OW32515   2.590   2.451  15.984 -0.1767 -0.0670 -0.2113
 7018SOL    HW132516   2.537   2.375  16.008 -0.0428  0.0518  0.4539
 7018SOL    HW232517   2.641   2.468  16.063  0.3353 -2.0700 -0.1114
 7019SOL     OW32518   4.185   0.343   2.716  0.2422 -0.0634  0.4855
 7019SOL    HW132519   4.240   0.272   2.685  1.7496  0.6496  1.5544
 7019SOL    HW232520   4.226   0.415   2.668 -0.7916 -0.9760 -1.8024
 7020SOL     OW32521   4.622   1.689   3.173 -0.2884 -0.7429 -0.3854
 7020SOL    HW132522   4.535   1.726   3.160  0.3048 -0.1922 -2.7026
 7020SOL    HW232523   4.662   1.679   3.086  0.5177 -1.6823  0.0888
 7021SOL     OW32524   1.282   4.646   1.650 -0.8532  0.0558 -0.7424
 7021SOL    HW132525   1.220   4.580   1.619  0.7995 -1.6111 -0.4533
 7021SOL    HW232526   1.218   4.705   1.689  2.2227  2.0705  1.2770
 7022SOL     OW32527   1.343   2.602   4.872  0.0626  0.0484  0.2808
 7022SOL    HW132528   1.379   2.519   4.842 -2.2574 -0.1043 -2.1376
 7022SOL    HW232529   1.425   2.644   4.897  0.0359 -0.0925  0.5970
 7023SOL     OW32530   3.260   3.367   6.485  0.3329 -0.2988  0.0274
 7023SOL    HW132531   3.188   3.305   6.479 -0.4365  0.6992 -1.1456
 7023SOL    HW232532   3.332   3.305   6.499  0.0630 -0.9543 -1.4923
 7024SOL     OW32533   2.691   0.821   7.444  0.4502  0.2977  0.3244
 7024SOL    HW132534   2.761   0.839   7.506 -0.7514  0.5847  1.5966
 7024SOL    HW232535   2.613   0.824   7.499  1.0544 -0.1601  1.2031
 7025SOL     OW32536   4.482   1.925   7.110 -0.1698  0.8750 -0.3434
 7025SOL    HW132537   4.434   1.924   7.028 -1.7150  1.1102  0.5600
 7025SOL    HW232538   4.412   1.939   7.174  0.2061  0.6501  0.1176
 7026SOL     OW32539   3.879   1.036   6.547 -0.4784  0.2749 -0.2367
 7026SOL    HW132540   3.877   0.974   6.475 -2.2974  2.5075 -2.1006
 7026SOL    HW232541   3.955   1.089   6.524  0.0913 -1.2157 -1.7250
 7027SOL     OW32542   1.006   1.144  16.530  0.4527 -0.0222 -0.0293
 7027SOL    HW132543   1.094   1.158  16.496  0.1933 -0.4648 -0.8989
 7027SOL    HW232544   1.000   1.226  16.579  0.1161  1.0531 -1.8573
 7028SOL     OW32545   2.316   1.019   4.099  0.6617  0.0740  0.4744
 7028SOL    HW132546   2.298   0.988   4.010  1.5995  1.8014 -0.3232
 7028SOL    HW232547   2.391   0.962   4.116 -1.0682 -1.4701  2.8603
 7029SOL     OW32548   4.188   3.533  16.392 -0.3739 -0.2588 -0.3179
 7029SOL    HW132549   4.101   3.547  16.353 -0.0602 -0.0519 -0.9373
 7029SOL    HW232550   4.236   3.568  16.317 -1.0731 -0.0141 -0.6545
 7030SOL     OW32551   0.646   1.946   5.021  0.2204  0.1273  0.0358
 7030SOL    HW132552   0.685   1.951   5.109 -1.2190  1.5146  0.5987
 7030SOL    HW232553   0.556   1.926   5.047 -0.6036  4.0035  0.1445
 7031SOL     OW32554   0.995   3.503  15.611  0.1452 -0.2501 -0.2255
 7031SOL    HW132555   0.918   3.515  15.667 -1.3808  0.1659 -2.4330
 7031SOL    HW232556   0.949   3.504  15.528 -0.0762 -0.7158 -0.1112
 7032SOL     OW32557   1.127   0.407  13.405  0.2819  0.4221  0.3077
 7032SOL    HW132558   1.174   0.438  13.483  1.1735 -0.5351  0.1515
 7032SOL    HW232559   1.181   0.445  13.336 -1.0424  0.9820 -0.4150
 7033SOL     OW32560   4.540   0.857   4.143  0.4805 -0.3802 -1.0226
 7033SOL    HW132561   4.607   0.876   4.078  0.0742 -1.3545 -1.7268
 7033SOL    HW232562   4.579   0.778   4.181  0.6856  0.3554  0.2915
 7034SOL     OW32563   3.425   2.180   5.483  0.5128 -0.0632  0.9457
 7034SOL    HW132564   3.408   2.158   5.392 -0.0852 -1.3848  1.3660
 7034SOL    HW232565   3.406   2.098   5.530 -0.4815 -0.0931  0.5046
 7035SOL     OW32566   2.290   4.012   8.300  0.9066  0.3553 -0.2380
 7035SOL    HW132567   2.292   4.052   8.213  1.0485 -0.7941 -0.7601
 7035SOL    HW232568   2.375   3.969   8.292  0.5251 -0.5621  0.7584
 7036SOL     OW32569   2.543   2.512  11.979  0.2768  0.8132  0.1609
 7036SOL    HW132570   2.496   2.437  11.943 -1.0283  0.8108  1.8831
 7036SOL    HW232571   2.496   2.545  12.055  1.4852  1.9620  0.4312
 7037SOL     OW32572   2.613   1.029   4.302  0.2835 -0.0325 -0.0042
 7037SOL    HW132573   2.677   1.083   4.257 -0.0851  1.8805  1.7839
 7037SOL    HW232574   2.603   1.085   4.379  1.4841 -0.7192  0.6492
 7038SOL     OW32575   3.001   0.945   8.737  0.2318 -0.1728 -0.5213
 7038SOL    HW132576   2.994   1.038   8.714 -1.0724 -0.1578 -0.0714
 7038SOL    HW232577   2.920   0.910   8.701  0.4753 -0.3741 -0.8764
 7039SOL     OW32578   3.532   3.576   3.174 -0.3807  0.0259 -0.1683
 7039SOL    HW132579   3.608   3.521   3.188 -1.0419 -0.0354  3.2217
 7039SOL    HW232580   3.478   3.520   3.117  0.2767  0.8669 -1.6147
 7040SOL     OW32581   3.033   3.820  16.046 -0.5151  0.1675 -0.8384
 7040SOL    HW132582   2.983   3.740  16.059 -1.2639  0.9972  1.3523
 7040SOL    HW232583   3.116   3.791  16.083  1.0622  1.2684 -3.5006
 7041SOL     OW32584   3.448   4.432  15.695 -0.5523 -0.0039 -0.1452
 7041SOL    HW132585   3.519   4.432  15.631 -1.0866  1.5648 -0.7495
 7041SOL    HW232586   3.374   4.398  15.643 -0.9908 -0.0216  0.4908
 7042SOL     OW32587   1.447   1.986   6.972  0.2701 -0.4279 -0.3030
 7042SOL    HW132588   1.520   2.034   6.931  0.6949  1.2801  2.4544
 7042SOL    HW232589   1.419   1.933   6.898 -0.8684 -1.5526  0.9565
 7043SOL     OW32590   4.295   3.512   4.170 -0.6766  0.7737  0.0830
 7043SOL    HW132591   4.321   3.591   4.122 -1.6891  0.4226 -1.0420
 7043SOL    HW232592   4.249   3.540   4.249  1.3490 -0.7501  1.8020
 7044SOL     OW32593   3.409   1.450  13.799 -0.3442  0.2767 -0.3886
 7044SOL    HW132594   3.314   1.444  13.809 -0.0890 -2.5455  0.3891
 7044SOL    HW232595   3.421   1.520  13.862  0.6669  0.5771 -0.9078
 7045SOL     OW32596   4.547   0.600  14.513  0.5515  0.1192  0.1011
 7045SOL    HW132597   4.487   0.576  14.442  1.8936 -0.6279 -0.7858
 7045SOL    HW232598   4.499   0.590  14.595  1.8038  3.3522  1.2438
 7046SOL     OW32599   2.003   4.493   0.386  0.4000  0.5685  0.5734
 7046SOL    HW132600   2.016   4.508   0.292  3.3602 -0.2590  0.8576
 7046SOL    HW232601   1.992   4.398   0.385  2.8775  0.2954 -0.5468
 7047SOL     OW32602   2.623   2.943   3.570  0.6222 -0.1187  0.4581
 7047SOL    HW132603   2.718   2.953   3.560  0.5213  0.3022 -0.0512
 7047SOL    HW232604   2.605   2.975   3.482  0.6249  0.0993  0.5376
 7048SOL     OW32605   3.826   2.251   3.807 -0.4702 -0.0265  0.4235
 7048SOL    HW132606   3.908   2.205   3.826  0.0007 -0.0907 -1.7411
 7048SOL    HW232607   3.764   2.179   3.814  0.2862 -0.4716  2.5528
 7049SOL     OW32608   4.553   1.609   5.597  0.2458 -0.2302 -0.1888
 7049SOL    HW132609   4.624   1.554   5.564  1.9164  0.0678  2.8972
 7049SOL    HW232610   4.522   1.638   5.511  0.2721  2.0359  0.5483
 7050SOL     OW32611   3.140   1.044  14.976 -0.2880 -0.0813 -0.2275
 7050SOL    HW132612   3.099   1.027  14.891 -3.2209  0.0770  1.1332
 7050SOL    HW232613   3.150   1.139  14.965 -0.2128 -0.1428 -0.7062
 7051SOL     OW32614   2.020   0.216   4.998 -0.2999 -0.4154 -0.0121
 7051SOL    HW132615   1.929   0.204   5.025 -0.7027  0.9864 -0.7221
 7051SOL    HW232616   2.052   0.168   5.074 -0.1985  0.6528  0.6274
 7052SOL     OW32617   3.610   2.138  14.539  0.0304  0.4105  1.1680
 7052SOL    HW132618   3.587   2.060  14.590 -1.0184 -1.1492 -1.7005
 7052SOL    HW232619   3.580   2.214  14.588 -1.4896  0.6999 -0.1983
 7053SOL     OW32620   3.419   2.978   8.614 -0.3618  0.5762  0.3316
 7053SOL    HW132621   3.342   2.988   8.558  0.0655  1.6929 -0.0700
 7053SOL    HW232622   3.395   2.904   8.670  2.0316 -1.1304 -0.9102
 7054SOL     OW32623   1.127   1.515  11.750 -0.1515  0.1023 -0.4046
 7054SOL    HW132624   1.134   1.538  11.658  1.2218  1.3746  0.0269
 7054SOL    HW232625   1.079   1.432  11.754  1.4356 -0.7964 -0.0490
 7055SOL     OW32626   2.211   0.279   3.230 -0.5123  0.1413  0.0048
 7055SOL    HW132627   2.238   0.213   3.165 -0.0571 -0.8935  1.2356
 7055SOL    HW232628   2.199   0.225   3.308 -1.3375 -0.2206 -0.3706
 7056SOL     OW32629   2.192   3.458  13.623  0.2830 -0.0319  0.1224
 7056SOL    HW132630   2.160   3.435  13.535 -1.5866  0.1953  0.7436
 7056SOL    HW232631   2.192   3.553  13.610  0.4621 -0.2109 -1.2330
 7057SOL     OW32632   0.344   3.713   2.770 -0.5038  0.3311  0.3481
 7057SOL    HW132633   0.372   3.738   2.681 -0.4001 -3.9896 -0.8064
 7057SOL    HW232634   0.255   3.681   2.760 -0.3894 -0.1151  0.7856
 7058SOL     OW32635   0.590   4.331   9.283 -0.2374 -0.0078  0.1630
 7058SOL    HW132636   0.619   4.394   9.217 -0.7165  0.0450  0.0066
 7058SOL    HW232637   0.547   4.392   9.343 -1.8913  0.7894 -1.8380
 7059SOL     OW32638   1.346   2.518   6.050  0.5039  0.5148  0.1300
 7059SOL    HW132639   1.352   2.588   5.984  3.4175 -1.1192 -1.3561
 7059SOL    HW232640   1.412   2.459   6.015 -0.5707 -0.6665  0.1277
 7060SOL     OW32641   4.094   0.226   6.354  0.0690  0.5151  0.8017
 7060SOL    HW132642   4.162   0.160   6.361 -0.0122  0.3219 -0.1722
 7060SOL    HW232643   4.155   0.296   6.373  1.7761 -0.4528 -1.1360
 7061SOL     OW32644   3.420   4.125   9.777  0.8567  0.4888 -0.4248
 7061SOL    HW132645   3.403   4.213   9.743  1.2345  1.6075  2.2324
 7061SOL    HW232646   3.486   4.148   9.843 -0.5365 -2.2957  1.9418
 7062SOL     OW32647   2.650   4.131   7.056  0.4789  0.4310  0.0846
 7062SOL    HW132648   2.624   4.154   7.146  0.4060  2.1514 -0.3683
 7062SOL    HW232649   2.725   4.189   7.047  0.2286  0.3238 -2.7257
 7063SOL     OW32650   3.563   2.667  13.004  0.0088 -0.4723  0.3149
 7063SOL    HW132651   3.508   2.605  12.956  0.8921 -1.7049  0.8808
 7063SOL    HW232652   3.524   2.664  13.091 -2.8575  0.3818 -0.9452
 7064SOL     OW32653   0.286   1.848  13.083  0.6467 -0.5361 -0.0224
 7064SOL    HW132654   0.319   1.881  13.167 -1.1557 -1.9301  1.2269
 7064SOL    HW232655   0.337   1.770  13.059  0.5503 -1.2229  2.0203
 7065SOL     OW32656   2.649   0.379   4.493 -0.5269 -0.1119 -0.0403
 7065SOL    HW132657   2.561   0.350   4.470 -0.0602 -1.0492 -0.6421
 7065SOL    HW232658   2.675   0.422   4.412  2.0584  0.2672  0.9856
 7066SOL     OW32659   3.063   4.486  12.509 -0.5323 -0.1926 -0.1648
 7066SOL    HW132660   3.112   4.541  12.570  2.3631 -2.9183 -0.0127
 7066SOL    HW232661   2.980   4.533  12.504  0.6118  1.8674  0.1026
 7067SOL     OW32662   2.263   1.041   2.150  0.3261  0.3387 -0.2922
 7067SOL    HW132663   2.252   1.042   2.245 -0.3623  0.3909 -0.3715
 7067SOL    HW232664   2.252   0.948   2.130  1.8701 -0.0063  0.4705
 7068SOL     OW32665   3.271   2.198   3.730 -0.2404 -0.3411 -0.4402
 7068SOL    HW132666   3.242   2.288   3.714 -0.9443 -0.3717  0.6514
 7068SOL    HW232667   3.363   2.199   3.705 -0.2290  0.4277 -0.3740
 7069SOL     OW32668   2.072   3.752  14.723 -0.3907  0.2200  0.2941
 7069SOL    HW132669   2.021   3.729  14.801 -2.9754  2.0117 -0.8834
 7069SOL    HW232670   2.078   3.670  14.674  0.0739 -0.3612  1.3212
 7070SOL     OW32671   0.376   0.390   8.567  0.1866 -0.8590 -0.0513
 7070SOL    HW132672   0.290   0.407   8.603  0.4556  1.3980 -0.5073
 7070SOL    HW232673   0.364   0.378   8.473 -1.6713  1.0710 -0.0457
 7071SOL     OW32674   1.260   0.498   6.367  0.0770 -0.0695  0.4276
 7071SOL    HW132675   1.201   0.456   6.430 -0.0671 -1.9664 -0.9530
 7071SOL    HW232676   1.195   0.522   6.301 -0.2076  0.1377  0.7865
 7072SOL     OW32677   1.610   2.994   9.765 -0.0749 -0.3066  0.2089
 7072SOL    HW132678   1.517   2.974   9.782 -0.3628  1.3982  0.5593
 7072SOL    HW232679   1.597   3.073   9.713 -1.4579 -0.6427  0.0167
 7073SOL     OW32680   0.298   1.215   5.611  0.3775  0.2704  0.2202
 7073SOL    HW132681   0.347   1.177   5.685  0.0385  1.0473  0.8392
 7073SOL    HW232682   0.332   1.183   5.527  1.2970  0.7416  0.4129
 7074SOL     OW32683   1.046   0.059   6.076 -0.3151 -0.1312 -0.4807
 7074SOL    HW132684   1.084   0.097   5.997 -0.3087 -0.7694 -0.7807
 7074SOL    HW232685   1.001   0.142   6.092 -0.1859 -0.1166 -0.1819
 7075SOL     OW32686   2.058   0.715   7.350  0.1511  0.2720  0.0212
 7075SOL    HW132687   2.092   0.641   7.401  0.9454  0.2339 -0.5545
 7075SOL    HW232688   2.034   0.761   7.430 -0.3668  1.0951 -0.5997
 7076SOL     OW32689   0.023   1.129  12.417  0.3410  0.0245 -0.2674
 7076SOL    HW132690   0.113   1.140  12.387  0.0904  2.9097  0.0063
 7076SOL    HW232691   0.036   1.069  12.490 -3.1894 -2.1359 -1.3834
 7077SOL     OW32692   1.162   3.096   6.279 -0.0404  0.2343 -0.0764
 7077SOL    HW132693   1.229   3.133   6.336  0.4558  0.3985 -0.7614
 7077SOL    HW232694   1.206   3.103   6.194 -0.6553 -2.8810 -0.6433
 7078SOL     OW32695   0.731   4.477  17.493 -0.6558  0.2772 -0.2232
 7078SOL    HW132696   0.801   4.542  17.494 -1.7029  1.4206 -0.0393
 7078SOL    HW232697   0.724   4.463  17.588 -0.6752 -1.9790 -0.5489
 7079SOL     OW32698   1.650   3.938   2.275  0.3265 -0.3663 -0.0536
 7079SOL    HW132699   1.699   3.876   2.330 -0.5040 -0.3323  0.7256
 7079SOL    HW232700   1.560   3.904   2.276 -0.2656  1.3639  3.1853
 7080SOL     OW32701   2.471   1.289   5.099 -0.7941  0.3455  0.8973
 7080SOL    HW132702   2.560   1.253   5.102 -1.7356 -2.0814 -1.2357
 7080SOL    HW232703   2.460   1.302   5.193 -1.2733  1.6832  0.6577
 7081SOL     OW32704   4.593   0.291  15.585 -0.1951 -0.0216  1.0319
 7081SOL    HW132705   4.622   0.378  15.557  1.2536 -0.9148 -0.2170
 7081SOL    HW232706   4.672   0.269  15.634  2.1927  1.6652 -2.0578
 7082SOL     OW32707   4.588   3.835  11.801 -0.3328 -0.0225 -0.2561
 7082SOL    HW132708   4.518   3.814  11.864  0.6027 -1.5723  0.2727
 7082SOL    HW232709   4.619   3.750  11.770 -2.7087 -1.8505  2.3050
 7083SOL     OW32710   3.586   4.642  16.188 -0.2247  0.1482 -0.2324
 7083SOL    HW132711   3.495   4.632  16.162 -0.2029  0.5014 -0.4382
 7083SOL    HW232712   3.610   4.710  16.125  1.3623  0.0125  0.2121
 7084SOL     OW32713   0.293   4.524   7.041 -0.8806 -0.3295 -0.0259
 7084SOL    HW132714   0.227   4.591   7.020 -0.0294  0.9295  1.3840
 7084SOL    HW232715   0.269   4.519   7.133  1.0637  1.1420  0.5503
 7085SOL     OW32716   3.341   3.746  17.553  0.3011  0.1275  0.4038
 7085SOL    HW132717   3.375   3.777  17.637  1.8232  0.8204 -0.4770
 7085SOL    HW232718   3.417   3.714  17.505  0.7291  1.6896  0.0402
 7086SOL     OW32719   4.608   4.271   0.257 -0.0189 -0.5299  0.5749
 7086SOL    HW132720   4.574   4.303   0.341  0.4070 -0.6298  0.7868
 7086SOL    HW232721   4.541   4.279   0.188 -1.2656 -1.3875  1.6925
 7087SOL     OW32722   0.119   2.457  13.350 -0.0610 -0.0456  0.2901
 7087SOL    HW132723   0.149   2.473  13.260 -0.9147 -1.2916 -0.2107
 7087SOL    HW232724   0.037   2.506  13.344 -1.5403 -2.6392 -0.6337
 7088SOL     OW32725   0.464   2.986   1.643  0.1517  0.2623 -0.1922
 7088SOL    HW132726   0.399   3.017   1.579  0.3959  1.1074 -0.0289
 7088SOL    HW232727   0.484   2.899   1.608  0.8665  1.0889 -1.8667
 7089SOL     OW32728   2.247   4.245   6.375  0.6004  0.4248 -0.2871
 7089SOL    HW132729   2.184   4.218   6.442 -0.2344  2.3117 -0.3182
 7089SOL    HW232730   2.326   4.205   6.414  1.7312 -0.2401 -3.2711
 7090SOL     OW32731   2.064   1.707   0.779 -0.2723  0.1532 -0.0980
 7090SOL    HW132732   1.999   1.778   0.785 -1.2297 -0.7613  0.4286
 7090SOL    HW232733   2.066   1.678   0.688  1.9029 -2.6065  0.8305
 7091SOL     OW32734   2.909   4.558   4.405  0.2913  0.5023 -0.1020
 7091SOL    HW132735   2.920   4.527   4.315 -1.9150 -1.2201  0.2183
 7091SOL    HW232736   2.813   4.565   4.409  0.0480 -3.7970  1.1047
 7092SOL     OW32737   2.438   3.737  11.095 -0.0333 -0.6132 -0.9987
 7092SOL    HW132738   2.514   3.679  11.096 -0.3533 -1.0127  1.2581
 7092SOL    HW232739   2.373   3.672  11.123 -1.1392  1.2912  0.9510
 7093SOL     OW32740   3.271   1.489   2.634 -0.2367 -0.7790 -0.0301
 7093SOL    HW132741   3.289   1.583   2.630  0.5766 -0.9748 -0.8753
 7093SOL    HW232742   3.359   1.453   2.625  0.1815  0.8804 -2.3825
 7094SOL     OW32743   0.915   3.496   7.897  0.1128  0.1941 -0.6924
 7094SOL    HW132744   0.841   3.556   7.897  0.6534  0.8636 -1.1824
 7094SOL    HW232745   0.922   3.496   7.993 -1.7581  1.7332 -0.5573
 7095SOL     OW32746   0.330   3.991   1.767 -0.5011 -0.5074 -0.2827
 7095SOL    HW132747   0.259   3.973   1.705  0.2646  3.0892 -2.1915
 7095SOL    HW232748   0.342   4.082   1.739 -0.3065  0.0609  1.6752
 7096SOL     OW32749   3.405   2.120   2.400  0.0161 -0.0400 -0.5792
 7096SOL    HW132750   3.395   2.131   2.306  0.8970  0.4747 -0.6189
 7096SOL    HW232751   3.497   2.095   2.405  0.2541  0.7025 -1.2953
 7097SOL     OW32752   2.477   4.612  10.839 -0.6360 -0.0590  0.4829
 7097SOL    HW132753   2.517   4.604  10.752 -1.9636  2.0965 -0.3261
 7097SOL    HW232754   2.476   4.707  10.843  1.6785  0.0071 -0.4405
 7098SOL     OW32755   1.849   4.249   2.991  0.2910  0.2105 -0.6964
 7098SOL    HW132756   1.753   4.256   2.992  0.3040  0.4939 -1.1887
 7098SOL    HW232757   1.864   4.343   2.999 -2.6335  0.6006  0.2487
 7099SOL     OW32758   0.374   1.084   7.611 -0.0998 -0.2223  0.5582
 7099SOL    HW132759   0.416   0.998   7.622  2.5135  0.9454 -0.4339
 7099SOL    HW232760   0.294   1.059   7.565  1.2607 -1.7024 -0.9820
 7100SOL     OW32761   0.634   0.071   8.987  0.3315  0.0249  0.1581
 7100SOL    HW132762   0.584   0.064   8.906 -2.1060 -1.5952  1.8141
 7100SOL    HW232763   0.657   0.164   8.995  1.6823 -0.2594 -0.4943
 7101SOL     OW32764   4.406   3.288   2.501 -0.2054 -0.1075  0.2044
 7101SOL    HW132765   4.377   3.375   2.527 -0.3049  0.2202 -1.0347
 7101SOL    HW232766   4.462   3.274   2.578  1.7016 -1.6036 -1.4833
 7102SOL     OW32767   2.475   3.630  16.333  0.9527 -0.1593  0.1173
 7102SOL    HW132768   2.382   3.613  16.321  1.2024 -1.9356  0.6042
 7102SOL    HW232769   2.478   3.724  16.319  4.1623  0.0544  2.2718
 7103SOL     OW32770   3.576   3.696   3.566  0.1897 -0.1954 -0.1996
 7103SOL    HW132771   3.488   3.683   3.530  0.4688 -0.6725 -0.7066
 7103SOL    HW232772   3.612   3.767   3.514  0.7854  1.0197  1.8446
 7104SOL     OW32773   0.584   3.978   7.073  0.4072 -0.6852  0.0279
 7104SOL    HW132774   0.572   4.073   7.075  0.6002 -0.6384 -0.9307
 7104SOL    HW232775   0.596   3.962   6.980  1.3410  3.3846 -0.5690
 7105SOL     OW32776   1.870   0.572   6.499  0.5589  0.1870  0.2716
 7105SOL    HW132777   1.888   0.654   6.544 -4.1902  1.7658 -0.6978
 7105SOL    HW232778   1.824   0.608   6.423  1.1515 -1.5905 -0.9416
 7106SOL     OW32779   3.548   0.708   2.031 -0.2407  0.0704 -0.7634
 7106SOL    HW132780   3.488   0.775   1.998  1.7178  2.1474 -0.0989
 7106SOL    HW232781   3.495   0.630   2.048 -1.7541  1.1855 -0.4111
 7107SOL     OW32782   2.820   0.947   7.246  0.3449  0.2765 -0.1119
 7107SOL    HW132783   2.906   0.946   7.289  0.4406 -0.0655 -0.3095
 7107SOL    HW232784   2.771   0.893   7.307 -0.4228 -0.6505 -1.5490
 7108SOL     OW32785   4.361   0.458   9.996 -0.9234  0.0499  0.3048
 7108SOL    HW132786   4.437   0.504   9.961 -0.9529 -0.4707 -0.4363
 7108SOL    HW232787   4.287   0.495   9.949  0.1998  2.0454  0.0881
 7109SOL     OW32788   1.240   0.222   2.207  0.5678 -0.3450 -0.1567
 7109SOL    HW132789   1.147   0.233   2.187  0.3202  0.1856  1.2825
 7109SOL    HW232790   1.276   0.294   2.155 -2.2427  0.4979 -0.9415
 7110SOL     OW32791   2.582   0.653   7.241 -0.0028 -0.3810  0.0747
 7110SOL    HW132792   2.583   0.586   7.309 -3.2495  0.7183  1.1962
 7110SOL    HW232793   2.609   0.725   7.297 -0.8699  1.4391 -1.8452
 7111SOL     OW32794   0.906   2.434  13.056  0.2719  0.1642  0.4780
 7111SOL    HW132795   0.932   2.413  12.967  0.4780 -0.4554  0.6869
 7111SOL    HW232796   0.943   2.522  13.068 -0.0426  0.2715  0.7047
 7112SOL     OW32797   2.873   3.557   2.820 -0.3833  0.3663 -0.1443
 7112SOL    HW132798   2.946   3.567   2.759 -0.8370  1.2573 -0.5465
 7112SOL    HW232799   2.847   3.648   2.835 -2.2898 -0.0752 -0.8446
 7113SOL     OW32800   3.760   0.165   1.874  0.3252 -0.6344 -0.0324
 7113SOL    HW132801   3.683   0.127   1.832  0.5416 -1.5150  0.3718
 7113SOL    HW232802   3.725   0.187   1.961  0.9662 -0.4083  0.1659
 7114SOL     OW32803   4.115   0.895  15.220  0.2593 -0.2530 -0.5484
 7114SOL    HW132804   4.128   0.842  15.142  0.8745  2.0843 -2.0213
 7114SOL    HW232805   4.064   0.968  15.185 -0.3161 -1.5217 -2.3703
 7115SOL     OW32806   2.798   0.536  17.631  0.2482  0.1863 -0.0131
 7115SOL    HW132807   2.756   0.458  17.668 -0.4807 -0.1154 -1.4616
 7115SOL    HW232808   2.877   0.505  17.587  0.2967  1.3349 -0.7432
 7116SOL     OW32809   1.869   4.079   2.193  0.8214 -0.1223  0.5201
 7116SOL    HW132810   1.789   4.027   2.200  0.6570 -0.1399 -1.5242
 7116SOL    HW232811   1.921   4.051   2.269 -0.9859 -2.0067  1.0504
 7117SOL     OW32812   3.449   1.668  13.988  0.1556 -0.4001  0.6046
 7117SOL    HW132813   3.377   1.730  13.996  0.3756 -0.3410  2.0029
 7117SOL    HW232814   3.528   1.721  13.985 -0.3938  0.3848 -0.3425
 7118SOL     OW32815   0.104   4.062   2.693 -0.1440  0.1881  0.6308
 7118SOL    HW132816   0.153   4.121   2.751  0.7621  0.7458 -0.7028
 7118SOL    HW232817   0.073   4.124   2.627  1.2357  1.7584  1.4749
 7119SOL     OW32818   3.686   1.925   7.670 -0.4807 -0.4912  0.6667
 7119SOL    HW132819   3.722   1.974   7.596  1.2204 -0.6495  1.3736
 7119SOL    HW232820   3.601   1.965   7.689 -0.5822 -0.0077 -0.7550
 7120SOL     OW32821   0.069   1.733   6.494 -0.3046 -0.0563  0.2517
 7120SOL    HW132822   0.073   1.686   6.411  1.5175  0.3644  0.1121
 7120SOL    HW232823   0.080   1.664   6.560 -1.5014 -0.6481 -0.1525
 7121SOL     OW32824   0.110   1.386   3.970 -0.5256 -0.1240  0.1482
 7121SOL    HW132825   0.048   1.325   4.010 -0.5529  0.1391  0.5043
 7121SOL    HW232826   0.155   1.324   3.913  2.5077  1.7194  0.5537
 7122SOL     OW32827   1.799   1.192   3.466  0.3198  0.4017 -0.7127
 7122SOL    HW132828   1.724   1.133   3.453  0.5234 -0.0445  0.1456
 7122SOL    HW232829   1.799   1.203   3.561  0.0526 -1.0111 -0.5527
 7123SOL     OW32830   1.669   3.756   1.628 -0.0142 -0.0373  0.1556
 7123SOL    HW132831   1.693   3.805   1.549  0.9537 -1.6879 -0.5771
 7123SOL    HW232832   1.745   3.698   1.628 -0.2289 -0.3045  0.8279
 7124SOL     OW32833   1.357   1.711   8.982 -0.5509  0.1406  0.4275
 7124SOL    HW132834   1.280   1.683   9.031  0.7049 -2.6569  0.8153
 7124SOL    HW232835   1.417   1.636   8.984  0.3007  0.8073 -0.5936
 7125SOL     OW32836   1.700   1.629   8.550 -0.6996 -0.4881 -0.1243
 7125SOL    HW132837   1.613   1.669   8.550 -0.0277  0.9578  0.0593
 7125SOL    HW232838   1.750   1.705   8.522  0.1554  0.0326  2.8002
 7126SOL     OW32839   2.466   3.870   8.892 -0.1061 -0.0347 -0.7045
 7126SOL    HW132840   2.447   3.822   8.812 -1.0392 -1.3935  0.3353
 7126SOL    HW232841   2.454   3.961   8.867 -1.4231  0.2130  0.8548
 7127SOL     OW32842   1.057   1.160   1.419  0.0575  0.2420  0.0272
 7127SOL    HW132843   0.990   1.130   1.481 -0.4851  0.7373 -0.3180
 7127SOL    HW232844   1.112   1.085   1.395  0.9705  0.9106  0.0856
 7128SOL     OW32845   3.132   3.367  11.259  0.1154  0.4539  0.0603
 7128SOL    HW132846   3.143   3.447  11.311  0.7057  0.9794 -0.8695
 7128SOL    HW232847   3.225   3.347  11.251  0.6107  2.9284 -0.4294
 7129SOL     OW32848   3.593   1.738  15.183  0.3998  0.3227  0.3614
 7129SOL    HW132849   3.688   1.726  15.183  0.4250  0.6535 -2.3569
 7129SOL    HW232850   3.578   1.706  15.272 -1.4265 -0.1148 -0.1151
 7130SOL     OW32851   1.495   4.417   1.778  0.3237  0.3710 -0.0621
 7130SOL    HW132852   1.490   4.349   1.710 -0.6510  0.1712  0.1963
 7130SOL    HW232853   1.506   4.353   1.849 -2.4963 -1.1043 -0.9360
 7131SOL     OW32854   2.506   4.166   9.995 -0.2508 -0.0748 -0.6395
 7131SOL    HW132855   2.592   4.130  10.019  0.2904  1.4813 -0.2767
 7131SOL    HW232856   2.472   4.188  10.082 -0.1610 -3.2785  0.2104
 7132SOL     OW32857   3.816   2.529   9.903 -0.3853  0.4999 -0.1156
 7132SOL    HW132858   3.751   2.599   9.907 -0.7696  0.1972 -0.9598
 7132SOL    HW232859   3.895   2.574   9.874  0.7554 -0.4789  1.4766
 7133SOL     OW32860   3.281   3.608   6.310  0.3369 -0.0588  0.0585
 7133SOL    HW132861   3.288   3.520   6.347  1.2680  0.8225  1.9084
 7133SOL    HW232862   3.278   3.665   6.386  2.4597 -0.9719  0.8217
 7134SOL     OW32863   4.610   3.338  16.869 -0.2554 -0.3111  0.2154
 7134SOL    HW132864   4.623   3.330  16.963  0.1443 -0.7465  0.1223
 7134SOL    HW232865   4.585   3.430  16.856 -0.7624  0.0761  3.9174
 7135SOL     OW32866   2.795   4.492   1.294  0.0321 -0.1746  0.3503
 7135SOL    HW132867   2.775   4.408   1.253 -2.0444  0.5582 -0.1234
 7135SOL    HW232868   2.888   4.484   1.276  0.1686  0.4122  0.8009
 7136SOL     OW32869   0.976   1.622   4.046 -0.1397 -0.2911  0.0212
 7136SOL    HW132870   0.994   1.545   3.992 -2.5389 -0.8799  0.0378
 7136SOL    HW232871   1.042   1.619   4.115  0.1098 -1.0961 -0.2534
 7137SOL     OW32872   2.748   4.102   4.371  0.1563  0.1716 -0.2568
 7137SOL    HW132873   2.763   4.029   4.311  1.4791  0.8775 -0.7877
 7137SOL    HW232874   2.720   4.046   4.444 -0.8014 -1.4084 -1.8443
 7138SOL     OW32875   4.422   3.832   6.495  0.4547  0.5025 -0.1759
 7138SOL    HW132876   4.421   3.790   6.581 -0.3312  0.5160 -0.1777
 7138SOL    HW232877   4.348   3.779   6.465  1.8043 -0.8554 -1.0576
 7139SOL     OW32878   2.978   3.041   9.784 -0.2572  0.5649  0.1601
 7139SOL    HW132879   3.073   3.024   9.786  0.1553  2.9080  0.6035
 7139SOL    HW232880   2.952   2.951   9.805 -1.0690  0.9795  0.8826
 7140SOL     OW32881   1.361   4.590   2.455  0.4829 -0.5510  0.1787
 7140SOL    HW132882   1.416   4.536   2.511 -0.7799 -2.4163 -0.4020
 7140SOL    HW232883   1.400   4.678   2.462 -0.5068  0.0069 -1.2830
 7141SOL     OW32884   0.710   3.181   8.524  0.2902  0.2760 -0.5451
 7141SOL    HW132885   0.785   3.239   8.511 -1.4122  2.5913  0.0931
 7141SOL    HW232886   0.653   3.248   8.487 -2.4262 -0.9032  1.5366
 7142SOL     OW32887   2.310   0.748   0.780  0.0853  0.0140 -0.4827
 7142SOL    HW132888   2.337   0.659   0.758 -4.6917 -1.6844  0.6050
 7142SOL    HW232889   2.217   0.736   0.795 -0.0370  0.5071 -0.8256
 7143SOL     OW32890   2.914   0.380   2.670 -0.3708 -0.6615 -0.1436
 7143SOL    HW132891   2.901   0.400   2.577 -0.4340 -2.7807 -0.5965
 7143SOL    HW232892   2.936   0.287   2.666 -1.0653 -0.8632  0.5511
 7144SOL     OW32893   3.007   4.723   8.419 -0.1888  0.4643  0.0330
 7144SOL    HW132894   3.077   0.015   8.482  1.0764  2.2356 -1.8145
 7144SOL    HW232895   2.938   0.036   8.473  0.7941  1.3715  0.6723
 7145SOL     OW32896   4.317   4.485  13.649  0.2573  0.7687  0.0717
 7145SOL    HW132897   4.243   4.467  13.707 -0.2445  0.3759 -0.6874
 7145SOL    HW232898   4.322   4.579  13.663 -1.9885  1.1137 -1.6117
 7146SOL     OW32899   0.314   1.464   7.409  0.3880 -0.3140  0.5146
 7146SOL    HW132900   0.254   1.535   7.389 -1.2033 -1.4574  1.1839
 7146SOL    HW232901   0.366   1.505   7.479 -0.7432 -0.9653  1.7467
 7147SOL     OW32902   2.970   1.743  15.806 -0.0746  0.4131 -0.2264
 7147SOL    HW132903   3.024   1.691  15.748 -3.0326 -3.3956  0.4627
 7147SOL    HW232904   3.042   1.798  15.839 -0.5793  2.4048 -2.3916
 7148SOL     OW32905   2.432   4.309   9.057  0.0682 -0.7661  0.8166
 7148SOL    HW132906   2.449   4.215   9.063 -1.3394 -1.1126 -0.8877
 7148SOL    HW232907   2.500   4.349   9.113 -0.5913  2.3452 -0.5729
 7149SOL     OW32908   2.228   0.274  13.790 -0.3713  0.4132 -0.0637
 7149SOL    HW132909   2.272   0.244  13.870  2.7645  1.5726 -1.3595
 7149SOL    HW232910   2.272   0.359  13.787 -0.4879  0.4496 -0.6967
 7150SOL     OW32911   0.415   1.996  14.410  0.5694 -0.2193  0.4890
 7150SOL    HW132912   0.463   1.916  14.386 -0.1803 -0.5778  0.1669
 7150SOL    HW232913   0.485   2.054  14.381  0.4662 -0.8839 -1.0836
 7151SOL     OW32914   0.057   2.848  15.377 -0.0397 -0.5293 -0.0186
 7151SOL    HW132915   0.119   2.803  15.320  0.0231  0.1069 -0.4555
 7151SOL    HW232916   0.037   2.782  15.444  1.5370 -0.9953 -0.0127
 7152SOL     OW32917   2.645   4.195   4.786  0.5517 -0.3110  0.1075
 7152SOL    HW132918   2.738   4.172   4.789  0.4612 -0.7742 -0.7336
 7152SOL    HW232919   2.648   4.267   4.849 -1.3857  0.9881 -1.3013
 7153SOL     OW32920   1.452   2.048   2.270  0.3804 -0.3218  0.1579
 7153SOL    HW132921   1.505   2.005   2.203  0.0042 -0.5263 -0.0089
 7153SOL    HW232922   1.511   2.122   2.288  1.1004 -1.4355  2.3573
 7154SOL     OW32923   3.899   4.223  14.777 -0.1188  0.3789 -0.4931
 7154SOL    HW132924   3.807   4.202  14.759 -0.4743  1.8192 -0.4056
 7154SOL    HW232925   3.925   4.220  14.685  0.9899  0.5294 -0.1779
 7155SOL     OW32926   0.422   0.604   7.523 -0.1564 -0.7685 -0.5277
 7155SOL    HW132927   0.395   0.554   7.446 -0.2121 -0.3462 -0.7816
 7155SOL    HW232928   0.482   0.540   7.561 -0.6834 -1.6342 -1.1608
 7156SOL     OW32929   4.149   4.358  15.947 -0.6233  0.3404  0.2108
 7156SOL    HW132930   4.125   4.411  15.871 -1.2702 -0.6784 -0.2922
 7156SOL    HW232931   4.236   4.396  15.960 -0.5482  0.4972 -0.7788
 7157SOL     OW32932   2.212   4.299  17.513 -0.6082 -0.0411 -0.0477
 7157SOL    HW132933   2.297   4.263  17.489 -0.9857  0.1458 -1.6591
 7157SOL    HW232934   2.219   4.306  17.609 -1.9790  0.6930  0.0015
 7158SOL     OW32935   2.479   3.050   3.795  0.1976 -0.4875  0.0425
 7158SOL    HW132936   2.466   3.134   3.750 -0.1763 -0.1792  0.7232
 7158SOL    HW232937   2.514   3.004   3.719  0.2266  0.6583 -0.6464
 7159SOL     OW32938   3.798   0.756   9.164  0.0795  0.9350  0.3003
 7159SOL    HW132939   3.785   0.838   9.116 -1.9558 -0.4356 -1.4919
 7159SOL    HW232940   3.748   0.696   9.109  0.3918  2.3817 -1.5703
 7160SOL     OW32941   3.939   2.139   5.409 -0.0529  0.1427 -0.0269
 7160SOL    HW132942   3.975   2.051   5.397  0.5668  0.1162  2.0268
 7160SOL    HW232943   3.847   2.121   5.431  0.0498  0.6771  0.8702
 7161SOL     OW32944   3.318   1.839   8.291 -0.0100 -0.0455 -0.2083
 7161SOL    HW132945   3.287   1.928   8.279  0.5759  0.3460  1.1403
 7161SOL    HW232946   3.397   1.860   8.341 -1.1967  0.1800  1.5693
 7162SOL     OW32947   4.163   3.052   0.900 -0.3264 -0.1251 -0.5293
 7162SOL    HW132948   4.075   3.086   0.919  0.7789  1.1710  2.2865
 7162SOL    HW232949   4.195   3.057   0.990  0.3067 -1.0823 -0.7142
 7163SOL     OW32950   4.510   3.839   2.986 -0.3256 -0.3211 -0.1167
 7163SOL    HW132951   4.557   3.787   3.051  0.1679  0.1141 -0.1311
 7163SOL    HW232952   4.443   3.780   2.948 -0.9044 -0.8298  1.7125
 7164SOL     OW32953   0.743   4.597   9.829 -0.0268 -0.7197 -0.3137
 7164SOL    HW132954   0.796   4.518   9.839 -2.0978 -1.8136  1.9699
 7164SOL    HW232955   0.727   4.603   9.734 -0.3378  1.8924 -0.1092
 7165SOL     OW32956   4.156   4.394   4.648  0.1661 -0.4703  0.0642
 7165SOL    HW132957   4.125   4.303   4.647  0.2076 -0.4770 -0.6712
 7165SOL    HW232958   4.162   4.410   4.553  0.9930 -2.5895 -0.2370
 7166SOL     OW32959   1.569   2.150  12.501  0.5700  0.2831  1.0019
 7166SOL    HW132960   1.657   2.188  12.506  0.7864 -0.3964  2.4869
 7166SOL    HW232961   1.536   2.181  12.417 -1.9442  0.8360  2.2105
 7167SOL     OW32962   1.584   1.458  14.546 -0.0703  0.6245  0.6628
 7167SOL    HW132963   1.644   1.395  14.586 -1.4802 -0.6848  0.6834
 7167SOL    HW232964   1.604   1.456  14.452  1.4653 -0.3759  1.0080
 7168SOL     OW32965   0.270   0.746   9.670  0.1961 -0.6786  0.0318
 7168SOL    HW132966   0.336   0.702   9.616  0.3799  0.7269 -0.9198
 7168SOL    HW232967   0.319   0.781   9.744 -2.4583  1.9002  0.5801
 7169SOL     OW32968   1.068   1.589   5.239  1.0640  0.3976  0.6188
 7169SOL    HW132969   1.089   1.612   5.329  0.8564 -1.1521  1.0670
 7169SOL    HW232970   0.987   1.543   5.262  0.3776  0.8661 -0.8783
 7170SOL     OW32971   1.971   1.854   4.362  0.3877  0.0105 -0.0895
 7170SOL    HW132972   2.029   1.779   4.346  0.8526  0.3687 -0.0813
 7170SOL    HW232973   1.967   1.847   4.457  1.5875 -0.5841 -0.0925
 7171SOL     OW32974   3.509   2.887  16.489 -0.2533 -0.1566 -0.3706
 7171SOL    HW132975   3.534   2.813  16.434  2.2377  1.5113 -1.4644
 7171SOL    HW232976   3.594   2.920  16.520 -0.9122 -1.3926  2.7715
 7172SOL     OW32977   3.798   4.308   8.707 -0.0327 -0.2062  0.0784
 7172SOL    HW132978   3.821   4.394   8.673 -2.3285  0.9153  1.3374
 7172SOL    HW232979   3.877   4.293   8.759 -2.1490 -0.2993  3.2911
 7173SOL     OW32980   4.244   1.074   8.789  0.1301  0.2387  0.1299
 7173SOL    HW132981   4.199   1.151   8.756 -1.2919 -0.1885  1.0850
 7173SOL    HW232982   4.298   1.053   8.713  2.3525  1.6474  1.2940
 7174SOL     OW32983   2.514   2.104   7.260 -0.2366 -0.2809 -0.1265
 7174SOL    HW132984   2.445   2.040   7.240  0.7936 -1.0897 -1.1037
 7174SOL    HW232985   2.463   2.180   7.287 -0.2344 -1.0242  1.9231
 7175SOL     OW32986   1.447   2.344   2.053 -0.7069 -0.7140  0.2630
 7175SOL    HW132987   1.418   2.355   2.143 -1.0137  0.6765 -0.0065
 7175SOL    HW232988   1.541   2.330   2.066 -0.7012  0.7063  1.6492
 7176SOL     OW32989   3.447   2.187   4.808 -0.1794  0.0980  0.5662
 7176SOL    HW132990   3.385   2.126   4.849 -3.4520  3.0762 -0.0014
 7176SOL    HW232991   3.399   2.250   4.754 -1.7720 -0.7648  0.9778
 7177SOL     OW32992   0.520   0.389   6.749 -0.3206 -0.2205 -0.1806
 7177SOL    HW132993   0.443   0.343   6.715 -0.4452 -0.6256  0.6461
 7177SOL    HW232994   0.491   0.476   6.778  2.9963  1.2860 -1.4047
 7178SOL     OW32995   3.742   1.812   8.813  0.2974 -0.3661 -0.1766
 7178SOL    HW132996   3.690   1.891   8.827  1.6641  0.6147 -0.5647
 7178SOL    HW232997   3.752   1.816   8.717 -1.4166 -0.7848 -0.3765
 7179SOL     OW32998   2.678   1.186   3.522  0.4082 -0.1423  0.2284
 7179SOL    HW132999   2.767   1.153   3.533  0.9930  2.2165  2.3966
 7179SOL    HW233000   2.650   1.152   3.437 -1.6340  0.0049  0.8387
 7180SOL     OW33001   4.625   0.388   9.176 -0.0262 -0.3519  0.2764
 7180SOL    HW133002   4.545   0.337   9.186 -1.1866  1.9545  2.7051
 7180SOL    HW233003   4.642   0.416   9.266 -1.1888 -0.6907  0.5988
 7181SOL     OW33004   0.669   4.286  15.600 -0.6096 -0.0777 -0.1808
 7181SOL    HW133005   0.680   4.208  15.546  4.1196 -1.4298  2.7248
 7181SOL    HW233006   0.604   4.338  15.552 -0.3854  2.2004  1.9988
 7182SOL     OW33007   4.653   4.592   7.155 -0.1242  0.2083 -0.9038
 7182SOL    HW133008   4.604   4.664   7.195  1.1933  0.6424 -0.0613
 7182SOL    HW233009   0.009   4.593   7.207 -0.4421 -0.8407 -0.3900
 7183SOL     OW33010   3.386   3.808  17.221  0.3939  0.0266 -0.0008
 7183SOL    HW133011   3.446   3.809  17.147  0.0816 -2.8311 -0.2812
 7183SOL    HW233012   3.445   3.763  17.281 -0.5763  0.2263  1.0993
 7184SOL     OW33013   2.475   0.606   5.887 -0.0036 -0.4262  0.0618
 7184SOL    HW133014   2.401   0.634   5.833 -1.1692 -1.4417  1.1437
 7184SOL    HW233015   2.538   0.677   5.876 -0.6684  0.2464  0.6291
 7185SOL     OW33016   2.912   3.708   6.519 -0.5448  0.4903  0.1394
 7185SOL    HW133017   2.854   3.692   6.594  1.9250 -0.4884  1.8395
 7185SOL    HW233018   2.867   3.785   6.483  0.1786  0.5230 -0.6967
 7186SOL     OW33019   3.891   3.436   4.428  0.4503 -0.3808 -0.5027
 7186SOL    HW133020   3.865   3.503   4.365 -2.1339 -1.8982 -1.0565
 7186SOL    HW233021   3.843   3.467   4.504 -0.3105 -1.5813 -0.4940
 7187SOL     OW33022   1.495   0.416   5.715 -0.0090  0.3813 -0.2594
 7187SOL    HW133023   1.483   0.376   5.628  0.1154 -0.9227  0.3221
 7187SOL    HW233024   1.553   0.490   5.700 -0.7620  0.7354 -1.4110
 7188SOL     OW33025   4.035   3.339  13.117 -0.7392 -0.0228  0.6034
 7188SOL    HW133026   4.002   3.266  13.170 -0.4080  0.0932  0.9732
 7188SOL    HW233027   4.035   3.405  13.186  0.8004 -0.0372  0.6142
 7189SOL     OW33028   2.467   3.825  12.299  0.3902  0.3661  0.0050
 7189SOL    HW133029   2.382   3.863  12.320  0.2052 -0.2424  0.3715
 7189SOL    HW233030   2.470   3.822  12.204  0.0266  0.4770 -0.0067
 7190SOL     OW33031   2.971   0.968   3.242 -0.4597  0.2092 -0.2448
 7190SOL    HW133032   2.999   1.056   3.216  3.0637 -1.0865 -0.8180
 7190SOL    HW233033   2.896   0.956   3.184 -1.5392  0.6052  1.0748
 7191SOL     OW33034   0.567   1.586   6.621 -0.9441  0.1893  0.6073
 7191SOL    HW133035   0.472   1.583   6.619 -0.8791 -0.9240 -0.5009
 7191SOL    HW233036   0.580   1.623   6.709 -0.2807  1.9637 -0.2491
 7192SOL     OW33037   1.320   0.475  10.074 -0.2906  0.2327  0.2050
 7192SOL    HW133038   1.397   0.467  10.018 -0.6763 -0.5175 -0.2137
 7192SOL    HW233039   1.290   0.564  10.058 -2.7066 -0.2840  1.8656
 7193SOL     OW33040   1.836   0.087   9.777 -0.6121  0.3092  0.4295
 7193SOL    HW133041   1.876   0.095   9.690 -0.9042  1.2775  0.3832
 7193SOL    HW233042   1.910   0.053   9.827 -1.0344 -0.7547  0.3450
 7194SOL     OW33043   2.778   3.534   6.663 -0.3374  0.0101  0.8606
 7194SOL    HW133044   2.840   3.460   6.660 -1.2821 -0.7429 -0.1258
 7194SOL    HW233045   2.792   3.552   6.756  0.0070  0.4494  0.7231
 7195SOL     OW33046   3.200   0.549   6.954  0.0840  0.6199 -0.3560
 7195SOL    HW133047   3.279   0.509   6.918 -0.8541 -1.3237 -0.2841
 7195SOL    HW233048   3.145   0.538   6.877 -0.4350  1.5165 -0.1162
 7196SOL     OW33049   1.104   1.625   1.734 -0.6055  0.1342  0.1378
 7196SOL    HW133050   1.062   1.560   1.678  1.2073  0.1916 -1.2856
 7196SOL    HW233051   1.032   1.642   1.795 -0.1411 -1.5312  1.1285
 7197SOL     OW33052   2.126   0.200  11.890 -0.5315  0.0711  1.0980
 7197SOL    HW133053   2.081   0.218  11.973 -2.1509 -0.8359  0.4117
 7197SOL    HW233054   2.190   0.143  11.933 -0.9117 -0.3857  1.0639
 7198SOL     OW33055   1.087   3.331   4.508 -0.1010  0.2403 -0.0760
 7198SOL    HW133056   1.119   3.298   4.592  0.4544  0.9819  0.0037
 7198SOL    HW233057   1.019   3.394   4.532 -0.1149  0.8491 -1.7086
 7199SOL     OW33058   4.118   3.404   7.581  0.0139  0.4132 -0.2893
 7199SOL    HW133059   4.146   3.323   7.624 -0.4402 -0.1454 -1.0375
 7199SOL    HW233060   4.157   3.481   7.621 -0.3032  0.7323 -0.5907
 7200SOL     OW33061   0.032   1.349   3.509 -0.0893  0.3854  0.0417
 7200SOL    HW133062   0.007   1.264   3.545 -3.3362  1.9030  1.3614
 7200SOL    HW233063   0.082   1.383   3.583  0.9127 -0.6720 -0.1538
 7201SOL     OW33064   3.052   2.931   6.933  0.4022  0.4408 -0.0649
 7201SOL    HW133065   3.083   2.856   6.881  0.4233  0.1663  0.3417
 7201SOL    HW233066   3.105   2.919   7.011 -1.8031 -0.1001  1.3499
 7202SOL     OW33067   2.562   1.479   6.384  0.4086  0.0953  0.2648
 7202SOL    HW133068   2.616   1.410   6.423  1.0143  0.1592 -0.4707
 7202SOL    HW233069   2.626   1.536   6.341 -0.0913 -0.7340 -1.5854
 7203SOL     OW33070   1.023   3.248   4.030  0.4551  0.3540 -0.4929
 7203SOL    HW133071   1.024   3.219   4.121  1.0347 -0.0554 -0.6273
 7203SOL    HW233072   1.104   3.299   4.023 -0.8597  2.1256 -2.9839
 7204SOL     OW33073   1.935   1.846  11.434 -0.0499  0.7894 -0.4099
 7204SOL    HW133074   1.908   1.905  11.363 -2.5159 -0.7008 -0.7073
 7204SOL    HW233075   2.007   1.797  11.393  1.0672  1.3027  0.9569
 7205SOL     OW33076   2.001   2.961   2.541 -0.1686  0.3347 -0.2446
 7205SOL    HW133077   1.973   3.036   2.594  0.2356  0.3823 -0.0970
 7205SOL    HW233078   2.024   3.011   2.462 -3.1268  1.9995 -0.0532
 7206SOL     OW33079   4.299   2.124   2.151 -0.3630  0.3271  0.0339
 7206SOL    HW133080   4.274   2.042   2.194  2.1736 -0.7682 -0.5593
 7206SOL    HW233081   4.230   2.190   2.154  0.8179  1.5566  0.2876
 7207SOL     OW33082   3.915   2.429   2.009 -0.2676  0.2235  0.3906
 7207SOL    HW133083   3.874   2.516   2.010  0.1716  0.4443 -1.2518
 7207SOL    HW233084   3.841   2.374   1.983  0.0351  0.4313 -0.8854
 7208SOL     OW33085   1.641   0.772   1.115  0.3219 -0.0184 -0.3306
 7208SOL    HW133086   1.554   0.734   1.098  0.2698  0.6367 -1.5684
 7208SOL    HW233087   1.611   0.862   1.128  2.8696  0.9668 -1.2256
 7209SOL     OW33088   1.972   1.837   9.045  0.4027 -0.3118  0.1642
 7209SOL    HW133089   1.941   1.926   9.030  0.0855 -0.7003 -1.4280
 7209SOL    HW233090   1.962   1.789   8.963 -0.2382 -0.1035  0.1161
 7210SOL     OW33091   4.282   3.917   2.602  0.0839 -0.4649 -0.3685
 7210SOL    HW133092   4.190   3.936   2.623  0.0508 -3.1786  1.9078
 7210SOL    HW233093   4.336   3.994   2.616 -0.0016 -0.4808  0.0353
 7211SOL     OW33094   1.153   0.153  13.282 -0.1524 -0.0292 -0.4527
 7211SOL    HW133095   1.131   0.221  13.345 -0.6078 -1.0078  0.4457
 7211SOL    HW233096   1.232   0.178  13.235  0.3086 -0.2886  0.1784
 7212SOL     OW33097   2.738   3.536  12.012 -1.1637  0.3398  0.1732
 7212SOL    HW133098   2.783   3.451  12.010 -0.7997  0.5693 -1.6808
 7212SOL    HW233099   2.794   3.578  12.077  0.6743 -1.3764 -0.2819
 7213SOL     OW33100   3.586   4.387   4.494 -0.0922  0.2928  0.1201
 7213SOL    HW133101   3.599   4.446   4.421 -0.2836  0.6648  0.3873
 7213SOL    HW233102   3.670   4.342   4.501  0.8920  1.7703 -2.4761
 7214SOL     OW33103   1.170   3.267   1.164  0.3580 -0.5204  0.5922
 7214SOL    HW133104   1.121   3.185   1.175  0.6428 -0.5427  1.6519
 7214SOL    HW233105   1.245   3.238   1.216  1.9630  0.0300 -1.3916
 7215SOL     OW33106   3.460   3.902  11.015 -0.0478  0.2800  0.0858
 7215SOL    HW133107   3.375   3.859  11.020 -0.1286  0.3016 -1.3307
 7215SOL    HW233108   3.486   3.870  11.102  1.1383 -3.0180 -1.5029
 7216SOL     OW33109   1.282   3.698   7.665 -0.1417 -0.2607 -0.0440
 7216SOL    HW133110   1.316   3.765   7.605  0.3492  1.1580  1.8139
 7216SOL    HW233111   1.350   3.630   7.659 -0.0512 -0.5876  4.2811
 7217SOL     OW33112   1.437   0.267  17.571 -0.3003 -0.3415 -0.7078
 7217SOL    HW133113   1.494   0.199  17.536 -1.1609 -1.2704 -0.2914
 7217SOL    HW233114   1.431   0.266  17.666  1.8022  1.5876 -0.5733
 7218SOL     OW33115   2.472   0.977  15.875 -0.3723 -0.2490  0.7063
 7218SOL    HW133116   2.384   0.986  15.909 -0.4766  1.4785 -0.0416
 7218SOL    HW233117   2.455   0.948  15.785  1.3299 -0.5442  0.4747
 7219SOL     OW33118   2.440   3.199   8.360 -0.4619  0.1487 -0.1462
 7219SOL    HW133119   2.400   3.275   8.401 -2.4981 -1.3293  0.5968
 7219SOL    HW233120   2.505   3.236   8.300 -1.2104 -0.1958 -1.1622
 7220SOL     OW33121   0.419   3.542  13.189  0.6239 -0.3847 -0.0564
 7220SOL    HW133122   0.430   3.465  13.133  0.5024 -1.0459  0.8369
 7220SOL    HW233123   0.360   3.586  13.127 -0.6409 -0.0864  1.3490
 7221SOL     OW33124   2.962   4.714   4.603 -0.3883  0.5181  0.4906
 7221SOL    HW133125   2.969   4.687   4.512 -0.5461 -0.8844  0.8975
 7221SOL    HW233126   2.883   0.044   4.603  0.4042  1.6625  0.3323
 7222SOL     OW33127   4.510   2.471   8.328 -0.7926 -0.6643  0.1162
 7222SOL    HW133128   4.525   2.423   8.409  1.2786  1.5410  1.0349
 7222SOL    HW233129   4.599   2.466   8.291 -1.4317 -3.8456 -0.9786
 7223SOL     OW33130   2.825   3.864   5.219  0.0044  0.1634 -0.3305
 7223SOL    HW133131   2.745   3.882   5.269 -1.0023 -0.3704 -1.7682
 7223SOL    HW233132   2.889   3.918   5.267 -0.6574  0.4914  0.1798
 7224SOL     OW33133   0.765   2.806  13.898 -0.2960  0.3437  0.2999
 7224SOL    HW133134   0.812   2.727  13.871  1.4315  2.3373 -2.5537
 7224SOL    HW233135   0.834   2.872  13.890  1.1671 -1.1965  0.2995
 7225SOL     OW33136   2.818   0.215  14.398  0.2486 -0.6911 -0.1726
 7225SOL    HW133137   2.905   0.233  14.362 -0.1936 -1.6179 -1.6800
 7225SOL    HW233138   2.781   0.304  14.396  0.1099 -0.7632 -0.7924
 7226SOL     OW33139   4.373   3.757   9.027  0.2445 -0.4108  0.3899
 7226SOL    HW133140   4.299   3.816   9.039  0.4678  0.2331 -1.3028
 7226SOL    HW233141   4.378   3.708   9.109 -0.5982 -0.8587  0.1654
 7227SOL     OW33142   4.515   3.012   6.217 -0.6640  0.0075  0.1911
 7227SOL    HW133143   4.480   2.946   6.157  2.5537 -0.2853 -1.3968
 7227SOL    HW233144   4.507   2.971   6.303  1.8882 -2.7930 -0.9270
 7228SOL     OW33145   2.363   3.326  11.676  0.3169 -0.1580 -0.0880
 7228SOL    HW133146   2.438   3.273  11.705  0.6516  0.3714  0.0177
 7228SOL    HW233147   2.293   3.298  11.734  0.7126  1.0682  0.9747
 7229SOL     OW33148   2.924   1.051   1.619 -0.3795  0.0153 -0.1459
 7229SOL    HW133149   2.905   1.030   1.710 -0.2074  3.1703  0.6024
 7229SOL    HW233150   2.941   1.143   1.636 -0.0219 -0.0378 -0.2144
 7230SOL     OW33151   3.502   0.515  11.966  0.2541  0.4656 -0.0437
 7230SOL    HW133152   3.539   0.587  11.915  2.0851 -0.7662 -0.4543
 7230SOL    HW233153   3.586   0.475  11.990  0.1690 -0.4445 -1.2983
 7231SOL     OW33154   4.404   2.446  16.042  0.1283  0.1641  0.0369
 7231SOL    HW133155   4.323   2.400  16.023  1.0636 -1.3404 -0.2791
 7231SOL    HW233156   4.461   2.371  16.056  1.4543  1.2218  0.3375
 7232SOL     OW33157   1.334   3.515   6.338 -0.5824  0.0447  0.2290
 7232SOL    HW133158   1.249   3.473   6.323 -1.1950  1.1341  0.6387
 7232SOL    HW233159   1.328   3.589   6.277  1.4203 -1.1875 -1.4251
 7233SOL     OW33160   2.278   1.525  14.833  0.2380  0.3816  0.6843
 7233SOL    HW133161   2.263   1.494  14.743 -1.1539 -1.3836  1.5106
 7233SOL    HW233162   2.367   1.557  14.827 -0.8319  3.3388  0.7284
 7234SOL     OW33163   0.028   4.108   2.988 -0.2123  0.0967  0.4027
 7234SOL    HW133164   0.097   4.152   2.938 -0.5213 -0.8911 -0.9217
 7234SOL    HW233165   4.689   4.097   2.916  1.8767  1.7189 -1.6856
 7235SOL     OW33166   0.280   4.646  17.160  0.1904 -0.2453 -0.3900
 7235SOL    HW133167   0.297   4.721  17.217  1.4408  0.8616 -2.2229
 7235SOL    HW233168   0.191   4.626  17.188 -1.1060  0.4953 -3.8867
 7236SOL     OW33169   1.278   3.957   1.566 -0.8606 -0.8206  0.2025
 7236SOL    HW133170   1.234   4.041   1.559 -1.0486 -0.9490 -0.1357
 7236SOL    HW233171   1.337   3.968   1.641  0.2734 -1.1460 -0.6397
 7237SOL     OW33172   1.026   4.358   2.269  0.3853 -0.5510  0.6737
 7237SOL    HW133173   1.112   4.391   2.243  0.1333 -0.8760 -0.6104
 7237SOL    HW233174   0.988   4.433   2.314 -1.9941 -0.1440 -2.0487
 7238SOL     OW33175   3.601   1.986   3.514  0.3473  0.0861 -0.6384
 7238SOL    HW133176   3.578   1.910   3.567  0.0294 -0.2782 -1.3036
 7238SOL    HW233177   3.647   1.961   3.434  1.8824  1.5048 -0.1878
 7239SOL     OW33178   3.804   0.394   1.517 -0.4823 -0.3367  0.4167
 7239SOL    HW133179   3.715   0.412   1.549 -0.5461  0.2029 -0.0594
 7239SOL    HW233180   3.817   0.474   1.467  0.4304  0.5837  2.1386
 7240SOL     OW33181   4.159   3.481   4.603 -0.5830  0.0923 -0.3404
 7240SOL    HW133182   4.142   3.538   4.678  1.1206 -0.6127  0.5754
 7240SOL    HW233183   4.091   3.505   4.540 -1.5763 -0.5930  0.4672
 7241SOL     OW33184   2.401   1.594   6.855 -0.1543 -0.7425 -0.5932
 7241SOL    HW133185   2.326   1.620   6.801  0.1740  0.8411 -0.2894
 7241SOL    HW233186   2.398   1.670   6.913  1.4708 -0.0317 -1.4410
 7242SOL     OW33187   0.979   2.344   2.998  0.0488  0.2585 -0.0129
 7242SOL    HW133188   1.014   2.270   2.949 -0.1670 -0.4891  0.9763
 7242SOL    HW233189   0.887   2.335   2.970  0.1646 -2.1513  0.3771
 7243SOL     OW33190   2.912   2.538   3.779  0.6508 -0.1822 -0.2402
 7243SOL    HW133191   2.866   2.456   3.800  3.0916 -1.2498  0.8946
 7243SOL    HW233192   2.914   2.542   3.683 -0.0315 -0.7030 -0.2750
 7244SOL     OW33193   3.609   1.977  17.269 -0.1309 -0.2262 -0.3318
 7244SOL    HW133194   3.574   1.898  17.311 -0.4420 -1.8157 -3.6029
 7244SOL    HW233195   3.583   2.046  17.330 -0.9911 -1.1268  0.3230
 7245SOL     OW33196   1.856   3.154  11.463  0.8324  0.2139 -0.2040
 7245SOL    HW133197   1.930   3.188  11.515  0.0971  0.2739  0.7931
 7245SOL    HW233198   1.786   3.198  11.511  2.0579  2.2090 -0.2516
 7246SOL     OW33199   1.647   1.431   4.415  0.3436  0.8669 -0.2821
 7246SOL    HW133200   1.633   1.352   4.467  2.0002 -0.4030 -1.7177
 7246SOL    HW233201   1.624   1.500   4.476  1.2300  1.9888 -1.1984
 7247SOL     OW33202   4.619   2.859   2.424 -0.1365  0.3950 -0.4260
 7247SOL    HW133203   4.677   2.928   2.453  0.0601 -1.2074  2.9322
 7247SOL    HW233204   4.687   2.804   2.385 -0.0767  0.5043 -0.4752
 7248SOL     OW33205   1.833   3.727   1.947  0.2213  0.7593 -0.1951
 7248SOL    HW133206   1.748   3.693   1.974  0.9223 -1.9320 -1.3292
 7248SOL    HW233207   1.822   3.710   1.853  1.7469  0.4840 -0.3203
 7249SOL     OW33208   2.637   3.661   2.967  0.3636  0.1700  0.0219
 7249SOL    HW133209   2.688   3.581   2.983 -0.9633 -0.4591  1.1169
 7249SOL    HW233210   2.607   3.688   3.054 -1.2303 -1.7658  0.0822
 7250SOL     OW33211   3.175   2.672   6.567 -0.2890  0.3301 -0.2766
 7250SOL    HW133212   3.238   2.719   6.622 -0.0648  0.1777 -0.4055
 7250SOL    HW233213   3.228   2.603   6.528  2.0756  1.0057  1.7405
 7251SOL     OW33214   0.065   3.579   6.345  0.6313 -0.0905 -0.0157
 7251SOL    HW133215   0.038   3.544   6.260  1.9951 -0.5154 -0.2665
 7251SOL    HW233216   0.002   3.652   6.346  1.2896  0.4593  0.7762
 7252SOL     OW33217   1.940   1.390   8.243  0.5792 -0.0863  0.2042
 7252SOL    HW133218   1.989   1.379   8.325 -0.2947 -3.4696  0.2864
 7252SOL    HW233219   1.867   1.330   8.255  0.6704 -0.3121 -0.4070
 7253SOL     OW33220   0.525   1.284   9.341  0.3993  0.3833 -0.1074
 7253SOL    HW133221   0.465   1.224   9.296  1.7297 -2.1122  1.4116
 7253SOL    HW233222   0.479   1.367   9.333  0.6548  0.6132  0.8581
 7254SOL     OW33223   2.211   0.112   6.397  0.4384  0.8221  0.7223
 7254SOL    HW133224   2.230   0.139   6.308 -0.3622  1.7425  0.8263
 7254SOL    HW233225   2.135   0.171   6.402  0.3838  1.0169 -2.6387
 7255SOL     OW33226   3.663   2.215   0.675  0.1591 -0.2412 -0.4032
 7255SOL    HW133227   3.622   2.289   0.719 -0.6261 -0.2341 -1.1446
 7255SOL    HW233228   3.754   2.246   0.676  0.2144 -0.4066  0.7960
 7256SOL     OW33229   4.030   2.796   1.904  0.1189 -1.0274 -0.2645
 7256SOL    HW133230   4.104   2.857   1.902 -1.9728  1.5229  0.0499
 7256SOL    HW233231   4.036   2.721   1.846 -0.9753  0.3467 -2.1391
 7257SOL     OW33232   2.867   0.189  17.120  0.0835  0.3375 -0.1964
 7257SOL    HW133233   2.782   0.154  17.148 -0.3361  0.5159 -1.2474
 7257SOL    HW233234   2.887   0.115  17.063 -0.5704 -0.8719  1.1457
 7258SOL     OW33235   2.790   1.819  12.023  0.4421 -0.4103  0.0094
 7258SOL    HW133236   2.862   1.769  11.984 -0.0471  0.8648 -2.5504
 7258SOL    HW233237   2.833   1.900  12.050 -0.9951  0.8487 -1.4815
 7259SOL     OW33238   2.124   1.805   9.463 -0.7010 -0.4539 -0.7692
 7259SOL    HW133239   2.071   1.731   9.432  0.7701 -1.8142 -0.0716
 7259SOL    HW233240   2.135   1.793   9.557 -1.8545  1.9719 -0.3191
 7260SOL     OW33241   3.862   4.441  13.256  0.3571  0.7038 -0.2078
 7260SOL    HW133242   3.902   4.522  13.223  3.2105 -1.1673 -1.3298
 7260SOL    HW233243   3.938   4.385  13.247  0.1531  0.2744  0.7584
 7261SOL     OW33244   4.309   1.977   8.141  0.3174 -0.0999 -0.8243
 7261SOL    HW133245   4.375   1.964   8.073  1.6956 -0.7563  0.6385
 7261SOL    HW233246   4.288   2.070   8.131  2.6090  0.7161  1.9041
 7262SOL     OW33247   0.471   3.403   9.407  0.1656  0.7771 -0.0015
 7262SOL    HW133248   0.563   3.388   9.383  0.7383  3.2315  0.7568
 7262SOL    HW233249   0.471   3.353   9.488 -2.1707 -0.2179 -0.6049
 7263SOL     OW33250   2.486   3.992  13.607 -0.0391 -0.5906  0.1699
 7263SOL    HW133251   2.431   4.069  13.618  1.4597  0.5401 -0.3786
 7263SOL    HW233252   2.523   3.983  13.695  0.6130 -0.7600 -0.1221
 7264SOL     OW33253   1.503   3.544   3.468  0.0157  0.0406  0.0071
 7264SOL    HW133254   1.414   3.564   3.498 -0.4381  1.9553 -2.5927
 7264SOL    HW233255   1.486   3.471   3.409 -0.7516  0.8177 -0.7349
 7265SOL     OW33256   2.679   3.223   4.219  0.2180 -0.5039  0.1152
 7265SOL    HW133257   2.646   3.149   4.271 -0.2509 -0.7734 -0.5670
 7265SOL    HW233258   2.611   3.226   4.152  1.0659 -0.1570 -0.7265
 7266SOL     OW33259   2.848   0.856   9.458  0.2522  0.4790 -0.2358
 7266SOL    HW133260   2.814   0.945   9.465 -1.2269 -0.1372  0.4755
 7266SOL    HW233261   2.827   0.812   9.541 -0.1145 -0.8460 -1.0447
 7267SOL     OW33262   3.522   3.021   5.209  0.4234  0.1720  0.0987
 7267SOL    HW133263   3.510   3.033   5.115  2.4306  0.1166 -0.1744
 7267SOL    HW233264   3.602   2.970   5.223  1.2126  1.4976  0.4552
 7268SOL     OW33265   2.938   3.586  12.835 -0.5814  0.2581  0.7499
 7268SOL    HW133266   2.981   3.503  12.816 -0.2951  0.8567 -1.1603
 7268SOL    HW233267   2.900   3.614  12.752  1.1698 -1.5176 -0.6423
 7269SOL     OW33268   1.861   2.460  10.910 -0.1019 -0.2485 -0.1865
 7269SOL    HW133269   1.923   2.443  10.839 -0.6372  2.4820 -1.3019
 7269SOL    HW233270   1.921   2.473  10.984 -0.9045 -0.0743  0.4349
 7270SOL     OW33271   1.524   2.802   6.099 -0.4727  0.1255 -0.2136
 7270SOL    HW133272   1.506   2.864   6.170  2.2652  1.4553 -0.7189
 7270SOL    HW233273   1.604   2.763   6.134  0.3610  2.5881  0.6204
 7271SOL     OW33274   4.256   0.858  10.572 -0.5345 -0.4023 -0.1354
 7271SOL    HW133275   4.309   0.797  10.623 -0.0427  0.8374  0.8449
 7271SOL    HW233276   4.321   0.884  10.507  0.1125  0.6829  0.9280
 7272SOL     OW33277   1.603   3.258   1.188  0.6112 -0.1587 -0.2039
 7272SOL    HW133278   1.593   3.163   1.187 -4.0996  0.3640 -0.7396
 7272SOL    HW233279   1.627   3.289   1.275 -2.8026  1.8696 -0.0138
 7273SOL     OW33280   0.996   4.018   4.655 -0.3071  0.3058  0.2751
 7273SOL    HW133281   0.907   3.983   4.652  1.0312 -3.1736  0.7320
 7273SOL    HW233282   1.044   3.961   4.715 -0.0961  1.4299  1.1822
 7274SOL     OW33283   2.203   1.044   2.451  0.2903 -0.1999  0.3329
 7274SOL    HW133284   2.188   1.097   2.529  1.1717  0.5820 -0.0273
 7274SOL    HW233285   2.111   1.025   2.435  0.2678  0.1024  0.1052
 7275SOL     OW33286   2.224   1.249   3.632 -0.6051 -0.0751 -0.2416
 7275SOL    HW133287   2.228   1.324   3.692  1.9835 -0.5630  0.1600
 7275SOL    HW233288   2.219   1.292   3.547 -1.3979  0.9543  0.3139
 7276SOL     OW33289   0.238   1.509   0.615 -0.0759  0.2523 -0.5620
 7276SOL    HW133290   0.252   1.570   0.688  3.8238 -2.1237  0.6789
 7276SOL    HW233291   0.325   1.472   0.601 -0.9819 -2.5673  1.2989
 7277SOL     OW33292   4.679   2.137  12.908 -0.9956 -0.3179  0.6165
 7277SOL    HW133293   4.621   2.099  12.974 -3.3156 -0.9134 -1.7575
 7277SOL    HW233294   4.632   2.210  12.866  0.5461  1.6001  2.2386
 7278SOL     OW33295   0.552   3.341   8.350 -0.4500 -0.5617 -0.1852
 7278SOL    HW133296   0.488   3.387   8.405 -0.0820 -0.2770  0.0063
 7278SOL    HW233297   0.498   3.292   8.288  1.3032  0.4250 -2.5062
 7279SOL     OW33298   0.151   2.550   4.666  0.0273 -1.2367 -0.0250
 7279SOL    HW133299   0.072   2.602   4.679  0.3839 -0.9490  1.0195
 7279SOL    HW233300   0.100   2.472   4.640 -2.2126  0.4720 -0.7645
 7280SOL     OW33301   2.793   2.535  11.335  0.2818 -0.2976  0.5181
 7280SOL    HW133302   2.881   2.572  11.343  0.2456  0.0241 -0.4559
 7280SOL    HW233303   2.785   2.498  11.423  3.2813 -1.4371  0.2947
 7281SOL     OW33304   4.714   4.260   9.912 -0.4373  0.4080  0.0477
 7281SOL    HW133305   4.711   4.213   9.996 -0.7583 -2.2012 -1.4346
 7281SOL    HW233306   4.713   4.349   9.947 -0.6498 -0.1611  1.5144
 7282SOL     OW33307   1.331   3.239   6.451 -0.1259  0.5498 -0.0827
 7282SOL    HW133308   1.318   3.244   6.546  0.6732  1.1038 -0.0027
 7282SOL    HW233309   1.369   3.326   6.444  1.1297 -0.1101 -1.3682
 7283SOL     OW33310   1.771   3.898  17.258  0.1938  0.7717  0.4741
 7283SOL    HW133311   1.746   3.883  17.167  4.3110  1.5170 -0.7748
 7283SOL    HW233312   1.862   3.869  17.260 -0.4382 -1.2633 -1.3061
 7284SOL     OW33313   3.386   3.103   6.250 -0.0337 -0.1405  0.5634
 7284SOL    HW133314   3.344   3.084   6.334 -1.3265  1.4564  0.2676
 7284SOL    HW233315   3.425   3.016   6.245 -1.1347 -0.7720  3.0102
 7285SOL     OW33316   3.444   4.267   5.677  0.3000  0.1814  0.1867
 7285SOL    HW133317   3.467   4.356   5.704  2.9257 -0.7029  0.9218
 7285SOL    HW233318   3.532   4.229   5.669 -0.6366 -1.6582 -1.0499
 7286SOL     OW33319   2.950   3.439  16.840 -0.2162 -0.5680 -0.1858
 7286SOL    HW133320   2.994   3.404  16.917  1.7658  0.9106 -0.6477
 7286SOL    HW233321   2.884   3.371  16.823 -0.7147  0.0409 -0.6831
 7287SOL     OW33322   2.391   0.889   4.415 -0.0129 -0.3725  0.0947
 7287SOL    HW133323   2.452   0.835   4.466 -1.4414 -1.8261  0.2554
 7287SOL    HW233324   2.364   0.828   4.347 -0.4855 -1.3473  1.1486
 7288SOL     OW33325   2.498   0.896  16.177  0.2007 -0.2389 -0.1735
 7288SOL    HW133326   2.515   0.863  16.088 -1.8281 -0.8845 -0.3030
 7288SOL    HW233327   2.403   0.888  16.186 -0.1853  1.9492 -2.1998
 7289SOL     OW33328   4.613   0.909   2.176 -0.0789 -0.4550 -0.1229
 7289SOL    HW133329   4.559   0.848   2.126 -1.1829  0.5233 -0.1269
 7289SOL    HW233330   4.670   0.922   2.100 -1.0517 -0.9386 -0.9260
 7290SOL     OW33331   4.073   3.524   8.672  0.1197  0.2544 -0.3800
 7290SOL    HW133332   4.017   3.597   8.698  0.0240 -0.3099  1.0172
 7290SOL    HW233333   4.154   3.550   8.717 -0.2758  2.8908 -1.2170
 7291SOL     OW33334   0.213   3.251   4.347 -0.6163 -0.5269  0.4342
 7291SOL    HW133335   0.170   3.283   4.426  2.7108  1.9638  1.2058
 7291SOL    HW233336   0.304   3.275   4.365 -0.4380 -1.0556  0.2350
 7292SOL     OW33337   2.293   1.983  12.268  0.1144  0.2696  0.2285
 7292SOL    HW133338   2.259   1.989  12.357 -0.3944  2.0367 -0.0930
 7292SOL    HW233339   2.356   2.055  12.270  1.6861 -1.1560  2.0376
 7293SOL     OW33340   3.897   0.420   2.462  0.0053  1.0988  0.0445
 7293SOL    HW133341   3.964   0.414   2.394 -1.3881 -0.0446 -1.2146
 7293SOL    HW233342   3.900   0.332   2.499  3.0703  1.0598 -0.2907
 7294SOL     OW33343   4.383   2.558  13.261  0.7975  0.2344 -0.5175
 7294SOL    HW133344   4.388   2.601  13.175  0.2549 -1.1646 -1.2502
 7294SOL    HW233345   4.362   2.466  13.244  1.3529 -0.3769  2.0666
 7295SOL     OW33346   2.870   0.693   1.296  0.7071 -0.3691  1.2656
 7295SOL    HW133347   2.898   0.771   1.344 -0.4178  1.3481 -0.8725
 7295SOL    HW233348   2.946   0.662   1.247  0.8106 -0.0258  1.2033
 7296SOL     OW33349   3.482   4.277   4.127 -0.1366  0.4592 -0.3493
 7296SOL    HW133350   3.436   4.320   4.199  1.0547  1.2296 -0.0535
 7296SOL    HW233351   3.522   4.202   4.172  0.5938  2.7482  2.7736
 7297SOL     OW33352   4.323   4.708   5.258  0.3093  0.0179 -0.3169
 7297SOL    HW133353   4.371   4.701   5.341  2.6080 -0.4179 -1.6566
 7297SOL    HW233354   4.298   4.617   5.240 -1.2455  0.4768 -0.4369
 7298SOL     OW33355   3.847   4.126   4.112 -0.5998 -0.4785  0.1508
 7298SOL    HW133356   3.893   4.114   4.195  0.8548  0.6744 -0.4979
 7298SOL    HW233357   3.780   4.058   4.121 -1.4922  0.2255 -1.2419
 7299SOL     OW33358   4.386   4.716  17.422 -0.3357  0.0797 -0.2767
 7299SOL    HW133359   4.445   0.026  17.355  1.1202 -0.2964  0.7926
 7299SOL    HW233360   4.302   0.003  17.378 -0.2919  1.0734 -0.1076
 7300SOL     OW33361   0.829   3.959   3.750 -0.0264 -0.1494  0.2987
 7300SOL    HW133362   0.922   3.970   3.733 -0.3726  1.7138 -0.4041
 7300SOL    HW233363   0.811   4.023   3.819  0.2602  2.0420 -1.6546
 7301SOL     OW33364   0.736   2.638   4.245  0.2436 -0.3276 -0.2648
 7301SOL    HW133365   0.798   2.641   4.172 -0.7659  3.6205 -0.9687
 7301SOL    HW233366   0.783   2.632   4.328  0.4081  3.3624 -0.0939
 7302SOL     OW33367   2.253   2.182   4.169 -0.4644 -0.0412  0.3221
 7302SOL    HW133368   2.206   2.174   4.252 -0.4922 -1.3933  0.1866
 7302SOL    HW233369   2.194   2.243   4.124 -0.1231 -1.9612 -2.7717
 7303SOL     OW33370   2.202   1.928   6.501  0.2769  0.0455 -0.0784
 7303SOL    HW133371   2.247   1.844   6.507  1.5340  0.8441  1.7233
 7303SOL    HW233372   2.132   1.907   6.439  1.1696 -1.4772 -0.5758
 7304SOL     OW33373   1.405   4.014   6.521 -0.6578 -0.1671 -0.5441
 7304SOL    HW133374   1.330   4.040   6.573 -0.5935  0.1379 -0.6045
 7304SOL    HW233375   1.402   3.921   6.544 -0.5555  0.3407  1.5376
 7305SOL     OW33376   3.726   0.877   8.589  0.5172 -0.3162  0.0363
 7305SOL    HW133377   3.797   0.870   8.653 -0.7059 -1.4524  1.2508
 7305SOL    HW233378   3.731   0.970   8.565  0.7134 -0.6668 -1.2722
 7306SOL     OW33379   0.897   1.065   5.697  0.2687 -0.0196  0.1543
 7306SOL    HW133380   0.949   1.135   5.736 -0.8603  1.9876 -1.9699
 7306SOL    HW233381   0.967   1.010   5.661 -0.8351 -0.0994 -1.8972
 7307SOL     OW33382   3.980   4.140   6.329 -0.5039 -0.1457  0.5499
 7307SOL    HW133383   3.987   4.143   6.424  1.3666  0.1185  0.4053
 7307SOL    HW233384   3.941   4.226   6.312 -0.9211 -0.1478  1.5033
 7308SOL     OW33385   4.132   2.628  11.897  0.0136 -0.6775  0.0735
 7308SOL    HW133386   4.189   2.563  11.940  0.8838  1.2903  1.9018
 7308SOL    HW233387   4.127   2.597  11.807  0.5712  1.1927 -0.5988
 7309SOL     OW33388   4.342   0.810   9.925 -0.2981  0.4859  0.3116
 7309SOL    HW133389   4.413   0.749   9.945 -1.9758 -1.5954 -0.2313
 7309SOL    HW233390   4.362   0.823   9.832  1.0532 -0.0111  0.5267
 7310SOL     OW33391   4.341   0.462   2.007  0.2536 -0.4266  0.1080
 7310SOL    HW133392   4.250   0.489   1.998  0.4136 -0.0990 -0.5336
 7310SOL    HW233393   4.337   0.379   2.054  2.1551 -0.4351  0.2558
 7311SOL     OW33394   3.778   0.048   3.619 -0.1511 -0.2181  0.1192
 7311SOL    HW133395   3.819   0.097   3.548  1.3798 -0.4739  0.8197
 7311SOL    HW233396   3.690   0.039   3.582  0.6770 -2.5798 -1.3356
 7312SOL     OW33397   0.924   1.335   6.626 -1.0101  0.1924  0.0687
 7312SOL    HW133398   0.960   1.257   6.669  0.2859  1.1384  0.6775
 7312SOL    HW233399   0.839   1.339   6.671 -0.8383 -1.2754  0.5203
 7313SOL     OW33400   4.165   0.488  17.436  0.0407 -0.1852 -0.3500
 7313SOL    HW133401   4.144   0.581  17.440  1.4891  0.2693 -3.4221
 7313SOL    HW233402   4.155   0.457  17.346  0.9314 -1.9506  0.1625
 7314SOL     OW33403   1.756   4.520   1.315  0.0067 -0.2327  0.2353
 7314SOL    HW133404   1.779   4.428   1.302 -0.4362 -0.2447 -0.4736
 7314SOL    HW233405   1.702   4.506   1.393 -3.3470 -0.6011 -2.1841
 7315SOL     OW33406   4.673   2.436   5.121 -0.3467  0.3015 -0.4550
 7315SOL    HW133407   0.025   2.393   5.082 -0.3754  0.5287 -0.7729
 7315SOL    HW233408   4.609   2.403   5.057 -0.1806 -1.4494  0.2930
 7316SOL     OW33409   2.402   1.446   0.386 -0.4906  0.1375  0.2278
 7316SOL    HW133410   2.384   1.432   0.478  2.9669  3.3700  1.3813
 7316SOL    HW233411   2.359   1.370   0.345 -0.1362 -0.3145  0.7013
 7317SOL     OW33412   3.046   4.281   8.133 -0.0638  0.0913 -0.2084
 7317SOL    HW133413   3.025   4.368   8.168 -0.9854 -0.9779  1.8880
 7317SOL    HW233414   3.053   4.231   8.215  1.8094  0.0298 -0.4150
 7318SOL     OW33415   4.428   3.384   2.754 -0.1229 -0.2283 -0.1534
 7318SOL    HW133416   4.522   3.396   2.763 -0.0317  0.3283 -1.7602
 7318SOL    HW233417   4.401   3.447   2.820 -0.6960 -2.0233  1.3290
 7319SOL     OW33418   3.445   0.374  15.775  0.1511  0.7838 -0.2996
 7319SOL    HW133419   3.480   0.417  15.853  1.7083 -2.4077  0.7690
 7319SOL    HW233420   3.529   0.328  15.770 -0.1175  0.2440  0.2248
 7320SOL     OW33421   0.338   1.187   2.854 -0.2192  0.1640  0.4935
 7320SOL    HW133422   0.284   1.147   2.786 -0.0134  2.1903 -0.8570
 7320SOL    HW233423   0.270   1.212   2.917  0.1180  2.7446 -0.1743
 7321SOL     OW33424   2.055   2.372   4.034  0.0740 -0.1515  0.3897
 7321SOL    HW133425   2.111   2.424   3.977 -0.5265  0.0673 -0.0077
 7321SOL    HW233426   1.991   2.442   4.050  1.5508  1.5314 -1.0782
 7322SOL     OW33427   0.426   1.226  11.807 -0.4528  0.0097 -0.0895
 7322SOL    HW133428   0.406   1.310  11.848 -0.6367 -0.8997  1.6861
 7322SOL    HW233429   0.415   1.161  11.877  0.6795 -0.2283 -0.1305
 7323SOL     OW33430   2.578   2.100   6.234 -1.0228  0.0125 -0.1596
 7323SOL    HW133431   2.488   2.070   6.235 -1.4894  1.4535  1.3124
 7323SOL    HW233432   2.570   2.187   6.273 -1.7029 -0.8841  1.6842
 7324SOL     OW33433   4.160   1.503   4.992  0.1931  0.1306  0.1888
 7324SOL    HW133434   4.206   1.425   4.960  1.4771  0.5046  1.1671
 7324SOL    HW233435   4.217   1.577   4.974 -0.9333  1.5986  2.6851
 7325SOL     OW33436   1.529   2.420   6.645 -0.5635 -0.8133 -0.0103
 7325SOL    HW133437   1.620   2.438   6.620 -0.6862  1.2904  1.0229
 7325SOL    HW233438   1.520   2.461   6.731 -0.4707  0.9358 -0.8384
 7326SOL     OW33439   0.052   4.597  12.914  0.1661 -0.1134  0.2487
 7326SOL    HW133440   0.112   4.555  12.976  0.5703  0.6975  0.4042
 7326SOL    HW233441   0.032   4.524  12.855  2.3719  0.2553 -0.9714
 7327SOL     OW33442   4.320   2.660  13.535  0.1356  0.2655 -0.5850
 7327SOL    HW133443   4.312   2.638  13.442  0.0621  2.5645 -1.1072
 7327SOL    HW233444   4.229   2.660  13.564  0.0695 -3.2097 -0.7446
 7328SOL     OW33445   3.477   2.916   3.377  0.8097 -0.0080  0.0297
 7328SOL    HW133446   3.516   2.849   3.320  0.1039 -0.7330  0.3989
 7328SOL    HW233447   3.431   2.876   3.450  0.7012 -0.3051 -0.2035
 7329SOL     OW33448   0.490   0.849   7.633  0.1620  0.0261 -0.6903
 7329SOL    HW133449   0.578   0.848   7.670 -0.3465  0.3802  0.5254
 7329SOL    HW233450   0.474   0.757   7.613 -0.8605 -0.1331  0.8644
 7330SOL     OW33451   3.098   0.260   5.634 -0.1232 -0.0886 -0.5431
 7330SOL    HW133452   3.168   0.285   5.572  2.9761 -1.3225  2.4851
 7330SOL    HW233453   3.136   0.195   5.692  0.3575  1.5173  0.9122
 7331SOL     OW33454   2.575   1.787   5.122 -0.7248 -0.0724 -0.0821
 7331SOL    HW133455   2.482   1.803   5.141 -0.2537  0.8804  1.4451
 7331SOL    HW233456   2.588   1.847   5.049 -0.8603 -0.9456 -0.8258
 7332SOL     OW33457   2.353   4.459   4.623 -0.2875  0.4329 -0.0920
 7332SOL    HW133458   2.404   4.391   4.578  1.0551  1.2623  0.1488
 7332SOL    HW233459   2.399   4.457   4.707  1.6946 -0.1629 -1.1731
 7333SOL     OW33460   0.222   0.472   1.169 -0.0226  0.0441 -0.0944
 7333SOL    HW133461   0.156   0.541   1.158  0.2149  0.2321 -0.3555
 7333SOL    HW233462   0.266   0.498   1.250  3.4223 -1.3984 -1.5394
 7334SOL     OW33463   2.273   0.501   4.526  0.2264 -0.0241 -0.0910
 7334SOL    HW133464   2.343   0.478   4.464  0.4661 -3.1448  1.3602
 7334SOL    HW233465   2.223   0.427   4.492  3.1613 -1.3017 -1.6428
 7335SOL     OW33466   1.266   3.390   5.781  0.6215 -0.1536 -0.1391
 7335SOL    HW133467   1.236   3.462   5.726  1.2397 -0.3901 -0.7762
 7335SOL    HW233468   1.252   3.310   5.731  0.1591  0.0175 -0.2779
 7336SOL     OW33469   4.153   1.854   9.620  0.3121 -0.0917 -0.2566
 7336SOL    HW133470   4.187   1.821   9.703 -1.2749  0.9413  0.8005
 7336SOL    HW233471   4.153   1.949   9.635 -0.2463 -0.2888  0.9398
 7337SOL     OW33472   1.949   2.334   7.727  0.0455  0.6323  0.1069
 7337SOL    HW133473   1.994   2.250   7.737 -1.5877 -0.2545  0.0576
 7337SOL    HW233474   1.862   2.329   7.766  0.2492 -2.3685  0.1960
 7338SOL     OW33475   4.069   1.495  12.594 -0.0298  0.3081 -0.4016
 7338SOL    HW133476   3.978   1.519  12.579 -0.5615 -0.4013  1.7433
 7338SOL    HW233477   4.098   1.562  12.656 -2.0164  0.3448  0.5021
 7339SOL     OW33478   2.502   2.399   2.974 -0.0808 -0.0573 -1.0179
 7339SOL    HW133479   2.453   2.319   2.993 -1.9583  0.8350 -2.1140
 7339SOL    HW233480   2.430   2.461   2.981  0.0205 -0.0868  0.2304
 7340SOL     OW33481   3.028   1.106   4.674 -0.3470  0.2467  0.6152
 7340SOL    HW133482   3.054   1.181   4.620  0.1997 -0.3749  0.0056
 7340SOL    HW233483   3.087   1.133   4.744 -1.7768  0.7550  1.6285
 7341SOL     OW33484   0.049   1.555  14.510  0.3902  0.0581 -0.4368
 7341SOL    HW133485   4.680   1.576  14.516 -0.3152 -2.5619 -1.9289
 7341SOL    HW233486   0.065   1.592  14.423 -0.9734  1.2139 -0.1945
 7342SOL     OW33487   3.215   3.233   5.721 -0.5205  0.3221  0.5361
 7342SOL    HW133488   3.283   3.172   5.751 -0.0073  2.0150  2.8245
 7342SOL    HW233489   3.142   3.174   5.702 -1.3066  1.2130  0.8120
 7343SOL     OW33490   1.890   1.618   6.273  0.4879 -0.8338 -0.4224
 7343SOL    HW133491   1.825   1.599   6.206  1.7087  1.5541 -2.3006
 7343SOL    HW233492   1.947   1.542   6.269  0.4106 -0.9316  0.2765
 7344SOL     OW33493   1.535   2.919   6.717 -0.0372 -0.4237  0.5244
 7344SOL    HW133494   1.488   2.850   6.764  0.1124 -2.0981 -1.7663
 7344SOL    HW233495   1.504   2.994   6.766  1.5012 -1.0623  2.4893
 7345SOL     OW33496   0.273   4.256   8.763  0.5208 -0.1226 -0.1449
 7345SOL    HW133497   0.333   4.288   8.830  0.0957  1.4600 -0.5272
 7345SOL    HW233498   0.255   4.166   8.792 -0.2649  0.7769  2.1267
 7346SOL     OW33499   4.677   1.135   4.587  0.3554  0.4032 -0.1630
 7346SOL    HW133500   4.676   1.206   4.652 -1.4481 -0.5506  0.8642
 7346SOL    HW233501   4.591   1.093   4.593  1.0161 -1.2929 -2.9187
 7347SOL     OW33502   0.624   1.689   6.860  0.4868 -0.4236  0.3359
 7347SOL    HW133503   0.588   1.770   6.897  0.2709 -0.3666 -0.0006
 7347SOL    HW233504   0.708   1.725   6.832  0.0472  0.9520  0.7960
 7348SOL     OW33505   2.451   1.130   9.019  0.3354  0.1669 -0.5229
 7348SOL    HW133506   2.466   1.095   9.106  2.5151  0.9478 -0.5818
 7348SOL    HW233507   2.370   1.087   8.995  1.9037 -1.8930 -2.1283
 7349SOL     OW33508   4.085   4.097   2.669 -0.0689  0.5587 -0.3511
 7349SOL    HW133509   4.058   4.080   2.760 -1.3823 -1.0622 -1.0567
 7349SOL    HW233510   4.033   4.171   2.636  0.3640  1.0712  0.1104
 7350SOL     OW33511   2.505   4.401  16.780 -0.0563  0.3248 -0.2375
 7350SOL    HW133512   2.533   4.388  16.689  1.7962 -0.4402  0.4319
 7350SOL    HW233513   2.417   4.365  16.775  0.2840 -0.8287  2.1280
 7351SOL     OW33514   1.651   3.306   4.525 -0.3149 -0.3683 -0.0381
 7351SOL    HW133515   1.667   3.273   4.614  1.4241 -1.0308 -0.6080
 7351SOL    HW233516   1.654   3.226   4.472  0.9397 -0.1506 -0.2949
 7352SOL     OW33517   4.442   4.162   9.517  0.3129  0.1675  0.4056
 7352SOL    HW133518   4.467   4.070   9.514 -1.7535 -0.3708 -0.1827
 7352SOL    HW233519   4.429   4.183   9.610  1.9193  3.1190 -0.0245
 7353SOL     OW33520   2.365   2.622   3.654  0.0972  0.4607  0.2079
 7353SOL    HW133521   2.461   2.632   3.654  0.1888 -0.3741 -0.3332
 7353SOL    HW233522   2.349   2.583   3.740  0.5241  0.8022  0.4444
 7354SOL     OW33523   0.255   0.603  13.687  0.2189  0.3213 -0.0729
 7354SOL    HW133524   0.247   0.590  13.781 -3.6921  1.0311 -0.2761
 7354SOL    HW233525   0.207   0.685  13.675 -1.2788 -0.8741 -2.2639
 7355SOL     OW33526   2.196   1.083   9.111  0.3037 -0.0539  0.3594
 7355SOL    HW133527   2.219   1.169   9.146 -0.1105 -0.5574  1.8320
 7355SOL    HW233528   2.165   1.030   9.184  1.5959  0.6591  1.4396
 7356SOL     OW33529   0.273   0.963   2.148  0.1511  0.8406 -0.3853
 7356SOL    HW133530   0.325   1.043   2.135 -1.1480  2.0294  1.7628
 7356SOL    HW233531   0.196   0.970   2.092 -1.0136  2.1682  1.3665
 7357SOL     OW33532   2.051   3.202   3.697 -0.1438 -0.8405  0.4517
 7357SOL    HW133533   2.016   3.283   3.661  0.7817 -0.0689  1.2793
 7357SOL    HW233534   2.070   3.227   3.788 -0.4904  1.7457 -0.1976
 7358SOL     OW33535   2.626   3.612   7.894 -0.5218  0.0465 -0.1956
 7358SOL    HW133536   2.584   3.527   7.881  0.6800 -0.1563 -2.6217
 7358SOL    HW233537   2.591   3.675   7.831 -2.7204  0.9164  1.8778
 7359SOL     OW33538   3.923   2.495  13.939 -0.2278 -0.2924 -0.3780
 7359SOL    HW133539   3.953   2.585  13.940  2.3883 -1.1741 -0.5879
 7359SOL    HW233540   3.831   2.513  13.918  0.1015 -0.3484 -1.9010
 7360SOL     OW33541   4.135   0.110  15.757  0.5554  0.1191 -0.5461
 7360SOL    HW133542   4.090   0.096  15.673 -0.7424 -1.1144  0.3711
 7360SOL    HW233543   4.218   0.151  15.732  0.3841 -2.0001 -4.5786
 7361SOL     OW33544   0.220   3.849   4.545 -0.1822  0.4253  0.2046
 7361SOL    HW133545   0.265   3.790   4.485 -0.8650 -0.6886  0.7732
 7361SOL    HW233546   0.144   3.876   4.493  0.0115  1.0168  0.2305
 7362SOL     OW33547   2.568   3.834  16.741  0.0976 -0.1089  0.4203
 7362SOL    HW133548   2.492   3.883  16.771  0.8543  1.5068 -0.3112
 7362SOL    HW233549   2.605   3.901  16.683 -1.1785  0.0713 -0.1883
 7363SOL     OW33550   3.485   1.527   0.412 -0.5465  0.1197  0.0744
 7363SOL    HW133551   3.536   1.462   0.460  0.1741  0.2086 -0.5794
 7363SOL    HW233552   3.500   1.486   0.327  0.6346  1.3067 -0.2949
 7364SOL     OW33553   1.910   0.523  13.151 -0.1418 -0.4779  0.8640
 7364SOL    HW133554   1.817   0.528  13.171 -0.3149 -2.6713  0.6287
 7364SOL    HW233555   1.900   0.521  13.055 -0.0810 -1.0659  0.8707
 7365SOL     OW33556   1.063   1.038   5.976 -0.2614 -0.3967  0.0080
 7365SOL    HW133557   0.973   1.070   5.986  0.3796  1.4536 -0.1677
 7365SOL    HW233558   1.103   1.079   6.052  1.7491 -0.8652 -0.8013
 7366SOL     OW33559   1.605   1.194   1.413 -0.5452 -0.2541  0.2584
 7366SOL    HW133560   1.684   1.180   1.466 -0.2169 -0.2898 -0.2434
 7366SOL    HW233561   1.539   1.207   1.481  0.2454  0.3457  0.9144
 7367SOL     OW33562   1.407   0.745   5.087 -0.5769  0.0634 -0.1539
 7367SOL    HW133563   1.426   0.830   5.125  0.5391  0.2348 -1.0968
 7367SOL    HW233564   1.326   0.763   5.039 -1.3439  1.0466  1.5203
 7368SOL     OW33565   1.386   2.931   8.243 -0.0200 -0.1816  0.6562
 7368SOL    HW133566   1.451   2.962   8.306 -1.8144  2.0472  1.4055
 7368SOL    HW233567   1.363   3.012   8.197  2.3797  0.5930  0.8218
 7369SOL     OW33568   0.623   2.509  17.271  0.3510 -0.2969 -0.6801
 7369SOL    HW133569   0.672   2.524  17.190 -0.4846  0.5409 -1.0269
 7369SOL    HW233570   0.654   2.420  17.290 -0.5654 -0.3079  0.7950
 7370SOL     OW33571   3.900   1.839   6.990 -0.4086 -0.1031  0.0837
 7370SOL    HW133572   3.879   1.868   7.079 -0.0202  0.0276  0.1284
 7370SOL    HW233573   3.933   1.751   7.007  0.3690  0.5296  1.8685
 7371SOL     OW33574   4.203   0.006   5.626 -0.5312 -0.0995  0.2133
 7371SOL    HW133575   4.161   0.070   5.569 -1.2402 -0.0075  0.8427
 7371SOL    HW233576   4.129   4.670   5.631 -0.7180  0.1434  0.3983
 7372SOL     OW33577   1.637   3.337   9.827 -0.5878  0.3290 -0.0247
 7372SOL    HW133578   1.705   3.274   9.851 -0.2381  0.1801 -1.4117
 7372SOL    HW233579   1.636   3.396   9.902  2.8060  0.2252  0.1030
 7373SOL     OW33580   3.844   1.596   7.528 -0.5877 -0.5072 -0.1815
 7373SOL    HW133581   3.904   1.526   7.503  1.2411  1.8269 -2.3117
 7373SOL    HW233582   3.754   1.571   7.507 -0.5540  0.1740 -1.1107
 7374SOL     OW33583   1.804   0.903  10.919 -0.1554 -0.3030 -0.3454
 7374SOL    HW133584   1.839   0.891  11.007 -1.2418  0.0003  0.1360
 7374SOL    HW233585   1.711   0.880  10.915 -0.0357 -0.5683 -1.7861
 7375SOL     OW33586   2.180   0.183   8.671  0.1888  0.7385  0.8461
 7375SOL    HW133587   2.182   0.100   8.719 -0.9097 -0.3268 -0.9439
 7375SOL    HW233588   2.254   0.160   8.614 -1.9854  2.8824 -2.8384
 7376SOL     OW33589   3.394   4.024   5.405  0.3019 -0.2653  0.3325
 7376SOL    HW133590   3.438   3.946   5.437  0.7270  0.3431  1.2449
 7376SOL    HW233591   3.475   4.073   5.391 -0.0273  0.2681  0.2769
 7377SOL     OW33592   3.377   0.081   4.507 -0.4983  0.1931 -0.2652
 7377SOL    HW133593   3.448   0.122   4.457 -0.6086  0.4440 -0.2133
 7377SOL    HW233594   3.366   0.012   4.442 -0.0136 -0.5858  0.4785
 7378SOL     OW33595   3.283   2.876  12.332 -0.6212 -0.1836  0.0054
 7378SOL    HW133596   3.280   2.780  12.335 -0.8697 -0.2784 -3.2874
 7378SOL    HW233597   3.222   2.896  12.404  0.1548  0.6411  0.4324
 7379SOL     OW33598   3.136   0.633   9.267  0.2933 -0.1950 -0.0618
 7379SOL    HW133599   3.040   0.641   9.268  0.2705 -0.3029 -1.1468
 7379SOL    HW233600   3.165   0.716   9.229  0.6089  0.2163  1.0515
 7380SOL     OW33601   0.138   1.372   8.877  0.1386  0.5854  0.2537
 7380SOL    HW133602   0.133   1.466   8.893  1.1752  0.7835 -0.5900
 7380SOL    HW233603   0.057   1.348   8.832 -0.0444  2.9704 -0.6591
 7381SOL     OW33604   4.528   4.373   4.063 -0.9154  0.2448 -0.1612
 7381SOL    HW133605   4.543   4.375   3.968 -1.1984  1.0048 -0.1950
 7381SOL    HW233606   4.592   4.437   4.096 -2.3635  0.5571  2.0434
 7382SOL     OW33607   3.268   2.400   6.105  0.1930 -0.1493 -0.3489
 7382SOL    HW133608   3.358   2.385   6.075  0.9464 -0.9953  2.3496
 7382SOL    HW233609   3.216   2.402   6.025  0.4277 -0.8522 -0.5264
 7383SOL     OW33610   2.223   1.546   6.024 -0.2972  0.1010  0.1199
 7383SOL    HW133611   2.310   1.574   6.050  0.1201 -0.8979 -0.2039
 7383SOL    HW233612   2.224   1.583   5.935  1.8403 -2.6708 -0.9889
 7384SOL     OW33613   0.118   4.482   3.978 -0.3438  0.0600 -0.6725
 7384SOL    HW133614   0.050   4.541   3.946  0.1761  1.5955  1.0128
 7384SOL    HW233615   0.194   4.508   3.925 -1.4458  0.5304 -2.0179
 7385SOL     OW33616   4.493   3.524   3.513  0.3748 -0.0023  0.2207
 7385SOL    HW133617   4.557   3.469   3.468  0.7835 -0.0497  0.8729
 7385SOL    HW233618   4.437   3.553   3.440 -1.5667  1.5040  2.2998
 7386SOL     OW33619   0.970   4.662  10.320 -0.0279  0.3138  0.5336
 7386SOL    HW133620   0.989   0.030  10.336  1.6693  0.3684 -1.7329
 7386SOL    HW233621   0.876   4.663  10.303  0.0144 -0.3941  0.2633
 7387SOL     OW33622   4.398   2.460   9.168 -0.5264 -0.7920 -0.1952
 7387SOL    HW133623   4.430   2.516   9.097 -0.1308 -1.4026 -0.4952
 7387SOL    HW233624   4.472   2.400   9.178 -0.3015 -0.3932  0.6077
 7388SOL     OW33625   3.603   3.277   6.968 -0.2654 -0.0009 -0.0882
 7388SOL    HW133626   3.663   3.258   6.896 -0.5044 -0.9827 -0.0260
 7388SOL    HW233627   3.574   3.364   6.940  0.8500  0.4211  0.0914
 7389SOL     OW33628   2.816   2.853   6.136 -0.3140 -0.4920  0.0861
 7389SOL    HW133629   2.740   2.818   6.089 -1.1944 -2.0091  2.6183
 7389SOL    HW233630   2.823   2.783   6.200  0.8876 -0.7080 -0.2886
 7390SOL     OW33631   3.042   0.928   0.048  0.1908 -0.4452 -0.3011
 7390SOL    HW133632   2.960   0.881   0.037 -0.7214  1.1819 -0.3901
 7390SOL    HW233633   3.083   0.866   0.108 -1.9012 -0.3148  1.2457
 7391SOL     OW33634   1.907   4.429   2.545  0.1974 -0.5345 -0.5189
 7391SOL    HW133635   1.975   4.380   2.498  0.8844  0.1735 -0.2621
 7391SOL    HW233636   1.938   4.424   2.635 -1.9975  1.0335  0.3330
 7392SOL     OW33637   0.010   4.162   0.737 -0.1904 -0.3988 -0.0157
 7392SOL    HW133638   4.655   4.202   0.771  0.0335 -1.9475  2.3205
 7392SOL    HW233639   0.010   4.211   0.655  0.2754 -1.5485 -0.7091
 7393SOL     OW33640   0.381   1.689  14.256 -0.3831 -0.8002  0.1902
 7393SOL    HW133641   0.425   1.673  14.339  1.4086  0.9245 -0.4166
 7393SOL    HW233642   0.456   1.715  14.203 -0.3621 -0.6040  0.3182
 7394SOL     OW33643   0.653   1.568  14.040  0.0960 -0.0029  0.0849
 7394SOL    HW133644   0.596   1.641  14.015 -0.6270 -0.7398 -0.4429
 7394SOL    HW233645   0.714   1.607  14.101  1.6192  0.5993 -1.8402
 7395SOL     OW33646   3.240   2.647   6.259 -0.6108 -0.2093 -0.1198
 7395SOL    HW133647   3.188   2.615   6.332 -1.4202  1.9214  0.2570
 7395SOL    HW233648   3.237   2.571   6.201  2.4785  0.2755 -0.9189
 7396SOL     OW33649   1.841   4.372  14.196  0.5485  0.1757  0.1157
 7396SOL    HW133650   1.769   4.310  14.212 -0.0404  0.6846 -0.5475
 7396SOL    HW233651   1.890   4.322  14.131  0.9238 -0.8928  1.2215
 7397SOL     OW33652   0.906   3.532   4.538 -0.5734  0.2992 -0.1260
 7397SOL    HW133653   0.902   3.584   4.457  2.3834  1.9559  0.8015
 7397SOL    HW233654   0.865   3.598   4.594  1.1108  1.3674 -0.1345
 7398SOL     OW33655   3.322   3.956   4.366  0.0514 -0.8116 -0.4315
 7398SOL    HW133656   3.335   3.971   4.273  0.4714 -0.0508 -0.2483
 7398SOL    HW233657   3.229   3.935   4.380  0.2827 -0.2875  1.8679
 7399SOL     OW33658   3.151   3.567   3.265  0.1598  0.3255 -0.0442
 7399SOL    HW133659   3.168   3.502   3.197 -0.8918  0.4842 -0.4630
 7399SOL    HW233660   3.061   3.599   3.250  0.1032 -0.0302 -0.4475
 7400SOL     OW33661   3.259   3.439   7.683  0.0311  0.7679  0.1361
 7400SOL    HW133662   3.245   3.501   7.611 -3.7841  0.3004  0.4554
 7400SOL    HW233663   3.166   3.419   7.692  0.0073  0.4841 -0.7354
 7401SOL     OW33664   2.235   2.037  10.075 -0.4474  0.2486 -1.0260
 7401SOL    HW133665   2.278   2.032  10.161 -0.5389 -0.5340 -1.0217
 7401SOL    HW233666   2.149   2.071  10.100 -0.1415 -0.7841  1.4806
 7402SOL     OW33667   1.780   1.055   0.289  0.2519  0.3062 -0.9144
 7402SOL    HW133668   1.709   1.081   0.347  3.4922 -0.5791  3.4935
 7402SOL    HW233669   1.740   0.972   0.261  0.6794  0.1518 -1.0843
 7403SOL     OW33670   0.153   4.631   6.369 -0.4666 -0.0641 -0.2097
 7403SOL    HW133671   0.199   4.710   6.341 -0.3901  0.5779  1.7253
 7403SOL    HW233672   0.099   4.610   6.293 -0.5170  0.0074 -0.1929
 7404SOL     OW33673   1.244   0.987   4.149 -0.0650  0.6114  0.6148
 7404SOL    HW133674   1.284   0.905   4.119  2.6578  2.0289  0.3740
 7404SOL    HW233675   1.211   1.009   4.062  3.3882 -0.1149 -0.8884
 7405SOL     OW33676   4.266   1.583  16.564  0.5329  0.7254 -0.0854
 7405SOL    HW133677   4.192   1.642  16.553  1.0138  0.7517 -3.1221
 7405SOL    HW233678   4.238   1.525  16.634  0.8538 -0.3601 -0.8637
 7406SOL     OW33679   3.150   0.798  15.223 -0.2348 -0.0647  0.3492
 7406SOL    HW133680   3.143   0.861  15.294  0.8419 -1.5432  1.7544
 7406SOL    HW233681   3.060   0.766  15.227 -0.0818 -0.8990 -2.5378
 7407SOL     OW33682   0.621   2.862  10.590  0.0371  0.6004  0.3630
 7407SOL    HW133683   0.611   2.957  10.601 -0.5848  0.4983  0.6208
 7407SOL    HW233684   0.531   2.833  10.583  0.4392 -0.6740  0.4356
 7408SOL     OW33685   2.172   3.969   4.944 -0.0735  0.3219  0.2457
 7408SOL    HW133686   2.106   3.999   5.008 -0.3845 -0.1100  0.1248
 7408SOL    HW233687   2.216   3.902   4.995  0.3148 -0.0610 -0.6002
 7409SOL     OW33688   3.622   1.508   3.542 -0.0815 -0.2001 -0.1464
 7409SOL    HW133689   3.659   1.421   3.526 -1.6000 -0.4031 -2.5800
 7409SOL    HW233690   3.633   1.515   3.637 -1.5871  0.4934 -0.0316
 7410SOL     OW33691   1.755   2.269   5.525 -0.3642  0.1997 -0.3801
 7410SOL    HW133692   1.850   2.274   5.535 -0.3805  0.6932 -0.4420
 7410SOL    HW233693   1.731   2.360   5.545 -0.1129 -0.2620  2.0185
 7411SOL     OW33694   2.252   0.405   3.901 -0.1173  0.4977  0.4158
 7411SOL    HW133695   2.247   0.320   3.858  0.3965  0.3781  0.5908
 7411SOL    HW233696   2.338   0.437   3.873 -0.1226  0.3508  0.2267
 7412SOL     OW33697   2.021   1.646   3.845  0.6708 -0.1052 -0.6595
 7412SOL    HW133698   1.932   1.682   3.843  0.2179 -1.1680  0.7965
 7412SOL    HW233699   2.057   1.686   3.924 -1.6016  1.2249 -0.2830
 7413SOL     OW33700   3.563   0.472   8.490  0.2618 -0.0103 -0.3160
 7413SOL    HW133701   3.485   0.521   8.465  0.3382  0.0270 -0.4857
 7413SOL    HW233702   3.522   0.388   8.510 -0.3891 -0.3670 -3.0940
 7414SOL     OW33703   0.768   2.511   6.754 -0.2872  0.1451  0.4203
 7414SOL    HW133704   0.853   2.476   6.728 -0.7583  0.4970 -1.5930
 7414SOL    HW233705   0.725   2.489   6.672 -0.6115 -0.0522  0.6422
 7415SOL     OW33706   4.205   4.038  15.150  0.1138 -0.0224  0.1898
 7415SOL    HW133707   4.112   4.021  15.135 -0.0961  1.2098  0.0670
 7415SOL    HW233708   4.210   4.133  15.134 -0.9462 -0.3222 -1.8999
 7416SOL     OW33709   4.516   2.262   2.078  0.4891  0.4195 -0.4702
 7416SOL    HW133710   4.430   2.223   2.097  1.6508 -0.7617  2.4160
 7416SOL    HW233711   4.539   2.273   2.170  1.6663 -0.9715 -0.5897
 7417SOL     OW33712   3.514   1.600  12.989  0.0269  0.3328 -0.2538
 7417SOL    HW133713   3.593   1.563  12.951 -0.8546 -1.6020 -0.2322
 7417SOL    HW233714   3.494   1.657  12.915  2.2875  1.6590  0.1705
 7418SOL     OW33715   1.387   0.349  10.312 -0.1545 -0.4035 -0.3199
 7418SOL    HW133716   1.459   0.407  10.338  0.3553 -1.1755 -0.0105
 7418SOL    HW233717   1.347   0.397  10.239  1.0981 -0.7684 -1.2530
 7419SOL     OW33718   4.390   2.687  13.020  0.0653  0.2491 -0.0086
 7419SOL    HW133719   4.297   2.710  13.030  0.0331 -0.2493  0.8161
 7419SOL    HW233720   4.425   2.730  12.941  2.6689  0.5117  1.3034
 7420SOL     OW33721   0.288   2.205  10.692 -0.9509 -0.1648 -0.5814
 7420SOL    HW133722   0.364   2.236  10.742  0.3590 -1.4268 -1.8039
 7420SOL    HW233723   0.254   2.135  10.747  0.6856 -0.7754 -0.3360
 7421SOL     OW33724   3.281   3.677   5.849 -0.4445 -0.4777 -0.2141
 7421SOL    HW133725   3.286   3.746   5.783 -0.7164 -0.3314 -0.0808
 7421SOL    HW233726   3.313   3.600   5.801 -0.3150 -0.3156 -0.3878
 7422SOL     OW33727   1.702   4.456   6.830 -0.1864 -0.4337 -0.4173
 7422SOL    HW133728   1.613   4.422   6.830  0.5366 -2.3620 -0.6562
 7422SOL    HW233729   1.701   4.491   6.919 -0.7367 -1.0529 -0.1783
 7423SOL     OW33730   4.159   3.497   8.071 -0.2024  0.6940  0.5969
 7423SOL    HW133731   4.252   3.520   8.071  0.1927 -0.9573 -1.4131
 7423SOL    HW233732   4.157   3.402   8.061 -1.7926  0.5407  2.4397
 7424SOL     OW33733   3.231   1.435   8.519 -0.0179  0.3933 -0.2376
 7424SOL    HW133734   3.248   1.367   8.584 -1.6813  0.1908 -0.0212
 7424SOL    HW233735   3.147   1.399   8.490  0.8314 -0.6907 -1.3223
 7425SOL     OW33736   0.419   2.996   4.559 -0.7885 -0.3818 -0.2649
 7425SOL    HW133737   0.449   3.081   4.527  0.6153 -0.2088  1.4844
 7425SOL    HW233738   0.498   2.945   4.543 -1.8018 -1.6664 -1.1346
 7426SOL     OW33739   0.937   2.702   6.497 -0.0124  0.0212 -0.4164
 7426SOL    HW133740   0.958   2.697   6.404 -1.9632 -1.5453 -0.7806
 7426SOL    HW233741   1.012   2.653   6.531 -1.6996 -2.3919 -0.1497
 7427SOL     OW33742   2.111   0.348  11.676  1.1732 -0.3729 -0.1368
 7427SOL    HW133743   2.091   0.268  11.626  1.8825 -0.6097 -0.0440
 7427SOL    HW233744   2.140   0.306  11.757 -3.4838 -0.7454  1.2996
 7428SOL     OW33745   3.394   0.776   7.705  0.6234 -0.1703 -0.5825
 7428SOL    HW133746   3.375   0.690   7.667 -1.0751 -0.0701  0.0336
 7428SOL    HW233747   3.487   0.763   7.723  0.9461  1.6058 -0.9378
 7429SOL     OW33748   1.741   4.440  12.404  0.0218 -0.4395  0.2712
 7429SOL    HW133749   1.801   4.366  12.394  0.3292  0.3284 -3.7929
 7429SOL    HW233750   1.788   4.497  12.464 -0.6260 -1.3915  1.6765
 7430SOL     OW33751   2.105   2.347  14.643 -0.6356 -0.1352 -0.5155
 7430SOL    HW133752   2.046   2.311  14.576  1.4369  0.1557 -2.4913
 7430SOL    HW233753   2.160   2.274  14.672 -0.3041  0.4328  0.3048
 7431SOL     OW33754   0.676   2.223   7.230 -0.2894 -0.2662 -0.2805
 7431SOL    HW133755   0.706   2.175   7.152  2.1113 -1.8065  1.5691
 7431SOL    HW233756   0.585   2.200   7.211 -0.2352 -1.1007  0.4872
 7432SOL     OW33757   1.646   0.320  16.416 -0.1768  0.0082  0.1700
 7432SOL    HW133758   1.575   0.334  16.479  0.9154 -1.8050  1.8292
 7432SOL    HW233759   1.613   0.372  16.343 -4.0304  0.0926  1.9256
 7433SOL     OW33760   4.684   1.398   3.128  0.5590 -0.9360  0.2947
 7433SOL    HW133761   4.648   1.487   3.128  1.3607 -0.6083 -2.3744
 7433SOL    HW233762   4.632   1.350   3.192 -0.2931  0.3735  0.5791
 7434SOL     OW33763   1.419   2.466   6.927 -0.0506  0.0776 -0.7031
 7434SOL    HW133764   1.324   2.476   6.915  0.0697  1.1093 -0.8355
 7434SOL    HW233765   1.425   2.373   6.947 -0.4264  0.1117 -0.4310
 7435SOL     OW33766   0.946   1.929   2.427  0.1361 -0.2897 -0.1539
 7435SOL    HW133767   0.898   1.893   2.352 -0.8429  0.3955  0.1390
 7435SOL    HW233768   0.901   1.877   2.494 -0.7317 -1.2346 -1.4709
 7436SOL     OW33769   2.760   3.851  10.023  0.0046  0.2927 -0.1006
 7436SOL    HW133770   2.679   3.809   9.994 -0.0405 -1.2728  2.2556
 7436SOL    HW233771   2.775   3.816  10.111  0.9230 -1.3767 -0.9247
 7437SOL     OW33772   0.974   3.640   8.611  0.3788 -0.0801  0.5537
 7437SOL    HW133773   0.887   3.625   8.576  0.1717 -0.2950  1.1683
 7437SOL    HW233774   0.997   3.558   8.654 -0.7807 -0.2469  0.8339
 7438SOL     OW33775   4.287   1.544   8.754  0.1633  0.1874 -0.7886
 7438SOL    HW133776   4.292   1.598   8.833 -1.2452  0.3034 -0.7747
 7438SOL    HW233777   4.230   1.598   8.700 -0.6158  2.4554  2.2866
 7439SOL     OW33778   0.250   1.546   5.661  0.0544 -0.6035  0.5179
 7439SOL    HW133779   0.338   1.524   5.692 -0.5477 -2.2273  1.0866
 7439SOL    HW233780   0.267   1.630   5.619  2.4680 -1.1440  0.4038
 7440SOL     OW33781   1.678   3.257  16.280 -0.1974 -0.1113 -0.0818
 7440SOL    HW133782   1.695   3.230  16.370  1.3572 -0.7858 -0.5874
 7440SOL    HW233783   1.590   3.218  16.280  0.5677 -1.8382 -0.5988
 7441SOL     OW33784   1.815   0.340   7.318 -0.0909 -0.3498  0.3438
 7441SOL    HW133785   1.772   0.424   7.310  2.5242  1.2019  2.3065
 7441SOL    HW233786   1.873   0.355   7.243 -0.1382 -2.0432 -0.0358
 7442SOL     OW33787   2.825   4.265  16.131  0.3201  0.8779  0.4819
 7442SOL    HW133788   2.909   4.220  16.120 -0.0281 -0.0993  1.7415
 7442SOL    HW233789   2.805   4.246  16.223 -0.7687  2.4380  0.5721
 7443SOL     OW33790   2.449   3.384   7.804 -0.4691  0.3484 -0.0480
 7443SOL    HW133791   2.461   3.297   7.843  0.7349  0.7855  0.5414
 7443SOL    HW233792   2.355   3.391   7.824  0.3304  3.0137  2.7442
 7444SOL     OW33793   2.462   2.164   5.560  0.2730 -0.1958  1.0401
 7444SOL    HW133794   2.466   2.098   5.629  4.0799 -0.7885  0.2506
 7444SOL    HW233795   2.489   2.251   5.591  2.9877 -0.3996 -0.7793
 7445SOL     OW33796   2.423   4.237  13.290 -0.0694 -0.2600  0.2629
 7445SOL    HW133797   2.334   4.268  13.307 -0.4295 -0.7246 -0.7824
 7445SOL    HW233798   2.448   4.287  13.212  2.0764 -1.6177  0.0694
 7446SOL     OW33799   1.260   2.947   4.145 -0.6731 -0.0336 -0.0577
 7446SOL    HW133800   1.228   2.993   4.222  1.8539  1.7615 -0.0617
 7446SOL    HW233801   1.195   2.951   4.075  1.2098 -0.9210 -1.8871
 7447SOL     OW33802   3.211   4.423   2.180  0.3063 -0.3542 -0.1341
 7447SOL    HW133803   3.306   4.419   2.169  0.3977  1.2115 -0.0082
 7447SOL    HW233804   3.190   4.335   2.210 -0.3984  0.4584  1.7397
 7448SOL     OW33805   3.641   1.023   9.234 -0.6056  0.3494  0.2531
 7448SOL    HW133806   3.590   1.028   9.315  0.4285  0.9220  0.8659
 7448SOL    HW233807   3.699   1.098   9.247 -2.0635  1.4581  0.5141
 7449SOL     OW33808   2.000   2.532  16.678  0.7125  0.0470 -0.1072
 7449SOL    HW133809   2.094   2.517  16.685  0.7768 -0.4364 -2.1627
 7449SOL    HW233810   1.971   2.442  16.662 -0.9757  0.8552 -1.5442
 7450SOL     OW33811   1.483   3.970   4.998  0.2436  0.7049 -0.3153
 7450SOL    HW133812   1.537   4.036   4.953 -1.3508  2.6614  0.6181
 7450SOL    HW233813   1.479   3.998   5.089  2.4594 -0.8856  0.2708
 7451SOL     OW33814   1.554   2.150  10.768 -0.9538 -0.5073 -0.3218
 7451SOL    HW133815   1.507   2.158  10.851 -0.6607  1.5109 -0.3443
 7451SOL    HW233816   1.495   2.116  10.700  1.0514  1.2265 -2.9592
 7452SOL     OW33817   1.795   0.158   4.433 -0.3262  0.2148 -0.1125
 7452SOL    HW133818   1.809   0.188   4.523 -0.7878 -1.2590  0.4566
 7452SOL    HW233819   1.864   0.093   4.422  1.1922  1.0474  4.4011
 7453SOL     OW33820   0.504   4.650  13.092  0.3792 -0.3498  0.5085
 7453SOL    HW133821   0.587   4.696  13.078 -0.4531  0.6035 -1.2817
 7453SOL    HW233822   0.507   4.589  13.019  0.8122 -1.3638  1.3798
 7454SOL     OW33823   0.362   2.069   0.599 -0.1493  0.4464 -0.3105
 7454SOL    HW133824   0.394   2.081   0.688 -3.4097 -2.3804  1.2449
 7454SOL    HW233825   0.391   1.980   0.579 -0.0586  0.0277  1.6816
 7455SOL     OW33826   2.696   4.501   5.735  1.2507 -0.4815  0.9300
 7455SOL    HW133827   2.744   4.570   5.782  0.8801  0.8053 -0.5856
 7455SOL    HW233828   2.752   4.486   5.658 -0.3181 -1.2543 -0.0550
 7456SOL     OW33829   0.841   3.329   6.855  0.2601  0.2658  0.2114
 7456SOL    HW133830   0.844   3.339   6.950 -1.6270  0.7028  0.2252
 7456SOL    HW233831   0.860   3.421   6.835  1.9349 -0.3093 -0.8636
 7457SOL     OW33832   3.711   4.026   8.329 -0.2045  0.4315  0.4878
 7457SOL    HW133833   3.657   3.953   8.300  0.2692  0.0657  0.5406
 7457SOL    HW233834   3.680   4.048   8.417 -1.5565 -1.3477  0.4467
 7458SOL     OW33835   1.077   2.046   4.908  0.5414  0.2712 -0.2638
 7458SOL    HW133836   1.104   1.964   4.950 -0.2865 -0.0730 -0.3894
 7458SOL    HW233837   1.132   2.112   4.949 -3.2870  2.5299  1.2825
 7459SOL     OW33838   1.381   1.633   5.850  0.3933 -0.2457  0.1427
 7459SOL    HW133839   1.377   1.617   5.756  0.7730  1.1103 -0.1068
 7459SOL    HW233840   1.333   1.716   5.848  0.9594  0.0691 -0.1286
 7460SOL     OW33841   2.728   1.370  13.637 -0.2132 -0.0011  0.3688
 7460SOL    HW133842   2.657   1.423  13.673 -0.7233 -1.3197  1.3263
 7460SOL    HW233843   2.689   1.284  13.620 -0.8347  0.4194 -0.2920
 7461SOL     OW33844   2.255   0.750   2.162 -0.6885 -0.5725 -0.7084
 7461SOL    HW133845   2.343   0.745   2.125 -0.3336 -0.8796  0.1729
 7461SOL    HW233846   2.262   0.676   2.222  2.7044  0.7551  0.5543
 7462SOL     OW33847   1.185   4.183  13.971  0.0653  0.0096 -0.6491
 7462SOL    HW133848   1.172   4.149  14.059  1.9115 -0.0171 -0.4003
 7462SOL    HW233849   1.092   4.204  13.959 -0.7853 -2.6827  1.2152
 7463SOL     OW33850   3.867   2.162   2.848  0.2507 -0.6076 -0.4820
 7463SOL    HW133851   3.938   2.166   2.783  0.5951 -2.7235 -0.2286
 7463SOL    HW233852   3.870   2.246   2.893 -0.8152 -1.1693  0.6365
 7464SOL     OW33853   4.701   2.278   5.363 -0.2290  0.1481 -0.2191
 7464SOL    HW133854   4.611   2.246   5.367 -0.2515  0.6727  3.9898
 7464SOL    HW233855   4.703   2.329   5.282 -0.3842  1.1372  0.3859
 7465SOL     OW33856   1.926   1.636   2.875 -0.2837  0.6396 -0.2790
 7465SOL    HW133857   2.017   1.609   2.891 -0.8184 -1.4521 -0.8430
 7465SOL    HW233858   1.893   1.547   2.870 -0.3451  0.6366  0.1883
 7466SOL     OW33859   2.701   2.579   8.153  0.2397 -0.0148 -0.4447
 7466SOL    HW133860   2.606   2.575   8.143  0.2111 -1.2027  0.2482
 7466SOL    HW233861   2.736   2.506   8.101  1.0558  0.6020 -0.7621
 7467SOL     OW33862   0.020   4.408  16.849 -0.7115  0.1163 -0.2638
 7467SOL    HW133863   4.722   4.361  16.769  0.5002  1.9319 -1.6644
 7467SOL    HW233864   0.094   4.351  16.874 -0.9049 -0.6170 -1.3460
 7468SOL     OW33865   3.116   3.299   4.089 -0.1488  0.1661  0.0597
 7468SOL    HW133866   3.039   3.341   4.050 -0.3954  0.8515  1.2670
 7468SOL    HW233867   3.092   3.272   4.178  0.8632 -1.2769 -0.1133
 7469SOL     OW33868   1.707   4.695   3.128 -0.3599 -0.1287 -0.1421
 7469SOL    HW133869   1.646   4.677   3.056  1.8602  0.6646 -2.2184
 7469SOL    HW233870   1.775   4.634   3.099 -0.1725 -0.0188  0.0621
 7470SOL     OW33871   2.432   4.551   2.050  0.4619  0.1854 -0.0980
 7470SOL    HW133872   2.455   4.630   2.100  2.3005 -1.1746  1.1759
 7470SOL    HW233873   2.340   4.561   2.026  0.2683  1.4064  1.1091
 7471SOL     OW33874   4.012   4.171  10.551 -0.4919 -0.4433  0.0138
 7471SOL    HW133875   4.093   4.147  10.595  0.7292  3.6947 -0.0080
 7471SOL    HW233876   3.977   4.243  10.603 -0.9081  0.6041 -1.7379
 7472SOL     OW33877   3.907   3.134   0.962  0.1116 -0.6727 -0.2354
 7472SOL    HW133878   3.828   3.102   1.005  1.5550  0.0073  2.9122
 7472SOL    HW233879   3.877   3.162   0.875 -1.8884 -0.9676  0.3635
 7473SOL     OW33880   2.886   3.167   5.964 -0.1916  0.6939  0.5003
 7473SOL    HW133881   2.903   3.116   6.042 -0.7040 -0.4204 -0.1260
 7473SOL    HW233882   2.905   3.256   5.994  1.2285 -0.0368  1.7489
 7474SOL     OW33883   1.000   4.226   1.710 -0.1594  0.5271  0.1267
 7474SOL    HW133884   1.075   4.217   1.650 -0.4012 -0.2561 -0.0572
 7474SOL    HW233885   0.929   4.173   1.675  0.7856  0.6480 -1.9675
 7475SOL     OW33886   4.370   3.628  15.696 -0.3726 -0.3431  0.1984
 7475SOL    HW133887   4.388   3.712  15.652 -3.7267  0.5129  0.4713
 7475SOL    HW233888   4.317   3.583  15.630 -0.0483  0.2162 -0.4482
 7476SOL     OW33889   0.638   3.110  17.470  0.2005  0.1457  0.0139
 7476SOL    HW133890   0.559   3.144  17.429 -0.3502 -0.1633  0.8139
 7476SOL    HW233891   0.646   3.164  17.548  4.5871 -0.4766  0.0398
 7477SOL     OW33892   1.841   3.521   8.376 -0.2066  0.0013 -0.0782
 7477SOL    HW133893   1.864   3.600   8.425 -0.9117  0.7851 -1.0325
 7477SOL    HW233894   1.792   3.464   8.436  1.0265  0.0007  0.9355
 7478SOL     OW33895   1.504   1.460  11.419 -0.3696  0.4550 -0.3836
 7478SOL    HW133896   1.484   1.538  11.471  0.3231  0.3699  0.0007
 7478SOL    HW233897   1.574   1.422  11.471 -0.2696 -0.1873 -0.9932
 7479SOL     OW33898   0.946   2.678   5.483 -0.2629 -0.4306 -0.1416
 7479SOL    HW133899   0.900   2.746   5.434 -1.6407 -2.4147 -1.5969
 7479SOL    HW233900   0.998   2.736   5.539 -0.5895  0.1953 -0.4867
 7480SOL     OW33901   4.034   1.188   7.505 -0.1621  0.5713 -0.2116
 7480SOL    HW133902   3.992   1.268   7.474  3.4660  1.5767 -2.6529
 7480SOL    HW233903   3.967   1.157   7.565  1.1805  0.0879  1.0422
 7481SOL     OW33904   4.176   1.463   7.700 -0.4024 -0.0647  0.1064
 7481SOL    HW133905   4.114   1.412   7.752  0.5826  1.2176  2.5266
 7481SOL    HW233906   4.176   1.414   7.617 -1.3040  3.5085 -2.0145
 7482SOL     OW33907   0.561   0.949   0.203  0.1945 -0.0807 -0.2022
 7482SOL    HW133908   0.501   0.961   0.277  0.5306  1.8600 -0.2598
 7482SOL    HW233909   0.516   0.996   0.134 -1.1795 -0.7965  0.1874
 7483SOL     OW33910   4.417   2.771   4.520 -0.3022 -0.1934 -0.4834
 7483SOL    HW133911   4.394   2.761   4.428 -0.2393 -1.0091 -0.4131
 7483SOL    HW233912   4.334   2.765   4.567  0.6060  0.0199  1.1363
 7484SOL     OW33913   1.468   0.544   4.090 -0.7727 -0.1787 -0.3413
 7484SOL    HW133914   1.467   0.599   4.169 -3.1513 -1.4650  0.5190
 7484SOL    HW233915   1.414   0.469   4.114 -1.5431  0.5245  0.0992
 7485SOL     OW33916   0.271   2.800   4.448 -0.1464  0.0953 -0.0471
 7485SOL    HW133917   0.330   2.738   4.491  0.6929  0.8338 -0.1425
 7485SOL    HW233918   0.320   2.882   4.453 -1.8999  1.1210  0.6983
 7486SOL     OW33919   3.508   2.511   7.153 -0.0804 -0.2732 -0.3657
 7486SOL    HW133920   3.529   2.585   7.096 -1.3556  0.5055  0.1740
 7486SOL    HW233921   3.570   2.517   7.225  1.1765  1.5597 -1.5940
 7487SOL     OW33922   3.557   1.061   5.985  0.1900  0.0379  0.3538
 7487SOL    HW133923   3.593   1.143   6.019  0.1154  1.6192 -3.3406
 7487SOL    HW233924   3.534   1.013   6.065  0.4458  1.0761  1.0448
 7488SOL     OW33925   2.822   3.002  13.126  0.1575 -0.1494  0.2549
 7488SOL    HW133926   2.840   2.959  13.042 -1.5480 -0.9625  0.3060
 7488SOL    HW233927   2.868   3.085  13.116 -0.4986  0.5041  2.6527
 7489SOL     OW33928   2.237   4.071   2.775  0.0065  0.4187 -0.0060
 7489SOL    HW133929   2.152   4.056   2.814  1.4292 -1.8247  2.1962
 7489SOL    HW233930   2.285   3.998   2.814  1.0700  1.2956  0.3628
 7490SOL     OW33931   2.942   4.332  13.250 -0.0529  0.2644  0.0480
 7490SOL    HW133932   2.860   4.284  13.239 -0.0382  0.1214  0.6042
 7490SOL    HW233933   3.008   4.263  13.250 -0.2581  0.0682  0.0556
 7491SOL     OW33934   2.012   1.673   8.466  0.3275  0.1440  0.1838
 7491SOL    HW133935   2.092   1.692   8.417  0.5092 -0.7322  0.1416
 7491SOL    HW233936   2.036   1.587   8.501  0.9858  0.8390  1.4468
 7492SOL     OW33937   1.163   0.831   4.919 -0.5182  0.2300  0.4122
 7492SOL    HW133938   1.151   0.926   4.927  4.6531  0.6893  2.4476
 7492SOL    HW233939   1.101   0.804   4.852 -0.7882  0.7981  0.4314
 7493SOL     OW33940   3.592   2.652   4.966 -0.3497 -0.0155  0.4463
 7493SOL    HW133941   3.498   2.639   4.983 -0.3275  1.0094  1.3721
 7493SOL    HW233942   3.633   2.611   5.042  1.9711 -0.4498 -1.0590
 7494SOL     OW33943   3.031   0.687  14.533 -0.5882  0.1227 -0.5036
 7494SOL    HW133944   3.097   0.652  14.473 -0.9064  0.6000 -1.1420
 7494SOL    HW233945   3.034   0.781  14.514  0.6237  0.9039  3.5445
 7495SOL     OW33946   1.695   0.729   2.974 -0.4418 -0.0934 -0.6191
 7495SOL    HW133947   1.635   0.802   2.990 -1.2311 -0.7934 -0.3881
 7495SOL    HW233948   1.678   0.710   2.882  1.6476 -2.7660 -0.4509
 7496SOL     OW33949   0.927   3.418   9.935 -0.3820  0.0088 -0.0631
 7496SOL    HW133950   0.850   3.380   9.979  0.3824  0.8043  1.9695
 7496SOL    HW233951   0.994   3.358   9.966  0.7048  0.9249 -0.6431
 7497SOL     OW33952   1.045   2.361   6.394 -0.4849 -0.0893  0.2561
 7497SOL    HW133953   1.118   2.422   6.385 -1.8280  1.0926 -2.6875
 7497SOL    HW233954   0.978   2.399   6.337  1.2523  2.7280  0.0878
 7498SOL     OW33955   2.778   2.481  15.764  0.2056 -0.4807  0.2586
 7498SOL    HW133956   2.766   2.475  15.859 -1.6621  1.7348  0.1642
 7498SOL    HW233957   2.770   2.387  15.746 -1.2091 -0.7252  2.2492
 7499SOL     OW33958   1.508   2.359   4.455  0.0970  0.2890  0.3902
 7499SOL    HW133959   1.431   2.319   4.496  0.1033 -1.2510 -1.0925
 7499SOL    HW233960   1.465   2.430   4.407 -1.2394 -0.7299  0.0809
 7500SOL     OW33961   1.103   4.191  10.106 -0.7897  0.1564  0.2570
 7500SOL    HW133962   1.101   4.261  10.171 -2.5473 -0.3594  0.7649
 7500SOL    HW233963   1.077   4.114  10.156 -2.1060  1.4940  1.6263
 7501SOL     OW33964   1.156   1.463  12.037  0.4254 -0.0507 -0.2342
 7501SOL    HW133965   1.249   1.484  12.047 -0.0760  1.6081  0.9397
 7501SOL    HW233966   1.146   1.461  11.942 -0.9357  0.8308 -0.1002
 7502SOL     OW33967   0.838   0.613   7.453 -0.2422 -0.0797 -0.2002
 7502SOL    HW133968   0.765   0.559   7.484 -1.7980  0.5002 -2.9005
 7502SOL    HW233969   0.790   0.687   7.417  1.8569  1.0730 -0.6155
 7503SOL     OW33970   3.102   0.644   8.297  0.5328  0.4265  0.1892
 7503SOL    HW133971   3.010   0.630   8.276  0.1654  0.5386  1.7108
 7503SOL    HW233972   3.108   0.739   8.285  1.7099  0.2636 -0.5623
 7504SOL     OW33973   1.492   4.630   5.233 -0.4307  0.1427  0.1072
 7504SOL    HW133974   1.540   4.706   5.201 -0.5056  0.4013  0.6245
 7504SOL    HW233975   1.411   4.630   5.181 -1.0627  0.7531  1.0975
 7505SOL     OW33976   2.185   2.513   2.793 -0.2350  0.2105 -0.5586
 7505SOL    HW133977   2.089   2.516   2.786 -0.2457 -3.2102 -1.6565
 7505SOL    HW233978   2.201   2.534   2.885  1.3369  0.2888 -0.8597
 7506SOL     OW33979   1.559   1.429  11.130  0.2852 -0.5703  0.3291
 7506SOL    HW133980   1.592   1.517  11.113 -0.0827 -0.6143 -0.6560
 7506SOL    HW233981   1.513   1.447  11.212  1.3874  1.1377  0.5628
 7507SOL     OW33982   3.301   1.458  15.923 -0.0642 -0.0584  0.3190
 7507SOL    HW133983   3.269   1.531  15.976 -4.1739 -2.0353  0.5941
 7507SOL    HW233984   3.378   1.427  15.970  1.5775  0.1777 -2.2507
 7508SOL     OW33985   2.937   3.370   5.671  0.4553  0.1004  0.2656
 7508SOL    HW133986   2.999   3.328   5.731 -0.2643  0.2828  1.1389
 7508SOL    HW233987   2.961   3.463   5.673 -0.4996  0.3736 -0.7869
 7509SOL     OW33988   0.954   4.532   5.016  0.4421  0.2006  0.5044
 7509SOL    HW133989   0.887   4.542   4.948  0.7558  0.0832  0.1769
 7509SOL    HW233990   0.907   4.476   5.078 -0.4611 -1.8398 -2.0329
 7510SOL     OW33991   1.757   1.043   5.650 -0.1754  0.4085  0.1923
 7510SOL    HW133992   1.714   1.025   5.733 -0.6845  1.3945  0.1431
 7510SOL    HW233993   1.693   1.018   5.584  0.0867  1.0562 -0.3123
 7511SOL     OW33994   2.201   3.902  13.852 -0.2961 -0.1723 -0.2069
 7511SOL    HW133995   2.236   3.885  13.765 -0.3586  2.5616 -0.7771
 7511SOL    HW233996   2.110   3.874  13.846  0.3390 -1.7272 -2.2719
 7512SOL     OW33997   0.046   0.629   8.089  0.1879  0.5594 -0.2174
 7512SOL    HW133998   4.719   0.583   8.155 -0.8775  0.0607 -1.4015
 7512SOL    HW233999   0.084   0.694   8.149 -0.3792  0.9164 -0.2496
 7513SOL     OW34000   3.084   2.535   4.183  0.1672  0.1133 -0.5991
 7513SOL    HW134001   3.137   2.455   4.184  0.7877  0.4816 -3.2287
 7513SOL    HW234002   3.090   2.540   4.087  0.1242  2.5083 -0.4744
 7514SOL     OW34003   0.293   4.256   1.637 -0.3530  0.8424 -0.1715
 7514SOL    HW134004   0.241   4.334   1.657 -2.9751 -0.7548 -0.7514
 7514SOL    HW234005   0.260   4.238   1.549  0.0099  0.5272 -0.2440
 7515SOL     OW34006   0.999   2.928   9.639  0.8991  0.3174 -0.5417
 7515SOL    HW134007   0.971   2.997   9.700  3.4361 -0.6883  1.7798
 7515SOL    HW234008   1.093   2.942   9.645  0.8392  1.0472 -1.4030
 7516SOL     OW34009   2.690   0.016   8.794  0.1632 -0.6495  0.2388
 7516SOL    HW134010   2.599   4.710   8.790  0.4882 -1.4734 -1.1520
 7516SOL    HW234011   2.731   4.658   8.768  0.4268 -0.3545 -0.2866
 7517SOL     OW34012   3.549   0.180   8.541 -0.1373 -0.5216  0.3564
 7517SOL    HW134013   3.608   0.166   8.616  0.9397 -0.9759 -0.5740
 7517SOL    HW234014   3.492   0.103   8.547 -0.1123 -0.6538 -1.0463
 7518SOL     OW34015   2.651   2.649   4.437  0.6075 -0.3092  0.6598
 7518SOL    HW134016   2.646   2.690   4.350 -1.2758  0.8169  1.3069
 7518SOL    HW234017   2.559   2.654   4.464  0.4892  0.5458  0.1048
 7519SOL     OW34018   0.505   0.787   2.112  0.3919  0.1516  0.1971
 7519SOL    HW134019   0.524   0.800   2.019  1.2044 -0.6663  0.2513
 7519SOL    HW234020   0.420   0.831   2.120 -0.8350 -2.2647  0.6202
 7520SOL     OW34021   3.580   2.457   0.776  0.0499 -0.1824  0.2833
 7520SOL    HW134022   3.530   2.483   0.699 -0.2818  1.6505  1.1349
 7520SOL    HW234023   3.564   2.529   0.836 -0.1516  0.6651 -0.7878
 7521SOL     OW34024   3.691   3.295   2.409 -0.1354 -0.3038  0.0842
 7521SOL    HW134025   3.676   3.215   2.461  2.8955 -0.5308  0.6153
 7521SOL    HW234026   3.760   3.268   2.349  0.1019 -0.8570  0.6067
 7522SOL     OW34027   4.164   0.655   8.534  0.5478 -0.1305  0.0394
 7522SOL    HW134028   4.165   0.722   8.602 -0.6674 -2.4654  2.3686
 7522SOL    HW234029   4.070   0.637   8.536  0.2472  1.4706  0.2312
 7523SOL     OW34030   0.270   3.251  16.053 -0.0321  0.0225 -0.4073
 7523SOL    HW134031   0.350   3.241  16.001 -0.2817 -2.5319 -0.2859
 7523SOL    HW234032   0.270   3.346  16.038 -1.3309  0.1570  0.4663
 7524SOL     OW34033   3.578   3.822   7.599 -0.6046 -0.2115 -0.0397
 7524SOL    HW134034   3.512   3.753   7.611  0.5856 -1.1737  0.8962
 7524SOL    HW234035   3.646   3.761   7.571 -0.3989 -0.0947  0.2085
 7525SOL     OW34036   3.886   4.649  15.125 -0.3735 -0.5770 -0.1455
 7525SOL    HW134037   3.915   0.001  15.074  2.1805 -3.2595 -2.6709
 7525SOL    HW234038   3.934   4.572  15.095  1.0158 -0.1077  0.8125
 7526SOL     OW34039   1.419   3.225   9.713  0.2344  0.3174  0.0235
 7526SOL    HW134040   1.365   3.288   9.762  2.4096  1.2483  1.1941
 7526SOL    HW234041   1.503   3.262   9.739  1.1189 -1.6204 -0.0711
 7527SOL     OW34042   1.273   2.258   5.026 -0.1599 -0.0294 -0.0330
 7527SOL    HW134043   1.213   2.332   5.034  1.2622  1.2178 -0.8529
 7527SOL    HW234044   1.351   2.299   4.987  0.6023 -2.5328 -1.1113
 7528SOL     OW34045   4.377   1.535  13.968  0.0982  0.8046  0.3420
 7528SOL    HW134046   4.389   1.627  13.943  0.1835  0.6438 -0.1995
 7528SOL    HW234047   4.288   1.537  14.003 -0.5542 -0.5757 -1.2687
 7529SOL     OW34048   0.243   4.324   4.709 -0.0656 -0.0135 -0.0959
 7529SOL    HW134049   0.184   4.389   4.747  0.3186  0.3374 -0.1012
 7529SOL    HW234050   0.222   4.245   4.760  3.1659 -0.5644  0.3849
 7530SOL     OW34051   3.126   4.135   6.492  0.0894 -0.7298 -0.0220
 7530SOL    HW134052   3.091   4.058   6.447 -3.9902  0.8784  0.3460
 7530SOL    HW234053   3.202   4.150   6.437 -0.8078 -4.2629 -2.2531
 7531SOL     OW34054   0.476   4.139   8.066 -0.1065 -0.5824 -0.1619
 7531SOL    HW134055   0.536   4.137   8.141 -0.5337  1.4315  0.2302
 7531SOL    HW234056   0.441   4.228   8.067  1.7590  0.1617  0.3472
 7532SOL     OW34057   2.967   0.043   9.057 -0.3136  0.3684  0.3489
 7532SOL    HW134058   2.907   0.113   9.031  0.4839  0.5109 -1.1070
 7532SOL    HW234059   2.914   4.688   9.047 -0.2776  0.5059 -0.9974
 7533SOL     OW34060   1.990   2.766  11.487  0.3445 -0.2350 -0.2055
 7533SOL    HW134061   1.896   2.746  11.492  0.4777 -0.5594  1.0006
 7533SOL    HW234062   1.990   2.846  11.435 -0.7763 -2.0970 -3.0362
 7534SOL     OW34063   4.070   2.393  10.493  0.5603  0.5028  0.0722
 7534SOL    HW134064   3.984   2.388  10.535  1.4246 -1.8133  1.5426
 7534SOL    HW234065   4.097   2.476  10.531 -0.4513  1.1421 -0.5986
 7535SOL     OW34066   1.955   0.646  10.108  0.5107 -0.3719  0.1610
 7535SOL    HW134067   1.892   0.715  10.126 -0.1494 -0.2425 -2.7232
 7535SOL    HW234068   2.018   0.695  10.056  0.0856  0.3967  0.3718
 7536SOL     OW34069   2.443   2.452   6.789  0.6234 -0.1790  0.0380
 7536SOL    HW134070   2.436   2.376   6.732 -0.0637  0.5350 -0.8464
 7536SOL    HW234071   2.434   2.416   6.877  2.7838  0.4886  0.5275
 7537SOL     OW34072   3.286   2.671   0.734 -0.5636  0.3174 -0.2135
 7537SOL    HW134073   3.298   2.751   0.682  0.5025  0.4049  0.1813
 7537SOL    HW234074   3.335   2.610   0.679 -2.4194  0.3688 -1.9147
 7538SOL     OW34075   0.444   4.179   8.578 -0.5282 -0.0856  0.5290
 7538SOL    HW134076   0.378   4.198   8.644 -0.5153 -0.5394  0.6728
 7538SOL    HW234077   0.413   4.233   8.505  0.0305 -0.9732 -0.3806
 7539SOL     OW34078   1.463   0.083   1.397 -0.2334  0.0540 -0.6511
 7539SOL    HW134079   1.519   0.040   1.332  0.2466 -1.7448  0.9371
 7539SOL    HW234080   1.479   0.032   1.477  0.7231 -0.2104 -1.0060
 7540SOL     OW34081   2.975   2.664   9.005  0.1556  0.2471  0.0178
 7540SOL    HW134082   3.038   2.596   9.031  1.4145  1.7869  0.9800
 7540SOL    HW234083   2.926   2.615   8.939  1.5974 -0.7458 -0.3420
 7541SOL     OW34084   1.906   0.161   5.835  0.3017 -0.1295  0.1431
 7541SOL    HW134085   1.888   0.080   5.882  0.6800 -0.2811  0.0277
 7541SOL    HW234086   1.852   0.136   5.760 -0.1149 -2.0317  1.0706
 7542SOL     OW34087   3.811   2.160   6.169 -0.3670  0.2858 -0.0192
 7542SOL    HW134088   3.823   2.105   6.092 -1.0891 -1.6909  1.2613
 7542SOL    HW234089   3.888   2.215   6.157  0.4436 -0.7673  0.4124
 7543SOL     OW34090   0.954   1.601   8.376  0.1994 -0.2304 -0.2121
 7543SOL    HW134091   0.998   1.569   8.297 -0.0098 -3.4990  1.0034
 7543SOL    HW234092   0.986   1.540   8.442 -0.3082  0.0955  0.3246
 7544SOL     OW34093   4.460   3.490   7.127  0.0686 -0.1067 -0.2786
 7544SOL    HW134094   4.532   3.446   7.173 -0.0038 -0.8683 -0.8876
 7544SOL    HW234095   4.382   3.454   7.169  1.1860 -0.5530  1.4225
 7545SOL     OW34096   0.344   0.149   7.617  0.0911  0.2914 -0.3618
 7545SOL    HW134097   0.438   0.145   7.603  0.3349 -0.5296  1.4979
 7545SOL    HW234098   0.335   0.234   7.660 -1.4542 -1.4164  2.7193
 7546SOL     OW34099   1.870   3.429   5.810  0.2293 -0.5533  0.0811
 7546SOL    HW134100   1.961   3.428   5.782 -0.0218 -1.3470 -0.7079
 7546SOL    HW234101   1.878   3.488   5.885  1.7820  1.0001 -1.3192
 7547SOL     OW34102   3.932   2.582   5.667  0.2597  0.0454 -0.2435
 7547SOL    HW134103   3.976   2.498   5.653  1.1807  0.2804  1.2323
 7547SOL    HW234104   4.001   2.643   5.642  0.1200 -0.0305 -0.8182
 7548SOL     OW34105   2.009   4.497  16.082  0.6648  0.1993  0.5122
 7548SOL    HW134106   1.953   4.558  16.130  0.2703  1.5633 -1.6947
 7548SOL    HW234107   1.951   4.446  16.026  0.5290  1.3100 -0.3521
 7549SOL     OW34108   4.584   4.560  10.281 -0.7218 -0.5361 -0.1545
 7549SOL    HW134109   4.617   4.533  10.196 -1.8565 -0.6428 -0.5674
 7549SOL    HW234110   4.562   4.653  10.272  0.0431 -0.0349  3.0690
 7550SOL     OW34111   1.025   3.507   7.537 -0.2067 -0.4425 -0.2004
 7550SOL    HW134112   1.070   3.505   7.621 -1.7246  0.2326  0.6323
 7550SOL    HW234113   0.937   3.515   7.575 -0.5270  0.6380 -1.1744
 7551SOL     OW34114   4.581   2.693   3.244  0.5503  0.3952  0.3335
 7551SOL    HW134115   4.509   2.715   3.186 -0.5656 -0.9621  1.1946
 7551SOL    HW234116   4.637   2.670   3.170 -0.8938  0.4774 -0.7850
 7552SOL     OW34117   0.691   1.166   5.506  0.3793  0.3794 -0.0186
 7552SOL    HW134118   0.650   1.085   5.476  0.8039 -0.2347  1.0871
 7552SOL    HW234119   0.750   1.124   5.568  0.5491  3.0575  1.6236
 7553SOL     OW34120   0.807   0.143  11.583  0.8381 -0.5388 -0.6201
 7553SOL    HW134121   0.847   0.064  11.548  2.4738  0.1876 -0.4022
 7553SOL    HW234122   0.717   0.123  11.558  0.2482 -0.5412  1.5067
 7554SOL     OW34123   0.271   2.687   8.747 -0.8209 -0.1468  0.4492
 7554SOL    HW134124   0.231   2.736   8.819  1.1108  0.4308  1.1553
 7554SOL    HW234125   0.354   2.653   8.781 -0.1711  1.3298  0.3360
 7555SOL     OW34126   0.819   4.653   1.129  0.0224 -0.6747 -0.4437
 7555SOL    HW134127   0.807   4.582   1.192  0.9963 -0.4859 -0.0327
 7555SOL    HW234128   0.900   4.693   1.162 -1.2207  0.1623  1.6333
 7556SOL     OW34129   0.656   1.996   8.325 -0.4938 -0.7052 -0.1729
 7556SOL    HW134130   0.702   2.050   8.390 -0.5035 -1.5089  0.4951
 7556SOL    HW234131   0.684   1.906   8.342 -1.5281 -1.2690 -1.4814
 7557SOL     OW34132   2.938   4.386   7.682  0.0374 -0.1610  0.4322
 7557SOL    HW134133   2.936   4.441   7.603  0.6014  0.2651  0.7162
 7557SOL    HW234134   2.991   4.436   7.745  0.1414  0.3193 -0.0351
 7558SOL     OW34135   2.702   4.328   6.368 -0.1282  0.3301 -0.6093
 7558SOL    HW134136   2.729   4.390   6.301 -0.2330  1.5549  0.4993
 7558SOL    HW234137   2.789   4.312   6.405 -0.6457 -0.3563  0.3079
 7559SOL     OW34138   0.361   3.910   7.606  0.4946  0.3095 -0.2216
 7559SOL    HW134139   0.390   3.928   7.695 -0.1274  0.6978 -0.1006
 7559SOL    HW234140   0.431   3.940   7.548 -0.1233 -1.1489 -1.7178
 7560SOL     OW34141   1.295   3.777   2.748 -0.1701 -0.1001  0.2342
 7560SOL    HW134142   1.249   3.741   2.823  1.6070 -1.1019  0.8480
 7560SOL    HW234143   1.377   3.727   2.752  1.0360  1.9151  1.1635
 7561SOL     OW34144   3.411   2.265  15.154  0.3131 -0.5967  0.2411
 7561SOL    HW134145   3.372   2.263  15.066  2.5822  1.3373 -0.8343
 7561SOL    HW234146   3.504   2.281  15.139 -0.0334  1.6150  0.4373
 7562SOL     OW34147   2.305   1.023   7.305  0.0849  0.7080 -0.3533
 7562SOL    HW134148   2.306   1.117   7.289  0.3395  0.7651 -0.0002
 7562SOL    HW234149   2.326   1.001   7.214 -1.0648  0.4443 -0.5468
 7563SOL     OW34150   3.388   4.097  16.686  0.3082  0.0521 -0.2537
 7563SOL    HW134151   3.354   4.007  16.689 -1.3274  0.7864  2.6037
 7563SOL    HW234152   3.312   4.150  16.710  0.0954  0.4497 -1.8305
 7564SOL     OW34153   3.638   3.330  10.456  0.0929  0.1295 -0.0072
 7564SOL    HW134154   3.637   3.297  10.366 -0.5612  0.5659 -0.1683
 7564SOL    HW234155   3.722   3.374  10.446  0.9072 -0.7458  3.2131
 7565SOL     OW34156   3.128   3.498   5.358 -0.2462  0.4036  0.0207
 7565SOL    HW134157   3.165   3.586   5.368 -1.1436  0.9992 -1.9852
 7565SOL    HW234158   3.036   3.518   5.345 -0.3488  1.1078  1.8140
 7566SOL     OW34159   1.841   3.062   3.585 -0.5037  0.0130  0.1573
 7566SOL    HW134160   1.911   3.099   3.639  1.0194  1.2069 -2.6698
 7566SOL    HW234161   1.777   3.035   3.651  1.2953 -2.4002  0.8948
 7567SOL     OW34162   1.403   1.323   2.570  0.4889  0.4993 -0.5259
 7567SOL    HW134163   1.374   1.234   2.551 -0.4698  0.4394  1.2820
 7567SOL    HW234164   1.361   1.355   2.650  0.7572 -0.4434 -0.0176
 7568SOL     OW34165   0.160   0.551   5.380 -0.8878  0.0621 -0.7259
 7568SOL    HW134166   0.073   0.564   5.342 -1.5554 -1.8560  0.1400
 7568SOL    HW234167   0.153   0.605   5.459  1.5804 -1.6544  0.6563
 7569SOL     OW34168   2.035   1.018   3.439 -0.1895  0.0014  0.1958
 7569SOL    HW134169   2.036   0.987   3.529 -0.3335  1.0047  0.5347
 7569SOL    HW234170   1.972   1.089   3.447 -0.9237 -0.7340  0.9559
 7570SOL     OW34171   2.148   4.632   4.625 -0.4465  0.1411  0.4771
 7570SOL    HW134172   2.174   4.678   4.705 -0.9873  0.1045  0.6781
 7570SOL    HW234173   2.226   4.581   4.605 -1.4217 -1.3266  0.4054
 7571SOL     OW34174   2.146   0.840  11.310  0.1609  0.2681 -0.0854
 7571SOL    HW134175   2.108   0.753  11.307 -0.2214  0.5144 -2.5712
 7571SOL    HW234176   2.095   0.880  11.380  0.7756  0.4030  0.2842
 7572SOL     OW34177   4.006   3.079  11.032  0.2185 -0.5335 -0.0407
 7572SOL    HW134178   4.068   3.151  11.024 -1.6369  1.0924  0.1030
 7572SOL    HW234179   4.064   3.008  11.006  0.5041 -0.8047  1.3436
 7573SOL     OW34180   1.199   3.779   0.289 -0.7500  0.2300  0.3480
 7573SOL    HW134181   1.199   3.724   0.368  0.9327  0.5517  0.5858
 7573SOL    HW234182   1.128   3.747   0.234 -1.2700 -1.0659  1.7540
 7574SOL     OW34183   3.120   1.973  12.283  0.3788  0.5417  0.2580
 7574SOL    HW134184   3.056   2.037  12.314  0.5135  0.3452  0.9516
 7574SOL    HW234185   3.128   1.910  12.355  1.5033  0.5478  0.1391
 7575SOL     OW34186   1.181   2.556   0.812 -0.1659 -0.0406 -0.2870
 7575SOL    HW134187   1.136   2.482   0.771 -0.0920  0.5109 -1.3853
 7575SOL    HW234188   1.191   2.603   0.729  0.4145 -0.5779 -0.5237
 7576SOL     OW34189   1.035   0.127   7.233  0.1727 -0.3004 -0.2448
 7576SOL    HW134190   1.094   0.063   7.193  1.8358  0.0429  1.6923
 7576SOL    HW234191   1.083   0.205   7.207  1.1069 -1.0056 -0.6148
 7577SOL     OW34192   4.672   4.588   5.272  0.1338 -0.2471 -0.8707
 7577SOL    HW134193   0.031   4.561   5.311  0.9294  1.4784 -1.3555
 7577SOL    HW234194   4.624   4.593   5.355 -0.6922 -0.1899 -1.3585
 7578SOL     OW34195   3.596   1.175  12.924 -0.1276 -0.1966 -0.6893
 7578SOL    HW134196   3.515   1.158  12.971  0.8474 -1.1392  0.6542
 7578SOL    HW234197   3.566   1.243  12.864 -2.8483  0.0617  0.9437
 7579SOL     OW34198   0.124   0.230   6.389 -0.0976 -0.1003  0.3174
 7579SOL    HW134199   0.059   0.264   6.328  0.2660  0.1607  0.0771
 7579SOL    HW234200   0.201   0.208   6.338  1.3929 -1.4397  3.1209
 7580SOL     OW34201   1.956   0.095   2.149  0.5001  0.6028  0.0631
 7580SOL    HW134202   1.954   0.177   2.198 -0.8844  1.4059 -1.3388
 7580SOL    HW234203   1.868   0.068   2.176  1.6656 -1.3201  1.9229
 7581SOL     OW34204   0.313   0.261   6.621 -0.0128 -0.2287  0.0343
 7581SOL    HW134205   0.344   0.171   6.631  0.9658 -0.3500 -4.0615
 7581SOL    HW234206   0.232   0.241   6.573  1.1886  2.3896 -3.1623
 7582SOL     OW34207   0.935   4.580   2.676 -0.1407 -0.3714 -0.8136
 7582SOL    HW134208   0.979   4.647   2.727  1.2824  1.4820 -4.4184
 7582SOL    HW234209   0.846   4.613   2.692  0.4673  1.3879 -0.9982
 7583SOL     OW34210   0.318   0.502  12.810 -0.2910  0.0245  0.6605
 7583SOL    HW134211   0.411   0.500  12.832 -0.0479 -1.1175 -0.4810
 7583SOL    HW234212   0.305   0.410  12.788 -0.0471  0.4177 -1.1249
 7584SOL     OW34213   0.499   1.102   3.050  0.1091 -0.2633 -0.4970
 7584SOL    HW134214   0.449   1.130   2.974  1.4629 -2.1490 -2.0752
 7584SOL    HW234215   0.460   1.017   3.071 -1.2979  0.6005  0.3817
 7585SOL     OW34216   2.323   0.458   2.148  0.2683  0.2490  0.0856
 7585SOL    HW134217   2.306   0.369   2.119  0.8548  0.5528 -1.2075
 7585SOL    HW234218   2.304   0.458   2.242 -1.6905 -0.3233 -0.3050
 7586SOL     OW34219   4.255   0.928   7.190  0.4327 -0.5404  0.7277
 7586SOL    HW134220   4.197   1.001   7.207  2.6387  1.2254  0.7056
 7586SOL    HW234221   4.322   0.946   7.257 -1.7922  4.4572  1.5488
 7587SOL     OW34222   3.354   3.140  12.648  0.0451  0.0383 -0.2604
 7587SOL    HW134223   3.445   3.150  12.675 -0.4218  1.3399  0.8951
 7587SOL    HW234224   3.342   3.230  12.616  1.8759  0.1075 -0.7477
 7588SOL     OW34225   4.153   1.807  15.045 -0.6061  0.0842 -0.1947
 7588SOL    HW134226   4.080   1.867  15.027 -0.8682  0.3392  1.6864
 7588SOL    HW234227   4.139   1.735  14.984 -0.2076  1.0064 -1.3552
 7589SOL     OW34228   2.914   1.069   3.616  0.0655  0.7843  0.1666
 7589SOL    HW134229   2.970   1.096   3.688  1.7058 -0.3344 -0.6731
 7589SOL    HW234230   2.957   0.985   3.599  1.1187  1.1925  0.8173
 7590SOL     OW34231   1.243   3.364   5.091  0.5358 -0.0430 -0.2510
 7590SOL    HW134232   1.277   3.335   5.006 -0.1149 -1.9946  0.1453
 7590SOL    HW234233   1.316   3.418   5.122  0.1750 -1.3811  3.0068
 7591SOL     OW34234   0.724   1.055   9.333 -0.1342 -0.4462  0.8601
 7591SOL    HW134235   0.758   1.122   9.274  2.0480 -2.0245  0.2747
 7591SOL    HW234236   0.642   1.095   9.362 -0.7999  0.5258 -2.3166
 7592SOL     OW34237   2.133   0.521  15.782  0.4279  0.6164  0.1636
 7592SOL    HW134238   2.185   0.555  15.854 -0.2719  0.2277  0.8446
 7592SOL    HW234239   2.187   0.556  15.711  1.9845  0.8929  1.4922
 7593SOL     OW34240   3.750   2.333  10.108  0.1152  0.5909  0.1003
 7593SOL    HW134241   3.838   2.327  10.144 -0.1842  0.2012  0.7699
 7593SOL    HW234242   3.770   2.396  10.039 -3.6916  0.6441 -0.9519
 7594SOL     OW34243   2.529   0.032   3.206  0.2221 -0.6367 -0.2850
 7594SOL    HW134244   2.623   0.038   3.219  0.2382  0.2203 -0.7538
 7594SOL    HW234245   2.490   0.076   3.281 -2.6103  0.1790 -2.2085
 7595SOL     OW34246   3.884   3.476  12.937 -0.6480  0.0421  0.1569
 7595SOL    HW134247   3.872   3.427  12.855  2.8521  0.3647 -0.5609
 7595SOL    HW234248   3.948   3.423  12.984 -0.0857  0.9639  0.4364
 7596SOL     OW34249   0.929   4.122   0.797 -0.1299 -0.6997 -1.1500
 7596SOL    HW134250   0.909   4.214   0.784  0.7438 -0.2428  0.6034
 7596SOL    HW234251   0.851   4.073   0.773 -0.0463 -2.0053  1.1795
 7597SOL     OW34252   0.651   1.196   4.975  0.3880  0.2752  0.1118
 7597SOL    HW134253   0.650   1.287   5.005  1.7211  0.6943 -1.1508
 7597SOL    HW234254   0.561   1.166   4.989  0.8590 -0.9545  0.4962
 7598SOL     OW34255   4.198   2.262  16.222  0.1849 -0.3848 -0.2687
 7598SOL    HW134256   4.288   2.276  16.253 -0.6575  2.1304  0.9895
 7598SOL    HW234257   4.150   2.330  16.269 -0.0008 -1.6081  1.3158
 7599SOL     OW34258   3.209   2.348   4.605  0.3143  0.2088 -0.0304
 7599SOL    HW134259   3.124   2.366   4.645  1.1534 -0.4067  2.0408
 7599SOL    HW234260   3.190   2.299   4.525  0.2321  1.3083 -0.6754
 7600SOL     OW34261   3.727   1.998  11.933 -0.2164 -0.5358 -0.0800
 7600SOL    HW134262   3.775   1.947  11.868 -1.7132 -0.0531 -1.5546
 7600SOL    HW234263   3.643   2.025  11.894 -0.4948  0.4573  1.2074
 7601SOL     OW34264   1.132   0.616  14.299  0.3324 -0.1385 -0.0738
 7601SOL    HW134265   1.136   0.546  14.365  1.9576 -0.0304 -0.0630
 7601SOL    HW234266   1.205   0.671  14.327 -1.0176  0.6485  1.9573
 7602SOL     OW34267   4.376   0.344   2.393  0.2708 -0.4115  0.0977
 7602SOL    HW134268   4.379   0.298   2.477 -0.1724  0.8919  0.8286
 7602SOL    HW234269   4.325   0.424   2.408  0.9510  0.1863 -0.7947
 7603SOL     OW34270   3.330   0.694  12.574  0.3675 -0.1521  0.7573
 7603SOL    HW134271   3.406   0.751  12.558  1.4725 -2.1010 -0.8502
 7603SOL    HW234272   3.304   0.725  12.661  0.2956  0.4918  0.5096
 7604SOL     OW34273   3.051   0.756   3.738  0.8119  0.1927  0.3601
 7604SOL    HW134274   3.010   0.715   3.662 -3.5306  3.0550  1.1994
 7604SOL    HW234275   3.114   0.816   3.697 -0.0690 -0.6333 -2.2310
 7605SOL     OW34276   4.233   2.410   5.312  0.3763  0.7070  0.0538
 7605SOL    HW134277   4.225   2.394   5.218 -0.6407  1.0854  0.0791
 7605SOL    HW234278   4.306   2.472   5.313 -0.1934  1.3792 -0.4683
 7606SOL     OW34279   0.616   2.555   5.975  0.3287  0.3265 -0.6415
 7606SOL    HW134280   0.657   2.628   6.021  1.9008 -0.0027 -1.5177
 7606SOL    HW234281   0.585   2.503   6.049 -1.7290  1.1361 -0.9268
 7607SOL     OW34282   1.625   0.354  12.851 -0.2508 -0.4231  0.5828
 7607SOL    HW134283   1.702   0.381  12.902  0.8765 -0.5866 -1.0374
 7607SOL    HW234284   1.556   0.397  12.902  0.4760  2.0052 -0.4682
 7608SOL     OW34285   1.601   3.520   3.075  0.4475 -0.3453  0.2083
 7608SOL    HW134286   1.545   3.470   3.015  0.3386 -0.2654  0.2426
 7608SOL    HW234287   1.683   3.473   3.063 -0.0742 -0.6094 -2.3752
 7609SOL     OW34288   4.399   3.659   7.966 -0.6968 -0.0837 -0.2786
 7609SOL    HW134289   4.420   3.733   8.023  1.5386 -1.4369  0.6225
 7609SOL    HW234290   4.446   3.592   8.016 -1.5133  1.0113  1.9787
 7610SOL     OW34291   1.265   2.408   7.989 -0.0098 -0.0882 -0.3737
 7610SOL    HW134292   1.339   2.419   7.929  0.7146  1.1141  0.7300
 7610SOL    HW234293   1.268   2.315   8.011  2.4487  0.4638  1.5269
 7611SOL     OW34294   3.803   4.019   2.826 -0.0123 -0.0153 -0.5188
 7611SOL    HW134295   3.835   3.963   2.756 -1.8279  0.1673 -1.5015
 7611SOL    HW234296   3.710   3.997   2.827 -0.1179  0.4131 -0.8985
 7612SOL     OW34297   0.671   2.046   5.282 -0.6538 -0.2067 -0.5158
 7612SOL    HW134298   0.696   2.117   5.223  2.2854  0.7509  1.9218
 7612SOL    HW234299   0.749   2.040   5.337  0.6010  1.3848 -2.1413
 7613SOL     OW34300   0.799   4.005   3.073 -0.2814  0.6615 -0.1304
 7613SOL    HW134301   0.824   3.930   3.019 -0.9843  1.2441 -1.2592
 7613SOL    HW234302   0.790   3.964   3.159  0.6928 -1.7775 -1.1816
 7614SOL     OW34303   4.180   2.395  13.891 -0.3324 -0.4365  0.0308
 7614SOL    HW134304   4.090   2.423  13.881 -0.0593  0.3502 -0.2019
 7614SOL    HW234305   4.236   2.473  13.896 -0.7487 -0.2220  1.4189
 7615SOL     OW34306   3.649   3.264   3.000 -0.4991  0.4801  0.2920
 7615SOL    HW134307   3.565   3.293   3.036 -1.4163  0.1388 -1.5438
 7615SOL    HW234308   3.714   3.322   3.041  1.7060 -1.3830 -0.5672
 7616SOL     OW34309   1.862   1.977   3.626  0.0217  0.2211 -0.0478
 7616SOL    HW134310   1.804   1.964   3.700  0.1805  0.5066  0.1272
 7616SOL    HW234311   1.864   2.072   3.616  1.2351  0.3247  1.2680
 7617SOL     OW34312   3.894   4.214  15.370  0.3406  0.0157  0.1528
 7617SOL    HW134313   3.805   4.241  15.390 -0.1221  0.3841 -2.4133
 7617SOL    HW234314   3.928   4.186  15.455  2.1574  1.1024 -0.2121
 7618SOL     OW34315   2.492   0.033   6.425 -0.0678  0.9956 -0.7143
 7618SOL    HW134316   2.517   0.056   6.336 -0.0873  1.0999 -0.6928
 7618SOL    HW234317   2.405   0.071   6.437 -0.5216 -0.0536 -0.6684
 7619SOL     OW34318   1.870   4.016  14.811  0.1028  0.1806  0.1207
 7619SOL    HW134319   1.896   4.010  14.719 -1.6265 -1.9957 -0.1989
 7619SOL    HW234320   1.784   4.054  14.794  1.2484  1.6376 -2.4865
 7620SOL     OW34321   3.917   4.392  13.518 -0.3793  0.0346 -0.3189
 7620SOL    HW134322   3.872   4.431  13.592 -0.8706  3.2201 -2.2922
 7620SOL    HW234323   3.883   4.451  13.451 -0.4483 -1.2521 -1.4140
 7621SOL     OW34324   1.772   2.545   2.535  0.5629 -0.4026 -0.6674
 7621SOL    HW134325   1.741   2.564   2.447  1.3242 -0.8412 -1.0273
 7621SOL    HW234326   1.854   2.595   2.538  0.5554 -0.3855 -0.7690
 7622SOL     OW34327   3.608   1.036   2.509 -0.6339 -0.5025 -0.1674
 7622SOL    HW134328   3.565   0.998   2.432 -1.3165 -1.5839  0.7416
 7622SOL    HW234329   3.662   1.109   2.481 -2.4014  1.0508  0.4842
 7623SOL     OW34330   1.024   1.281  13.691 -0.0597 -0.2910 -0.2117
 7623SOL    HW134331   1.117   1.304  13.699 -0.5233  1.3482  0.5812
 7623SOL    HW234332   0.993   1.367  13.664 -0.8497 -0.9714 -1.4767
 7624SOL     OW34333   2.346   1.535   5.013 -0.1458 -0.1115  0.2766
 7624SOL    HW134334   2.336   1.575   5.100  0.5673 -1.9292  1.1903
 7624SOL    HW234335   2.418   1.473   5.025  0.7932  0.7776 -0.7130
 7625SOL     OW34336   1.388   3.351   3.292  0.0396  0.0022 -0.8507
 7625SOL    HW134337   1.434   3.348   3.208 -0.0452  0.9674 -0.9396
 7625SOL    HW234338   1.295   3.358   3.273 -0.9694 -0.2399  3.8689
 7626SOL     OW34339   0.765   4.115   3.985 -0.0962 -0.0067  0.5584
 7626SOL    HW134340   0.767   4.080   4.074 -0.7205  0.8315  0.8992
 7626SOL    HW234341   0.678   4.155   3.979  0.1041  0.6239  1.9580
 7627SOL     OW34342   0.975   3.984   6.032 -0.7873 -0.2682  0.2859
 7627SOL    HW134343   0.890   4.020   6.056 -0.4054 -2.0382  4.1727
 7627SOL    HW234344   1.035   4.057   6.051  2.3940 -2.6782 -0.4291
 7628SOL     OW34345   2.359   0.242   8.917 -0.1711 -0.5116 -0.2385
 7628SOL    HW134346   2.356   0.169   8.979 -0.2351 -1.0698 -0.8911
 7628SOL    HW234347   2.362   0.196   8.833  1.3702 -2.2650  0.7743
 7629SOL     OW34348   2.216   4.655   9.317  0.3631 -0.4203 -0.6593
 7629SOL    HW134349   2.218   4.566   9.282  0.4984 -0.5717 -0.2717
 7629SOL    HW234350   2.232   4.639   9.410  0.4909 -2.3051 -0.9915
 7630SOL     OW34351   1.316   2.224   3.452  0.0142  0.0105  0.6074
 7630SOL    HW134352   1.244   2.254   3.508 -2.0294 -0.6870 -1.6311
 7630SOL    HW234353   1.349   2.150   3.501 -0.5329  0.3405  1.4787
 7631SOL     OW34354   3.857   0.348  10.801 -0.3227 -0.1385  0.0249
 7631SOL    HW134355   3.811   0.368  10.883 -1.8471 -0.9748 -0.6160
 7631SOL    HW234356   3.949   0.348  10.826 -0.7809  0.5032  1.7068
 7632SOL     OW34357   2.359   1.857   2.539  0.1961  0.0832 -0.0029
 7632SOL    HW134358   2.283   1.819   2.494 -0.9336  1.6409  0.5971
 7632SOL    HW234359   2.364   1.790   2.608 -0.7230 -0.9371 -0.9164
 7633SOL     OW34360   1.599   2.181   0.796  0.1912  0.6192 -0.2659
 7633SOL    HW134361   1.565   2.094   0.812  2.8840 -0.0759  1.7913
 7633SOL    HW234362   1.615   2.181   0.702 -1.6476 -2.6483 -0.5546
 7634SOL     OW34363   2.350   1.956   4.948  0.0223  0.1707 -0.4031
 7634SOL    HW134364   2.401   1.895   4.895  0.4164  1.4086 -1.4355
 7634SOL    HW234365   2.265   1.914   4.966 -0.9958  2.0560 -0.8981
 7635SOL     OW34366   1.453   3.698   1.420  0.1332 -0.1636  0.5197
 7635SOL    HW134367   1.397   3.774   1.406  0.0359 -0.4850 -0.8680
 7635SOL    HW234368   1.499   3.716   1.501  1.6094  1.3456 -0.6566
 7636SOL     OW34369   1.004   0.040   8.181 -0.0343  0.3873  0.0626
 7636SOL    HW134370   1.083   4.710   8.185  0.6238  1.4755  2.0316
 7636SOL    HW234371   0.950   0.011   8.108  1.0611  0.0361 -0.6129
 7637SOL     OW34372   4.606   0.727   8.844  0.2734  0.3239  0.6655
 7637SOL    HW134373   4.527   0.776   8.868  0.6010  0.4131  1.5510
 7637SOL    HW234374   4.600   0.650   8.900  0.1337 -0.3762 -0.3086
 7638SOL     OW34375   2.064   3.775   7.238  0.3988  0.0919 -0.1487
 7638SOL    HW134376   2.068   3.870   7.248  0.3758 -0.0581  1.3523
 7638SOL    HW234377   2.114   3.770   7.157 -1.0843  0.1663 -1.0736
 7639SOL     OW34378   4.556   2.423  11.686  0.4052 -0.3390 -0.4378
 7639SOL    HW134379   4.628   2.361  11.699  0.0440 -0.5841  0.4121
 7639SOL    HW234380   4.592   2.471  11.611  0.6923 -1.0393 -0.7490
 7640SOL     OW34381   0.864   3.274   1.723  0.0691  0.2265 -0.4827
 7640SOL    HW134382   0.957   3.279   1.702  0.7690  0.5573  2.7318
 7640SOL    HW234383   0.875   3.180   1.740  0.3787  0.6273  1.5577
 7641SOL     OW34384   1.759   2.558   3.579  0.1537  0.4886  0.6952
 7641SOL    HW134385   1.749   2.631   3.640 -3.3734  2.2925 -2.0371
 7641SOL    HW234386   1.839   2.581   3.531 -0.6414  1.1406 -0.3202
 7642SOL     OW34387   1.082   3.446   7.092  0.3799 -0.1732 -0.6006
 7642SOL    HW134388   0.995   3.416   7.116  0.6761 -0.3263  0.2689
 7642SOL    HW234389   1.086   3.515   7.159  0.5186 -0.8079  0.0446
 7643SOL     OW34390   1.288   3.203   8.158  0.2008 -0.3288 -0.0670
 7643SOL    HW134391   1.239   3.285   8.162 -0.1529 -0.5114 -0.6857
 7643SOL    HW234392   1.367   3.241   8.197  0.0324  1.3099 -1.3385
 7644SOL     OW34393   0.777   4.523   7.735 -0.4953  0.1930  0.5077
 7644SOL    HW134394   0.855   4.484   7.775  1.1019  3.1930  0.2800
 7644SOL    HW234395   0.761   4.476   7.652  1.6072  2.4668 -1.1774
 7645SOL     OW34396   2.239   3.772   6.044 -0.1329 -1.0396 -0.1201
 7645SOL    HW134397   2.295   3.842   6.077 -0.7643 -1.4897  1.9113
 7645SOL    HW234398   2.298   3.697   6.044  0.9463 -0.1869 -2.5723
 7646SOL     OW34399   2.863   4.348  12.129  0.0051  0.4012  0.2853
 7646SOL    HW134400   2.794   4.413  12.124 -0.5729 -0.1409  1.1586
 7646SOL    HW234401   2.815   4.270  12.102  2.2896 -0.9891  0.2356
 7647SOL     OW34402   0.346   1.774   6.711  0.2420  0.0618  0.5435
 7647SOL    HW134403   0.259   1.812   6.728  0.2109 -0.8623  2.4274
 7647SOL    HW234404   0.405   1.821   6.769  0.2231  1.0196 -0.2233
 7648SOL     OW34405   3.039   3.170   8.453 -0.0983  0.0869  0.6295
 7648SOL    HW134406   2.999   3.229   8.389 -2.7779 -1.5080  0.8455
 7648SOL    HW234407   2.985   3.195   8.528 -0.7673 -1.1787  0.5560
 7649SOL     OW34408   2.034   0.692   5.075  0.0865  0.0694  0.1085
 7649SOL    HW134409   2.049   0.780   5.040  1.5540 -0.4473 -0.5484
 7649SOL    HW234410   2.024   0.650   4.989 -0.5007 -0.2602  0.3386
 7650SOL     OW34411   1.926   4.061  14.351  0.6949  0.0892 -0.2113
 7650SOL    HW134412   1.987   4.109  14.408  2.3040 -1.1809 -0.8634
 7650SOL    HW234413   1.932   3.977  14.395 -0.9484 -0.0191 -0.1896
 7651SOL     OW34414   4.720   0.193   9.811 -0.3672 -0.3507 -0.2434
 7651SOL    HW134415   4.676   0.128   9.864  2.2905 -3.2850 -1.6188
 7651SOL    HW234416   0.041   0.231   9.886 -1.1784  1.1763 -0.5282
 7652SOL     OW34417   0.445   2.371   7.388 -0.1106  0.5188  0.3103
 7652SOL    HW134418   0.388   2.432   7.434  0.4556 -0.0296  1.7350
 7652SOL    HW234419   0.462   2.309   7.458  2.0099  0.6428 -0.0776
 7653SOL     OW34420   2.125   0.230  11.076 -0.0074 -0.0718  0.2752
 7653SOL    HW134421   2.113   0.277  10.994 -0.5352 -1.3859 -0.3965
 7653SOL    HW234422   2.037   0.195  11.087  0.0075 -0.0803  0.3639
 7654SOL     OW34423   1.288   4.184   2.514 -0.4447 -0.3497 -0.8717
 7654SOL    HW134424   1.346   4.184   2.438  2.1802 -0.8237  1.0890
 7654SOL    HW234425   1.225   4.119   2.486 -1.5316  1.0252 -1.6023
 7655SOL     OW34426   0.986   4.631   7.410  0.0441 -0.2768  0.7110
 7655SOL    HW134427   1.080   4.622   7.428  0.6672  1.5925 -1.5439
 7655SOL    HW234428   0.985   4.714   7.361  2.0554 -1.6989 -1.7309
 7656SOL     OW34429   3.521   2.485  12.550 -0.1080  0.3001 -0.0745
 7656SOL    HW134430   3.588   2.551  12.572 -1.6592  2.0734 -0.6344
 7656SOL    HW234431   3.469   2.526  12.482  0.0377 -1.0973 -1.0224
 7657SOL     OW34432   3.603   0.284  16.656  0.5130  0.2981  0.4692
 7657SOL    HW134433   3.606   0.188  16.656 -1.5539  0.2450  0.6527
 7657SOL    HW234434   3.644   0.313  16.737 -0.0459  0.8811  0.5351
 7658SOL     OW34435   2.628   1.785   6.331  0.5495 -0.2332 -0.0237
 7658SOL    HW134436   2.719   1.813   6.327  0.8465 -1.2045 -0.1911
 7658SOL    HW234437   2.576   1.865   6.324 -2.4064 -2.2982 -1.7050
 7659SOL     OW34438   2.126   1.931   3.613  0.0175  0.3669  0.1795
 7659SOL    HW134439   2.102   1.899   3.526  0.6797 -0.9559  0.4828
 7659SOL    HW234440   2.039   1.954   3.646  0.5002  2.3108  0.0986
 7660SOL     OW34441   3.970   2.903   2.170 -0.0903  0.3375  0.2358
 7660SOL    HW134442   4.054   2.948   2.179  0.0156  0.1814  0.0236
 7660SOL    HW234443   3.963   2.873   2.080 -1.8179  0.1424  0.4160
 7661SOL     OW34444   3.284   0.825  11.571  0.3860 -0.0382 -0.1426
 7661SOL    HW134445   3.246   0.818  11.484 -1.3976  2.2758  0.4472
 7661SOL    HW234446   3.315   0.736  11.587 -0.4685 -0.2757  0.2078
 7662SOL     OW34447   1.076   1.678   5.583  0.4287  0.2748 -0.0102
 7662SOL    HW134448   1.084   1.758   5.635 -0.4500  0.7894 -0.6577
 7662SOL    HW234449   0.989   1.698   5.548  0.4582 -0.5007 -0.5271
 7663SOL     OW34450   3.492   2.031   2.682 -0.3129  0.0587 -0.0131
 7663SOL    HW134451   3.569   2.045   2.626  0.4915 -1.4987  0.7278
 7663SOL    HW234452   3.460   2.119   2.701  1.9008  0.6028  1.1888
 7664SOL     OW34453   2.293   0.587   2.405  0.4327 -0.0896  0.3151
 7664SOL    HW134454   2.302   0.564   2.498  0.6484  0.6871  0.4915
 7664SOL    HW234455   2.361   0.655   2.401 -0.3602  0.5483 -2.1750
 7665SOL     OW34456   2.003   3.049   5.239 -0.3155  0.2531  0.4931
 7665SOL    HW134457   2.093   3.044   5.204 -0.9653 -3.3474 -0.6817
 7665SOL    HW234458   2.008   3.041   5.334 -0.0203 -0.4757  0.4242
 7666SOL     OW34459   2.156   1.748   6.278  0.5225  0.2702  0.2983
 7666SOL    HW134460   2.231   1.689   6.274 -0.1230 -0.6224  1.3393
 7666SOL    HW234461   2.099   1.723   6.205 -0.7514  0.4035  1.2531
 7667SOL     OW34462   3.573   3.553   6.903 -0.3300 -0.4185 -0.0081
 7667SOL    HW134463   3.667   3.536   6.909 -0.2880 -1.3158 -3.1988
 7667SOL    HW234464   3.572   3.646   6.883  0.2411 -0.0408  1.7046
 7668SOL     OW34465   2.036   4.638   1.574  0.1578 -0.1124  0.2265
 7668SOL    HW134466   2.013   4.560   1.524 -1.0869  0.8665 -0.7369
 7668SOL    HW234467   2.097   4.598   1.635  1.4280 -0.8403 -1.5092
 7669SOL     OW34468   4.721   3.116   5.290 -0.5105  0.1605  0.4774
 7669SOL    HW134469   0.070   3.143   5.346 -0.7236  2.0619 -0.1644
 7669SOL    HW234470   4.660   3.082   5.355 -0.7009  0.6723  0.5690
 7670SOL     OW34471   4.194   3.859   4.600  0.3126  0.2441 -0.0113
 7670SOL    HW134472   4.109   3.841   4.561  2.3789 -1.1885 -3.8426
 7670SOL    HW234473   4.248   3.799   4.549  1.8324  0.5712  1.1813
 7671SOL     OW34474   1.827   2.309   6.039  0.7137  0.1377 -0.1883
 7671SOL    HW134475   1.794   2.237   6.093  1.8691  0.3182  0.7609
 7671SOL    HW234476   1.844   2.379   6.102  0.1466 -1.0384  1.2572
 7672SOL     OW34477   3.186   2.945   3.669 -0.0108 -0.6269  0.6522
 7672SOL    HW134478   3.165   2.895   3.748 -0.4562 -0.2466  0.7724
 7672SOL    HW234479   3.280   2.932   3.654 -0.0555 -1.2400  0.9071
 7673SOL     OW34480   0.809   2.796   1.528 -0.1081  0.4894  0.3541
 7673SOL    HW134481   0.728   2.760   1.564  0.8215 -0.6454  1.3023
 7673SOL    HW234482   0.776   2.817   1.440 -0.6896  0.2001  0.5007
 7674SOL     OW34483   3.715   4.165   6.107  0.1706  0.4523  0.6078
 7674SOL    HW134484   3.765   4.106   6.052 -0.2990 -0.3245  1.0139
 7674SOL    HW234485   3.787   4.223   6.133 -0.5683  2.1014 -1.0523
 7675SOL     OW34486   1.356   2.866   5.465 -0.2301  0.4347 -0.3068
 7675SOL    HW134487   1.434   2.921   5.469 -0.0644  0.2974 -1.7109
 7675SOL    HW234488   1.374   2.821   5.382  1.6937  0.0972  0.2890
 7676SOL     OW34489   3.241   2.577   8.548  0.1260 -0.2977 -0.0293
 7676SOL    HW134490   3.168   2.632   8.521 -0.9076 -1.5659  0.1785
 7676SOL    HW234491   3.204   2.524   8.618  0.3554 -0.3329  0.0667
 7677SOL     OW34492   2.853   4.430   8.412 -0.0977 -0.5346 -0.6646
 7677SOL    HW134493   2.941   4.398   8.434  0.2803  1.4270  0.6905
 7677SOL    HW234494   2.880   4.493   8.346  1.2806  1.0881  1.4402
 7678SOL     OW34495   0.706   1.473  10.475 -0.3989 -0.9205  0.5324
 7678SOL    HW134496   0.767   1.402  10.454 -0.0393 -0.1483 -1.0048
 7678SOL    HW234497   0.761   1.550  10.460  0.3177 -1.8174 -1.4025
 7679SOL     OW34498   2.141   1.764  10.146 -0.4439 -0.8483  0.5426
 7679SOL    HW134499   2.134   1.848  10.101 -0.4664 -1.3383 -0.3613
 7679SOL    HW234500   2.205   1.776  10.216 -1.2443 -0.1443  1.1611
 7680SOL     OW34501   3.217   4.030   6.758 -0.2104  0.0299  0.0357
 7680SOL    HW134502   3.286   3.970   6.731 -0.5656 -0.7392  0.8180
 7680SOL    HW234503   3.190   4.060   6.671 -1.1256  0.7320  0.5480
 7681SOL     OW34504   0.605   2.872   3.573  0.1945 -0.3240 -0.2306
 7681SOL    HW134505   0.574   2.902   3.488  2.5666  1.2911 -0.5201
 7681SOL    HW234506   0.521   2.862   3.619  0.4950  1.4509  0.7261
 7682SOL     OW34507   0.336   4.492   1.968  0.0904 -0.3300 -0.6488
 7682SOL    HW134508   0.427   4.523   1.980  0.8497 -2.9373  0.1957
 7682SOL    HW234509   0.293   4.571   1.934 -0.9454 -0.9694 -0.8085
 7683SOL     OW34510   0.567   2.446   6.941  0.1334 -0.0879 -0.4084
 7683SOL    HW134511   0.639   2.453   6.878  1.9917  0.9624  1.8674
 7683SOL    HW234512   0.608   2.487   7.017 -2.8340 -0.9090  1.6277
 7684SOL     OW34513   3.337   3.798   2.270  0.2242 -0.3471 -0.0505
 7684SOL    HW134514   3.301   3.739   2.203 -1.6485 -0.2238  0.8591
 7684SOL    HW234515   3.390   3.739   2.323  0.0247  0.4053  0.9763
 7685SOL     OW34516   1.516   0.281  14.726 -0.5503 -0.2973 -0.4509
 7685SOL    HW134517   1.542   0.230  14.649  0.2109  1.2740 -1.2176
 7685SOL    HW234518   1.597   0.257  14.772 -0.8687 -0.0783  0.2150
 7686SOL     OW34519   3.751   1.774   5.009 -0.8305  0.1164  0.3648
 7686SOL    HW134520   3.798   1.821   5.077 -1.9718  2.0394 -0.1999
 7686SOL    HW234521   3.823   1.751   4.950 -0.9931  1.6334 -0.4090
 7687SOL     OW34522   3.852   3.551   7.970 -0.0940 -0.1923  0.2577
 7687SOL    HW134523   3.840   3.551   7.875 -2.3340 -1.7466  0.5542
 7687SOL    HW234524   3.812   3.467   7.990 -0.1537  0.4095  2.6346
 7688SOL     OW34525   0.237   2.045   5.329  0.5257  0.7921  0.0254
 7688SOL    HW134526   0.165   2.065   5.389 -0.8971 -1.2418 -1.0069
 7688SOL    HW234527   0.301   2.083   5.389 -1.1025  0.3854  2.0213
 7689SOL     OW34528   4.001   1.043  10.682 -0.4567  0.2447  0.5736
 7689SOL    HW134529   3.980   1.062  10.590  1.4771 -1.2028 -0.1694
 7689SOL    HW234530   4.023   0.950  10.673  0.4734  0.6513 -1.4161
 7690SOL     OW34531   1.245   2.733   9.719  0.0363  0.2815 -0.5837
 7690SOL    HW134532   1.279   2.736   9.630 -1.5606  0.0217 -1.2027
 7690SOL    HW234533   1.249   2.637   9.720 -0.2448  0.2520 -1.9684
 7691SOL     OW34534   1.558   3.268  13.561 -0.0727 -0.5575  0.4312
 7691SOL    HW134535   1.509   3.324  13.621  0.8950  0.6926  0.0619
 7691SOL    HW234536   1.604   3.335  13.511  0.7542 -2.2726 -1.1198
 7692SOL     OW34537   0.878   1.233   4.181  0.1360  0.0632  0.4021
 7692SOL    HW134538   0.860   1.321   4.214 -1.7305 -0.1333 -0.0794
 7692SOL    HW234539   0.973   1.226   4.175  0.3566  1.8168  2.0242
 7693SOL     OW34540   4.482   4.190   5.218 -0.3809  0.3638  0.1630
 7693SOL    HW134541   4.469   4.130   5.292 -2.1442  1.1739  0.5057
 7693SOL    HW234542   4.447   4.273   5.251  1.0726  0.4597  1.4737
 7694SOL     OW34543   3.202   0.464   2.417  0.3277 -0.4705  0.3526
 7694SOL    HW134544   3.219   0.384   2.368 -0.4947  0.3789 -1.3177
 7694SOL    HW234545   3.107   0.459   2.414  0.4085 -1.1908 -0.9168
 7695SOL     OW34546   1.464   4.701   6.017  0.7831 -0.1145 -0.5886
 7695SOL    HW134547   1.476   0.062   5.974 -1.7277  0.6155  0.1299
 7695SOL    HW234548   1.392   4.708   6.079  0.1917 -0.6828 -1.2106
 7696SOL     OW34549   4.675   4.135   3.783 -0.5346 -1.0760  0.4836
 7696SOL    HW134550   4.694   4.079   3.708  0.2660  0.7983 -0.6997
 7696SOL    HW234551   4.692   4.068   3.849 -2.3076  0.0719  2.1033
 7697SOL     OW34552   1.209   2.777   3.729 -0.1651  0.2993  0.2972
 7697SOL    HW134553   1.188   2.718   3.657  1.0393 -0.4645  0.5740
 7697SOL    HW234554   1.232   2.851   3.673  1.7517  0.1389  0.8831
 7698SOL     OW34555   2.265   0.116  15.044 -0.1301 -0.0885  0.6506
 7698SOL    HW134556   2.286   0.028  15.078 -0.2964 -0.8389 -1.1952
 7698SOL    HW234557   2.352   0.134  15.008 -0.6128  1.5365  0.3169
 7699SOL     OW34558   3.075   0.881   7.320 -0.0933  0.1361  0.8203
 7699SOL    HW134559   3.125   0.873   7.401 -0.3723  3.1203  1.2901
 7699SOL    HW234560   3.053   0.789   7.307 -0.1037  0.3246 -0.5296
 7700SOL     OW34561   4.483   2.253  13.536  0.1890 -0.2830  0.2948
 7700SOL    HW134562   4.427   2.191  13.582  0.6698 -1.9413 -1.3811
 7700SOL    HW234563   4.564   2.202  13.536  1.9809  2.5065  1.6348
 7701SOL     OW34564   3.521   0.964   6.445 -0.1302 -0.7666  0.7807
 7701SOL    HW134565   3.558   0.932   6.527  1.6366 -0.3352  0.1578
 7701SOL    HW234566   3.505   0.873   6.418  1.2917 -0.5699 -0.7356
 7702SOL     OW34567   1.563   1.711   6.055  0.7302 -0.0729 -0.3870
 7702SOL    HW134568   1.483   1.704   6.004  1.6438 -0.1742 -1.8144
 7702SOL    HW234569   1.533   1.701   6.145  0.5273  0.1873 -0.4257
 7703SOL     OW34570   2.961   1.722   4.030  0.4407  0.4242  0.4445
 7703SOL    HW134571   3.004   1.807   4.028  1.3171  0.0088  1.4696
 7703SOL    HW234572   2.907   1.729   4.109 -3.1571 -2.6628 -1.7336
 7704SOL     OW34573   1.431   2.429   0.928  0.1263 -0.4083 -0.7820
 7704SOL    HW134574   1.357   2.455   0.873  2.2942  2.6737 -2.2402
 7704SOL    HW234575   1.386   2.410   1.010 -0.0185 -0.8088 -0.9500
 7705SOL     OW34576   3.581   2.594   6.894 -0.2609  0.3097  0.2936
 7705SOL    HW134577   3.556   2.675   6.849 -0.5639  0.5084  0.8303
 7705SOL    HW234578   3.566   2.525   6.829  1.1646 -0.6255  0.9634
 7706SOL     OW34579   3.576   3.012   7.706  0.1325  0.0918 -0.0069
 7706SOL    HW134580   3.505   2.964   7.662  1.1486 -0.0480 -1.4800
 7706SOL    HW234581   3.640   3.014   7.636  0.5167 -1.7324  0.2737
 7707SOL     OW34582   4.127   4.307  15.177  0.5491  0.2654 -0.6646
 7707SOL    HW134583   4.203   4.278  15.227 -1.5560 -2.5124  0.9343
 7707SOL    HW234584   4.067   4.294  15.251 -0.0683 -0.4167 -1.2867
 7708SOL     OW34585   1.097   1.156  11.075 -0.5701  0.1894 -0.4601
 7708SOL    HW134586   1.084   1.157  10.980 -1.9091 -1.3480 -0.2932
 7708SOL    HW234587   1.189   1.182  11.070  0.0289 -1.9357 -0.3591
 7709SOL     OW34588   0.650   2.923   4.472 -0.1229  0.7296  0.2402
 7709SOL    HW134589   0.742   2.912   4.495 -0.2433  1.0385  0.8731
 7709SOL    HW234590   0.666   2.986   4.401  3.8920  1.0297  1.3969
 7710SOL     OW34591   3.898   0.456  17.080  0.1914  0.4334 -0.1853
 7710SOL    HW134592   3.867   0.499  17.159 -0.5872  1.0047 -0.8004
 7710SOL    HW234593   3.823   0.401  17.058 -0.0741  0.5175  0.5127
 7711SOL     OW34594   2.850   3.380   3.970  0.9983  0.3379 -0.2928
 7711SOL    HW134595   2.796   3.314   4.013 -0.7305  2.0325  0.1623
 7711SOL    HW234596   2.854   3.347   3.881  1.9505 -1.9661  0.6064
 7712SOL     OW34597   0.845   0.283   3.010 -0.0188 -0.2664 -0.0857
 7712SOL    HW134598   0.888   0.365   3.036 -0.2816  0.7971 -3.0237
 7712SOL    HW234599   0.770   0.274   3.068  0.9520 -0.9251  1.0790
 7713SOL     OW34600   3.829   0.642   0.514 -0.2002 -0.2459 -0.2098
 7713SOL    HW134601   3.812   0.590   0.593  1.0846  0.6117  0.6369
 7713SOL    HW234602   3.918   0.664   0.543 -0.0715  2.3242 -2.5406
 7714SOL     OW34603   0.957   4.636  13.903 -0.1338 -0.4158 -0.5584
 7714SOL    HW134604   0.988   4.693  13.973  0.2895 -1.7686  0.3563
 7714SOL    HW234605   0.965   4.704  13.836 -1.2660  0.5353  0.2656
 7715SOL     OW34606   3.638   2.301  13.960  0.1672  0.1914 -0.1404
 7715SOL    HW134607   3.590   2.244  13.900  2.2563 -1.6916 -0.0226
 7715SOL    HW234608   3.651   2.375  13.900 -0.9745 -1.3712 -2.2847
 7716SOL     OW34609   4.268   0.676   4.807 -0.5266  0.0252  0.0979
 7716SOL    HW134610   4.193   0.632   4.767  0.2104 -0.7021 -0.4773
 7716SOL    HW234611   4.252   0.767   4.784 -2.3904 -0.5376 -0.8323
 7717SOL     OW34612   2.537   1.307  14.839 -0.3081 -0.6698 -0.6345
 7717SOL    HW134613   2.495   1.342  14.761 -1.4740 -0.7502 -0.0424
 7717SOL    HW234614   2.603   1.248  14.802  1.1267  0.4345  0.1442
 7718SOL     OW34615   2.318   0.557   7.441 -0.5377  0.4364  0.0075
 7718SOL    HW134616   2.255   0.504   7.489  0.3183  0.8544  1.5785
 7718SOL    HW234617   2.314   0.514   7.355 -4.5833  0.8050  0.0162
 7719SOL     OW34618   1.467   3.020   6.289 -0.1635  0.1427 -0.2594
 7719SOL    HW134619   1.520   3.063   6.222 -0.6481  0.3915 -0.4835
 7719SOL    HW234620   1.421   3.083   6.345 -2.4288 -0.9218 -0.9185
 7720SOL     OW34621   4.032   2.104   6.965  0.3266 -0.1154  0.1502
 7720SOL    HW134622   3.989   2.026   6.999 -0.2559  0.4000  0.6093
 7720SOL    HW234623   4.031   2.096   6.870 -1.3783 -3.0127  0.4252
 7721SOL     OW34624   2.144   3.683   3.535  0.3027  0.3565 -0.1247
 7721SOL    HW134625   2.054   3.705   3.512 -0.8497 -1.8562  2.2670
 7721SOL    HW234626   2.175   3.774   3.528  0.7736  0.0429 -2.0082
 7722SOL     OW34627   0.342   0.773  12.250  0.0279  0.6189  0.4108
 7722SOL    HW134628   0.318   0.706  12.187  2.4871 -1.5781  1.8139
 7722SOL    HW234629   0.432   0.800  12.233 -0.1320  0.3701 -0.7960
 7723SOL     OW34630   4.095   0.381   7.438 -0.0390 -0.3759 -0.7562
 7723SOL    HW134631   4.062   0.406   7.524 -0.1522  0.0122 -0.9143
 7723SOL    HW234632   4.165   0.444   7.423  1.8997 -2.4713 -0.5797
 7724SOL     OW34633   3.460   1.599   7.011 -0.4495 -0.1336 -0.7634
 7724SOL    HW134634   3.406   1.656   6.956 -0.7277 -1.6275 -2.0370
 7724SOL    HW234635   3.477   1.530   6.948  0.5297 -0.1667 -0.4706
 7725SOL     OW34636   2.968   3.342  12.766  0.7163  0.3829 -0.0270
 7725SOL    HW134637   2.999   3.251  12.765  3.5070  1.3396  0.1466
 7725SOL    HW234638   2.873   3.335  12.773  0.6030  0.9992 -0.8844
 7726SOL     OW34639   2.839   2.701  11.822  0.1365 -0.7294  0.4879
 7726SOL    HW134640   2.923   2.662  11.845  0.6488  0.8552  1.3664
 7726SOL    HW234641   2.780   2.626  11.821 -0.8736  0.0521  1.2264
 7727SOL     OW34642   1.519   3.794   9.809  0.0577 -0.0444 -0.5187
 7727SOL    HW134643   1.494   3.776   9.718  0.4577 -0.3925 -0.5587
 7727SOL    HW234644   1.435   3.801   9.855 -0.1183 -1.4259 -0.6381
 7728SOL     OW34645   2.960   4.564   3.086 -0.2718  0.4244 -0.4973
 7728SOL    HW134646   3.038   4.588   3.136  0.0976 -1.5070 -0.1521
 7728SOL    HW234647   2.972   4.582   2.993 -2.1661  1.8084 -0.4723
 7729SOL     OW34648   1.135   2.079   4.456  0.2781 -0.1144 -0.0014
 7729SOL    HW134649   1.141   2.115   4.367  0.8142 -0.2753 -0.0264
 7729SOL    HW234650   1.114   1.990   4.425  0.7814 -0.1877 -0.1208
 7730SOL     OW34651   0.323   4.249   1.919  0.0362 -0.7411  0.2115
 7730SOL    HW134652   0.328   4.335   1.962  1.2043 -0.3631 -0.6953
 7730SOL    HW234653   0.284   4.274   1.836  0.5487 -0.0870  0.1695
 7731SOL     OW34654   0.146   3.459  17.365 -0.5683 -0.0987 -0.0510
 7731SOL    HW134655   0.136   3.534  17.424 -1.9560  1.6100 -2.4465
 7731SOL    HW234656   0.127   3.493  17.278 -0.4030  1.6655  0.5913
 7732SOL     OW34657   2.462   1.037   9.274  0.4745 -0.8747 -0.6628
 7732SOL    HW134658   2.419   1.112   9.314  3.4933  1.2808 -1.4364
 7732SOL    HW234659   2.415   0.968   9.321 -0.5586  0.9251  0.8975
 7733SOL     OW34660   4.122   1.205   4.594  0.5320 -0.6556  0.7090
 7733SOL    HW134661   4.042   1.164   4.626  0.1276  0.1093  0.6778
 7733SOL    HW234662   4.111   1.189   4.501 -2.5948  0.7471  0.8507
 7734SOL     OW34663   4.301   0.646   7.560  0.0050  0.0710  0.2165
 7734SOL    HW134664   4.360   0.721   7.567 -1.8006  1.4812  0.4198
 7734SOL    HW234665   4.351   0.591   7.499  0.5734  0.8099  0.0098
 7735SOL     OW34666   0.953   3.605   8.991  0.5244 -0.6207 -0.2228
 7735SOL    HW134667   0.865   3.641   8.980  0.6315 -0.3611 -0.2485
 7735SOL    HW234668   0.999   3.689   8.996  0.4729 -0.5760 -0.5011
 7736SOL     OW34669   1.610   1.479   8.276  0.8591  0.7643 -0.7218
 7736SOL    HW134670   1.643   1.476   8.186  2.2740 -4.5324  0.0089
 7736SOL    HW234671   1.582   1.571   8.277  3.8604  1.6678  0.6534
 7737SOL     OW34672   4.170   2.868  10.968  0.2080  0.9504 -0.0338
 7737SOL    HW134673   4.227   2.809  10.919  0.4771  0.4337  0.8961
 7737SOL    HW234674   4.211   2.849  11.053  1.8104 -2.3184 -1.5369
 7738SOL     OW34675   1.076   1.880   3.091 -0.6009  0.1813  0.0856
 7738SOL    HW134676   1.056   1.963   3.046  0.0947  0.9968  1.2839
 7738SOL    HW234677   1.016   1.816   3.052 -0.1749 -0.7072  0.9159
 7739SOL     OW34678   4.624   4.608  16.949 -0.5451 -0.1261  0.4401
 7739SOL    HW134679   4.687   4.664  16.905 -1.0584 -0.0558 -0.1987
 7739SOL    HW234680   4.652   4.523  16.915 -2.1146 -0.3893 -0.1884
 7740SOL     OW34681   2.784   3.178   9.911 -0.4856  0.0318 -0.5868
 7740SOL    HW134682   2.851   3.123   9.871 -0.4338  0.3981 -1.0018
 7740SOL    HW234683   2.839   3.246   9.949  1.8179 -1.2323 -1.6290
 7741SOL     OW34684   1.248   4.675   6.197  0.1378  0.1565  0.4481
 7741SOL    HW134685   1.163   4.668   6.155  0.4161 -0.2906 -0.0392
 7741SOL    HW234686   1.235   0.031   6.249 -0.7909  1.6491 -2.1216
 7742SOL     OW34687   0.205   0.825   6.699 -0.1000 -0.1836 -0.1436
 7742SOL    HW134688   0.262   0.829   6.622 -0.7425 -0.0643 -0.6097
 7742SOL    HW234689   0.123   0.836   6.651 -0.3573  0.7081  0.5046
 7743SOL     OW34690   1.251   1.209  12.202 -0.0262 -0.1899 -0.0237
 7743SOL    HW134691   1.271   1.289  12.153  0.3112 -0.1322  0.2055
 7743SOL    HW234692   1.227   1.141  12.139 -1.4523 -0.7668  1.1557
 7744SOL     OW34693   0.072   2.384  13.715  0.4465 -0.1506 -0.5889
 7744SOL    HW134694   0.012   2.449  13.678  0.6713 -0.3212 -1.2505
 7744SOL    HW234695   0.150   2.436  13.733 -0.5429  1.0611  0.1652
 7745SOL     OW34696   4.300   2.197   2.910  0.2161  0.1153 -0.0715
 7745SOL    HW134697   4.252   2.231   2.986 -0.3664 -2.2353  0.5842
 7745SOL    HW234698   4.373   2.153   2.954  0.0643  0.0905  0.1545
 7746SOL     OW34699   2.146   0.034  14.708 -0.0789 -0.4733 -0.4506
 7746SOL    HW134700   2.200   0.087  14.650  1.1662 -1.0151  0.2288
 7746SOL    HW234701   2.208   4.706  14.758 -0.7079 -2.8573 -2.2162
 7747SOL     OW34702   4.523   2.042  14.765  0.1959  0.1798  0.1219
 7747SOL    HW134703   4.560   1.986  14.834  1.3512  0.6369 -0.1236
 7747SOL    HW234704   4.581   2.040  14.690 -2.2243  0.2805 -1.7395
 7748SOL     OW34705   2.114   4.123   2.047  0.0449  0.3677  0.1372
 7748SOL    HW134706   2.134   4.033   2.070  0.9380 -0.0414 -2.2648
 7748SOL    HW234707   2.029   4.125   2.091  0.2164 -2.0028  0.5233
 7749SOL     OW34708   2.350   2.598   6.208 -0.0375  0.4510  0.1140
 7749SOL    HW134709   2.340   2.503   6.202 -0.3786  0.5780 -1.3636
 7749SOL    HW234710   2.331   2.606   6.301 -1.2205  2.3352 -0.2898
 7750SOL     OW34711   0.563   4.167   5.891 -0.7042 -0.8922 -0.3956
 7750SOL    HW134712   0.566   4.259   5.918  2.3312 -0.8894 -0.7616
 7750SOL    HW234713   0.470   4.173   5.866 -0.8270  0.1186  0.3034
 7751SOL     OW34714   3.880   4.659  17.189  0.3417  0.0544  0.3777
 7751SOL    HW134715   3.869   0.029  17.198  2.7149  0.4905 -1.2872
 7751SOL    HW234716   3.809   4.628  17.245 -0.9906 -0.4584 -1.5929
 7752SOL     OW34717   2.307   0.726   4.213  0.1056  0.1197 -0.0495
 7752SOL    HW134718   2.360   0.729   4.134 -1.2539  1.6650 -0.9156
 7752SOL    HW234719   2.224   0.691   4.180  0.8003 -1.1893 -0.4125
 7753SOL     OW34720   4.309   0.806  12.035 -0.1108  0.0429  0.1283
 7753SOL    HW134721   4.302   0.710  12.033  0.7854 -0.0589  2.9209
 7753SOL    HW234722   4.397   0.834  12.012 -0.3290  0.1457 -0.5944
 7754SOL     OW34723   2.786   3.626  16.407  0.3456 -0.1662  0.0081
 7754SOL    HW134724   2.701   3.586  16.423  0.1273  0.4781  0.4738
 7754SOL    HW234725   2.818   3.584  16.327  1.2877  2.9453 -1.2340
 7755SOL     OW34726   4.449   2.816   9.724  0.2177 -0.2254 -0.5962
 7755SOL    HW134727   4.496   2.734   9.742  1.9127  0.9457  0.4175
 7755SOL    HW234728   4.519   2.881   9.721 -0.0367  0.1683  2.0042
 7756SOL     OW34729   4.581   4.724   2.592 -0.5948  0.0309  0.5681
 7756SOL    HW134730   4.659   4.690   2.636 -0.5477 -0.0610  0.4133
 7756SOL    HW234731   4.580   4.674   2.510  2.4178 -1.0760  1.2104
 7757SOL     OW34732   0.876   0.572  16.882  0.5904 -0.6018  0.2338
 7757SOL    HW134733   0.958   0.609  16.915 -1.1880  1.5418  2.2568
 7757SOL    HW234734   0.819   0.584  16.958  0.8940 -0.6075  0.4630
 7758SOL     OW34735   2.576   3.792   1.477  0.3743 -0.1191  0.5958
 7758SOL    HW134736   2.511   3.841   1.527 -0.6199 -2.0121  1.1787
 7758SOL    HW234737   2.544   3.702   1.486  1.3433 -0.6616 -1.5391
 7759SOL     OW34738   3.016   4.114   0.559  0.2752  0.1307 -0.2203
 7759SOL    HW134739   2.971   4.139   0.640  1.3157  2.0596 -0.2322
 7759SOL    HW234740   3.012   4.200   0.519  1.9732  0.3410  0.0477
 7760SOL     OW34741   4.636   3.708  13.080 -0.2133  0.2543 -0.1095
 7760SOL    HW134742   4.660   3.643  13.014 -2.2543  0.6402 -1.2294
 7760SOL    HW234743   4.696   3.687  13.152  2.1085 -0.3076 -2.2251
 7761SOL     OW34744   2.369   2.534   7.543 -0.3916 -0.4135 -0.0660
 7761SOL    HW134745   2.418   2.492   7.472  2.9358  1.9698  0.8326
 7761SOL    HW234746   2.401   2.483   7.617 -1.0202  1.3850  1.4644
 7762SOL     OW34747   3.066   1.177   7.594 -0.1004 -0.1529  0.3684
 7762SOL    HW134748   3.083   1.263   7.555 -1.5909  1.0231  2.2467
 7762SOL    HW234749   3.008   1.208   7.664 -0.4607 -0.0004  0.0001
 7763SOL     OW34750   4.272   3.723   2.797  0.0110 -0.0162 -0.1858
 7763SOL    HW134751   4.222   3.656   2.751  0.7624  0.2875 -1.4499
 7763SOL    HW234752   4.275   3.784   2.723  0.7439  0.4483  0.2266
 7764SOL     OW34753   2.117   4.060  10.544 -0.4682  0.1057 -0.5600
 7764SOL    HW134754   2.209   4.055  10.520 -0.4320  1.8050 -0.7593
 7764SOL    HW234755   2.108   3.982  10.599 -0.5960 -0.6263 -1.6195
 7765SOL     OW34756   1.992   2.394  15.385 -0.0070  0.3398  0.8671
 7765SOL    HW134757   1.933   2.469  15.379 -0.7000 -0.3183 -0.7235
 7765SOL    HW234758   2.074   2.440  15.399  1.3455 -1.4898 -1.1074
 7766SOL     OW34759   2.017   2.277   5.592 -0.0828 -0.5020  0.4258
 7766SOL    HW134760   2.054   2.196   5.556  0.7847  0.0975 -0.0133
 7766SOL    HW234761   2.052   2.342   5.531  2.1550 -0.4289  1.8317
 7767SOL     OW34762   2.722   2.441  10.481 -0.2103 -0.3097 -0.0154
 7767SOL    HW134763   2.730   2.511  10.417  2.0739  0.1015  0.7476
 7767SOL    HW234764   2.659   2.476  10.544 -0.5045 -2.0157  0.6562
 7768SOL     OW34765   4.306   2.739   2.559  0.4290 -0.5966 -0.1974
 7768SOL    HW134766   4.323   2.825   2.597 -1.4103 -0.4680  0.3237
 7768SOL    HW234767   4.211   2.744   2.551  0.4172 -0.8735 -0.2323
 7769SOL     OW34768   1.228   2.070   7.317  0.0004 -0.3207 -0.3820
 7769SOL    HW134769   1.194   2.079   7.406 -0.1022 -0.0805 -0.4454
 7769SOL    HW234770   1.147   2.100   7.275 -0.5446 -1.5138 -0.1890
 7770SOL     OW34771   1.830   2.051   4.672 -0.0596  0.2041  0.9085
 7770SOL    HW134772   1.739   2.072   4.653  0.6977  1.8665 -0.7939
 7770SOL    HW234773   1.823   1.956   4.683  1.1688 -0.0871 -0.8768
 7771SOL     OW34774   0.217   3.881   0.848  0.4392  0.0092 -0.1807
 7771SOL    HW134775   0.263   3.964   0.837 -1.5904  0.8504 -2.1285
 7771SOL    HW234776   0.209   3.883   0.944  0.9269 -0.0203 -0.1392
 7772SOL     OW34777   4.607   3.878  12.718 -0.4036  0.0534 -0.1005
 7772SOL    HW134778   4.691   3.834  12.729 -1.0544 -1.0760  0.4526
 7772SOL    HW234779   4.599   3.915  12.805  2.8175  0.7966 -0.1378
 7773SOL     OW34780   3.885   3.015  14.417 -0.0033 -0.6260 -0.0227
 7773SOL    HW134781   3.877   3.105  14.384 -1.2963 -1.2501 -1.4218
 7773SOL    HW234782   3.884   2.967  14.335  1.9391  1.3817 -1.2138
 7774SOL     OW34783   3.084   1.271   8.927  0.2479 -0.0936  0.2827
 7774SOL    HW134784   3.038   1.355   8.926  1.9846  0.8190 -3.1120
 7774SOL    HW234785   3.028   1.225   8.864  0.3634  0.1422  0.0076
 7775SOL     OW34786   0.846   1.210  13.387 -0.2357 -0.2088 -0.0106
 7775SOL    HW134787   0.916   1.267  13.420  1.7686 -2.7867  0.2204
 7775SOL    HW234788   0.776   1.229  13.449  0.7257  0.8715  0.7443
 7776SOL     OW34789   1.040   1.323   3.220 -0.4816  0.2932  0.5403
 7776SOL    HW134790   1.122   1.275   3.220 -0.3271  0.5577  0.6491
 7776SOL    HW234791   1.021   1.342   3.312 -2.3011 -1.9663  0.6339
 7777SOL     OW34792   0.829   1.516   4.250  0.9010 -0.0956  0.2477
 7777SOL    HW134793   0.736   1.509   4.229  0.5196  1.5249  1.4172
 7777SOL    HW234794   0.864   1.576   4.185 -0.3557 -0.4680 -0.7829
 7778SOL     OW34795   3.138   2.175   2.430  0.0841  0.4822  0.0941
 7778SOL    HW134796   3.218   2.138   2.393 -0.7501  0.1472 -1.3947
 7778SOL    HW234797   3.179   2.201   2.512 -0.3771  0.9505  0.1783
 7779SOL     OW34798   3.601   2.004  12.576 -0.1185  0.0010  0.2537
 7779SOL    HW134799   3.622   2.081  12.628 -1.5017  1.2493 -1.0387
 7779SOL    HW234800   3.690   1.973  12.560 -0.0474  0.5117 -0.3015
 7780SOL     OW34801   0.111   2.625   9.862  0.4014 -0.3207 -0.1452
 7780SOL    HW134802   0.151   2.700   9.906  1.0689  0.0975 -1.4935
 7780SOL    HW234803   0.168   2.557   9.900  1.8512 -0.0348 -1.8340
 7781SOL     OW34804   3.083   3.612   2.647 -0.2535  0.2932 -0.1977
 7781SOL    HW134805   3.047   3.625   2.559  0.0275 -2.2980 -0.7110
 7781SOL    HW234806   3.171   3.648   2.638 -0.2784  0.6905  1.2862
 7782SOL     OW34807   2.946   3.722   3.539  0.6343  0.6143 -0.0090
 7782SOL    HW134808   3.031   3.679   3.529  1.6080  2.2334  1.3712
 7782SOL    HW234809   2.888   3.650   3.513  0.6766  0.2341  0.9776
 7783SOL     OW34810   3.840   0.326  13.400 -0.1016  0.3692 -0.1932
 7783SOL    HW134811   3.819   0.238  13.369 -0.0112  0.6369 -1.0390
 7783SOL    HW234812   3.750   0.356  13.412 -0.3134  0.1130 -1.0968
 7784SOL     OW34813   1.928   2.462   2.756 -0.7110  0.3747 -0.3992
 7784SOL    HW134814   1.870   2.497   2.823  1.3658  0.0109  1.5845
 7784SOL    HW234815   1.890   2.482   2.670 -2.7047  0.7437  0.5775
 7785SOL     OW34816   0.021   0.214   0.977  0.1018  0.1078  0.5747
 7785SOL    HW134817   0.023   0.153   0.903  1.3741  0.2071  0.5268
 7785SOL    HW234818   0.104   0.260   0.967  0.4813 -0.8089 -0.5206
 7786SOL     OW34819   0.070   1.919   6.186 -0.5704 -0.2139 -0.9062
 7786SOL    HW134820   0.051   1.975   6.261  0.5130 -1.2336  0.1361
 7786SOL    HW234821   0.023   1.960   6.114 -1.5687  0.9318  0.4071
 7787SOL     OW34822   2.302   4.584  15.113 -0.1022 -0.2378  0.0348
 7787SOL    HW134823   2.262   4.514  15.165 -3.3614  1.2905 -0.4227
 7787SOL    HW234824   2.392   4.565  15.139 -1.0133 -2.9316  1.2368
 7788SOL     OW34825   1.009   2.850   6.968 -0.6266 -0.1148  0.1063
 7788SOL    HW134826   0.944   2.810   6.910  0.5599  0.3790 -1.5816
 7788SOL    HW234827   1.002   2.939   6.934 -0.3144 -0.5387 -1.1048
 7789SOL     OW34828   3.215   2.825   7.199 -0.3851 -0.1327  0.3304
 7789SOL    HW134829   3.288   2.884   7.180 -0.1561 -0.3850  0.4211
 7789SOL    HW234830   3.237   2.750   7.144  1.0631 -0.8234  1.8340
 7790SOL     OW34831   4.464   0.305  13.469 -0.2522  0.0696  0.6621
 7790SOL    HW134832   4.501   0.220  13.488 -1.3568 -0.5874 -0.0627
 7790SOL    HW234833   4.491   0.313  13.377  0.5666 -3.2355  0.6259
 7791SOL     OW34834   3.770   3.596   9.800  0.0143  0.4949  0.3422
 7791SOL    HW134835   3.801   3.515   9.760  1.5549  0.7856  0.9402
 7791SOL    HW234836   3.847   3.653   9.794  0.7479 -0.5620 -0.1091
 7792SOL     OW34837   1.720   4.383   8.062  0.4429 -0.4928 -0.1919
 7792SOL    HW134838   1.636   4.409   8.098 -0.0982  1.0338 -2.5714
 7792SOL    HW234839   1.704   4.370   7.969 -0.4296 -1.5467  0.1079
 7793SOL     OW34840   1.938   3.760   3.386  0.0670  0.1202  0.2787
 7793SOL    HW134841   1.871   3.828   3.398  0.5136  0.1456  2.7321
 7793SOL    HW234842   1.902   3.706   3.316 -1.1342 -1.1457  1.8560
 7794SOL     OW34843   1.192   2.121   5.491 -0.3352 -0.2779 -0.4533
 7794SOL    HW134844   1.275   2.092   5.452 -0.4448 -0.3895 -0.6016
 7794SOL    HW234845   1.221   2.177   5.563 -0.5338 -1.6481  0.6827
 7795SOL     OW34846   3.749   2.620   5.438  0.1160  0.4325 -0.1228
 7795SOL    HW134847   3.726   2.701   5.483  0.3680  1.0106 -1.0370
 7795SOL    HW234848   3.836   2.601   5.473  0.3746 -0.8806 -1.4729
 7796SOL     OW34849   0.936   3.386   8.801 -0.7397 -0.4164 -0.0365
 7796SOL    HW134850   0.905   3.332   8.874  3.0288  0.7038  2.3874
 7796SOL    HW234851   0.931   3.470   8.846 -1.2346 -0.7494  0.5454
 7797SOL     OW34852   4.671   4.469   2.778 -0.4320  0.9584 -0.3719
 7797SOL    HW134853   4.692   4.560   2.798 -1.1802  0.6483  1.8375
 7797SOL    HW234854   4.582   4.466   2.814  0.1811 -0.2217  1.0494
 7798SOL     OW34855   1.852   0.929   3.960  0.4658  0.2993  0.2139
 7798SOL    HW134856   1.878   0.880   4.038 -1.9284 -0.8090  0.3236
 7798SOL    HW234857   1.820   1.013   3.993 -1.1132 -0.0159 -0.4843
 7799SOL     OW34858   2.301   1.382   3.174 -0.2316  0.1191 -0.1140
 7799SOL    HW134859   2.230   1.359   3.114  2.2505 -1.7121 -2.3114
 7799SOL    HW234860   2.360   1.309   3.158 -2.0971 -1.7551  1.5805
 7800SOL     OW34861   4.123   2.552   8.785  0.0526  0.2830  0.1339
 7800SOL    HW134862   4.064   2.505   8.726  0.4181 -0.2930  0.2226
 7800SOL    HW234863   4.111   2.642   8.755 -0.5927 -0.0266 -0.5245
 7801SOL     OW34864   1.242   4.066   2.124  0.0999 -0.1558  0.3303
 7801SOL    HW134865   1.250   3.988   2.068  0.1222  1.0503 -1.3204
 7801SOL    HW234866   1.164   4.047   2.176  0.2365 -0.4448  0.4311
 7802SOL     OW34867   3.316   4.481   8.371 -0.8092  0.4361 -0.2337
 7802SOL    HW134868   3.367   4.538   8.428  0.9957 -0.5037 -0.9315
 7802SOL    HW234869   3.318   4.533   8.291  2.4315  0.7566  0.0721
 7803SOL     OW34870   1.219   1.067   8.101 -0.4010  0.1207  0.4236
 7803SOL    HW134871   1.248   0.986   8.060 -2.2699 -0.0772 -0.5174
 7803SOL    HW234872   1.251   1.126   8.032 -3.1616  0.6075 -0.4493
 7804SOL     OW34873   1.399   3.784  10.874  0.0785  0.0802  0.3260
 7804SOL    HW134874   1.468   3.814  10.934 -0.4113  0.3124  0.7790
 7804SOL    HW234875   1.338   3.747  10.938 -0.0551 -0.8106 -0.3248
 7805SOL     OW34876   3.328   3.072   4.553  0.5576  0.3820 -0.0402
 7805SOL    HW134877   3.320   3.121   4.635 -1.2330 -1.1796  0.7096
 7805SOL    HW234878   3.385   3.125   4.497 -0.3293  1.7713  0.3636
 7806SOL     OW34879   4.494   2.459   1.661 -0.2621 -0.1000  0.0025
 7806SOL    HW134880   4.536   2.382   1.700  1.6932  1.1081  0.2845
 7806SOL    HW234881   4.557   2.482   1.592  0.1222 -0.4155  0.2467
 7807SOL     OW34882   0.353   2.379   4.392  0.0794 -0.3293  0.4822
 7807SOL    HW134883   0.333   2.399   4.300  1.9647  2.2068  0.6106
 7807SOL    HW234884   0.373   2.286   4.387  0.5554 -0.2003 -0.0073
 7808SOL     OW34885   1.933   1.332   8.679 -0.2619  0.4705 -0.5128
 7808SOL    HW134886   1.984   1.307   8.602 -1.3604 -1.1755 -0.6983
 7808SOL    HW234887   1.849   1.340   8.634  0.2559 -2.3593 -1.9500
 7809SOL     OW34888   1.312   4.288   5.021  0.2108 -0.5636  0.2976
 7809SOL    HW134889   1.250   4.217   5.036  0.7238 -0.3791  3.2611
 7809SOL    HW234890   1.300   4.307   4.928  0.0703  0.7056  0.5865
 7810SOL     OW34891   0.139   0.481  16.285  0.6749 -0.4112  0.0798
 7810SOL    HW134892   0.194   0.495  16.208 -1.2563  0.9118 -1.0732
 7810SOL    HW234893   0.202   0.511  16.350  0.3759  0.6338 -0.1062
 7811SOL     OW34894   3.004   1.176   6.579 -0.0102 -0.7420 -0.8426
 7811SOL    HW134895   3.051   1.105   6.623  1.6139  0.0038 -1.3583
 7811SOL    HW234896   3.081   1.215   6.536 -0.5096  3.2921  1.9280
 7812SOL     OW34897   3.308   2.096   1.439  0.3508 -0.5534  0.0855
 7812SOL    HW134898   3.253   2.021   1.415 -0.2655 -0.0030 -0.2275
 7812SOL    HW234899   3.326   2.137   1.354 -0.6173 -0.2937 -0.0015
 7813SOL     OW34900   1.337   1.595   6.774  0.4019 -0.3071 -0.3713
 7813SOL    HW134901   1.372   1.507   6.790  3.6499  0.7926 -1.4939
 7813SOL    HW234902   1.251   1.587   6.815  0.2842 -1.4748 -0.8489
 7814SOL     OW34903   3.905   0.177   3.388 -0.7146  0.4977 -0.4238
 7814SOL    HW134904   3.815   0.203   3.367 -0.7828 -0.9674 -1.9690
 7814SOL    HW234905   3.920   0.137   3.302  0.4851  0.2061 -0.0703
 7815SOL     OW34906   3.529   3.203  16.336 -0.6790  0.6146  0.1067
 7815SOL    HW134907   3.450   3.167  16.376 -0.3874  0.7561  0.8128
 7815SOL    HW234908   3.573   3.238  16.413 -0.5514  0.6408  0.0209
 7816SOL     OW34909   3.588   2.202   5.038 -0.2716 -0.5943 -0.0076
 7816SOL    HW134910   3.540   2.230   5.116  1.1509  2.1797 -0.1056
 7816SOL    HW234911   3.525   2.198   4.966 -0.8537 -4.0237  0.6943
 7817SOL     OW34912   3.649   4.677   8.210 -0.2541  0.4135  0.2184
 7817SOL    HW134913   3.556   4.658   8.225 -0.4151 -0.3377 -1.7928
 7817SOL    HW234914   3.689   4.590   8.206  0.9996  1.0972 -2.2039
 7818SOL     OW34915   3.034   2.351   2.725 -0.4616  0.0040 -0.7667
 7818SOL    HW134916   3.089   2.356   2.803 -1.6846  4.0459 -0.1515
 7818SOL    HW234917   2.969   2.295   2.768  1.3617 -0.6089  1.1822
 7819SOL     OW34918   0.994   0.249   2.117 -0.0058 -0.4750  0.2545
 7819SOL    HW134919   0.926   0.186   2.092 -1.3347  1.2078 -0.3630
 7819SOL    HW234920   0.966   0.332   2.078 -2.8001 -1.5819 -0.0731
 7820SOL     OW34921   1.059   3.346   0.557  0.4012  0.0688  0.1041
 7820SOL    HW134922   1.047   3.353   0.651  1.4431  0.7896  0.1893
 7820SOL    HW234923   1.083   3.436   0.535 -0.9732  0.2300 -0.7263
 7821SOL     OW34924   4.161   1.202   5.128  0.0406 -0.4072 -0.3008
 7821SOL    HW134925   4.198   1.206   5.040  0.1413  0.4626 -0.2200
 7821SOL    HW234926   4.239   1.218   5.181 -0.3136 -0.7646  0.3296
 7822SOL     OW34927   1.847   4.397  17.247 -0.2180  0.2472 -0.4349
 7822SOL    HW134928   1.833   4.355  17.332  3.8204  1.1806  0.6941
 7822SOL    HW234929   1.938   4.374  17.225 -0.2234  0.4838 -0.7122
 7823SOL     OW34930   0.977   3.862  15.037 -0.4987  0.5344  0.0680
 7823SOL    HW134931   0.968   3.787  15.096  0.4203 -1.1578 -1.9037
 7823SOL    HW234932   0.951   3.932  15.096 -1.0833  1.3714 -1.1770
 7824SOL     OW34933   2.442   2.998  12.590 -0.4360 -0.2024  0.6594
 7824SOL    HW134934   2.417   3.023  12.679 -1.0082 -0.1518  0.4892
 7824SOL    HW234935   2.454   3.087  12.556 -1.4837  0.1207  1.1459
 7825SOL     OW34936   1.110   1.443   6.165 -0.2458  0.1371  0.2943
 7825SOL    HW134937   1.047   1.401   6.224  0.2290 -2.6582 -1.1621
 7825SOL    HW234938   1.090   1.400   6.082  1.1190 -2.4018  1.2746
 7826SOL     OW34939   3.450   4.339   2.122  0.8311 -0.0096  0.2737
 7826SOL    HW134940   3.466   4.247   2.144  0.7345  0.0221  0.4743
 7826SOL    HW234941   3.482   4.335   2.031 -2.3379  1.9899 -0.9290
 7827SOL     OW34942   2.857   1.973   2.040  0.3677  0.7071 -0.3503
 7827SOL    HW134943   2.801   1.985   2.117 -0.3790  0.3298 -0.8373
 7827SOL    HW234944   2.889   2.062   2.021  0.2270  1.0344  0.9471
 7828SOL     OW34945   0.633   2.069   4.523 -0.5343  0.0878  0.4098
 7828SOL    HW134946   0.689   2.020   4.461  0.4648  0.2865  1.1562
 7828SOL    HW234947   0.666   2.022   4.600  0.8428 -0.8737 -0.7552
 7829SOL     OW34948   0.735   3.162   9.624  0.5574  0.9070 -0.2734
 7829SOL    HW134949   0.794   3.236   9.635  1.8744 -0.2128  0.2878
 7829SOL    HW234950   0.646   3.194   9.637  0.2894  0.1635 -0.2771
 7830SOL     OW34951   3.910   4.055   4.385 -0.3209 -0.0949 -0.0925
 7830SOL    HW134952   4.003   4.073   4.367 -0.9414  1.0696 -2.0859
 7830SOL    HW234953   3.907   3.959   4.391 -1.0278 -0.0885 -0.4230
 7831SOL     OW34954   0.134   3.444  10.777 -0.7701 -0.3339 -0.0158
 7831SOL    HW134955   0.198   3.403  10.719  0.5744  0.1548  1.1383
 7831SOL    HW234956   0.056   3.388  10.774 -1.8946  1.2481 -0.6764
 7832SOL     OW34957   1.464   1.273   3.814 -0.3644 -0.0102  0.3668
 7832SOL    HW134958   1.412   1.298   3.738  0.2741  0.1230 -0.0309
 7832SOL    HW234959   1.543   1.231   3.779 -1.8573 -0.7736 -2.0959
 7833SOL     OW34960   2.511   3.004   3.185 -0.3504 -0.1791  0.1172
 7833SOL    HW134961   2.518   3.059   3.107 -1.6813 -1.7940 -1.1503
 7833SOL    HW234962   2.492   2.918   3.146  2.7154 -0.2032 -1.3335
 7834SOL     OW34963   3.835   3.419  15.932 -0.3298  0.4061 -0.3701
 7834SOL    HW134964   3.890   3.498  15.930  0.7041 -0.3165 -0.2605
 7834SOL    HW234965   3.881   3.370  16.000 -1.3753 -1.9187 -1.3592
 7835SOL     OW34966   1.091   1.801  14.234 -0.3044 -0.8138 -0.7906
 7835SOL    HW134967   1.064   1.869  14.295  1.0014  0.3903 -1.5437
 7835SOL    HW234968   1.183   1.793  14.259  0.0241 -0.5595 -1.9011
 7836SOL     OW34969   1.210   4.554   5.074  0.1556 -0.2936 -1.0649
 7836SOL    HW134970   1.115   4.546   5.067 -0.0632  0.5801  0.6655
 7836SOL    HW234971   1.240   4.463   5.081  0.0276 -0.1823  1.0782
 7837SOL     OW34972   4.605   3.014   5.720  0.0868 -0.3856  0.4154
 7837SOL    HW134973   4.688   2.978   5.751  0.7261 -0.4267 -1.3344
 7837SOL    HW234974   4.564   2.939   5.677 -1.3829  0.2256  0.7743
 7838SOL     OW34975   0.756   1.446   2.379  0.1817 -0.3113 -0.0187
 7838SOL    HW134976   0.750   1.485   2.292 -1.6935 -0.1856  0.1559
 7838SOL    HW234977   0.784   1.356   2.365  0.3860 -0.2560  0.0292
 7839SOL     OW34978   1.402   3.548   5.504 -0.3310 -0.2618 -0.3118
 7839SOL    HW134979   1.437   3.625   5.547 -2.5295  0.0215  0.9494
 7839SOL    HW234980   1.490   3.519   5.479 -0.5066 -1.1544  0.0983
 7840SOL     OW34981   2.355   4.129   8.057 -0.2622  0.2948 -0.3041
 7840SOL    HW134982   2.447   4.120   8.033 -0.3549  0.4792 -0.7263
 7840SOL    HW234983   2.328   4.051   8.009 -0.5257  1.4216 -1.9733
 7841SOL     OW34984   4.352   2.663   8.506 -0.4126 -0.1587  0.3717
 7841SOL    HW134985   4.289   2.598   8.475 -0.5485  0.7223 -1.2442
 7841SOL    HW234986   4.428   2.637   8.454 -0.2546  0.5832  0.2313
 7842SOL     OW34987   1.093   4.264   4.675 -0.3118 -0.1372 -0.4735
 7842SOL    HW134988   1.014   4.291   4.722 -0.5042  1.1105 -1.5257
 7842SOL    HW234989   1.072   4.173   4.652 -0.1287 -0.2925 -0.0387
 7843SOL     OW34990   3.870   1.284   6.854  0.2309  0.0703 -0.7862
 7843SOL    HW134991   3.861   1.332   6.771  2.7167  0.9811 -0.5270
 7843SOL    HW234992   3.959   1.250   6.864 -0.0817 -1.0119 -1.6580
 7844SOL     OW34993   3.588   1.879   6.855 -0.5975 -0.2309 -0.1531
 7844SOL    HW134994   3.639   1.949   6.896  0.5944  0.0882 -2.1284
 7844SOL    HW234995   3.504   1.918   6.830  0.0641  0.0624 -1.9404
 7845SOL     OW34996   4.685   1.017   9.039  0.2090  0.3179  0.7327
 7845SOL    HW134997   0.018   1.010   8.963 -0.0536  1.6278  0.4207
 7845SOL    HW234998   4.610   1.055   8.995 -0.5034 -1.4233  0.4337
 7846SOL     OW34999   3.162   2.045   2.874  0.0357  0.1718 -0.2846
 7846SOL    HW135000   3.235   1.988   2.851 -0.3494 -0.0036 -1.0520
 7846SOL    HW235001   3.131   2.005   2.955 -0.4688 -1.2877 -1.2014
 7847SOL     OW35002   1.077   2.544   2.311 -0.3286  0.1844  0.1271
 7847SOL    HW135003   1.056   2.609   2.378  1.3498  1.2560 -0.3666
 7847SOL    HW235004   1.065   2.598   2.234  4.1549  1.3889  0.2788
 7848SOL     OW35005   1.764   0.717   9.679 -0.2083  0.1242 -0.1687
 7848SOL    HW135006   1.737   0.806   9.699  2.1549  1.1992 -1.8540
 7848SOL    HW235007   1.722   0.667   9.750  0.9071 -1.1191 -0.3794
 7849SOL     OW35008   1.539   4.219   5.798  0.1313  0.3878  0.5509
 7849SOL    HW135009   1.599   4.151   5.829 -1.8131 -1.8845 -0.6533
 7849SOL    HW235010   1.520   4.268   5.878  0.1189 -0.7425  1.2422
 7850SOL     OW35011   2.004   2.775   7.390 -0.1678  0.0519 -0.2326
 7850SOL    HW135012   1.954   2.769   7.308  1.4116  0.3884 -1.2375
 7850SOL    HW235013   1.959   2.711   7.444 -3.2654  1.8670 -0.6227
 7851SOL     OW35014   4.289   1.711   6.671 -0.1319  0.4574 -0.4252
 7851SOL    HW135015   4.278   1.617   6.681 -0.9932  0.7292  1.1405
 7851SOL    HW235016   4.361   1.704   6.608 -1.1053 -0.5112 -1.4072
 7852SOL     OW35017   0.574   1.577   9.119  0.1316  0.3431  0.0032
 7852SOL    HW135018   0.568   1.616   9.206 -1.7059  0.0780  0.0052
 7852SOL    HW235019   0.667   1.555   9.121  0.1008  0.5019  2.3758
 7853SOL     OW35020   1.165   3.175   9.248  0.8435 -0.4964  0.3793
 7853SOL    HW135021   1.131   3.246   9.192 -1.8106 -2.7814 -0.9076
 7853SOL    HW235022   1.101   3.105   9.238 -1.1093  1.3263 -0.0469
 7854SOL     OW35023   2.528   1.137   6.406  0.1689  0.4637 -0.7484
 7854SOL    HW135024   2.471   1.167   6.336 -1.4905 -0.5043  0.2028
 7854SOL    HW235025   2.483   1.185   6.475 -0.3365  2.0793 -2.1861
 7855SOL     OW35026   1.209   0.469   0.965  0.1028  0.2609  0.2430
 7855SOL    HW135027   1.141   0.526   0.928  0.1093  1.0163  1.3964
 7855SOL    HW235028   1.170   0.434   1.045 -2.0199  0.6027 -0.6101
 7856SOL     OW35029   1.235   2.603   6.600 -0.1497 -0.1373  0.4821
 7856SOL    HW135030   1.289   2.681   6.595  0.3805 -0.6240 -1.6500
 7856SOL    HW235031   1.250   2.573   6.510 -2.8898 -1.6691  0.5206
 7857SOL     OW35032   0.185   0.055   5.425 -0.4134 -0.2384 -0.1481
 7857SOL    HW135033   0.232   0.019   5.350 -1.3108 -0.5590 -0.5708
 7857SOL    HW235034   0.228   0.009   5.497  0.1408 -0.8204 -0.8478
 7858SOL     OW35035   3.382   0.009   7.196 -0.2627  0.5665  0.3514
 7858SOL    HW135036   3.341   4.668   7.138 -0.4511  0.2520  0.8389
 7858SOL    HW235037   3.349   4.711   7.283 -0.8249  0.9263  0.2312
 7859SOL     OW35038   0.120   2.567   7.426 -0.0414 -0.4116  0.3296
 7859SOL    HW135039   0.073   2.544   7.345  1.4834 -0.8709 -0.4318
 7859SOL    HW235040   0.153   2.484   7.459 -1.3607 -1.3584 -0.6806
 7860SOL     OW35041   3.794   0.264  13.791  0.7048 -0.4209 -0.3643
 7860SOL    HW135042   3.767   0.173  13.786 -0.1456 -0.1849 -0.0243
 7860SOL    HW235043   3.774   0.275  13.884  1.4339  0.4043 -0.2993
 7861SOL     OW35044   0.770   3.435   2.240  0.3875  0.1992 -0.0149
 7861SOL    HW135045   0.725   3.515   2.214 -1.1374 -0.5551  0.3257
 7861SOL    HW235046   0.831   3.423   2.168  0.6996  0.7520  0.1563
 7862SOL     OW35047   1.948   1.652   2.269 -0.0984  0.0211  0.8639
 7862SOL    HW135048   1.855   1.667   2.287 -0.5054 -0.6911 -0.5959
 7862SOL    HW235049   1.956   1.573   2.323 -2.0031  0.4021  1.6979
 7863SOL     OW35050   2.922   2.101   4.138  0.5295  0.3238 -0.2942
 7863SOL    HW135051   2.985   2.096   4.066  0.3643  0.7037 -0.4686
 7863SOL    HW235052   2.976   2.105   4.216  1.4230 -1.8901 -0.8152
 7864SOL     OW35053   0.934   3.013  16.640 -0.1508 -0.6734 -0.0197
 7864SOL    HW135054   0.967   3.042  16.555  1.2504  0.5637  0.9449
 7864SOL    HW235055   0.884   2.933  16.625  0.7614 -1.1376 -0.5831
 7865SOL     OW35056   0.673   1.601   3.611  0.0522  0.1470 -0.2957
 7865SOL    HW135057   0.671   1.657   3.688 -1.9075 -0.0584 -0.1945
 7865SOL    HW235058   0.728   1.644   3.545 -0.4728  0.1685 -0.7146
 7866SOL     OW35059   3.872   2.448   5.905 -0.0200  0.2490  0.3688
 7866SOL    HW135060   3.910   2.525   5.862 -1.7408  1.2779  0.6961
 7866SOL    HW235061   3.784   2.476   5.930 -0.8195 -1.8137 -0.1607
 7867SOL     OW35062   3.257   4.539   7.032  0.2046 -0.3957 -0.1530
 7867SOL    HW135063   3.279   4.485   7.108  1.6202 -0.0821 -0.3494
 7867SOL    HW235064   3.276   4.467   6.972 -0.2186 -0.8893  0.3034
 7868SOL     OW35065   1.142   2.626   9.130 -0.2985 -0.1676  0.4069
 7868SOL    HW135066   1.047   2.613   9.131 -0.2371 -0.8361 -2.4485
 7868SOL    HW235067   1.157   2.621   9.035  2.0863  1.5359  0.6933
 7869SOL     OW35068   3.971   4.063  13.560 -0.6767  0.0411 -0.2101
 7869SOL    HW135069   3.905   4.063  13.629 -0.1899 -2.0001  0.2739
 7869SOL    HW235070   3.930   3.993  13.509  3.6661 -0.8788 -2.5049
 7870SOL     OW35071   3.831   3.258  14.352  0.7599 -0.4854 -0.0126
 7870SOL    HW135072   3.839   3.333  14.293 -3.2630  0.1715  0.2566
 7870SOL    HW235073   3.752   3.282  14.401  1.7812  2.1042  0.3179
 7871SOL     OW35074   3.850   1.476  11.129 -0.1385 -0.3163  0.0465
 7871SOL    HW135075   3.776   1.415  11.128  0.9568 -1.5993 -1.7805
 7871SOL    HW235076   3.916   1.416  11.096  0.3234  0.2820 -0.0967
 7872SOL     OW35077   0.449   1.426   2.206 -0.2550  0.0981 -0.0134
 7872SOL    HW135078   0.521   1.486   2.187  1.4616 -2.1357 -0.4295
 7872SOL    HW235079   0.382   1.490   2.231 -0.4481 -0.2607  0.3883
 7873SOL     OW35080   2.000   1.623   0.345  0.4884 -0.1623 -0.0220
 7873SOL    HW135081   1.999   1.560   0.417  0.2855  0.1121  0.2140
 7873SOL    HW235082   1.990   1.564   0.270 -0.2760 -0.6648  0.4764
 7874SOL     OW35083   3.793   1.746  16.575  0.2078  0.0919  0.0419
 7874SOL    HW135084   3.718   1.732  16.633  1.3822 -3.1535  0.7801
 7874SOL    HW235085   3.837   1.661  16.583 -1.5813 -0.8215  0.3321
 7875SOL     OW35086   1.246   1.442   7.547  0.0264  0.1263 -0.6288
 7875SOL    HW135087   1.182   1.508   7.574 -0.5596 -0.5103 -0.4646
 7875SOL    HW235088   1.324   1.488   7.577 -1.2282  1.6614  0.2739
 7876SOL     OW35089   2.426   3.475   4.247 -0.3800  0.3641  0.2211
 7876SOL    HW135090   2.417   3.404   4.184  1.5365 -2.5406  3.1775
 7876SOL    HW235091   2.518   3.497   4.232 -0.5420  0.8977  0.0218
 7877SOL     OW35092   0.896   2.799  12.446 -0.7999  0.2714 -0.1287
 7877SOL    HW135093   0.908   2.710  12.413 -0.9757 -0.0312  0.6247
 7877SOL    HW235094   0.853   2.837  12.369  0.6085  2.6635  0.2805
 7878SOL     OW35095   4.666   0.496  13.853 -0.2497 -0.6678  0.3679
 7878SOL    HW135096   4.686   0.589  13.843  1.0190 -0.9177  0.5727
 7878SOL    HW235097   4.583   0.494  13.806 -1.0874 -0.2958  1.8293
 7879SOL     OW35098   2.168   4.723   2.934 -0.1447  0.2758  0.4465
 7879SOL    HW135099   2.083   4.713   2.892  0.9896 -1.4203 -1.4342
 7879SOL    HW235100   2.140   0.003   3.025 -1.6354 -0.9604  0.0464
 7880SOL     OW35101   4.043   4.711   2.918 -0.4588 -0.1278  0.7426
 7880SOL    HW135102   3.992   4.640   2.879  2.3405 -1.1442 -1.0482
 7880SOL    HW235103   4.066   4.666   3.000  4.4907 -0.9162 -1.0935
 7881SOL     OW35104   3.450   1.796   3.227  0.4746  0.0888  0.1103
 7881SOL    HW135105   3.405   1.775   3.308  0.1835  0.1900 -0.0255
 7881SOL    HW235106   3.413   1.727   3.171 -0.7740 -1.6477  3.0617
 7882SOL     OW35107   4.296   0.371   4.182  0.1141 -0.6894  0.2312
 7882SOL    HW135108   4.249   0.290   4.204 -2.2291  0.8677  1.0128
 7882SOL    HW235109   4.272   0.382   4.090  1.0596  1.2566  0.2129
 7883SOL     OW35110   0.438   1.805   3.757 -0.9899 -0.2589  0.0025
 7883SOL    HW135111   0.401   1.771   3.676 -3.4922 -1.8399  1.8456
 7883SOL    HW235112   0.427   1.900   3.751  1.5985 -0.0335 -1.4927
 7884SOL     OW35113   0.573   1.320   2.780  0.3518  0.2239 -0.0673
 7884SOL    HW135114   0.624   1.242   2.759  0.1386 -0.2894  1.3245
 7884SOL    HW235115   0.491   1.272   2.792  0.3906 -0.3656 -2.2100
 7885SOL     OW35116   3.115   2.435   2.335 -0.1617 -0.0879 -0.2147
 7885SOL    HW135117   3.106   2.346   2.368  1.2415  0.2833  1.1465
 7885SOL    HW235118   3.208   2.428   2.315 -0.4828 -0.2480 -1.6460
 7886SOL     OW35119   0.430   2.719   5.344 -0.0158 -0.1125  0.3127
 7886SOL    HW135120   0.439   2.628   5.372 -0.2078  0.0979  1.0784
 7886SOL    HW235121   0.366   2.709   5.274 -1.2166  0.8630  1.2724
 7887SOL     OW35122   4.552   2.834  16.280 -0.3335 -0.2877  0.0023
 7887SOL    HW135123   4.497   2.910  16.296  0.1731  0.0487  0.1549
 7887SOL    HW235124   4.624   2.875  16.329 -0.3461 -0.4875  0.1872
 7888SOL     OW35125   4.560   0.030  17.206 -0.2750 -0.3055 -0.6104
 7888SOL    HW135126   4.563   0.116  17.165 -0.7842  1.1604  2.4219
 7888SOL    HW235127   4.552   4.695  17.132  2.2813  0.9988 -1.9617
 7889SOL     OW35128   1.219   2.159   2.630 -0.2914  0.5189 -0.0444
 7889SOL    HW135129   1.251   2.247   2.649 -0.1603  0.5292 -0.3156
 7889SOL    HW235130   1.183   2.162   2.542 -1.8651  0.7875  0.5938
 7890SOL     OW35131   0.415   0.741   8.447  0.0468 -0.0447  0.5554
 7890SOL    HW135132   0.368   0.729   8.529  3.5078 -0.3396  2.5014
 7890SOL    HW235133   0.493   0.685   8.445 -0.5412 -0.8299 -0.2776
 7891SOL     OW35134   4.620   0.033   8.198 -0.0743  0.2582  0.1318
 7891SOL    HW135135   4.612   0.050   8.292 -2.6613  0.8176 -0.1982
 7891SOL    HW235136   4.689   4.691   8.206 -0.8315 -0.6682 -1.1576
 7892SOL     OW35137   1.303   0.545   0.194 -0.4638 -0.1148 -0.1705
 7892SOL    HW135138   1.302   0.617   0.257  0.8125 -1.3652  1.2775
 7892SOL    HW235139   1.349   0.475   0.240  0.2639  1.5191  1.5774
 7893SOL     OW35140   1.419   1.019   0.934 -0.2155  0.5705  0.0717
 7893SOL    HW135141   1.444   1.001   1.024  0.2917  0.4700 -0.0906
 7893SOL    HW235142   1.326   1.041   0.945  0.0923  1.3507  1.1076
 7894SOL     OW35143   0.801   0.518   4.167 -0.1894  0.4246  0.2725
 7894SOL    HW135144   0.845   0.563   4.095  0.6652 -0.4702  0.2255
 7894SOL    HW235145   0.868   0.481   4.225 -0.3059  0.2388  0.2888
 7895SOL     OW35146   1.332   0.605  15.491 -0.1914 -0.2754  0.0764
 7895SOL    HW135147   1.281   0.562  15.422 -0.6248  0.0740  0.1774
 7895SOL    HW235148   1.335   0.540  15.561 -0.1665  0.1258  0.4459
 7896SOL     OW35149   0.157   3.298   4.055  0.5687 -0.4209  0.3102
 7896SOL    HW135150   0.230   3.240   4.032  0.3481  0.2561 -2.0972
 7896SOL    HW235151   0.154   3.290   4.150  0.0292  0.9589  0.4029
 7897SOL     OW35152   4.517   1.541   4.934 -0.2323  0.3903 -0.1459
 7897SOL    HW135153   4.516   1.525   5.028 -1.3432 -0.9837 -0.3980
 7897SOL    HW235154   4.502   1.635   4.947  1.5579  0.6001  0.4524
 7898SOL     OW35155   0.520   3.773   8.318  0.3429  0.8459 -0.3189
 7898SOL    HW135156   0.506   3.739   8.406 -0.4872  0.7414 -0.4909
 7898SOL    HW235157   0.446   3.834   8.319  1.4850  2.2204  0.9344
 7899SOL     OW35158   2.015   0.027  10.511  0.1848  0.3063 -0.6400
 7899SOL    HW135159   2.020   0.111  10.465 -2.2338 -0.3732 -2.1953
 7899SOL    HW235160   1.926   4.721  10.492  0.7985 -2.4935  0.9107
 7900SOL     OW35161   2.407   3.826  15.342 -0.0817 -0.2642  0.4621
 7900SOL    HW135162   2.366   3.741  15.323 -0.0753 -0.8266  3.0452
 7900SOL    HW235163   2.422   3.815  15.436 -0.3629  2.1720  0.7964
 7901SOL     OW35164   0.895   3.899   5.779  0.6265 -0.1420 -0.1145
 7901SOL    HW135165   0.966   3.839   5.755  0.8591  0.0262  0.1442
 7901SOL    HW235166   0.919   3.913   5.871 -0.7994 -0.4094  0.3025
 7902SOL     OW35167   1.894   0.727  11.107 -0.0165 -0.0225 -0.0200
 7902SOL    HW135168   1.909   0.738  11.201 -0.8537  1.1179 -0.0130
 7902SOL    HW235169   1.979   0.747  11.068  0.2367 -1.7068 -0.3283
 7903SOL     OW35170   0.318   4.355   8.397 -0.0743  0.0933  0.0622
 7903SOL    HW135171   0.249   4.302   8.357 -0.2291  0.6439 -0.3971
 7903SOL    HW235172   0.272   4.435   8.421  2.5919  2.0448 -1.3816
 7904SOL     OW35173   4.054   1.954   1.824  0.3716 -0.1640  0.1534
 7904SOL    HW135174   3.976   1.936   1.772  0.8566 -0.1726 -0.5756
 7904SOL    HW235175   4.039   2.048   1.836  1.0306 -0.1341  0.7318
 7905SOL     OW35176   0.414   3.424   4.703  0.4118  0.8522 -0.7767
 7905SOL    HW135177   0.395   3.344   4.753  3.1517  0.6111 -0.1478
 7905SOL    HW235178   0.424   3.494   4.767 -2.7934  2.4132 -1.9938
 7906SOL     OW35179   3.649   0.948   6.684 -0.1040  0.4075 -0.4649
 7906SOL    HW135180   3.661   0.994   6.768 -0.5767 -0.9300  0.3236
 7906SOL    HW235181   3.725   0.982   6.637 -0.6720  0.2478 -1.4905
 7907SOL     OW35182   0.602   3.087   1.875  0.1100  0.4579 -0.4900
 7907SOL    HW135183   0.565   3.175   1.877  1.0811  0.8767 -1.1551
 7907SOL    HW235184   0.549   3.059   1.800  1.2279 -0.0034 -1.1072
 7908SOL     OW35185   1.011   3.093   5.492 -0.9517  0.2834  0.2927
 7908SOL    HW135186   0.930   3.130   5.528 -0.1865  0.9051  1.3456
 7908SOL    HW235187   0.968   3.031   5.433 -1.0265 -0.4738  1.1477
 7909SOL     OW35188   2.687   3.321   2.866 -0.1763  0.4015 -0.1328
 7909SOL    HW135189   2.766   3.268   2.858 -1.3174 -1.6603  2.2387
 7909SOL    HW235190   2.730   3.399   2.831  1.5677  0.0612  1.3015
 7910SOL     OW35191   0.331   2.769   5.582  0.2963  0.6412  0.3478
 7910SOL    HW135192   0.346   2.713   5.658 -0.5927 -1.6985 -1.1950
 7910SOL    HW235193   0.396   2.754   5.512  0.3304  2.2083  0.0457
 7911SOL     OW35194   2.429   0.888   1.319 -0.3240 -0.4322 -0.4403
 7911SOL    HW135195   2.464   0.977   1.323  2.7264 -1.5152 -2.2512
 7911SOL    HW235196   2.355   0.895   1.258  1.4987 -1.1309 -2.7587
 7912SOL     OW35197   4.470   3.586   4.822 -0.0725  0.1218  0.0122
 7912SOL    HW135198   4.531   3.614   4.891 -0.2751  0.7640 -0.0712
 7912SOL    HW235199   4.401   3.651   4.836  0.3969  0.4854  0.6273
 7913SOL     OW35200   1.977   2.674   8.857  0.5740  0.1798 -0.3952
 7913SOL    HW135201   1.983   2.703   8.948 -0.5153  2.4795 -1.0550
 7913SOL    HW235202   2.044   2.606   8.850 -0.5505 -0.9342 -0.2221
 7914SOL     OW35203   3.345   1.781   2.626  0.0214 -0.4294 -0.1797
 7914SOL    HW135204   3.346   1.803   2.533  0.3561  1.1762  0.1963
 7914SOL    HW235205   3.374   1.867   2.657  0.1289 -0.8081  0.7664
 7915SOL     OW35206   3.407   0.249   3.575 -0.3904 -0.2461 -0.3442
 7915SOL    HW135207   3.395   0.344   3.577 -2.1351 -0.4963  1.1457
 7915SOL    HW235208   3.378   0.226   3.486 -0.2897  0.0436 -0.4532
 7916SOL     OW35209   3.208   0.055   1.812  0.6517  0.1872  0.0928
 7916SOL    HW135210   3.296   0.018   1.821  1.7082  2.7364  0.2814
 7916SOL    HW235211   3.172   0.052   1.900  0.0340 -1.8772 -0.2148
 7917SOL     OW35212   3.556   3.582   6.286 -0.0793  0.0981 -0.1554
 7917SOL    HW135213   3.566   3.490   6.261 -0.1327 -0.1789  0.8555
 7917SOL    HW235214   3.461   3.590   6.275 -0.3939 -0.5249  2.1790
 7918SOL     OW35215   2.291   3.891   2.411  0.1237  0.3295 -0.3608
 7918SOL    HW135216   2.272   3.814   2.465 -0.6046 -0.7291 -2.1003
 7918SOL    HW235217   2.291   3.847   2.325  1.2106 -0.7131  0.1687
 7919SOL     OW35218   1.929   0.914   6.292 -0.6713 -0.0997 -0.2953
 7919SOL    HW135219   1.847   0.870   6.271  0.3125 -1.6910 -0.7490
 7919SOL    HW235220   1.995   0.860   6.250 -0.4596  0.2249 -0.3820
 7920SOL     OW35221   3.981   3.891   7.763 -0.7562 -0.2852 -0.2039
 7920SOL    HW135222   3.912   3.844   7.810 -0.8675  0.0538 -0.0350
 7920SOL    HW235223   4.054   3.899   7.825  0.5670  1.2578 -1.9644
 7921SOL     OW35224   0.686   0.403   6.064  0.2492  0.0569 -0.2633
 7921SOL    HW135225   0.771   0.438   6.038  0.8719 -1.9261 -0.9691
 7921SOL    HW235226   0.656   0.368   5.979 -0.3131  1.1908 -0.5295
 7922SOL     OW35227   0.973   0.926   4.669  0.6874 -0.4578  0.1696
 7922SOL    HW135228   0.910   0.859   4.694  1.4041 -0.6316  1.4990
 7922SOL    HW235229   0.926   1.008   4.681 -1.2266 -1.5260 -0.0975
 7923SOL     OW35230   0.867   4.547   8.913 -0.4136 -0.8651 -0.2935
 7923SOL    HW135231   0.897   4.488   8.843 -0.2033  0.0638 -0.9849
 7923SOL    HW235232   0.921   4.623   8.891  0.0047 -1.3757 -1.0551
 7924SOL     OW35233   4.474   2.222   5.686  0.2070  0.2993 -0.6304
 7924SOL    HW135234   4.438   2.182   5.606  2.7840 -1.3404 -0.9586
 7924SOL    HW235235   4.554   2.172   5.704 -0.1059  0.2092  0.5091
 7925SOL     OW35236   0.127   4.399   7.785  0.3061 -0.2051  0.2360
 7925SOL    HW135237   0.211   4.416   7.742  0.1444 -1.5762 -0.6326
 7925SOL    HW235238   0.116   4.479   7.835  0.1058  0.0245 -0.1775
 7926SOL     OW35239   1.883   1.925   0.862  0.4255 -0.0134 -0.1231
 7926SOL    HW135240   1.874   1.984   0.937  0.7649  2.5355 -2.1047
 7926SOL    HW235241   1.879   1.995   0.798 -2.8264 -2.8782 -3.0430
 7927SOL     OW35242   1.239   1.100   5.748  0.0208 -0.1847  0.2461
 7927SOL    HW135243   1.212   1.183   5.710 -0.0018 -0.2226  0.1799
 7927SOL    HW235244   1.191   1.091   5.830 -0.8536 -1.1795 -0.3766
 7928SOL     OW35245   4.449   2.125  13.063 -0.6434  0.4095  0.5187
 7928SOL    HW135246   4.401   2.045  13.044  1.2205 -0.1409 -1.8122
 7928SOL    HW235247   4.380   2.190  13.077  1.0795  2.2324  0.6493
 7929SOL     OW35248   3.196   1.011   7.136 -0.6997  0.2917 -0.1171
 7929SOL    HW135249   3.144   0.969   7.205  1.5795  2.4255  2.9376
 7929SOL    HW235250   3.242   0.941   7.090 -1.1784 -0.2538  0.2284
 7930SOL     OW35251   3.022   4.605  10.325 -0.3230 -0.2247  1.0322
 7930SOL    HW135252   3.002   4.674  10.388  1.9533  0.4674  1.0018
 7930SOL    HW235253   2.941   4.554  10.328 -1.3974  1.4441  0.3048
 7931SOL     OW35254   4.283   4.393   4.235  0.7072 -1.2562 -0.3817
 7931SOL    HW135255   4.264   4.460   4.170 -0.5658 -0.2325  1.0576
 7931SOL    HW235256   4.351   4.346   4.186  0.4546 -1.7208 -0.2859
 7932SOL     OW35257   1.246   1.824   3.991 -0.0016  0.0337 -0.1601
 7932SOL    HW135258   1.248   1.731   3.969 -2.4309 -0.1052  0.2354
 7932SOL    HW235259   1.321   1.847   3.936  1.0532 -2.2424  0.3597
 7933SOL     OW35260   0.822   3.822   9.189 -0.0323  0.5633 -0.5545
 7933SOL    HW135261   0.783   3.892   9.242  0.4857  1.5245 -1.4544
 7933SOL    HW235262   0.904   3.817   9.238 -1.2121 -1.6451  1.2079
 7934SOL     OW35263   2.556   1.654   8.711 -0.4429  0.0503 -0.2789
 7934SOL    HW135264   2.505   1.638   8.790 -2.5711 -0.0653 -1.6728
 7934SOL    HW235265   2.561   1.748   8.730  2.0315 -0.2865  0.7097
 7935SOL     OW35266   1.792   1.194   0.700  0.1639  0.3962 -0.0488
 7935SOL    HW135267   1.762   1.181   0.610  0.7027  1.8497 -0.4404
 7935SOL    HW235268   1.730   1.260   0.730  0.3310  1.7060 -2.5724
 7936SOL     OW35269   1.062   1.431   8.553 -0.5799 -0.4399  0.1335
 7936SOL    HW135270   1.094   1.346   8.522  0.2097  0.1396 -0.6388
 7936SOL    HW235271   1.119   1.459   8.625  0.5272  2.0356 -1.6955
 7937SOL     OW35272   3.447   0.611   4.334  0.4466  0.2447 -0.1036
 7937SOL    HW135273   3.366   0.571   4.365  0.3231 -0.9776 -1.9874
 7937SOL    HW235274   3.478   0.538   4.281 -2.2365 -0.7770 -0.2139
 7938SOL     OW35275   1.309   1.271   6.570  0.0482  0.4089  0.0203
 7938SOL    HW135276   1.296   1.193   6.516  1.3591  0.9269 -1.0430
 7938SOL    HW235277   1.303   1.339   6.503 -1.0346  0.4793  0.1966
 7939SOL     OW35278   0.977   2.769  12.129 -0.1936 -0.2695  0.3808
 7939SOL    HW135279   0.884   2.773  12.108 -0.0118  1.1018 -0.1401
 7939SOL    HW235280   1.003   2.855  12.094 -1.5699  1.3414  3.3087
 7940SOL     OW35281   2.174   2.188   1.774  0.1864 -0.1013  0.1450
 7940SOL    HW135282   2.216   2.125   1.715 -0.8692 -1.3635  0.7132
 7940SOL    HW235283   2.248   2.234   1.813  1.5090 -0.4877 -1.9046
 7941SOL     OW35284   0.803   0.452   2.424  0.1913  0.4200 -0.0494
 7941SOL    HW135285   0.738   0.465   2.355  0.1039 -1.3136 -0.2924
 7941SOL    HW235286   0.763   0.488   2.503  2.1308  0.7345  0.7854
 7942SOL     OW35287   4.399   0.580  14.761  0.1282  0.0276  0.2644
 7942SOL    HW135288   4.458   0.555  14.832  1.0984  0.6175 -0.3286
 7942SOL    HW235289   4.322   0.614  14.806  0.3669 -0.7189  1.2358
 7943SOL     OW35290   4.085   0.343   9.344  0.2451  0.1454  0.0431
 7943SOL    HW135291   4.173   0.346   9.380 -0.0453  1.5081  0.6509
 7943SOL    HW235292   4.030   0.290   9.403  1.2094 -1.0093 -0.1136
 7944SOL     OW35293   2.068   1.344   5.012  0.4553  0.1076 -0.2536
 7944SOL    HW135294   2.103   1.338   5.101 -0.7716  0.8238  0.2765
 7944SOL    HW235295   2.073   1.439   4.998 -2.4591  0.0361 -1.7669
 7945SOL     OW35296   1.416   0.138   1.840 -0.2057  0.3570 -0.9274
 7945SOL    HW135297   1.365   0.185   1.774 -0.2980 -0.6264 -1.5574
 7945SOL    HW235298   1.496   0.189   1.853  1.2301 -1.5680 -2.1043
 7946SOL     OW35299   2.816   1.397  16.903 -0.4047 -0.5009 -0.3511
 7946SOL    HW135300   2.842   1.324  16.959 -1.1138 -1.2365 -0.9946
 7946SOL    HW235301   2.726   1.372  16.883 -0.3574  1.0474 -2.4719
 7947SOL     OW35302   0.918   2.741   3.286 -0.2449 -0.3229  0.1942
 7947SOL    HW135303   0.991   2.682   3.298  1.2302  1.5315  0.3678
 7947SOL    HW235304   0.947   2.823   3.327 -2.5369  1.0559 -0.9183
 7948SOL     OW35305   3.474   1.748   5.115 -0.0213 -0.3294 -0.1296
 7948SOL    HW135306   3.555   1.778   5.073  2.0151 -0.8484  3.4982
 7948SOL    HW235307   3.409   1.755   5.045  1.6919  2.3965 -1.4650
 7949SOL     OW35308   2.371   3.219   2.746  0.2576 -0.0776 -0.4775
 7949SOL    HW135309   2.312   3.259   2.682  1.2378  0.4514 -1.0501
 7949SOL    HW235310   2.373   3.290   2.809  1.5507  1.0976 -1.8446
 7950SOL     OW35311   1.803   2.527   6.212 -0.0962  0.5700  0.6535
 7950SOL    HW135312   1.786   2.620   6.225 -0.6427  0.8744 -2.1324
 7950SOL    HW235313   1.813   2.500   6.303  2.5031 -0.3014  0.0933
 7951SOL     OW35314   0.574   3.230   8.764 -0.2376 -0.2576 -0.0483
 7951SOL    HW135315   0.596   3.178   8.841 -0.1393  0.0337  0.1213
 7951SOL    HW235316   0.573   3.163   8.696  1.3707 -0.8840  0.5345
 7952SOL     OW35317   1.346   2.007   5.094 -0.0643 -0.0067  0.9352
 7952SOL    HW135318   1.313   2.094   5.074  1.0387  0.2029  0.0459
 7952SOL    HW235319   1.363   2.015   5.188  2.3712  1.6116  0.3444
 7953SOL     OW35320   1.262   1.827   2.242 -0.0672  0.2830 -0.1901
 7953SOL    HW135321   1.319   1.885   2.291  0.2353  0.0424 -0.2588
 7953SOL    HW235322   1.222   1.785   2.318 -0.3036 -1.7235 -1.4309
 7954SOL     OW35323   4.099   2.080  13.937  0.8842 -0.9051 -0.1380
 7954SOL    HW135324   4.119   2.001  13.887 -0.4457 -1.3829  0.0945
 7954SOL    HW235325   4.005   2.073  13.926  0.9797 -1.0686 -0.8833
 7955SOL     OW35326   0.877   4.358   6.134  0.2219 -0.1170 -0.6314
 7955SOL    HW135327   0.896   4.450   6.155  0.1282 -0.1031 -0.6110
 7955SOL    HW235328   0.871   4.323   6.222  0.5488  1.2174 -0.0827
 7956SOL     OW35329   4.437   2.145   7.805  0.2168  0.5762  0.1359
 7956SOL    HW135330   4.473   2.082   7.867 -0.2645 -0.1922 -0.3720
 7956SOL    HW235331   4.372   2.190   7.859  1.0488  0.2655  1.3954
 7957SOL     OW35332   4.311   4.319   3.335  0.2030  0.5156 -0.1835
 7957SOL    HW135333   4.324   4.388   3.400 -2.6503 -1.2700  2.2357
 7957SOL    HW235334   4.364   4.248   3.370  0.2262 -0.0117 -1.2838
 7958SOL     OW35335   2.459   1.469  14.621  0.3046 -0.6788 -1.0337
 7958SOL    HW135336   2.412   1.521  14.556 -0.2438 -1.3836 -1.2034
 7958SOL    HW235337   2.519   1.419  14.564  0.9531  0.2607 -1.1764
 7959SOL     OW35338   3.286   2.898  15.955 -0.4315  0.3332  0.2832
 7959SOL    HW135339   3.269   2.979  15.907 -2.4973 -0.1171  0.2299
 7959SOL    HW235340   3.342   2.927  16.026  0.3935  1.3224 -0.7678
 7960SOL     OW35341   4.632   2.564   7.173  0.1123  0.5732 -0.3873
 7960SOL    HW135342   4.618   2.615   7.253  2.0033  1.1953 -0.4693
 7960SOL    HW235343   4.548   2.519   7.165  2.2548 -3.2439 -1.2327
 7961SOL     OW35344   2.118   1.196   0.654  0.2023  0.8658 -0.0698
 7961SOL    HW135345   2.053   1.176   0.587  0.7316 -1.5050  0.1334
 7961SOL    HW235346   2.184   1.135   0.621  0.1144  0.3147  0.7869
 7962SOL     OW35347   4.307   1.952   7.312  0.1443  0.3367  0.0606
 7962SOL    HW135348   4.391   1.948   7.358 -0.1123 -0.3269  0.4791
 7962SOL    HW235349   4.266   2.014   7.372 -2.2580 -1.2731  0.1031
 7963SOL     OW35350   0.144   1.009   6.912  0.0620  0.2837  0.7070
 7963SOL    HW135351   0.105   0.957   6.841  0.3449  1.1180 -0.0651
 7963SOL    HW235352   0.231   1.011   6.873 -0.7158 -0.9031 -1.1398
 7964SOL     OW35353   3.705   0.045   7.238 -0.5769  0.4854 -0.0086
 7964SOL    HW135354   3.640   4.710   7.275 -0.1959  0.0969  0.0402
 7964SOL    HW235355   3.785   4.718   7.229 -0.8436  0.3471 -1.5672
 7965SOL     OW35356   3.448   2.466   9.720  0.2187  0.2239 -0.0204
 7965SOL    HW135357   3.359   2.444   9.693  0.2946 -0.5604  0.3777
 7965SOL    HW235358   3.437   2.557   9.747  1.1354 -0.1343  1.5604
 7966SOL     OW35359   3.082   2.439   7.488  0.1103  0.1708  0.2337
 7966SOL    HW135360   3.133   2.386   7.550 -0.2473  0.1358  0.4966
 7966SOL    HW235361   3.086   2.524   7.532  0.3933  0.8853 -1.1795
 7967SOL     OW35362   4.250   4.663   4.963  1.0050  0.0512 -0.6068
 7967SOL    HW135363   4.177   4.656   5.025  0.7944 -0.2260 -0.8872
 7967SOL    HW235364   4.250   0.031   4.936 -0.2047  0.2014 -0.1027
 7968SOL     OW35365   2.279   4.590  16.183 -0.2606 -0.1497 -0.8561
 7968SOL    HW135366   2.207   4.572  16.122 -1.9615 -0.7172  1.3361
 7968SOL    HW235367   2.300   4.679  16.156 -0.6461  0.6093  1.3791
 7969SOL     OW35368   2.586   4.414  17.423 -0.1699  0.4101  0.1995
 7969SOL    HW135369   2.639   4.417  17.503 -0.5557  0.3344  0.4592
 7969SOL    HW235370   2.634   4.480  17.373 -1.7652  1.0820 -0.4219
 7970SOL     OW35371   3.071   0.921   8.038  0.1588 -0.0123  0.0143
 7970SOL    HW135372   2.987   0.968   8.034  0.7988  1.0077 -1.2801
 7970SOL    HW235373   3.042   0.837   8.003 -0.2494  0.3757 -0.5784
 7971SOL     OW35374   1.409   1.629  11.627  0.6600  0.4179 -0.3570
 7971SOL    HW135375   1.359   1.683  11.689  1.4776 -1.4137  1.8979
 7971SOL    HW235376   1.340   1.602  11.566  0.6751 -0.8480  0.1718
 7972SOL     OW35377   4.017   3.538  13.291 -0.0237  0.2775 -0.3087
 7972SOL    HW135378   3.925   3.557  13.279 -0.9022 -3.9739 -0.4083
 7972SOL    HW235379   4.059   3.624  13.288 -1.6777  1.1725  2.1130
 7973SOL     OW35380   4.591   3.868  14.571  0.1702 -0.0469 -0.1837
 7973SOL    HW135381   4.568   3.822  14.490 -0.9612  2.1455 -1.1064
 7973SOL    HW235382   4.503   3.887  14.602  0.9897  0.9363  1.5485
 7974SOL     OW35383   4.444   3.264   6.137 -0.2231 -0.1073 -0.3805
 7974SOL    HW135384   4.493   3.238   6.059  0.9345 -0.4513  0.4451
 7974SOL    HW235385   4.459   3.191   6.198 -2.0775  1.7535  2.3210
 7975SOL     OW35386   2.823   3.611   5.090 -0.3258 -0.4716  0.3003
 7975SOL    HW135387   2.849   3.685   5.144  2.1779 -1.0035 -0.1726
 7975SOL    HW235388   2.908   3.584   5.057  0.3514  2.5198 -0.3760
 7976SOL     OW35389   2.043   3.108   8.967 -0.8306 -0.0086  0.1332
 7976SOL    HW135390   2.042   3.051   9.044  0.6154  1.2941  1.1085
 7976SOL    HW235391   1.961   3.093   8.919 -2.2064 -0.1606  2.4910
 7977SOL     OW35392   2.228   1.727   8.279  0.3276  0.6350 -0.4417
 7977SOL    HW135393   2.292   1.774   8.333 -0.6168  0.4566  0.8536
 7977SOL    HW235394   2.279   1.654   8.246 -0.5707 -0.9878  1.7847
 7978SOL     OW35395   2.140   3.365   9.100 -0.6853 -0.1595 -0.1196
 7978SOL    HW135396   2.111   3.282   9.061  0.1990 -1.4640  2.0734
 7978SOL    HW235397   2.213   3.383   9.041 -0.4089 -0.0299  0.2693
 7979SOL     OW35398   2.478   0.210   7.555  0.0887 -0.1886 -0.1016
 7979SOL    HW135399   2.398   0.236   7.600  0.0401 -3.2492  1.6086
 7979SOL    HW235400   2.503   0.138   7.614  0.9072 -0.7459 -1.1251
 7980SOL     OW35401   0.477   3.243   3.943  0.2958 -0.2423  0.0598
 7980SOL    HW135402   0.555   3.231   3.998  0.0414 -3.6026 -0.3088
 7980SOL    HW235403   0.422   3.167   3.960  0.0701  0.1222  0.9995
 7981SOL     OW35404   2.708   4.451   0.666 -0.2065 -0.2300 -0.0885
 7981SOL    HW135405   2.779   4.388   0.650 -1.9527 -2.4632  1.0438
 7981SOL    HW235406   2.758   4.532   0.677 -1.8351  0.7671 -0.0249
 7982SOL     OW35407   1.701   4.512   2.366 -0.5295 -0.0722 -0.3136
 7982SOL    HW135408   1.626   4.507   2.425 -1.8589  1.3357 -1.8914
 7982SOL    HW235409   1.766   4.499   2.435 -0.1883  1.6808 -0.3150
 7983SOL     OW35410   2.389   4.022  16.787 -0.2365 -0.2112 -0.3320
 7983SOL    HW135411   2.412   4.055  16.874 -0.7782 -0.0799 -0.2394
 7983SOL    HW235412   2.357   4.106  16.754 -1.0821  0.1904  1.5422
 7984SOL     OW35413   2.784   1.079   9.777  0.8549  0.4374  0.2618
 7984SOL    HW135414   2.789   0.997   9.728  1.3451  0.5744  0.0823
 7984SOL    HW235415   2.765   1.061   9.869  0.8578  0.9406  0.3611
 7985SOL     OW35416   3.318   1.322   2.960 -0.5581  0.0473  0.4162
 7985SOL    HW135417   3.385   1.366   2.907 -1.1754 -1.1936 -1.3821
 7985SOL    HW235418   3.235   1.344   2.918 -0.4160 -1.0281 -0.4353
 7986SOL     OW35419   3.528   3.911   2.822  0.2597  0.0769 -0.2671
 7986SOL    HW135420   3.496   3.996   2.850 -2.0376 -0.6325 -0.7030
 7986SOL    HW235421   3.534   3.926   2.727  2.5388 -0.4465 -0.2025
 7987SOL     OW35422   2.770   2.237  15.505  0.0177 -0.3774 -0.0310
 7987SOL    HW135423   2.861   2.265  15.492  0.3285 -1.3207  0.1525
 7987SOL    HW235424   2.726   2.320  15.523  0.2430 -0.1293 -0.6041
 7988SOL     OW35425   2.961   2.238   6.315 -0.0391 -0.3618  0.1136
 7988SOL    HW135426   2.932   2.163   6.366  0.2309 -0.3791  0.2439
 7988SOL    HW235427   2.953   2.193   6.230 -0.8585  0.8208 -0.4353
 7989SOL     OW35428   2.337   0.645   3.290 -0.2692  0.5489 -0.5204
 7989SOL    HW135429   2.403   0.576   3.294 -0.3863  0.5238  1.1747
 7989SOL    HW235430   2.289   0.635   3.373  0.4217  1.5369  0.0080
 7990SOL     OW35431   0.243   0.466   9.401  0.3144  0.3613 -0.0408
 7990SOL    HW135432   0.209   0.395   9.455 -0.9576  0.5087 -0.6568
 7990SOL    HW235433   0.162   0.497   9.360  0.7660 -1.5420 -2.3692
 7991SOL     OW35434   3.271   1.857   2.373 -0.5721 -0.1042  0.1546
 7991SOL    HW135435   3.183   1.837   2.406 -0.9064  0.0138 -0.6766
 7991SOL    HW235436   3.256   1.941   2.331  1.2229  0.2742  0.2835
 7992SOL     OW35437   0.596   0.464   2.196  0.1130  0.2400 -0.7111
 7992SOL    HW135438   0.513   0.419   2.184 -0.2847  0.3866  1.4022
 7992SOL    HW235439   0.568   0.556   2.197 -0.5645  0.0377 -1.7449
 7993SOL     OW35440   0.904   2.531   3.579 -0.5197  0.2282 -0.1185
 7993SOL    HW135441   0.866   2.602   3.630  1.8150 -0.2813  2.3071
 7993SOL    HW235442   0.832   2.515   3.517  0.8879  0.9312 -1.9128
 7994SOL     OW35443   4.170   4.024   8.290  0.6711 -0.1321  0.1196
 7994SOL    HW135444   4.098   4.034   8.353 -0.3490 -0.7325 -0.9538
 7994SOL    HW235445   4.158   4.109   8.248 -2.0214 -0.3370  0.4488
 7995SOL     OW35446   2.732   4.634   7.854 -0.7060  0.3701  1.1564
 7995SOL    HW135447   2.817   4.667   7.883 -1.6452  3.1654  0.7284
 7995SOL    HW235448   2.709   4.557   7.906  0.5412 -1.0011 -0.3273
 7996SOL     OW35449   4.448   3.696  16.417 -0.0772 -0.4674  0.1027
 7996SOL    HW135450   4.536   3.666  16.398 -0.8582 -3.2625  0.9001
 7996SOL    HW235451   4.403   3.637  16.357  0.0278 -1.8681  1.3888
 7997SOL     OW35452   1.176   2.975  12.218  0.6798  0.4457  0.2923
 7997SOL    HW135453   1.171   3.070  12.211 -3.6171  0.4188  2.9179
 7997SOL    HW235454   1.164   2.958  12.312  0.8644 -1.8851 -0.1001
 7998SOL     OW35455   0.353   1.563   8.165 -0.1113  0.1017 -0.5363
 7998SOL    HW135456   0.447   1.567   8.180  0.0024  1.0747 -1.4698
 7998SOL    HW235457   0.337   1.471   8.142  0.6960 -0.5942  1.7206
 7999SOL     OW35458   2.842   4.329  10.503  0.3676 -0.0361 -0.0970
 7999SOL    HW135459   2.810   4.389  10.435  1.7338  0.9969  0.1699
 7999SOL    HW235460   2.775   4.264  10.523 -0.6912  1.0383 -0.1363
 8000SOL     OW35461   0.451   1.109  17.261  0.2458  0.7166  0.1069
 8000SOL    HW135462   0.517   1.069  17.204 -0.5048  0.2636 -0.4543
 8000SOL    HW235463   0.382   1.048  17.236 -1.3473  1.9341  1.5761
 8001SOL     OW35464   1.302   0.900   1.923  0.0386  0.5690 -0.5430
 8001SOL    HW135465   1.312   0.969   1.990  1.4746  0.7667 -0.9709
 8001SOL    HW235466   1.302   0.820   1.976 -1.4668  0.2389 -1.0399
 8002SOL     OW35467   2.017   2.236  16.847  0.2820 -0.3982  0.2095
 8002SOL    HW135468   1.968   2.207  16.924  0.2997 -1.5240 -0.2012
 8002SOL    HW235469   2.075   2.302  16.885 -0.4650 -0.4294  1.4152
 8003SOL     OW35470   1.944   0.348   9.444  0.9781  0.0576 -0.8700
 8003SOL    HW135471   1.940   0.318   9.535  0.3363  1.1319 -0.5430
 8003SOL    HW235472   2.009   0.418   9.446  0.0681  0.8091  2.8080
 8004SOL     OW35473   1.582   4.251   8.308 -0.0765  0.1226 -0.0014
 8004SOL    HW135474   1.511   4.249   8.372  0.0348  0.4120  0.1295
 8004SOL    HW235475   1.656   4.236   8.367  0.1646 -0.2789 -0.4068
 8005SOL     OW35476   2.849   0.708   8.450 -0.6255 -0.1046 -0.1037
 8005SOL    HW135477   2.829   0.781   8.392 -0.5735  0.8984  1.1284
 8005SOL    HW235478   2.827   0.746   8.535 -0.0007 -0.0577  0.0350
 8006SOL     OW35479   1.423   3.202  14.980  0.1916  0.0401  0.3137
 8006SOL    HW135480   1.415   3.223  15.073 -1.3456  2.0145 -0.2673
 8006SOL    HW235481   1.417   3.107  14.974 -0.3271  0.2997 -3.3520
 8007SOL     OW35482   3.693   1.663   4.093 -0.5846  0.2334 -0.1179
 8007SOL    HW135483   3.663   1.597   4.156  1.3753  1.1888  1.7809
 8007SOL    HW235484   3.749   1.715   4.150  0.2758  0.0210 -0.7856
 8008SOL     OW35485   0.989   1.180   4.534  0.3581 -0.1186 -0.2332
 8008SOL    HW135486   0.915   1.218   4.582 -0.2685 -1.4282 -0.1631
 8008SOL    HW235487   0.943   1.123   4.473 -0.0291 -0.4100  0.3292
 8009SOL     OW35488   3.297   0.761  14.916  0.2042 -0.3598  0.4178
 8009SOL    HW135489   3.209   0.749  14.880  0.4815 -1.3453  0.0856
 8009SOL    HW235490   3.348   0.726  14.844  1.7822  1.5060  0.6171
 8010SOL     OW35491   2.053   2.427   6.795  0.4667  0.0596 -0.2932
 8010SOL    HW135492   2.057   2.438   6.890 -0.5868  0.0952 -0.2529
 8010SOL    HW235493   2.038   2.520   6.778  0.1043  0.1560  0.5733
 8011SOL     OW35494   1.997   2.373  12.822  0.3768  0.3051  0.0374
 8011SOL    HW135495   1.956   2.428  12.755  2.6595  1.1085 -0.6931
 8011SOL    HW235496   1.929   2.353  12.887 -0.0093 -1.8287 -1.0023
 8012SOL     OW35497   2.123   0.260   7.089 -0.0194 -0.6718 -0.0064
 8012SOL    HW135498   2.133   0.192   7.155  0.0706 -1.2476 -0.6187
 8012SOL    HW235499   2.184   0.327   7.121  1.0986 -0.7706 -1.8993
 8013SOL     OW35500   3.578   4.717   4.797 -0.5551  0.0928  0.4699
 8013SOL    HW135501   3.649   4.708   4.733 -1.8342  0.2615 -0.9653
 8013SOL    HW235502   3.524   4.638   4.789  1.2225 -1.0769 -0.0385
 8014SOL     OW35503   1.925   0.723   1.120  0.2360 -0.6724 -0.0821
 8014SOL    HW135504   1.830   0.720   1.126  0.2636 -0.1632  0.7386
 8014SOL    HW235505   1.944   0.773   1.200  0.9526 -1.6267  0.3347
 8015SOL     OW35506   2.011   1.139   5.658  0.3288  0.2040 -0.2246
 8015SOL    HW135507   1.949   1.068   5.643 -0.5114  1.2051 -1.4886
 8015SOL    HW235508   1.964   1.188   5.726 -0.5245 -0.9283 -0.0031
 8016SOL     OW35509   0.240   3.993   3.264  0.2011 -0.1291 -0.4807
 8016SOL    HW135510   0.291   3.916   3.288  0.5193  0.3643  0.3955
 8016SOL    HW235511   0.208   4.026   3.348  0.6429 -0.3044 -0.2434
 8017SOL     OW35512   1.462   4.521   3.338 -0.0252  0.5776  0.1645
 8017SOL    HW135513   1.476   4.596   3.280 -1.0533 -2.2225 -3.7545
 8017SOL    HW235514   1.418   4.455   3.284  0.9504 -1.6829  2.1012
 8018SOL     OW35515   2.984   1.328  17.245  0.4135 -0.1777  0.5685
 8018SOL    HW135516   2.951   1.316  17.156 -2.2313 -0.1274  1.5640
 8018SOL    HW235517   2.912   1.350  17.303 -1.0557  0.6279 -1.5727
 8019SOL     OW35518   0.776   2.832   5.044  0.1533  0.0255 -0.0887
 8019SOL    HW135519   0.748   2.923   5.054  1.0567  0.1513  1.1512
 8019SOL    HW235520   0.710   2.792   4.987  0.1416  0.4501 -0.3739
 8020SOL     OW35521   2.386   0.858   2.479 -0.3492 -0.2155  0.4677
 8020SOL    HW135522   2.314   0.919   2.461  1.5533  1.7513 -0.4504
 8020SOL    HW235523   2.361   0.835   2.569 -1.8368 -1.9027 -0.3721
 8021SOL     OW35524   4.710   3.638   4.984  0.4824  0.5790  0.3871
 8021SOL    HW135525   0.069   3.679   5.006  0.3671  1.2650 -0.4426
 8021SOL    HW235526   4.684   3.604   5.069  3.2868  0.3636  1.1761
 8022SOL     OW35527   3.635   0.130   0.825  0.4054 -0.0357 -0.4521
 8022SOL    HW135528   3.729   0.119   0.834  0.4295  0.4787 -0.0872
 8022SOL    HW235529   3.628   0.212   0.775  0.3700  1.6694  2.3861
 8023SOL     OW35530   2.828   0.363   7.717  0.3988  0.1486 -0.0174
 8023SOL    HW135531   2.822   0.336   7.625  2.5577 -1.5709  0.3405
 8023SOL    HW235532   2.923   0.365   7.730  0.9221 -1.2607 -3.4958
 8024SOL     OW35533   0.718   3.182   5.384  0.5651  0.0021 -0.4214
 8024SOL    HW135534   0.671   3.100   5.392  0.6399  0.0195  0.2132
 8024SOL    HW235535   0.710   3.205   5.476  1.0315 -1.7640  0.0563
 8025SOL     OW35536   1.821   3.644   3.693  0.6490  0.6644 -0.4971
 8025SOL    HW135537   1.858   3.635   3.781  0.9309  0.4570 -0.6356
 8025SOL    HW235538   1.850   3.729   3.661 -1.1811  1.6830  0.6119
 8026SOL     OW35539   0.283   2.705   3.907  0.2184  0.3152 -0.4856
 8026SOL    HW135540   0.214   2.642   3.886  1.2511 -0.7714 -0.6453
 8026SOL    HW235541   0.276   2.712   4.002  1.1205  0.4500 -0.4278
 8027SOL     OW35542   3.721   2.407   9.666  0.2848 -0.1094  0.6096
 8027SOL    HW135543   3.760   2.442   9.746 -1.3165 -1.6345  2.0515
 8027SOL    HW235544   3.630   2.435   9.675 -0.6203 -2.4601 -1.0654
 8028SOL     OW35545   3.719   1.409   7.892  0.1983 -0.0595  0.5796
 8028SOL    HW135546   3.719   1.502   7.869 -0.6030 -0.0329  0.6862
 8028SOL    HW235547   3.624   1.404   7.899  0.2480  0.1962  1.4585
 8029SOL     OW35548   0.102   4.089   6.548  0.0917  0.3967  0.4304
 8029SOL    HW135549   0.139   4.149   6.612  2.9667 -1.6340  0.6957
 8029SOL    HW235550   0.045   4.149   6.500  0.1639  1.5414  1.7754
 8030SOL     OW35551   3.784   0.103  15.656 -0.2757 -0.5336 -0.1661
 8030SOL    HW135552   3.700   0.059  15.669 -0.4704  0.3223  1.5564
 8030SOL    HW235553   3.812   0.066  15.573 -0.3078  0.0026 -0.4201
 8031SOL     OW35554   2.892   4.024  16.373 -0.0010 -0.0394  0.4934
 8031SOL    HW135555   2.805   4.015  16.334  0.5697 -0.1167 -0.7637
 8031SOL    HW235556   2.927   3.936  16.360 -2.0623 -0.6820 -0.7053
 8032SOL     OW35557   4.719   1.040   1.356  0.3939 -0.2093 -0.4349
 8032SOL    HW135558   4.667   1.049   1.437 -0.1495  0.7565 -0.8855
 8032SOL    HW235559   4.664   1.090   1.296  0.5110 -0.0189 -0.3815
 8033SOL     OW35560   3.090   1.483  11.608 -0.1874  0.1135  0.0642
 8033SOL    HW135561   3.148   1.421  11.652  0.0963  1.3589  1.4116
 8033SOL    HW235562   3.002   1.446  11.611 -0.1577  0.0705  0.3674
 8034SOL     OW35563   1.012   2.589  15.227 -0.5523  0.0166  0.2037
 8034SOL    HW135564   0.989   2.539  15.305  0.7897  0.0751  0.6352
 8034SOL    HW235565   1.083   2.530  15.200  0.6938  2.1256 -1.1690
 8035SOL     OW35566   1.087   4.069  11.788  0.1114 -0.1957 -0.4105
 8035SOL    HW135567   1.107   4.157  11.755 -0.0279  0.0467  0.1415
 8035SOL    HW235568   1.035   4.101  11.862 -2.1602 -1.9433 -1.2641
 8036SOL     OW35569   2.986   4.648   7.051 -0.1346  0.2470 -0.0824
 8036SOL    HW135570   3.058   4.607   7.100 -1.2696  0.1239  1.4619
 8036SOL    HW235571   2.987   4.599   6.968  0.2445  1.9204 -1.0544
 8037SOL     OW35572   4.390   2.292   5.017 -0.2141  0.2119 -0.1721
 8037SOL    HW135573   4.383   2.344   4.937 -1.4762  2.7296  1.5929
 8037SOL    HW235574   4.300   2.297   5.049 -0.3426  0.4172 -0.5622
 8038SOL     OW35575   4.168   0.802   6.080 -0.4943 -0.0762 -0.9380
 8038SOL    HW135576   4.231   0.730   6.078  1.0604  1.2313  1.2629
 8038SOL    HW235577   4.167   0.817   5.985 -0.3564  1.1639 -0.7458
 8039SOL     OW35578   0.055   3.470   7.938 -0.1180  0.0295  0.0480
 8039SOL    HW135579   4.724   3.505   8.007 -2.5437 -0.7721 -1.5010
 8039SOL    HW235580   0.015   3.499   7.856 -1.5650  1.2724  1.2047
 8040SOL     OW35581   3.754   1.156   8.807 -0.5197  0.2278 -0.4664
 8040SOL    HW135582   3.777   1.209   8.883 -2.3097 -0.1511  0.3268
 8040SOL    HW235583   3.696   1.223   8.770  1.4878  2.4660  0.4503
 8041SOL     OW35584   1.127   0.587  10.893  0.3133 -0.0056  0.3702
 8041SOL    HW135585   1.082   0.622  10.970  2.6452  0.9808  1.2602
 8041SOL    HW235586   1.059   0.538  10.847 -0.9233  0.2204  1.9462
 8042SOL     OW35587   1.155   0.643   6.159  0.7082  0.2669 -0.0765
 8042SOL    HW135588   1.176   0.724   6.205  0.6821 -0.5177  1.3371
 8042SOL    HW235589   1.136   0.672   6.070  1.0301  1.5182  0.2714
 8043SOL     OW35590   4.685   2.921   3.376  0.1397  0.7716  0.0254
 8043SOL    HW135591   4.698   2.852   3.441 -0.1459 -0.8308 -1.6364
 8043SOL    HW235592   4.640   2.884   3.301  2.5007  0.1035 -1.0378
 8044SOL     OW35593   2.961   3.588   7.220  0.0605  0.1373  0.2574
 8044SOL    HW135594   2.996   3.516   7.167 -1.7501 -2.1717  2.1660
 8044SOL    HW235595   3.021   3.660   7.200  0.7893 -0.7977 -0.9330
 8045SOL     OW35596   3.746   2.909   3.946 -0.7282  0.5689 -0.0009
 8045SOL    HW135597   3.753   2.920   4.041  2.1250  0.8041 -0.2328
 8045SOL    HW235598   3.764   2.816   3.940  2.6293  1.2959 -0.9686
 8046SOL     OW35599   0.878   1.056   1.593  0.0928 -0.2047 -0.4713
 8046SOL    HW135600   0.918   0.992   1.653 -0.1620  0.2555  0.1883
 8046SOL    HW235601   0.788   1.059   1.624  0.9473  4.2183  1.5314
 8047SOL     OW35602   0.778   3.387  12.775 -0.3955  0.1513 -0.2143
 8047SOL    HW135603   0.715   3.454  12.802  1.5926  1.3039  1.6176
 8047SOL    HW235604   0.769   3.385  12.680 -0.2842 -0.2573 -0.2173
 8048SOL     OW35605   1.608   1.390   6.351 -1.0467 -0.1517  0.1607
 8048SOL    HW135606   1.657   1.451   6.407 -1.4124 -1.4621  1.9287
 8048SOL    HW235607   1.668   1.371   6.280  0.0322 -2.1394  1.6190
 8049SOL     OW35608   0.969   0.924   7.301 -0.7394  0.4160 -0.6964
 8049SOL    HW135609   0.891   0.910   7.355 -0.0390  2.8597  0.9416
 8049SOL    HW235610   1.040   0.927   7.365 -1.1883  0.3787 -0.1988
 8050SOL     OW35611   3.734   2.579   7.396  0.0667  0.4164  0.1964
 8050SOL    HW135612   3.741   2.630   7.477  0.9799 -3.7256  2.7467
 8050SOL    HW235613   3.682   2.505   7.428  0.3330  1.2324  2.5125
 8051SOL     OW35614   3.994   2.019  11.660 -0.2574  0.6367  0.1468
 8051SOL    HW135615   3.903   2.029  11.632 -1.0757 -0.7025  2.3019
 8051SOL    HW235616   4.018   1.941  11.610  0.2006  0.3184  0.8586
 8052SOL     OW35617   1.265   3.013  11.287 -0.5624  0.2105 -0.3555
 8052SOL    HW135618   1.323   2.979  11.357  0.8839 -0.2892 -1.7902
 8052SOL    HW235619   1.328   3.013  11.215  0.1305 -0.8532  0.2447
 8053SOL     OW35620   3.680   2.595   5.724  0.0603  0.2932 -0.2096
 8053SOL    HW135621   3.772   2.593   5.697 -0.0526 -0.5378 -0.5199
 8053SOL    HW235622   3.637   2.538   5.661  3.7263 -2.9674  0.2834
 8054SOL     OW35623   1.289   0.207   6.378  0.0186  0.0410  0.2490
 8054SOL    HW135624   1.313   0.295   6.350  3.3478 -0.6541  0.9226
 8054SOL    HW235625   1.378   0.174   6.392  0.3431  1.5356  1.6222
 8055SOL     OW35626   1.736   1.892   2.380 -0.2312 -0.1366 -0.9082
 8055SOL    HW135627   1.722   1.981   2.411  1.6771 -0.0750 -0.2402
 8055SOL    HW235628   1.796   1.907   2.307 -1.4678 -3.2811 -2.5976
 8056SOL     OW35629   2.169   4.628   8.489  0.6800 -0.2155  0.6885
 8056SOL    HW135630   2.227   4.613   8.414 -2.3196 -0.0686 -1.6683
 8056SOL    HW235631   2.167   4.724   8.498 -0.3771 -0.1292 -0.5142
 8057SOL     OW35632   0.762   2.409   8.814 -0.0139  0.2740  0.3853
 8057SOL    HW135633   0.705   2.475   8.775 -1.9914 -1.3489  0.4593
 8057SOL    HW235634   0.729   2.410   8.904 -1.8520  1.6363 -0.3109
 8058SOL     OW35635   4.027   4.326   7.266 -0.7415 -0.0314  0.1516
 8058SOL    HW135636   4.045   4.410   7.225  0.9165  0.4382  1.8335
 8058SOL    HW235637   4.043   4.357   7.355  0.2919 -1.8844  0.6291
 8059SOL     OW35638   3.290   0.952   2.853  0.4314 -1.1406 -0.0496
 8059SOL    HW135639   3.323   0.955   2.763  1.0780  1.3633  0.2834
 8059SOL    HW235640   3.347   0.886   2.892  0.0801  0.4981  3.2109
 8060SOL     OW35641   1.205   3.354   5.374  0.1023 -0.1531  0.7752
 8060SOL    HW135642   1.221   3.339   5.280 -0.8740 -1.8069  0.8769
 8060SOL    HW235643   1.290   3.324   5.406 -0.1979 -0.7464  1.0096
 8061SOL     OW35644   1.015   3.675   0.133  0.5345  0.5146 -0.3264
 8061SOL    HW135645   1.014   3.653   0.040 -1.9312 -1.5191  0.1932
 8061SOL    HW235646   1.030   3.588   0.170 -2.9696  0.7854  1.7997
 8062SOL     OW35647   2.000   0.188  14.508  0.3317 -0.2685 -0.2262
 8062SOL    HW135648   2.000   0.120  14.442 -0.0366 -0.5845  0.1007
 8062SOL    HW235649   2.063   0.157  14.573  0.5534 -1.0747 -0.8361
 8063SOL     OW35650   3.817   4.531  11.052  0.1685 -0.2511  0.1341
 8063SOL    HW135651   3.825   4.553  10.960  1.1816 -1.9108 -0.1915
 8063SOL    HW235652   3.894   4.579  11.082  2.6033 -2.8785 -1.8449
 8064SOL     OW35653   3.724   0.582   5.459 -0.0019  0.3118 -0.2898
 8064SOL    HW135654   3.745   0.637   5.383  0.2236  0.0888 -0.3887
 8064SOL    HW235655   3.629   0.578   5.460  0.0250 -0.5693 -0.7838
 8065SOL     OW35656   4.527   2.963   1.912  0.3956 -0.1724  0.0687
 8065SOL    HW135657   4.511   2.985   2.004  0.4582 -2.2238  0.5630
 8065SOL    HW235658   4.547   2.870   1.904 -1.9466 -0.5738 -1.1488
 8066SOL     OW35659   2.615   4.406  12.816 -0.0023  0.5185  0.1431
 8066SOL    HW135660   2.663   4.488  12.805  0.0262  0.5047  0.1641
 8066SOL    HW235661   2.558   4.423  12.892 -2.2535 -2.3998 -0.8690
 8067SOL     OW35662   2.860   2.864   5.206 -0.1741  0.4539 -0.2328
 8067SOL    HW135663   2.768   2.839   5.201 -0.2524  0.5493  0.7248
 8067SOL    HW235664   2.867   2.875   5.300  0.5627  0.8766 -0.3384
 8068SOL     OW35665   4.435   2.775  12.557 -0.6312  0.3705 -0.0976
 8068SOL    HW135666   4.492   2.700  12.546 -1.6046 -0.3225 -0.4188
 8068SOL    HW235667   4.397   2.776  12.469  0.6602 -2.1440 -0.6597
 8069SOL     OW35668   0.560   2.584   7.771 -0.4451  0.4620  0.4068
 8069SOL    HW135669   0.606   2.513   7.726 -2.1764  0.9545 -2.1574
 8069SOL    HW235670   0.633   2.643   7.787  1.2985 -1.2892 -1.0912
 8070SOL     OW35671   0.635   4.475   9.044  0.2703  0.3124  0.0461
 8070SOL    HW135672   0.709   4.472   8.984 -1.0893 -0.7567 -1.5946
 8070SOL    HW235673   0.655   4.560   9.084  1.4811 -1.1284  2.4722
 8071SOL     OW35674   4.453   0.297  11.168 -0.5616 -0.1140 -0.2751
 8071SOL    HW135675   4.509   0.320  11.094 -1.3524  1.2287 -0.4551
 8071SOL    HW235676   4.523   0.312  11.231 -3.0156 -0.1883  2.5122
 8072SOL     OW35677   3.271   4.575   5.382  0.6990 -0.7000 -0.2022
 8072SOL    HW135678   3.298   4.629   5.308  0.5217  2.8130  2.2954
 8072SOL    HW235679   3.322   4.494   5.371  0.2038 -1.2732  1.6682
 8073SOL     OW35680   2.129   1.997   2.348  0.0531 -0.2639  0.0648
 8073SOL    HW135681   2.206   1.946   2.321 -0.8177 -1.6541  0.2151
 8073SOL    HW235682   2.100   2.031   2.263  0.3357  0.6275  0.3247
 8074SOL     OW35683   2.051   3.035   3.955  0.3804  0.2379 -0.1594
 8074SOL    HW135684   2.069   2.993   3.870  1.5488 -0.2894  0.3453
 8074SOL    HW235685   2.138   3.034   3.995  0.7645  1.0978 -0.9604
 8075SOL     OW35686   2.696   1.836   0.080 -0.2081  0.5170  0.2345
 8075SOL    HW135687   2.640   1.771   0.039  0.5139  1.3806 -2.1473
 8075SOL    HW235688   2.770   1.839   0.019 -0.4710 -0.4991 -0.1248
 8076SOL     OW35689   3.459   2.991   4.930  0.1303 -0.3670  0.1884
 8076SOL    HW135690   3.371   2.970   4.959  0.8923 -1.7433  1.5084
 8076SOL    HW235691   3.453   2.954   4.842  1.0611 -0.0348 -0.0147
 8077SOL     OW35692   0.236   2.086  10.456 -0.1753  0.5772  0.1125
 8077SOL    HW135693   0.298   2.017  10.479 -1.0026 -0.7026 -1.4915
 8077SOL    HW235694   0.251   2.149  10.527 -0.5996  0.9550 -0.1393
 8078SOL     OW35695   1.808   2.468   7.225  0.2382  0.2062 -1.0852
 8078SOL    HW135696   1.851   2.385   7.204  1.7122  0.8115 -0.3921
 8078SOL    HW235697   1.721   2.445   7.257  0.1407 -0.5041 -1.8485
 8079SOL     OW35698   4.338   3.841  14.679 -0.2789 -0.4154  0.6059
 8079SOL    HW135699   4.254   3.886  14.668 -0.0629  0.0007  0.6595
 8079SOL    HW235700   4.305   3.759  14.643  0.8040 -0.7201  0.3116
 8080SOL     OW35701   3.051   4.383   5.327  0.4630 -0.4265  0.3781
 8080SOL    HW135702   3.059   4.382   5.231  2.2102 -2.0545  0.5447
 8080SOL    HW235703   3.102   4.460   5.353 -0.9972 -0.2796  2.7944
 8081SOL     OW35704   3.591   1.490   5.075 -0.4228 -0.0923  0.2298
 8081SOL    HW135705   3.550   1.575   5.063  0.9800  0.7808  1.4866
 8081SOL    HW235706   3.682   1.506   5.049 -0.7063  0.8440 -0.1682
 8082SOL     OW35707   1.777   0.671   6.971  0.0585 -0.1141 -0.3060
 8082SOL    HW135708   1.868   0.698   6.954 -0.0256 -0.5789 -1.5289
 8082SOL    HW235709   1.788   0.577   6.986  1.2345  0.3858  1.9181
 8083SOL     OW35710   4.454   4.114   8.121 -0.4303  0.4112 -0.2721
 8083SOL    HW135711   4.372   4.134   8.166 -0.1083  0.1291  0.4351
 8083SOL    HW235712   4.515   4.182   8.147  0.9786  0.0226 -2.6167
 8084SOL     OW35713   3.931   4.131  16.263 -0.0550  0.2459 -0.3031
 8084SOL    HW135714   3.992   4.194  16.224  0.4031  1.4728  2.3765
 8084SOL    HW235715   3.860   4.193  16.279 -0.1946 -0.0083  0.0656
 8085SOL     OW35716   4.092   2.371   2.202  0.4332 -0.7002  0.0571
 8085SOL    HW135717   4.154   2.442   2.189 -1.8646  0.8557 -2.2782
 8085SOL    HW235718   4.026   2.391   2.136  0.3547  1.5864  0.8363
 8086SOL     OW35719   2.778   2.333   4.000  0.6584 -0.0990  0.0880
 8086SOL    HW135720   2.817   2.246   3.986 -3.3495 -1.9194  0.2696
 8086SOL    HW235721   2.775   2.343   4.096 -1.5426 -0.4203  0.0533
 8087SOL     OW35722   2.114   1.220   5.281  0.6074  0.1509  0.1062
 8087SOL    HW135723   2.208   1.210   5.295  0.3828 -0.0467  1.4182
 8087SOL    HW235724   2.074   1.138   5.310  0.1880  0.1511 -0.4595
 8088SOL     OW35725   4.384   2.081   3.376  0.9724  0.2889 -0.2818
 8088SOL    HW135726   4.462   2.091   3.431  0.8072  3.2063 -0.5880
 8088SOL    HW235727   4.362   2.172   3.354 -0.9217 -0.4391 -1.4212
 8089SOL     OW35728   0.052   0.698   5.616  0.2918  0.0573 -0.3376
 8089SOL    HW135729   4.698   0.650   5.591  0.1160 -0.4583  1.2254
 8089SOL    HW235730   0.026   0.785   5.586  1.3265  0.3249 -0.4886
 8090SOL     OW35731   2.582   3.984   0.312 -0.1929  0.3746 -0.2849
 8090SOL    HW135732   2.530   4.010   0.389 -1.3606 -2.0212 -0.2500
 8090SOL    HW235733   2.662   4.034   0.326 -0.1619  0.1782  0.2584
 8091SOL     OW35734   0.282   3.745   1.514 -0.4878 -0.3771 -0.4257
 8091SOL    HW135735   0.360   3.698   1.542  0.6754  0.1229 -2.8188
 8091SOL    HW235736   0.220   3.700   1.573 -0.1368 -0.8403 -0.4158
 8092SOL     OW35737   4.163   3.310   2.347  0.3508  0.0907  0.5184
 8092SOL    HW135738   4.253   3.303   2.380  1.1819 -1.0087 -2.0160
 8092SOL    HW235739   4.111   3.322   2.427 -0.5028  0.7896 -0.1420
 8093SOL     OW35740   2.475   3.236   6.012  0.1421 -0.4621 -0.3951
 8093SOL    HW135741   2.434   3.318   6.040  0.1994  0.5709 -3.2390
 8093SOL    HW235742   2.522   3.208   6.090  0.0692  0.2073 -0.1109
 8094SOL     OW35743   1.256   2.812  12.521 -0.5551  0.3259  0.1838
 8094SOL    HW135744   1.335   2.830  12.573 -0.8671 -0.4357  0.9186
 8094SOL    HW235745   1.210   2.895  12.512 -0.5257  0.1913 -1.1368
 8095SOL     OW35746   0.719   2.751   7.365  0.1031  0.1934 -0.4765
 8095SOL    HW135747   0.752   2.820   7.307  0.3374  2.1838  2.0207
 8095SOL    HW235748   0.785   2.768   7.432 -0.6141 -0.6917  0.4585
 8096SOL     OW35749   4.104   0.777   8.781  0.2535 -0.1660 -0.7362
 8096SOL    HW135750   4.036   0.844   8.769 -1.0996 -1.5773 -0.8874
 8096SOL    HW235751   4.050   0.699   8.788 -3.0358  2.0700 -0.9559
 8097SOL     OW35752   0.996   3.938  12.223  0.2122 -0.2381 -0.2781
 8097SOL    HW135753   1.083   3.972  12.199  0.1108  0.7967  0.8125
 8097SOL    HW235754   0.964   3.918  12.135  0.1414  0.1529 -0.3421
 8098SOL     OW35755   1.693   0.013  13.121  0.1939 -0.5691 -0.3345
 8098SOL    HW135756   1.742   0.095  13.124 -1.2254  0.2778 -0.3485
 8098SOL    HW235757   1.627   0.035  13.055 -0.4033  5.5082  2.2639
 8099SOL     OW35758   1.751   1.254   0.997  0.1117  0.4068  0.5294
 8099SOL    HW135759   1.688   1.304   0.946 -0.1192 -1.1143 -0.6819
 8099SOL    HW235760   1.830   1.306   0.982 -0.9515  3.0781  4.3204
 8100SOL     OW35761   0.715   2.963   8.352  0.5804 -0.0375  0.1523
 8100SOL    HW135762   0.709   3.037   8.412  0.1406 -0.2895  0.4223
 8100SOL    HW235763   0.780   2.993   8.289 -0.0632  1.9525  0.4291
 8101SOL     OW35764   0.857   1.327   6.007  0.0566  0.0304  0.2658
 8101SOL    HW135765   0.817   1.245   6.036  1.3349  0.7792  4.0953
 8101SOL    HW235766   0.799   1.394   6.042  1.7954  0.7847  1.7303
 8102SOL     OW35767   1.771   3.510  13.852  0.5224 -0.4241 -0.3093
 8102SOL    HW135768   1.750   3.479  13.940 -0.8311 -1.4942 -1.0071
 8102SOL    HW235769   1.688   3.514  13.805  0.2844  0.1402  0.1675
 8103SOL     OW35770   4.001   4.009   3.903  0.7206  0.2140 -0.1620
 8103SOL    HW135771   3.953   4.006   3.820  1.0660 -0.7117 -0.3208
 8103SOL    HW235772   3.945   4.056   3.965  0.9899  0.6558 -0.2560
 8104SOL     OW35773   1.778   3.756   6.091  0.1094  0.3457 -0.0134
 8104SOL    HW135774   1.725   3.805   6.028 -1.7827 -0.0010  1.3482
 8104SOL    HW235775   1.766   3.814   6.166  3.2569 -0.3024  0.9981
 8105SOL     OW35776   0.127   1.342  10.997  0.0240 -0.2240  0.0298
 8105SOL    HW135777   0.222   1.335  11.006 -0.0998  0.4346  1.8499
 8105SOL    HW235778   0.107   1.338  11.091  1.2048 -1.0922  0.2535
 8106SOL     OW35779   0.813   1.001   3.586 -0.5337  0.4890 -0.0172
 8106SOL    HW135780   0.789   1.089   3.614 -0.0885  0.6742 -0.2198
 8106SOL    HW235781   0.895   0.981   3.631 -1.5269 -0.9932  1.1362
 8107SOL     OW35782   0.265   0.148   3.932  0.4734 -0.6912  0.2290
 8107SOL    HW135783   0.347   0.179   3.893  0.7538 -0.8204  0.7230
 8107SOL    HW235784   0.229   0.100   3.857  0.3618  2.3301 -1.6597
 8108SOL     OW35785   0.365   2.810   7.729  0.1569 -0.1011  0.3647
 8108SOL    HW135786   0.439   2.750   7.728  0.6446  0.4899  1.0336
 8108SOL    HW235787   0.410   2.858   7.659  1.3546 -1.7154  0.0219
 8109SOL     OW35788   1.412   0.750   9.472  0.1117  0.0890 -1.1042
 8109SOL    HW135789   1.423   0.663   9.432  1.2662 -0.0108 -0.5529
 8109SOL    HW235790   1.442   0.741   9.562 -2.0176  3.4316 -0.0679
 8110SOL     OW35791   1.587   4.518   4.498  0.2378  0.4295  0.2912
 8110SOL    HW135792   1.548   4.455   4.558  1.0781  0.9781  1.4299
 8110SOL    HW235793   1.678   4.493   4.516  0.5433 -0.1367 -2.0369
 8111SOL     OW35794   2.625   2.702   4.921 -0.1942  0.3711  0.6247
 8111SOL    HW135795   2.606   2.743   5.005  1.9938 -1.0958  1.8155
 8111SOL    HW235796   2.660   2.780   4.877 -2.9482  0.1613 -1.9729
 8112SOL     OW35797   2.862   0.543  15.439  0.4568  0.5102 -0.3258
 8112SOL    HW135798   2.928   0.476  15.422 -2.5809 -2.4745 -0.4419
 8112SOL    HW235799   2.886   0.609  15.373  1.1695 -0.1698 -0.7451
 8113SOL     OW35800   1.295   3.046   7.939 -0.2010 -0.5829 -0.6055
 8113SOL    HW135801   1.281   3.104   7.865 -1.4607 -0.3693 -0.2084
 8113SOL    HW235802   1.279   3.097   8.019  2.8827 -0.5609 -0.0357
 8114SOL     OW35803   0.598   2.567   7.220 -0.1133  0.3144  0.3490
 8114SOL    HW135804   0.567   2.494   7.275  1.7676 -0.9594 -0.2732
 8114SOL    HW235805   0.644   2.623   7.283 -0.6924  2.4998 -1.1802
 8115SOL     OW35806   2.816   0.501  14.595  0.3292  0.2499  0.0370
 8115SOL    HW135807   2.830   0.466  14.683 -1.0308 -1.1972 -0.3348
 8115SOL    HW235808   2.893   0.556  14.578 -0.5634  1.1003 -1.2301
 8116SOL     OW35809   0.251   0.428   7.733 -0.0200  0.5843  0.4759
 8116SOL    HW135810   0.174   0.378   7.705  0.1877  0.8063 -0.4965
 8116SOL    HW235811   0.212   0.510   7.762 -1.8484  0.2548 -1.0249
 8117SOL     OW35812   1.870   1.946   1.266  0.0639  0.2314  0.5514
 8117SOL    HW135813   1.902   1.923   1.353  1.4818 -0.1151 -0.0565
 8117SOL    HW235814   1.811   2.019   1.283  0.3368  0.6026 -0.0795
 8118SOL     OW35815   2.768   3.579   3.242 -0.3179  0.3751  0.1048
 8118SOL    HW135816   2.680   3.615   3.236 -0.5876 -0.1832  0.6118
 8118SOL    HW235817   2.820   3.655   3.217  1.8244 -1.2572 -0.3801
 8119SOL     OW35818   0.884   4.439  15.883  0.5578 -0.1525 -0.1991
 8119SOL    HW135819   0.798   4.399  15.866  1.4133 -1.2440 -1.9748
 8119SOL    HW235820   0.902   4.503  15.815 -1.2179  0.7243  0.1654
 8120SOL     OW35821   2.949   4.630   2.241  0.1493  0.1339  0.8601
 8120SOL    HW135822   2.930   4.723   2.252 -0.3303  0.3171 -1.4058
 8120SOL    HW235823   2.899   4.609   2.162  2.3383 -1.2661 -0.1451
 8121SOL     OW35824   1.757   1.958   1.814  0.0923  0.6382 -0.6045
 8121SOL    HW135825   1.771   2.036   1.761  1.5564  0.7075 -0.1190
 8121SOL    HW235826   1.736   1.891   1.749  0.7584  0.1280 -0.2886
 8122SOL     OW35827   0.480   0.292  16.006  0.4668 -0.1544  0.3847
 8122SOL    HW135828   0.418   0.220  16.000 -0.5641  0.8841 -1.2257
 8122SOL    HW235829   0.447   0.360  15.948  1.8348  1.7242  1.8060
 8123SOL     OW35830   1.878   2.093   9.033  0.1434 -0.1576 -0.5052
 8123SOL    HW135831   1.793   2.121   9.067  1.2916  2.4490  0.2801
 8123SOL    HW235832   1.937   2.165   9.056  0.6452 -1.2851  1.6637
 8124SOL     OW35833   0.332   0.382   7.346 -0.1688  0.2225  0.0262
 8124SOL    HW135834   0.239   0.402   7.351 -0.4523 -0.7937 -1.0957
 8124SOL    HW235835   0.336   0.308   7.407 -0.2667 -0.2366 -0.5305
 8125SOL     OW35836   4.652   1.002  15.645  0.7420  0.0097 -0.7761
 8125SOL    HW135837   4.626   1.091  15.665 -1.0565 -0.6905  0.0150
 8125SOL    HW235838   4.669   0.996  15.551  2.0894  0.3048 -0.5567
 8126SOL     OW35839   2.968   3.682   1.496 -0.4254  0.1700  0.0029
 8126SOL    HW135840   2.941   3.739   1.424 -0.0172  0.3279 -0.0264
 8126SOL    HW235841   3.027   3.630   1.442 -0.8605 -0.1485 -0.1641
 8127SOL     OW35842   2.794   2.464   9.985  0.1983 -0.0942 -0.2090
 8127SOL    HW135843   2.761   2.536  10.038  1.4830  0.5210 -0.2330
 8127SOL    HW235844   2.875   2.500   9.948 -0.1094 -0.3902 -1.1782
 8128SOL     OW35845   4.716   2.515  17.697 -0.2535 -1.0413 -0.0392
 8128SOL    HW135846   0.059   2.583   0.003 -0.0767 -1.3087  1.1542
 8128SOL    HW235847   4.706   2.505  17.603  0.8806 -1.5373 -0.1158
 8129SOL     OW35848   4.647   0.928   5.504 -0.4058  0.1733  0.5997
 8129SOL    HW135849   4.610   0.933   5.415 -0.9534  1.4073  0.8889
 8129SOL    HW235850   4.633   1.021   5.525 -1.1565 -0.0106  0.9030
 8130SOL     OW35851   3.886   0.094   7.714 -0.1010  0.3666 -0.3678
 8130SOL    HW135852   3.937   0.019   7.744 -0.0586  2.4960  4.7534
 8130SOL    HW235853   3.931   0.118   7.632 -0.1194  0.7661 -0.2581
 8131SOL     OW35854   3.834   3.104   2.716 -0.7724  0.0727 -0.1880
 8131SOL    HW135855   3.842   3.168   2.787 -1.2015 -0.1616  0.0736
 8131SOL    HW235856   3.929   3.090   2.716 -0.6205  1.0004  2.2750
 8132SOL     OW35857   0.648   3.386   1.601  0.4862 -0.0801 -0.2002
 8132SOL    HW135858   0.652   3.324   1.528 -1.4027  1.1940 -1.4067
 8132SOL    HW235859   0.732   3.366   1.642 -0.8440 -1.2776  1.9233
 8133SOL     OW35860   2.083   4.016  17.313  0.4446 -0.0099  0.2854
 8133SOL    HW135861   2.121   4.011  17.401 -0.2710 -1.5725  0.5098
 8133SOL    HW235862   2.061   3.924  17.299 -0.5549  0.1792  0.6340
 8134SOL     OW35863   0.270   0.939  17.475 -0.0133 -0.1717 -0.1232
 8134SOL    HW135864   0.261   0.948  17.380  0.4151 -1.0034 -0.2402
 8134SOL    HW235865   0.190   0.891  17.493 -0.7752  0.7452 -1.0609
 8135SOL     OW35866   3.099   4.558   3.775  0.1826 -0.6024 -0.0588
 8135SOL    HW135867   3.071   4.484   3.720 -1.2302  0.5935 -0.9480
 8135SOL    HW235868   3.014   4.601   3.787  0.0411 -1.1924  1.0271
 8136SOL     OW35869   3.817   2.918   8.681 -0.1761 -0.2174  0.0924
 8136SOL    HW135870   3.850   2.828   8.681  1.1094  0.2426 -1.0663
 8136SOL    HW235871   3.745   2.907   8.619 -1.0187 -1.2244  1.2552
 8137SOL     OW35872   1.457   0.798   0.423 -1.1069 -0.4755  0.4533
 8137SOL    HW135873   1.421   0.886   0.436  1.4505  0.7109 -0.4340
 8137SOL    HW235874   1.505   0.807   0.340 -0.8850 -0.1049  0.6192
 8138SOL     OW35875   2.493   2.937   6.259  0.0071  0.1418 -0.3223
 8138SOL    HW135876   2.549   2.900   6.327  1.7145  0.9612 -1.2819
 8138SOL    HW235877   2.554   3.002   6.226  1.0482  0.3255  1.9577
 8139SOL     OW35878   3.752   3.308   4.105  0.2087  0.1923 -0.2500
 8139SOL    HW135879   3.692   3.380   4.086  0.4356  0.3915 -0.2116
 8139SOL    HW235880   3.837   3.352   4.106  0.1642  0.2516  0.4682
 8140SOL     OW35881   3.352   0.851   3.560  0.1972 -0.4854  0.1826
 8140SOL    HW135882   3.351   0.909   3.484 -1.8934 -3.1683 -1.8297
 8140SOL    HW235883   3.441   0.847   3.595 -0.1569 -0.1706  1.1463
 8141SOL     OW35884   2.181   1.410   3.425  0.2935 -0.1735  0.4676
 8141SOL    HW135885   2.210   1.420   3.335 -1.5190 -0.3858 -0.1378
 8141SOL    HW235886   2.097   1.455   3.416 -0.3070 -1.7756 -1.8841
 8142SOL     OW35887   2.196   2.857   0.792 -0.5201 -0.2960 -0.1930
 8142SOL    HW135888   2.105   2.842   0.816  0.1912 -1.1159  2.0556
 8142SOL    HW235889   2.233   2.771   0.810  0.3210 -0.0152 -0.5454
 8143SOL     OW35890   4.189   3.396   6.664  0.0356  0.1574 -0.1852
 8143SOL    HW135891   4.231   3.414   6.748  2.1171 -0.3759 -1.1108
 8143SOL    HW235892   4.264   3.364   6.614  0.4828  0.7775  0.0918
 8144SOL     OW35893   1.458   2.551  12.461  0.1372 -0.3480  0.2723
 8144SOL    HW135894   1.476   2.517  12.374 -0.8780  1.1842 -0.5511
 8144SOL    HW235895   1.363   2.553  12.458  0.1220 -1.7176  0.1351
 8145SOL     OW35896   0.164   2.632   6.856  0.0837 -0.0551 -0.1165
 8145SOL    HW135897   0.221   2.627   6.933 -2.2268 -0.6470  1.5674
 8145SOL    HW235898   0.080   2.627   6.902  1.7882 -0.5502  2.9182
 8146SOL     OW35899   0.939   1.365  14.575 -0.3116 -0.0353 -0.1250
 8146SOL    HW135900   1.007   1.361  14.643  0.1204  1.6253 -0.4680
 8146SOL    HW235901   0.987   1.423  14.516 -3.6833  1.6491 -1.2062
 8147SOL     OW35902   3.351   4.651   3.805 -0.0259 -0.7842 -0.2435
 8147SOL    HW135903   3.367   4.582   3.870  0.3528 -0.5479 -0.0907
 8147SOL    HW235904   3.266   4.612   3.784 -0.4671  0.2135 -0.3313
 8148SOL     OW35905   4.326   3.547   0.723  0.4129 -0.0270 -0.0422
 8148SOL    HW135906   4.317   3.566   0.630  0.5564 -1.1767 -0.2796
 8148SOL    HW235907   4.414   3.580   0.741  1.0407 -1.5421 -0.3583
 8149SOL     OW35908   2.982   4.301   5.606  0.3193 -0.0755  0.0677
 8149SOL    HW135909   3.063   4.250   5.608 -1.1364 -2.3727 -0.2826
 8149SOL    HW235910   2.991   4.341   5.520 -0.7247 -1.7599 -0.8255
 8150SOL     OW35911   1.258   0.400  15.294 -0.3216  0.1321 -0.6602
 8150SOL    HW135912   1.285   0.413  15.203 -0.9079  4.0654 -0.2642
 8150SOL    HW235913   1.338   0.364  15.332  0.2089  0.8116 -1.1280
 8151SOL     OW35914   0.492   3.377   1.809  0.8478 -0.0662 -0.3493
 8151SOL    HW135915   0.545   3.371   1.729  0.9063  0.4895 -0.3553
 8151SOL    HW235916   0.521   3.460   1.846 -3.7857  0.9179  1.0717
 8152SOL     OW35917   1.449   3.535  10.240 -0.1888  0.1843  0.1680
 8152SOL    HW135918   1.397   3.612  10.263  1.0788  1.4262 -1.1001
 8152SOL    HW235919   1.390   3.493  10.177 -1.6554  0.5544  1.3023
 8153SOL     OW35920   1.695   0.719   0.541 -0.3784  0.1680 -0.3558
 8153SOL    HW135921   1.730   0.675   0.463 -0.7626  1.4889 -1.2744
 8153SOL    HW235922   1.610   0.738   0.502 -0.2256  2.7856  0.5892
 8154SOL     OW35923   1.849   0.415   2.018  0.2708 -0.0250  0.0161
 8154SOL    HW135924   1.858   0.428   1.923 -1.7975 -0.3666 -0.2370
 8154SOL    HW235925   1.942   0.416   2.040 -0.4883 -1.3381  3.1982
 8155SOL     OW35926   1.995   3.340   6.742 -0.0775 -0.1055  0.4620
 8155SOL    HW135927   1.993   3.327   6.647 -0.5020  1.5480  0.2547
 8155SOL    HW235928   1.936   3.415   6.745 -1.0336 -0.8002 -0.9811
 8156SOL     OW35929   0.068   4.362  10.703  0.1648  0.7197 -0.0135
 8156SOL    HW135930   4.696   4.356  10.701  0.1358  0.9514  0.7674
 8156SOL    HW235931   0.091   4.333  10.614  1.5288 -0.7137  0.8097
 8157SOL     OW35932   1.622   0.593   2.066 -0.1461  0.3301 -0.1704
 8157SOL    HW135933   1.623   0.678   2.022  1.4709 -0.1761 -1.1098
 8157SOL    HW235934   1.688   0.542   2.020 -0.8507 -2.1135  1.5402
 8158SOL     OW35935   1.677   4.494  10.392 -0.0749  1.0320  0.0742
 8158SOL    HW135936   1.591   4.528  10.366 -1.7405 -2.0912  1.4464
 8158SOL    HW235937   1.703   4.563  10.452  2.9542  0.2750 -0.3723
 8159SOL     OW35938   3.400   1.632   5.396  0.1648 -0.0975 -0.1197
 8159SOL    HW135939   3.353   1.706   5.434 -0.5901  0.6553 -2.5243
 8159SOL    HW235940   3.437   1.675   5.319  0.9340  0.5347  0.5895
 8160SOL     OW35941   1.932   1.604  15.185 -0.2090  0.2660  0.5133
 8160SOL    HW135942   1.843   1.628  15.213 -0.1334  1.8197 -0.6321
 8160SOL    HW235943   1.962   1.530  15.238 -0.5752  0.0997  0.4938
 8161SOL     OW35944   4.448   2.442   7.476 -0.4743 -0.4947  0.7092
 8161SOL    HW135945   4.507   2.513   7.503 -2.4121  0.7501  1.6446
 8161SOL    HW235946   4.411   2.469   7.393 -0.2981 -0.7551  0.5438
 8162SOL     OW35947   2.888   2.961   5.480 -0.1569  0.0360 -0.3626
 8162SOL    HW135948   2.958   2.896   5.484 -0.0268  0.3418  1.7898
 8162SOL    HW235949   2.915   3.017   5.553  1.5891  1.3049 -1.9762
 8163SOL     OW35950   3.869   0.860  14.982 -0.1786 -0.1786 -0.1862
 8163SOL    HW135951   3.840   0.788  15.038 -1.8856  1.7066  1.3149
 8163SOL    HW235952   3.895   0.822  14.898 -1.6384  0.1601 -0.7876
 8164SOL     OW35953   2.399   1.205   6.171 -0.0862 -0.3415  0.0570
 8164SOL    HW135954   2.386   1.213   6.077  2.5314 -0.2681 -0.2774
 8164SOL    HW235955   2.318   1.251   6.196 -0.1488  0.8323 -2.3313
 8165SOL     OW35956   3.167   2.802   8.021  0.2347  0.0804  0.3023
 8165SOL    HW135957   3.199   2.764   7.939  1.5848 -1.2902  1.4828
 8165SOL    HW235958   3.100   2.864   7.992  0.9379 -0.4277 -2.4285
 8166SOL     OW35959   0.694   3.823   8.863 -0.3144 -0.1978 -0.4470
 8166SOL    HW135960   0.602   3.840   8.887 -0.8228 -0.2869 -2.3381
 8166SOL    HW235961   0.738   3.899   8.902  0.8328 -1.3697  0.5389
 8167SOL     OW35962   3.604   0.623  17.111 -0.2321 -0.5705 -0.4728
 8167SOL    HW135963   3.512   0.647  17.109 -0.5218 -1.4509  2.2414
 8167SOL    HW235964   3.629   0.637  17.020  1.5213  1.3143  0.2774
 8168SOL     OW35965   3.657   0.990   8.335 -0.2830  0.1358 -0.1855
 8168SOL    HW135966   3.739   1.029   8.367  0.4218  0.9958 -3.0401
 8168SOL    HW235967   3.669   0.970   8.243  1.2620  0.3892 -0.0474
 8169SOL     OW35968   1.774   3.409  15.728  0.1252  0.1243  0.0228
 8169SOL    HW135969   1.686   3.434  15.757  1.1605  1.2064  2.2313
 8169SOL    HW235970   1.789   3.330  15.780 -3.4996 -0.5439  0.0836
 8170SOL     OW35971   0.827   1.467  13.220 -0.1350  0.2027  0.4846
 8170SOL    HW135972   0.852   1.391  13.272 -0.9581 -0.2246  0.2556
 8170SOL    HW235973   0.740   1.446  13.186  0.0116  0.0860  0.1808
 8171SOL     OW35974   0.345   4.255   6.976 -0.0915 -0.2483 -0.0181
 8171SOL    HW135975   0.304   4.340   6.996 -0.0773 -0.3735  0.5468
 8171SOL    HW235976   0.432   4.267   7.014 -0.7565 -0.3828  1.5743
 8172SOL     OW35977   3.538   0.491   7.070  0.0289  0.3485 -0.1161
 8172SOL    HW135978   3.500   0.441   7.142 -1.7115 -0.3794 -1.5325
 8172SOL    HW235979   3.500   0.436   7.001  1.5969  0.1584 -0.8186
 8173SOL     OW35980   1.773   3.768  11.374 -0.3770  0.1660 -0.0421
 8173SOL    HW135981   1.717   3.845  11.383 -0.9056 -0.3323  0.9920
 8173SOL    HW235982   1.849   3.790  11.321  1.5533 -1.0043  2.2153
 8174SOL     OW35983   4.447   3.020  15.087 -0.4251  0.1479 -0.2637
 8174SOL    HW135984   4.506   3.031  15.161 -0.6981 -1.2328  0.1478
 8174SOL    HW235985   4.481   3.098  15.043  0.5230 -0.4814 -0.6460
 8175SOL     OW35986   3.773   3.754   6.377  0.5057  0.2374 -0.7339
 8175SOL    HW135987   3.696   3.698   6.368  0.9804 -0.5114 -0.1620
 8175SOL    HW235988   3.842   3.696   6.410  2.0638  1.2860 -2.1232
 8176SOL     OW35989   4.220   1.653  14.530  0.6949  0.2503 -0.4379
 8176SOL    HW135990   4.143   1.600  14.549  0.4037  0.3563 -1.3296
 8176SOL    HW235991   4.188   1.735  14.493  0.2264  0.0026 -0.5792
 8177SOL     OW35992   1.477   2.067   2.545 -0.3730  0.0611 -0.2539
 8177SOL    HW135993   1.466   2.048   2.451 -0.8603 -1.5593  0.1240
 8177SOL    HW235994   1.410   2.136   2.548  1.2336  1.5912  0.0596
 8178SOL     OW35995   2.600   3.428  12.298 -1.1356  0.1403 -0.3544
 8178SOL    HW135996   2.620   3.457  12.209  0.3379  0.5194  0.0990
 8178SOL    HW235997   2.688   3.396  12.313 -0.5176  1.1751 -1.7000
 8179SOL     OW35998   2.177   3.337   8.119  0.0776  0.1454 -0.1175
 8179SOL    HW135999   2.243   3.344   8.188  0.2552  2.1466 -0.4961
 8179SOL    HW236000   2.128   3.262   8.153  1.7896 -0.2716  1.4358
 8180SOL     OW36001   2.267   0.148   3.794  0.6096 -0.5894  0.2114
 8180SOL    HW136002   2.197   0.159   3.730  2.1160 -2.1351 -1.7005
 8180SOL    HW236003   2.251   0.060   3.829  0.4067 -0.2807  0.8913
 8181SOL     OW36004   0.782   2.880   1.260 -0.2891 -0.2866 -0.6883
 8181SOL    HW136005   0.694   2.916   1.246 -0.7468 -1.3381 -0.5314
 8181SOL    HW236006   0.784   2.799   1.210  0.1736  1.2428 -3.1357
 8182SOL     OW36007   2.276   3.078   6.970  0.7405 -0.1077 -0.1646
 8182SOL    HW136008   2.191   3.123   6.971  0.5353 -0.4469 -1.5918
 8182SOL    HW236009   2.272   3.038   7.057 -4.7962 -4.4155 -2.3076
 8183SOL     OW36010   4.410   4.637   9.299  0.6300  0.3528  0.0361
 8183SOL    HW136011   4.359   4.703   9.346  1.8556  1.1828  0.1943
 8183SOL    HW236012   4.420   4.578   9.374  0.2396  0.7293  0.3832
 8184SOL     OW36013   1.151   3.373  17.291  0.1037  0.8255  0.0944
 8184SOL    HW136014   1.226   3.366  17.349  1.3692 -0.5817 -1.7118
 8184SOL    HW236015   1.135   3.281  17.270 -0.0416  1.2216 -1.5786
 8185SOL     OW36016   4.407   1.162   3.477  0.2237 -0.2671 -0.3913
 8185SOL    HW136017   4.494   1.157   3.515  0.6120 -0.2516 -1.2817
 8185SOL    HW236018   4.347   1.108   3.528 -0.5688 -0.7860 -1.8785
 8186SOL     OW36019   3.715   2.481   3.713 -0.3448  0.6759  0.1526
 8186SOL    HW136020   3.784   2.546   3.730  0.0101 -0.2278  2.2116
 8186SOL    HW236021   3.730   2.423   3.788  0.0778  0.8205  0.1810
 8187SOL     OW36022   3.254   1.424   0.896  0.1591  0.1446  0.1551
 8187SOL    HW136023   3.276   1.372   0.972 -1.5751 -0.0631  0.5063
 8187SOL    HW236024   3.341   1.439   0.857  0.1764  0.9040  0.4762
 8188SOL     OW36025   1.915   1.065   4.985 -0.2671  0.4317 -0.3668
 8188SOL    HW136026   1.981   1.101   5.044 -1.2955  2.2497 -0.3420
 8188SOL    HW236027   1.960   1.003   4.927  0.5420  0.5135  0.1862
 8189SOL     OW36028   2.433   2.339   2.654  0.6979  0.0269  0.3668
 8189SOL    HW136029   2.384   2.272   2.702 -0.3600 -2.9778 -4.8552
 8189SOL    HW236030   2.491   2.368   2.724 -0.4743  1.3885  0.7617
 8190SOL     OW36031   1.118   0.206   8.580 -0.0587 -0.5257 -0.4761
 8190SOL    HW136032   1.125   0.296   8.548  0.2571 -0.8923 -1.4677
 8190SOL    HW236033   1.033   0.193   8.622 -0.5525 -1.7901 -1.8303
 8191SOL     OW36034   4.556   1.944   1.682  0.2415 -0.3467 -0.3160
 8191SOL    HW136035   4.607   1.866   1.661  0.4533 -1.3738  4.0612
 8191SOL    HW236036   4.575   1.994   1.602 -0.1314 -0.1621 -0.2888
 8192SOL     OW36037   2.732   0.972   3.824 -0.2228 -0.2478  0.1117
 8192SOL    HW136038   2.790   0.921   3.880  0.7041  0.5951 -0.0789
 8192SOL    HW236039   2.771   0.958   3.738 -1.3192  1.5014 -0.6886
 8193SOL     OW36040   0.943   3.196   3.778 -0.0960  0.3640 -0.1996
 8193SOL    HW136041   0.938   3.290   3.759 -0.8567  0.0494 -1.5730
 8193SOL    HW236042   0.985   3.195   3.864  1.2036 -1.4471 -0.8436
 8194SOL     OW36043   3.407   3.370   3.044  0.0415  0.2746  0.1809
 8194SOL    HW136044   3.347   3.319   3.100 -0.4588  1.1518  0.4472
 8194SOL    HW236045   3.364   3.353   2.960 -0.6839 -1.7344  0.9420
 8195SOL     OW36046   1.746   4.277   4.557  0.2511 -0.2616 -0.2422
 8195SOL    HW136047   1.686   4.212   4.521  2.0348 -1.9211 -0.1862
 8195SOL    HW236048   1.808   4.281   4.485  1.2349  0.1037  0.6277
 8196SOL     OW36049   2.501   4.339   8.619  0.4293 -0.4882  0.5171
 8196SOL    HW136050   2.438   4.353   8.548 -0.2765 -2.2506  0.8114
 8196SOL    HW236051   2.478   4.251   8.649  1.3118 -0.7511  0.4243
 8197SOL     OW36052   1.492   4.671   7.761 -0.7482  0.3257 -0.1812
 8197SOL    HW136053   1.534   4.587   7.774 -2.3347 -0.5883 -0.9478
 8197SOL    HW236054   1.519   4.679   7.669  1.2963  1.1932  0.5126
 8198SOL     OW36055   4.251   4.547  12.421  0.0341  0.2198  0.0316
 8198SOL    HW136056   4.279   4.481  12.484  3.5070 -0.0783 -1.8248
 8198SOL    HW236057   4.308   4.617  12.454  0.0213 -0.1137  0.7533
 8199SOL     OW36058   0.609   3.598   1.950 -0.4234 -0.5004 -0.1798
 8199SOL    HW136059   0.640   3.650   2.024 -0.6426 -1.2231  0.4192
 8199SOL    HW236060   0.676   3.530   1.951 -0.2933 -0.4044 -4.0480
 8200SOL     OW36061   0.812   1.072   5.258 -0.0579 -0.0910 -0.0328
 8200SOL    HW136062   0.769   1.080   5.343 -1.7864 -1.9284 -0.7591
 8200SOL    HW236063   0.740   1.077   5.196  0.2007 -1.9483 -0.4956
 8201SOL     OW36064   3.755   1.468   9.433 -0.5969  0.5004  0.1534
 8201SOL    HW136065   3.784   1.460   9.524  0.7476 -1.2975 -0.4227
 8201SOL    HW236066   3.661   1.460   9.445 -0.8612 -0.4999 -2.4564
 8202SOL     OW36067   3.811   3.881   5.344  0.6392 -0.0725  0.2298
 8202SOL    HW136068   3.905   3.881   5.361  0.7457  1.1050 -0.3526
 8202SOL    HW236069   3.791   3.787   5.351  0.9421 -0.1552 -0.0202
 8203SOL     OW36070   3.979   2.889   9.061  0.7715  0.5573 -0.0062
 8203SOL    HW136071   3.983   2.962   8.999  1.6386  1.7000  1.3922
 8203SOL    HW236072   3.897   2.853   9.028  1.1201  0.8800 -1.2149
 8204SOL     OW36073   3.788   2.056   6.419  0.1819  0.4990  0.2136
 8204SOL    HW136074   3.793   2.084   6.327  0.0640  1.1386  0.3993
 8204SOL    HW236075   3.695   2.035   6.434  0.7278 -2.4017 -0.4730
 8205SOL     OW36076   3.598   0.467   1.838 -0.6140  0.5030 -0.1584
 8205SOL    HW136077   3.606   0.423   1.753  3.0168 -0.4143  0.6411
 8205SOL    HW236078   3.613   0.559   1.814 -0.0840 -0.0113 -1.8467
 8206SOL     OW36079   1.399   3.199  16.025 -0.0926  0.1978 -0.0516
 8206SOL    HW136080   1.475   3.232  15.977 -1.0863  2.7753  0.1443
 8206SOL    HW236081   1.436   3.191  16.112 -1.6961 -1.6304  0.4570
 8207SOL     OW36082   3.843   1.028   4.936  0.4308 -0.2257 -0.6250
 8207SOL    HW136083   3.769   0.968   4.928 -0.1237  0.6769 -2.1835
 8207SOL    HW236084   3.865   1.058   4.847  0.5283 -0.7937 -0.7971
 8208SOL     OW36085   0.547   4.699   3.691  0.2611 -0.3168 -0.4243
 8208SOL    HW136086   0.588   4.614   3.702  0.5035 -0.6444 -3.7154
 8208SOL    HW236087   0.598   0.000   3.614  0.3513  1.6274  0.2833
 8209SOL     OW36088   0.128   0.126   7.307  0.6886  0.3610 -0.5444
 8209SOL    HW136089   0.144   0.216   7.335  0.1590  0.8318 -1.7178
 8209SOL    HW236090   0.033   0.120   7.307  0.8413 -2.2289 -0.9406
 8210SOL     OW36091   3.171   0.937  15.471  0.0781 -0.0037  0.4702
 8210SOL    HW136092   3.156   0.854  15.516  0.8977 -0.3628  0.0944
 8210SOL    HW236093   3.262   0.960  15.490  0.0723  0.2510  0.1966
 8211SOL     OW36094   3.623   0.237   7.678  0.1535  0.0345  0.8835
 8211SOL    HW136095   3.631   0.312   7.619 -0.2051 -1.1671 -0.6832
 8211SOL    HW236096   3.707   0.231   7.724 -0.0930 -0.7017  1.2424
 8212SOL     OW36097   2.137   1.313   8.048 -0.1457 -0.4482  0.0975
 8212SOL    HW136098   2.089   1.376   8.102  1.4099  0.6971  0.1437
 8212SOL    HW236099   2.115   1.228   8.085  2.0194 -1.2881 -0.5713
 8213SOL     OW36100   0.022   2.932   3.720  0.8397 -0.0807 -0.8698
 8213SOL    HW136101   0.091   2.992   3.692  0.0986  1.7414  1.1861
 8213SOL    HW236102   0.003   2.973   3.804 -1.3095 -2.1321 -0.3513
 8214SOL     OW36103   0.445   1.203   2.444  0.7108 -0.2782  0.1127
 8214SOL    HW136104   0.508   1.253   2.496 -0.8564  1.0027  0.7643
 8214SOL    HW236105   0.432   1.251   2.362  1.9410 -3.1442 -1.7866
 8215SOL     OW36106   2.859   4.716  13.409 -0.4707  0.5855  0.1204
 8215SOL    HW136107   2.876   0.023  13.498 -0.1028 -1.1731  0.6623
 8215SOL    HW236108   2.783   4.659  13.417 -1.3684  1.6505 -0.7121
 8216SOL     OW36109   1.581   4.204  15.832 -0.4971 -0.1743 -0.4086
 8216SOL    HW136110   1.671   4.174  15.836 -0.0936  0.8375 -1.9063
 8216SOL    HW236111   1.537   4.149  15.897  2.5522 -2.3635 -0.1948
 8217SOL     OW36112   1.678   3.293  11.609 -0.4858  0.3856 -0.6801
 8217SOL    HW136113   1.626   3.277  11.687 -0.1847 -0.4145 -0.6498
 8217SOL    HW236114   1.644   3.375  11.572 -0.2882  0.7451 -0.0757
 8218SOL     OW36115   4.460   4.257   2.099  0.4907 -0.5882  0.2456
 8218SOL    HW136116   4.424   4.174   2.129 -1.4153  0.2178  0.2157
 8218SOL    HW236117   4.415   4.315   2.160 -0.2503  0.3118 -1.1405
 8219SOL     OW36118   2.859   1.983   5.432  0.0921 -0.1403  0.2829
 8219SOL    HW136119   2.815   1.922   5.492 -0.4907 -0.7753 -0.7860
 8219SOL    HW236120   2.786   2.042   5.413 -0.8432 -1.1118  0.8952
 8220SOL     OW36121   1.168   3.884   4.045  0.3996 -0.1517 -0.3307
 8220SOL    HW136122   1.248   3.833   4.034 -0.2021 -1.0209 -0.6476
 8220SOL    HW236123   1.181   3.949   3.977 -0.1712 -0.2710 -0.5480
 8221SOL     OW36124   3.421   0.176   2.044 -0.0997 -0.3442  0.2938
 8221SOL    HW136125   3.434   0.084   2.067  1.8930  0.2402  1.4966
 8221SOL    HW236126   3.484   0.220   2.101  2.1818  0.2991 -2.7288
 8222SOL     OW36127   2.944   1.758   8.936 -0.2775  0.1365 -0.1410
 8222SOL    HW136128   2.950   1.784   8.844  0.3846 -0.5587 -0.2989
 8222SOL    HW236129   2.941   1.842   8.981 -0.2276 -0.7159  1.4889
 8223SOL     OW36130   1.276   1.397   1.804 -0.1974 -0.4823 -0.1593
 8223SOL    HW136131   1.224   1.475   1.788 -0.2353 -0.6326 -0.7711
 8223SOL    HW236132   1.348   1.437   1.853  0.5044 -1.3416 -0.4810
 8224SOL     OW36133   3.578   0.528  16.498  0.1064  0.3037  0.6148
 8224SOL    HW136134   3.599   0.443  16.535  0.7525  0.6200  0.9603
 8224SOL    HW236135   3.648   0.582  16.535 -1.3335 -0.2131  4.1056
 8225SOL     OW36136   2.728   0.188   8.998  0.1114  0.4289  0.1557
 8225SOL    HW136137   2.716   0.135   8.919  2.2315  0.0802  0.0820
 8225SOL    HW236138   2.692   0.273   8.972 -0.7430  0.2293  0.6647
 8226SOL     OW36139   3.575   3.807  17.009 -0.0300 -0.0980 -0.0150
 8226SOL    HW136140   3.504   3.836  16.951  1.5730 -0.0139 -1.9146
 8226SOL    HW236141   3.582   3.712  17.001 -3.7062 -0.1790 -2.3153
 8227SOL     OW36142   1.017   2.605  11.875  0.1637  0.0889 -0.4966
 8227SOL    HW136143   0.984   2.625  11.788 -0.3704 -0.1082 -0.3379
 8227SOL    HW236144   0.935   2.575  11.913  0.0892  0.2848 -0.5022
 8228SOL     OW36145   3.257   0.935   5.003 -0.3297  0.1065  0.2534
 8228SOL    HW136146   3.234   0.957   4.913 -1.3109  0.5817  0.6281
 8228SOL    HW236147   3.205   0.855   5.007 -2.0189  1.1552 -0.5512
 8229SOL     OW36148   2.766   2.791   7.175 -0.3596  0.1707 -0.5720
 8229SOL    HW136149   2.806   2.730   7.113 -0.4597 -0.6777  0.1843
 8229SOL    HW236150   2.674   2.769   7.165 -0.3602 -0.4832  0.9100
 8230SOL     OW36151   2.425   4.187  12.738  0.1428 -0.4531 -0.1779
 8230SOL    HW136152   2.399   4.225  12.655  1.1843  1.5240  0.3946
 8230SOL    HW236153   2.505   4.238  12.749  0.3718 -0.7664 -0.3952
 8231SOL     OW36154   1.205   0.719   3.862  0.4266  0.8856 -0.3662
 8231SOL    HW136155   1.253   0.648   3.820  0.1739  1.3712 -1.4751
 8231SOL    HW236156   1.282   0.751   3.909 -1.2216  2.5979  1.1692
 8232SOL     OW36157   3.806   2.871   3.679  0.4652  0.0821 -0.6043
 8232SOL    HW136158   3.899   2.849   3.684  0.2735 -0.4885  0.6805
 8232SOL    HW236159   3.784   2.871   3.773 -0.0286 -0.3316 -0.7184
 8233SOL     OW36160   2.933   1.175  17.020  0.1158  0.0729 -0.4742
 8233SOL    HW136161   3.028   1.168  17.012  0.1956  0.0019  0.4983
 8233SOL    HW236162   2.906   1.084  17.030 -1.8151  0.7506  0.5064
 8234SOL     OW36163   3.088   3.075   6.159  0.3683  0.6592 -0.0250
 8234SOL    HW136164   3.151   3.125   6.107  1.1097 -1.0667 -0.8047
 8234SOL    HW236165   3.112   2.990   6.121  1.9886  0.3842  1.6073
 8235SOL     OW36166   1.982   0.356  13.887 -0.1795 -0.9502  0.5192
 8235SOL    HW136167   2.066   0.319  13.859  0.2403 -0.0061  0.5661
 8235SOL    HW236168   1.942   0.274  13.919  1.3639 -1.4602  1.1645
 8236SOL     OW36169   3.250   3.943   4.092 -0.4930 -0.6033  0.1710
 8236SOL    HW136170   3.333   3.963   4.050 -0.5024  1.9994  1.3808
 8236SOL    HW236171   3.225   3.861   4.050 -0.1957  0.0932 -1.3925
 8237SOL     OW36172   2.435   0.854  17.138  0.5497 -0.4649  0.6310
 8237SOL    HW136173   2.465   0.867  17.228  0.6648 -1.8917  0.7935
 8237SOL    HW236174   2.438   0.947  17.114 -2.5872 -0.0030  2.0654
 8238SOL     OW36175   0.663   0.237   0.188  0.3195 -0.3859 -0.7810
 8238SOL    HW136176   0.605   0.286   0.246  0.4904  0.9280 -1.7312
 8238SOL    HW236177   0.685   0.311   0.131 -0.8520  0.4842 -0.0929
 8239SOL     OW36178   1.374   0.318  16.083  0.6273  0.3487 -0.6659
 8239SOL    HW136179   1.308   0.259  16.046 -0.5522  2.3871 -1.8401
 8239SOL    HW236180   1.454   0.274  16.054  0.0312 -1.6327  0.7090
 8240SOL     OW36181   0.604   0.120   7.508  0.4786 -0.5889  0.5448
 8240SOL    HW136182   0.692   0.112   7.543  1.2558  1.0025 -0.9996
 8240SOL    HW236183   0.631   0.145   7.419 -3.6823 -0.0589 -0.5533
 8241SOL     OW36184   4.344   0.513   9.343 -0.6498 -0.2052  0.1238
 8241SOL    HW136185   4.378   0.474   9.262 -3.2569 -1.8272 -0.2059
 8241SOL    HW236186   4.251   0.521   9.326 -0.6027 -1.8093 -0.9562
 8242SOL     OW36187   1.374   1.801   8.187  0.0004 -0.1228 -0.0436
 8242SOL    HW136188   1.451   1.774   8.236 -1.4965  0.5653  2.6920
 8242SOL    HW236189   1.314   1.828   8.256 -0.4763 -0.8727 -0.1629
 8243SOL     OW36190   1.467   1.841   3.810  0.7635 -0.0250  0.6172
 8243SOL    HW136191   1.554   1.838   3.848  2.1824 -0.2594 -2.6572
 8243SOL    HW236192   1.462   1.753   3.774  2.0062 -0.6284  1.9208
 8244SOL     OW36193   0.921   1.883   8.199 -0.2104 -0.2214 -0.1240
 8244SOL    HW136194   0.893   1.917   8.114  0.4111  0.2650 -0.1341
 8244SOL    HW236195   0.854   1.925   8.252  0.9141 -0.4973  1.5108
 8245SOL     OW36196   1.118   3.064   3.637 -0.4463  0.1847 -0.5044
 8245SOL    HW136197   1.055   3.127   3.671  1.3337 -0.1030  3.3522
 8245SOL    HW236198   1.111   3.068   3.542 -0.2772  2.3496 -0.4210
 8246SOL     OW36199   4.102   1.831   1.247 -0.9455 -0.3229 -0.4372
 8246SOL    HW136200   4.049   1.910   1.260  0.5027  0.4490  0.9580
 8246SOL    HW236201   4.048   1.763   1.286 -1.6301 -0.1748 -1.1235
 8247SOL     OW36202   2.914   2.272   4.964  0.1248  0.2321  0.2845
 8247SOL    HW136203   2.914   2.184   4.926 -0.0805  0.3913 -0.0812
 8247SOL    HW236204   2.838   2.252   5.019  0.4763 -0.7213  0.4270
 8248SOL     OW36205   0.386   2.994   3.992  0.1902 -0.1453  0.5905
 8248SOL    HW136206   0.315   2.950   4.038 -0.2649 -0.9284 -0.8807
 8248SOL    HW236207   0.440   2.917   3.974 -0.0555 -0.3137  0.5907
 8249SOL     OW36208   0.154   3.031   7.452 -0.2611  0.1525 -0.5277
 8249SOL    HW136209   0.193   3.092   7.389  1.2830 -0.3364 -0.0381
 8249SOL    HW236210   0.185   2.953   7.406 -1.8842 -0.6804 -0.1857
 8250SOL     OW36211   0.485   0.233   2.414 -0.4609  0.6877 -0.4390
 8250SOL    HW136212   0.397   0.197   2.423 -0.6467  0.8580 -1.5807
 8250SOL    HW236213   0.481   0.320   2.454 -0.6463  0.0535  0.9030
 8251SOL     OW36214   1.291   2.574  11.801  0.1355  0.6336 -0.1518
 8251SOL    HW136215   1.206   2.559  11.841 -0.0779 -0.3970 -0.9809
 8251SOL    HW236216   1.276   2.560  11.707  1.7693  1.7592 -0.5820
 8252SOL     OW36217   1.822   4.638   5.115  0.0216 -0.5299  0.1467
 8252SOL    HW136218   1.770   4.558   5.113 -0.4667 -0.1390 -2.7010
 8252SOL    HW236219   1.912   4.605   5.104 -0.6632 -1.1204 -3.9267
 8253SOL     OW36220   0.361   0.216  13.542  0.0175  0.0841  0.0084
 8253SOL    HW136221   0.322   0.211  13.629 -3.7005 -0.4106 -1.6866
 8253SOL    HW236222   0.421   0.290  13.552 -1.6223  1.5761 -1.1309
 8254SOL     OW36223   0.397   3.787   5.693 -0.2910 -0.3798 -0.1983
 8254SOL    HW136224   0.374   3.785   5.599 -2.7051  0.7785  0.3609
 8254SOL    HW236225   0.453   3.864   5.687 -0.9799 -0.0477 -2.5332
 8255SOL     OW36226   4.489   2.851  12.828 -0.2111 -0.0068  0.0633
 8255SOL    HW136227   4.449   2.868  12.742 -2.2166  2.1302  1.3846
 8255SOL    HW236228   4.499   2.943  12.852 -1.4596  0.6566 -1.8904
 8256SOL     OW36229   1.068   1.554  13.161 -0.2875  0.2731 -0.2555
 8256SOL    HW136230   0.976   1.529  13.151 -0.0981  0.2992 -2.0159
 8256SOL    HW236231   1.073   1.534  13.255  0.8175  2.2325  0.1003
 8257SOL     OW36232   3.017   3.158   1.893  0.5855  0.1032 -0.5126
 8257SOL    HW136233   3.089   3.219   1.881  0.7198  0.1943  0.8374
 8257SOL    HW236234   3.028   3.135   1.985 -0.6691 -0.2747 -0.4512
 8258SOL     OW36235   3.677   3.038   9.019 -0.0001 -0.0898 -0.5508
 8258SOL    HW136236   3.636   3.106   9.073 -0.6789 -0.8845 -0.0614
 8258SOL    HW236237   3.671   2.960   9.075 -0.4821  1.3374  1.3637
 8259SOL     OW36238   1.492   1.142   8.289  0.2974 -0.6735 -0.1180
 8259SOL    HW136239   1.471   1.234   8.279  0.3554 -0.7895 -1.3707
 8259SOL    HW236240   1.569   1.133   8.233  0.5484  0.8921 -0.0152
 8260SOL     OW36241   4.570   4.173  11.124 -0.6856 -0.4117 -0.6540
 8260SOL    HW136242   4.641   4.234  11.104 -1.8573  2.0335  2.6525
 8260SOL    HW236243   4.608   4.085  11.130 -3.0261 -1.4046 -0.4411
 8261SOL     OW36244   2.065   1.533  12.334  0.0493  0.1808  0.6417
 8261SOL    HW136245   1.977   1.569  12.336 -0.4534 -0.9307 -2.1535
 8261SOL    HW236246   2.053   1.460  12.273 -0.9911  0.3961  0.5876
 8262SOL     OW36247   1.322   0.810   8.047  0.5634 -0.4536  0.1436
 8262SOL    HW136248   1.387   0.740   8.041  0.7238 -0.6171  4.2260
 8262SOL    HW236249   1.289   0.813   7.957 -0.9986  0.8162  0.7454
 8263SOL     OW36250   3.661   4.557   1.950  0.4095  0.0678 -0.0108
 8263SOL    HW136251   3.611   4.481   1.921 -1.4898  1.2777  0.1134
 8263SOL    HW236252   3.753   4.530   1.939  0.1777 -1.6438  2.1897
 8264SOL     OW36253   4.398   3.054   6.981 -0.0839  0.0991  0.1425
 8264SOL    HW136254   4.338   2.982   7.000 -0.6603  1.1969  2.4559
 8264SOL    HW236255   4.353   3.122   7.030 -3.7012 -0.5115 -2.2895
 8265SOL     OW36256   3.066   0.002   5.492 -0.2098  0.0668  0.1893
 8265SOL    HW136257   3.135   4.671   5.453  1.1026  0.3944  2.0571
 8265SOL    HW236258   3.062   0.073   5.428  1.4328  0.0018  0.0107
 8266SOL     OW36259   2.463   1.592   6.126  0.4698  0.3176  0.2086
 8266SOL    HW136260   2.504   1.663   6.174 -1.4373  1.2461  0.4211
 8266SOL    HW236261   2.492   1.513   6.172  0.6391 -0.3024 -0.9618
 8267SOL     OW36262   0.697   3.534   3.923  0.0710 -0.3109 -0.0963
 8267SOL    HW136263   0.668   3.469   3.987  0.6033 -0.2276  0.2264
 8267SOL    HW236264   0.738   3.476   3.859  0.6349  1.3586 -1.2355
 8268SOL     OW36265   4.712   2.902   4.064  0.3367  0.1463 -0.0240
 8268SOL    HW136266   0.046   2.827   4.057 -1.0522 -0.8521 -0.7878
 8268SOL    HW236267   4.717   2.936   4.154 -0.3327  1.7201 -0.5766
 8269SOL     OW36268   4.384   1.207  10.637  0.0614 -0.3195  0.2511
 8269SOL    HW136269   4.429   1.283  10.675  0.0836 -1.8626  3.3146
 8269SOL    HW236270   4.424   1.143  10.696  3.2655  2.6967  1.3917
 8270SOL     OW36271   2.611   0.707  12.199 -0.2485  0.0905 -0.2841
 8270SOL    HW136272   2.525   0.735  12.231 -1.7820 -2.7037 -1.9445
 8270SOL    HW236273   2.629   0.632  12.255  1.4167 -1.4796 -2.9751
 8271SOL     OW36274   4.045   1.610  17.102 -0.0217  0.1315  0.3296
 8271SOL    HW136275   3.974   1.588  17.041  0.6162 -0.0869 -0.3345
 8271SOL    HW236276   4.007   1.689  17.139  0.0057 -0.4816  1.6482
 8272SOL     OW36277   3.057   2.742   7.398 -0.7621 -0.1194  0.2566
 8272SOL    HW136278   3.118   2.787   7.341 -1.7153 -0.4429 -1.0223
 8272SOL    HW236279   3.058   2.664   7.342  2.8105  1.6185 -2.0035
 8273SOL     OW36280   4.651   0.312   6.214  0.1704 -0.2493 -0.3124
 8273SOL    HW136281   4.635   0.238   6.156 -2.7829 -1.7014  2.3595
 8273SOL    HW236282   4.669   0.381   6.150  1.0226 -1.1297 -1.0253
 8274SOL     OW36283   4.212   0.209  17.030 -0.3227  0.1734  0.0633
 8274SOL    HW136284   4.181   0.211  16.940 -1.1457 -0.1543  0.3386
 8274SOL    HW236285   4.274   0.136  17.038 -0.0610  0.6715  2.5349
 8275SOL     OW36286   0.088   1.884   3.961 -0.1972  0.3670  0.4733
 8275SOL    HW136287   0.122   1.917   4.044  0.7703 -1.8178  0.9434
 8275SOL    HW236288   0.090   1.789   3.972  0.0770  0.3177  0.0142
 8276SOL     OW36289   0.821   1.499   9.113 -0.2356  0.2849  0.1421
 8276SOL    HW136290   0.821   1.411   9.152 -0.7051 -1.0150 -2.8082
 8276SOL    HW236291   0.869   1.546   9.182 -0.5818  1.5216 -0.4568
 8277SOL     OW36292   3.860   2.327   5.083 -0.3708 -0.1537  0.1944
 8277SOL    HW136293   3.809   2.379   5.144 -0.8636  1.9756 -2.0165
 8277SOL    HW236294   3.785   2.289   5.037 -0.5625  0.2523  0.1735
 8278SOL     OW36295   1.579   1.813   3.080  0.0963  0.1120  0.6305
 8278SOL    HW136296   1.666   1.833   3.046 -1.2100  3.3034 -0.9308
 8278SOL    HW236297   1.598   1.729   3.122 -1.4643 -1.6313 -2.1517
 8279SOL     OW36298   2.753   0.962  17.111  0.0620  0.2188 -0.3718
 8279SOL    HW136299   2.727   0.900  17.179  1.3444 -1.0648 -1.0443
 8279SOL    HW236300   2.781   0.904  17.040  0.1890 -2.1039  1.5782
 8280SOL     OW36301   1.694   2.595  11.517 -0.1304 -1.0687 -0.5932
 8280SOL    HW136302   1.737   2.510  11.521 -1.8700 -1.9222  0.0278
 8280SOL    HW236303   1.658   2.610  11.605  1.1844  1.4632 -0.4796
 8281SOL     OW36304   4.559   0.930   3.140 -0.4824 -0.4140  0.5091
 8281SOL    HW136305   4.469   0.955   3.120 -0.0421  0.8722  0.0926
 8281SOL    HW236306   4.561   0.904   3.232 -1.2457 -1.4371  0.2346
 8282SOL     OW36307   0.281   1.890   5.733  0.1350  0.2754  0.0195
 8282SOL    HW136308   0.244   1.824   5.792 -2.5292  1.7694  0.0541
 8282SOL    HW236309   0.258   1.851   5.648  1.2648 -0.5479  0.0988
 8283SOL     OW36310   2.031   1.127  12.582  0.5069  0.0560  0.4371
 8283SOL    HW136311   1.953   1.081  12.612  0.3441  0.2339  0.2833
 8283SOL    HW236312   2.104   1.069  12.605 -0.5527 -1.2790  0.4410
 8284SOL     OW36313   4.680   3.667   5.575 -0.1568 -0.2120  0.3803
 8284SOL    HW136314   4.705   3.752   5.611  1.3482 -0.2129 -0.7032
 8284SOL    HW236315   4.602   3.655   5.630  0.6037 -4.1361  0.6034
 8285SOL     OW36316   2.762   4.481  10.782 -0.8695  0.1118  0.5802
 8285SOL    HW136317   2.783   4.524  10.864  0.3217 -0.2165  0.4364
 8285SOL    HW236318   2.748   4.554  10.721 -0.1435  1.6167  2.2318
 8286SOL     OW36319   0.468   3.459  16.450 -0.0167  0.4541 -0.7030
 8286SOL    HW136320   0.532   3.462  16.378 -1.6338 -1.3766 -2.2328
 8286SOL    HW236321   0.423   3.539  16.423 -0.7915 -0.9986 -3.8144
 8287SOL     OW36322   0.433   2.253   5.078  0.2023 -0.2975  0.3003
 8287SOL    HW136323   0.371   2.273   5.008 -0.6089  0.3501  1.2318
 8287SOL    HW236324   0.485   2.181   5.039 -0.7295 -0.0238 -1.4650
 8288SOL     OW36325   1.308   3.947   6.277 -0.1409  0.3111  0.0532
 8288SOL    HW136326   1.328   3.947   6.371  1.4074 -1.6063 -0.2770
 8288SOL    HW236327   1.274   3.858   6.266 -1.5896  0.6268  1.8726
 8289SOL     OW36328   0.582   2.317   4.763 -0.1221  0.0205 -0.2689
 8289SOL    HW136329   0.625   2.293   4.845 -0.4013  0.5505  0.0358
 8289SOL    HW236330   0.648   2.366   4.714 -2.6541  3.0175 -0.7059
 8290SOL     OW36331   0.020   2.781   8.190 -0.2130 -0.3692 -0.1201
 8290SOL    HW136332   0.067   2.700   8.173 -0.7916 -1.0183  1.2960
 8290SOL    HW236333   0.090   2.841   8.212 -1.3980  0.8477  0.3205
 8291SOL     OW36334   3.024   3.135   2.208  0.1355 -0.2628  0.0670
 8291SOL    HW136335   3.020   3.224   2.172  0.2137  0.1426  1.0651
 8291SOL    HW236336   3.112   3.136   2.243 -1.1757  1.1349  3.3327
 8292SOL     OW36337   2.486   3.225  12.482 -0.1568  0.0945  0.2339
 8292SOL    HW136338   2.575   3.219  12.517  0.4306 -0.3165 -1.3472
 8292SOL    HW236339   2.492   3.295  12.417 -2.9576 -1.0804 -1.2733
 8293SOL     OW36340   2.610   0.768   1.508 -0.3196 -0.1671 -0.1184
 8293SOL    HW136341   2.584   0.786   1.598  2.0544 -0.5145  0.6431
 8293SOL    HW236342   2.539   0.807   1.457  1.2266 -0.2259 -2.3250
 8294SOL     OW36343   3.600   1.977   9.991  0.1656  0.4077  0.2780
 8294SOL    HW136344   3.521   1.948   9.944  0.6791 -2.5390  1.2508
 8294SOL    HW236345   3.662   1.961   9.920  1.2367  0.9749  1.0963
 8295SOL     OW36346   3.993   0.445   3.799  0.5875 -0.0395  0.3157
 8295SOL    HW136347   3.935   0.513   3.765 -0.4384 -1.2748 -0.4197
 8295SOL    HW236348   3.933   0.409   3.864 -0.5616 -0.0012 -0.7110
 8296SOL     OW36349   4.173   1.844  11.281 -0.3509  0.2125 -0.7335
 8296SOL    HW136350   4.186   1.822  11.374  0.0106 -0.9202 -1.0572
 8296SOL    HW236351   4.078   1.843  11.271 -0.5720  1.3758  1.1721
 8297SOL     OW36352   2.111   1.882   5.239 -0.0271 -0.1113 -0.3907
 8297SOL    HW136353   2.022   1.860   5.264 -0.4275 -0.3972 -2.1081
 8297SOL    HW236354   2.115   1.976   5.259 -1.0676  0.4208 -2.6900
 8298SOL     OW36355   4.658   2.212   6.843 -0.0075 -0.5877 -0.0454
 8298SOL    HW136356   4.706   2.182   6.766 -2.1152  1.0649 -1.9832
 8298SOL    HW236357   4.605   2.283   6.806 -0.8647 -2.0493 -1.5843
 8299SOL     OW36358   2.497   1.092   8.131 -0.1040  0.1656 -0.3170
 8299SOL    HW136359   2.572   1.035   8.119 -0.2080 -0.5198  2.4142
 8299SOL    HW236360   2.461   1.085   8.042 -0.8290  0.2910 -0.0405
 8300SOL     OW36361   4.553   0.053   2.178  0.1721 -0.1850  0.3495
 8300SOL    HW136362   4.513   4.718   2.115 -0.9465 -1.7449  2.5499
 8300SOL    HW236363   4.565   4.716   2.250  3.1831  1.1967  1.0711
 8301SOL     OW36364   3.792   1.019   0.301 -0.6985 -0.4896  0.4509
 8301SOL    HW136365   3.840   0.944   0.336  0.4091 -1.1994 -2.5529
 8301SOL    HW236366   3.798   1.084   0.370  3.9194  1.0907 -1.3921
 8302SOL     OW36367   2.187   1.048   8.850 -0.8414  0.1598 -0.3176
 8302SOL    HW136368   2.172   1.040   8.945  3.0276  0.1696  0.2652
 8302SOL    HW236369   2.119   0.988   8.820 -1.9233  2.2267 -2.0074
 8303SOL     OW36370   4.369   1.427   2.293  0.3683 -0.2944 -0.0678
 8303SOL    HW136371   4.464   1.432   2.306  0.6134 -0.1748 -1.8854
 8303SOL    HW236372   4.361   1.469   2.208  0.7332 -2.0769 -0.9705
 8304SOL     OW36373   3.886   3.205   0.664 -0.0991  0.2224 -0.2709
 8304SOL    HW136374   3.975   3.241   0.670  0.3017 -0.8320  0.0010
 8304SOL    HW236375   3.877   3.181   0.572  0.3525 -0.0219 -0.2484
 8305SOL     OW36376   0.581   1.006  10.390 -0.2740 -0.4528  0.0190
 8305SOL    HW136377   0.655   0.998  10.330  0.5130 -1.2160  1.0835
 8305SOL    HW236378   0.618   0.956  10.463  1.2335  1.1065  0.3284
 8306SOL     OW36379   1.781   1.947   8.363 -1.1464 -0.5180  0.3187
 8306SOL    HW136380   1.855   2.001   8.336  0.4942 -2.2204  1.3536
 8306SOL    HW236381   1.715   2.000   8.408  0.1451 -0.7007  2.4359
 8307SOL     OW36382   0.829   0.078   7.646  0.8961  0.1109  0.0944
 8307SOL    HW136383   0.924   0.064   7.644  1.0041  1.2818 -1.9995
 8307SOL    HW236384   0.802   4.721   7.689 -1.3839  2.1617  2.5713
 8308SOL     OW36385   0.553   4.434   4.934 -0.3209 -0.0885 -0.9749
 8308SOL    HW136386   0.612   4.504   4.903 -2.1378  2.0101  0.3051
 8308SOL    HW236387   0.563   4.366   4.867 -1.4053  0.7287 -1.9729
 8309SOL     OW36388   1.215   0.667   4.278 -0.0114  0.3013 -0.8116
 8309SOL    HW136389   1.296   0.688   4.325  3.1871 -5.3746 -3.6873
 8309SOL    HW236390   1.150   0.721   4.322  1.4639  2.4950 -1.3361
 8310SOL     OW36391   1.547   2.339   3.452  0.0643 -0.2427  0.3951
 8310SOL    HW136392   1.461   2.299   3.467 -0.0731 -0.9805 -2.3362
 8310SOL    HW236393   1.599   2.259   3.448  1.1469  0.5124 -0.8049
 8311SOL     OW36394   2.825   1.384  11.642  0.0365  0.4782 -0.5411
 8311SOL    HW136395   2.812   1.375  11.736  0.1012  2.3080 -0.3548
 8311SOL    HW236396   2.742   1.347  11.611 -0.5768  0.4515  1.1450
 8312SOL     OW36397   0.986   0.663   8.044  0.2199 -0.5237 -0.0235
 8312SOL    HW136398   1.026   0.737   8.089 -1.2560  1.8315 -2.6016
 8312SOL    HW236399   1.027   0.587   8.086  0.2079  0.6514  2.0592
 8313SOL     OW36400   4.443   2.470   8.064 -0.1251  0.5953  0.0247
 8313SOL    HW136401   4.459   2.490   8.156 -0.8499 -0.3657  0.3551
 8313SOL    HW236402   4.526   2.505   8.031  1.0658 -2.7076 -0.4394
 8314SOL     OW36403   4.072   3.882  14.661 -0.1543  0.3323 -0.5183
 8314SOL    HW136404   4.061   3.787  14.656 -2.2268  0.7048 -2.8363
 8314SOL    HW236405   4.001   3.904  14.721  0.1504 -1.1529  0.3676
 8315SOL     OW36406   2.798   4.355  14.831 -0.4984  0.3448  0.5349
 8315SOL    HW136407   2.860   4.386  14.765 -0.4168  1.3246  1.0699
 8315SOL    HW236408   2.810   4.260  14.830  1.3780  0.5609  1.7251
 8316SOL     OW36409   0.607   3.833  11.279 -0.0282 -0.0749  0.2662
 8316SOL    HW136410   0.637   3.894  11.212  2.4235 -0.0931  1.3551
 8316SOL    HW236411   0.515   3.845  11.255 -0.1208 -0.1814  0.5603
 8317SOL     OW36412   1.262   4.230   3.387 -0.4388  0.1513 -0.1170
 8317SOL    HW136413   1.315   4.255   3.311  1.1341 -0.6128  0.7156
 8317SOL    HW236414   1.174   4.252   3.356 -0.8618 -0.7266  0.4611
 8318SOL     OW36415   2.765   4.134   2.525 -0.2337 -0.1295 -0.1368
 8318SOL    HW136416   2.813   4.175   2.597  1.0620 -0.9905 -0.5143
 8318SOL    HW236417   2.719   4.216   2.506  0.4852  0.1152 -0.8536
 8319SOL     OW36418   4.438   2.608  14.616  0.1253 -0.4509  0.4406
 8319SOL    HW136419   4.499   2.547  14.655 -0.4453 -2.2827 -1.5242
 8319SOL    HW236420   4.371   2.621  14.683  0.2769 -1.6668  0.8215
 8320SOL     OW36421   3.203   4.526  10.060 -0.4163 -0.2760  0.3959
 8320SOL    HW136422   3.123   4.530  10.113 -2.1333 -0.4703 -2.1480
 8320SOL    HW236423   3.194   4.593   9.992  0.8759 -2.0549 -1.5246
 8321SOL     OW36424   2.142   0.442   1.151  0.0335  0.0660 -0.6043
 8321SOL    HW136425   2.067   0.432   1.092 -0.4989  0.8911 -0.0757
 8321SOL    HW236426   2.159   0.348   1.156  0.2988 -0.0762 -4.2822
 8322SOL     OW36427   1.522   4.619   3.839  0.6445 -0.2174  0.1177
 8322SOL    HW136428   1.436   4.576   3.841  0.2870  0.5476  1.2350
 8322SOL    HW236429   1.506   4.709   3.809 -0.3482 -0.5125 -0.2441
 8323SOL     OW36430   4.142   3.513   6.012  0.1520  0.2975 -0.3544
 8323SOL    HW136431   4.215   3.574   6.027 -1.6657  2.3515  0.1159
 8323SOL    HW236432   4.121   3.513   5.919 -1.0282 -3.2319 -0.0997
 8324SOL     OW36433   4.170   0.524   6.057 -0.0582 -0.3998 -0.1407
 8324SOL    HW136434   4.223   0.461   6.007  0.5739 -0.6613  0.8689
 8324SOL    HW236435   4.221   0.537   6.137  1.9117 -0.7809 -1.3343
 8325SOL     OW36436   2.956   1.387   5.519 -0.1011 -0.6014 -0.0731
 8325SOL    HW136437   2.976   1.298   5.550  0.8289 -0.4168 -0.1664
 8325SOL    HW236438   2.953   1.386   5.423  1.9288 -2.5296 -0.1189
 8326SOL     OW36439   3.034   2.244   8.551 -0.5046 -0.4469  0.4342
 8326SOL    HW136440   3.094   2.276   8.619 -1.1318  1.4727  0.0779
 8326SOL    HW236441   2.994   2.328   8.530 -2.2399 -1.4714 -0.3147
 8327SOL     OW36442   3.259   4.045   3.746  0.1705 -0.0590  0.1246
 8327SOL    HW136443   3.307   4.025   3.827  0.2993 -1.2788 -0.2631
 8327SOL    HW236444   3.261   3.972   3.685  1.3053 -0.1658  0.2807
 8328SOL     OW36445   3.894   2.058   7.490  0.6894 -0.7773  0.4877
 8328SOL    HW136446   3.971   2.109   7.466 -0.9448  1.2013 -0.4791
 8328SOL    HW236447   3.842   2.126   7.533 -0.8680 -0.0471 -2.6142
 8329SOL     OW36448   0.579   4.600   1.984  0.4671  0.1373  0.1092
 8329SOL    HW136449   0.663   4.570   2.016  0.7224  1.0350  0.2940
 8329SOL    HW236450   0.568   4.673   2.044  2.9673  0.4115  0.2076
 8330SOL     OW36451   1.817   3.072  16.022 -0.0548  0.4718 -0.0038
 8330SOL    HW136452   1.773   3.157  16.013  0.9136  0.8297 -1.3381
 8330SOL    HW236453   1.854   3.088  16.109 -1.2503 -0.2062  0.6334
 8331SOL     OW36454   2.063   0.239  12.228  0.0852  0.2420  0.6666
 8331SOL    HW136455   2.143   0.191  12.246 -0.1985 -0.2295  0.6894
 8331SOL    HW236456   2.091   0.322  12.190 -1.9412  0.7202  0.1919
 8332SOL     OW36457   4.024   3.373   9.027 -0.4209 -0.0406 -0.3762
 8332SOL    HW136458   4.005   3.467   9.025  2.1008  0.4655 -0.6563
 8332SOL    HW236459   4.115   3.367   9.058 -0.8538  0.7226  1.0393
 8333SOL     OW36460   4.473   2.850   7.870 -0.1866 -0.7021  0.9098
 8333SOL    HW136461   4.382   2.820   7.873 -0.0177 -1.2471  0.4754
 8333SOL    HW236462   4.521   2.771   7.893 -1.1733 -1.6153 -0.1995
 8334SOL     OW36463   0.820   3.359   7.135  0.1445  0.5758 -0.7793
 8334SOL    HW136464   0.739   3.310   7.122  0.4950 -0.0352 -0.6686
 8334SOL    HW236465   0.792   3.438   7.181  0.3412  0.3887 -0.3317
 8335SOL     OW36466   2.091   1.977   9.262 -0.0610 -0.1570 -0.4843
 8335SOL    HW136467   2.115   1.926   9.339  0.3407  0.2791 -0.3207
 8335SOL    HW236468   2.057   1.908   9.206 -2.6433  1.0369 -0.3682
 8336SOL     OW36469   3.059   4.055   0.902 -0.0139  0.0907  0.2999
 8336SOL    HW136470   2.979   4.068   0.954  0.0853  1.6755  0.0599
 8336SOL    HW236471   3.027   4.109   0.830 -1.6255 -1.9178 -0.5162
 8337SOL     OW36472   1.465   0.011   0.764 -0.3824 -0.0569  0.8119
 8337SOL    HW136473   1.556   0.003   0.791 -0.6892 -2.2443  1.2405
 8337SOL    HW236474   1.448   0.100   0.795 -2.6067 -0.5139  0.9564
 8338SOL     OW36475   3.332   4.013   4.970 -0.3844 -0.2538  0.1191
 8338SOL    HW136476   3.337   3.952   4.896  0.4338  0.0530 -0.0772
 8338SOL    HW236477   3.421   4.048   4.968  0.1147 -1.6609 -3.0405
 8339SOL     OW36478   3.148   0.500   4.159  0.4462 -0.0724 -0.0316
 8339SOL    HW136479   3.156   0.414   4.200 -1.0025  0.6901  1.8481
 8339SOL    HW236480   3.057   0.526   4.175  0.9888  1.8373 -0.0849
 8340SOL     OW36481   4.435   4.044   7.846 -0.1792 -0.4721  0.4503
 8340SOL    HW136482   4.445   4.057   7.941 -0.2949  2.4852  0.0811
 8340SOL    HW236483   4.518   4.003   7.824  0.6540  0.8897  1.0111
 8341SOL     OW36484   4.489   2.509   9.612 -0.1472  0.7320 -0.3693
 8341SOL    HW136485   4.573   2.552   9.597  0.6047 -0.5077  0.3117
 8341SOL    HW236486   4.471   2.526   9.704  0.5504  1.2370 -0.3309
 8342SOL     OW36487   2.576   4.604   4.111 -0.2529 -0.1548 -0.0012
 8342SOL    HW136488   2.531   4.671   4.163 -0.1573  1.2076 -1.6863
 8342SOL    HW236489   2.518   4.591   4.036 -1.1804 -0.6289  0.8064
 8343SOL     OW36490   2.245   4.505   9.568  0.5429  0.2971 -0.2373
 8343SOL    HW136491   2.216   4.518   9.658  0.2224 -1.3797 -0.0995
 8343SOL    HW236492   2.237   4.410   9.571  2.2177  0.1643  0.3519
 8344SOL     OW36493   1.431   0.691   6.097  0.3154  0.2618  0.4096
 8344SOL    HW136494   1.401   0.741   6.021  2.6306  0.9568 -0.0610
 8344SOL    HW236495   1.502   0.636   6.063 -0.2641  0.4701 -1.1492
 8345SOL     OW36496   3.849   4.301   4.478 -0.0423 -0.2426 -0.0547
 8345SOL    HW136497   3.852   4.212   4.445  1.7490 -0.0319 -0.4358
 8345SOL    HW236498   3.920   4.351   4.438  0.9584  0.6803  2.8758
 8346SOL     OW36499   3.735   3.075   1.208 -0.1486 -0.0234  0.2900
 8346SOL    HW136500   3.813   3.019   1.200  0.8493  1.3903  0.0275
 8346SOL    HW236501   3.676   3.028   1.150  0.3919 -1.2728  0.7496
 8347SOL     OW36502   0.506   3.447  12.929 -1.2798  0.4033 -0.2429
 8347SOL    HW136503   0.438   3.401  12.881 -1.6771 -0.1480  0.8548
 8347SOL    HW236504   0.512   3.532  12.885 -3.3119 -0.1887 -1.6249
 8348SOL     OW36505   3.472   2.019   6.120 -0.4526  0.2162  0.0277
 8348SOL    HW136506   3.388   2.014   6.076 -0.7504  0.6356  0.5588
 8348SOL    HW236507   3.515   1.959   6.059  1.7641  0.8007  1.0165
 8349SOL     OW36508   0.074   0.431   7.381 -0.3007  0.0121 -0.0771
 8349SOL    HW136509   0.025   0.416   7.462  0.5010 -1.0055  0.2151
 8349SOL    HW236510   0.021   0.500   7.340  0.8229 -0.7306 -2.7693
 8350SOL     OW36511   3.896   2.492  12.807  0.7987 -0.2871  0.1849
 8350SOL    HW136512   3.905   2.405  12.767 -1.5342 -1.1983  1.6405
 8350SOL    HW236513   3.891   2.474  12.901  0.6721  4.4571  1.0493
 8351SOL     OW36514   0.533   0.814  13.803  0.0171 -0.5211  0.4769
 8351SOL    HW136515   0.473   0.740  13.790 -3.0472  1.8565  1.2719
 8351SOL    HW236516   0.598   0.810  13.733  2.0211  0.6194  2.3078
 8352SOL     OW36517   2.348   3.252  16.420 -0.6747  0.3341  0.1226
 8352SOL    HW136518   2.370   3.262  16.328  0.2064  1.8580  0.5139
 8352SOL    HW236519   2.258   3.284  16.413 -0.1540  1.6137 -0.5575
 8353SOL     OW36520   4.625   3.088   0.281 -0.7337 -0.1832 -0.5746
 8353SOL    HW136521   4.712   3.053   0.259 -1.0193 -0.9652 -0.4351
 8353SOL    HW236522   4.566   3.018   0.255 -1.5078  0.2960 -0.1034
 8354SOL     OW36523   3.417   4.336  15.941  0.5489 -0.1254  0.0561
 8354SOL    HW136524   3.432   4.361  15.850  0.5173 -0.4441 -0.0359
 8354SOL    HW236525   3.425   4.424  15.978 -0.7625  0.5555 -1.3211
 8355SOL     OW36526   0.171   2.226   0.920 -0.4438 -0.0143 -0.2987
 8355SOL    HW136527   0.166   2.295   0.986  0.0239 -0.3233  0.0616
 8355SOL    HW236528   0.078   2.218   0.902 -0.7547 -2.0603  2.1324
 8356SOL     OW36529   3.381   3.290   4.075  0.2380 -0.3757  0.3284
 8356SOL    HW136530   3.392   3.195   4.082  0.3797 -0.3988 -0.2513
 8356SOL    HW236531   3.285   3.288   4.069  0.0750  0.4719  2.8144
 8357SOL     OW36532   3.265   1.483  14.109  0.6964 -0.2888  0.0560
 8357SOL    HW136533   3.350   1.510  14.075 -0.5979  0.7711 -2.3659
 8357SOL    HW236534   3.218   1.485  14.026  2.1660  2.2963 -0.7046
 8358SOL     OW36535   4.670   2.240   1.277 -0.4584  0.2428  0.1283
 8358SOL    HW136536   4.708   2.226   1.364 -0.0894  1.7026  0.1861
 8358SOL    HW236537   4.584   2.264   1.312  0.5523  3.4429  0.3249
 8359SOL     OW36538   3.659   3.920   8.992 -0.3608  0.1299 -0.4280
 8359SOL    HW136539   3.607   3.868   8.930 -0.3581  0.7178 -0.9218
 8359SOL    HW236540   3.675   3.849   9.054  1.6687  0.1528 -0.9099
 8360SOL     OW36541   3.975   4.100  16.608  0.5611 -0.1806  0.5551
 8360SOL    HW136542   3.938   4.078  16.523  1.4907 -0.9754  0.3515
 8360SOL    HW236543   3.995   4.193  16.594  0.3868 -0.0225  1.3324
 8361SOL     OW36544   2.024   2.953   6.213 -0.4289 -0.4318  0.3079
 8361SOL    HW136545   2.107   2.957   6.259  0.1083  1.1874 -0.7822
 8361SOL    HW236546   2.045   3.022   6.150  0.4484 -1.7110 -0.8033
 8362SOL     OW36547   4.170   4.157   4.373 -0.1010  0.3782  0.5539
 8362SOL    HW136548   4.239   4.096   4.399  1.0343  2.0967  1.6080
 8362SOL    HW236549   4.228   4.221   4.331 -0.8093  0.5129 -0.2049
 8363SOL     OW36550   3.279   3.118   6.764 -0.0130  0.2842 -0.0826
 8363SOL    HW136551   3.313   3.141   6.850  1.6848  0.1347 -0.7151
 8363SOL    HW236552   3.202   3.174   6.769 -0.8261 -0.9423  1.0976
 8364SOL     OW36553   0.178   0.802   5.837  0.2676  0.1889 -0.1081
 8364SOL    HW136554   0.135   0.748   5.770  0.3061  1.6050 -1.2709
 8364SOL    HW236555   0.111   0.788   5.904  1.5786  2.0213  1.5638
 8365SOL     OW36556   1.660   1.814   4.731  0.2235  0.5020  0.3858
 8365SOL    HW136557   1.624   1.862   4.656  0.8080 -0.6393 -0.6214
 8365SOL    HW236558   1.601   1.843   4.801 -0.3527  0.2530  0.0009
 8366SOL     OW36559   4.581   0.492  15.947 -0.2764 -0.2966  0.5966
 8366SOL    HW136560   4.653   0.491  15.884 -0.1155 -0.6772  0.7854
 8366SOL    HW236561   4.593   0.579  15.985 -4.0158  0.7466 -0.5384
 8367SOL     OW36562   1.984   3.867  15.012 -0.6401  0.3079 -0.1960
 8367SOL    HW136563   1.923   3.894  15.081 -0.9986  0.2005 -0.4732
 8367SOL    HW236564   1.954   3.923  14.940 -0.0281  0.7659 -0.0915
 8368SOL     OW36565   2.661   3.968   4.594 -0.1312  0.3407 -0.7249
 8368SOL    HW136566   2.573   3.941   4.620  0.9308 -0.7164  1.7872
 8368SOL    HW236567   2.683   4.017   4.672  0.8834  0.6996 -1.2397
 8369SOL     OW36568   1.230   2.712   0.589  0.2660 -0.2542  0.2956
 8369SOL    HW136569   1.244   2.794   0.636  0.7854  0.1783 -0.6155
 8369SOL    HW236570   1.162   2.739   0.527 -0.0152  0.3279  0.8577
 8370SOL     OW36571   3.780   0.037  14.716 -0.1237 -0.0059  0.0163
 8370SOL    HW136572   3.838   0.036  14.792  1.1006 -0.8389 -0.9279
 8370SOL    HW236573   3.832   0.085  14.652  0.4647  0.5330  0.9048
 8371SOL     OW36574   3.866   3.189   5.146  0.4617  0.4052  0.1129
 8371SOL    HW136575   3.788   3.245   5.153 -1.0199 -1.5682 -0.5836
 8371SOL    HW236576   3.854   3.145   5.062  0.7326 -0.0167  0.2944
 8372SOL     OW36577   3.157   1.144  17.364  0.1039 -0.0422  0.5621
 8372SOL    HW136578   3.094   1.072  17.370  0.6870 -0.8826 -3.8587
 8372SOL    HW236579   3.098   1.208  17.325  0.4331  0.0041  0.1497
 8373SOL     OW36580   1.262   4.540   3.779 -0.4208  0.3179  0.5424
 8373SOL    HW136581   1.270   4.563   3.687 -1.0031 -2.4856 -0.2082
 8373SOL    HW236582   1.181   4.591   3.790 -0.5552  0.8267 -2.9442
 8374SOL     OW36583   2.574   1.356   7.900  0.4080 -0.4828  0.3128
 8374SOL    HW136584   2.510   1.289   7.924  0.1215 -0.8513 -1.5105
 8374SOL    HW236585   2.517   1.433   7.904 -1.8313 -2.3294  4.1150
 8375SOL     OW36586   0.042   2.661   9.007  0.3601  0.2434 -0.0482
 8375SOL    HW136587   0.071   2.571   9.017 -1.6337 -0.2802  1.0109
 8375SOL    HW236588   0.021   2.655   8.913  1.8845 -1.9961 -0.2325
 8376SOL     OW36589   2.955   3.643   8.318 -0.1232 -0.0117 -0.6269
 8376SOL    HW136590   2.925   3.669   8.232 -2.0078 -1.5159 -0.4385
 8376SOL    HW236591   2.974   3.727   8.359  2.0617 -1.3867  1.2016
 8377SOL     OW36592   0.688   3.093   5.067 -0.4461 -0.7118 -0.2371
 8377SOL    HW136593   0.689   3.160   5.135  0.6979 -0.1203 -0.8267
 8377SOL    HW236594   0.594   3.081   5.072 -0.6256  0.6122 -0.3941
 8378SOL     OW36595   0.379   1.272  13.720  0.4987 -0.2048 -0.6735
 8378SOL    HW136596   0.405   1.347  13.667  0.7647  0.9220  1.0597
 8378SOL    HW236597   0.294   1.254  13.682  1.0017 -0.7763 -1.5341
 8379SOL     OW36598   2.727   2.719   5.599 -0.6511 -0.1584  0.1905
 8379SOL    HW136599   2.640   2.717   5.559 -0.1222  1.9664 -1.0483
 8379SOL    HW236600   2.744   2.813   5.598 -0.6185 -0.1801 -1.2328
 8380SOL     OW36601   2.313   4.335  11.336 -0.1153 -0.7216  0.1172
 8380SOL    HW136602   2.381   4.398  11.359 -0.1309  0.1398 -2.2570
 8380SOL    HW236603   2.281   4.369  11.253  1.8703  0.7945 -0.0249
 8381SOL     OW36604   0.792   0.412   3.657  0.3089  0.2252 -0.3430
 8381SOL    HW136605   0.835   0.498   3.654  3.2293 -1.2845 -1.9943
 8381SOL    HW236606   0.742   0.419   3.738  1.3167  0.3524  0.2680
 8382SOL     OW36607   2.548   1.775  14.437  0.2554  0.1908  0.0075
 8382SOL    HW136608   2.508   1.770  14.524  0.3570  1.4985  0.1335
 8382SOL    HW236609   2.478   1.770  14.372 -0.1144 -2.7439  0.6516
 8383SOL     OW36610   4.031   4.426   8.843 -0.2136 -0.3940  0.0243
 8383SOL    HW136611   4.007   4.516   8.865  1.1432 -0.2422  0.8904
 8383SOL    HW236612   4.117   4.444   8.805  0.1269 -0.7543  0.6042
 8384SOL     OW36613   1.704   1.457   1.621 -0.2357 -0.3446  0.6663
 8384SOL    HW136614   1.738   1.515   1.689 -1.0184 -0.5370  1.2217
 8384SOL    HW236615   1.787   1.442   1.574  0.5588  1.0631  1.6054
 8385SOL     OW36616   2.511   1.068  12.471  0.3138  1.0175 -1.0758
 8385SOL    HW136617   2.464   1.035  12.395 -0.3529 -2.2566  0.7796
 8385SOL    HW236618   2.548   0.987  12.504 -0.4085  0.3057 -2.0026
 8386SOL     OW36619   2.488   1.759  14.966 -0.4335 -0.4527  0.5115
 8386SOL    HW136620   2.408   1.795  15.004 -0.9829  1.3279 -2.2987
 8386SOL    HW236621   2.513   1.709  15.043  0.1485 -1.8585 -0.5958
 8387SOL     OW36622   3.845   3.866   4.869  0.0093  0.0067 -0.3164
 8387SOL    HW136623   3.903   3.939   4.891  0.2173 -0.1179 -0.4447
 8387SOL    HW236624   3.849   3.852   4.775  0.8599  0.1291 -0.2978
 8388SOL     OW36625   3.611   0.849   3.643 -0.4779  0.0055 -0.0448
 8388SOL    HW136626   3.686   0.907   3.635  1.1378 -1.8803  1.3795
 8388SOL    HW236627   3.657   0.772   3.676 -1.7013  0.0953  1.9027
 8389SOL     OW36628   4.252   0.497   4.445 -0.0672 -0.2700  0.3973
 8389SOL    HW136629   4.222   0.516   4.356  0.8473  0.0465  0.1541
 8389SOL    HW236630   4.343   0.523   4.432 -0.2814  0.2534 -0.0663
 8390SOL     OW36631   1.234   2.303  11.590  0.3570 -0.1056 -0.3424
 8390SOL    HW136632   1.317   2.283  11.634  0.3016  0.1034 -0.1414
 8390SOL    HW236633   1.239   2.395  11.563  0.4152 -0.0720 -0.2186
 8391SOL     OW36634   2.401   1.534   7.468  0.0613  0.1666  0.2443
 8391SOL    HW136635   2.311   1.547   7.436  0.0538 -0.1423  0.1407
 8391SOL    HW236636   2.449   1.612   7.441 -0.6497  0.5129 -0.0375
 8392SOL     OW36637   4.133   4.424  11.234  0.6214 -0.0046 -0.2890
 8392SOL    HW136638   4.119   4.407  11.140 -1.0990  0.6380 -0.1493
 8392SOL    HW236639   4.104   4.515  11.222 -0.1662 -0.4284 -1.7258
 8393SOL     OW36640   3.420   4.048   8.063 -0.0353 -0.2106  0.0517
 8393SOL    HW136641   3.440   4.048   7.969 -0.6503  2.0235 -0.0810
 8393SOL    HW236642   3.418   3.955   8.082 -0.5947 -0.2629 -0.2501
 8394SOL     OW36643   1.005   4.248   4.025  0.4314 -0.0796 -0.4427
 8394SOL    HW136644   0.923   4.207   3.999 -0.3375  0.9151  0.4474
 8394SOL    HW236645   0.977   4.268   4.114 -0.4093 -0.8924 -0.5237
 8395SOL     OW36646   2.186   4.684  10.954 -0.0830  0.5332 -0.0928
 8395SOL    HW136647   2.218   0.029  11.011 -1.6242  0.3109  1.0518
 8395SOL    HW236648   2.092   4.700  10.964  0.5440  4.9658 -1.3899
 8396SOL     OW36649   1.227   4.134  10.440 -0.2434 -0.0474  0.1967
 8396SOL    HW136650   1.148   4.103  10.397  0.2217 -1.4487  0.3499
 8396SOL    HW236651   1.256   4.212  10.391  0.9289 -0.8125 -0.3385
 8397SOL     OW36652   3.761   1.712  10.967  0.2630 -0.4699  0.3793
 8397SOL    HW136653   3.775   1.647  11.036 -2.0955 -0.5681  0.7529
 8397SOL    HW236654   3.854   1.725  10.951 -0.3738  2.3843 -0.9785
 8398SOL     OW36655   0.685   3.773   6.037 -0.1188 -0.2453 -0.1871
 8398SOL    HW136656   0.604   3.737   6.073 -1.0626  3.6392  1.5244
 8398SOL    HW236657   0.670   3.867   6.026 -0.0844 -0.1228  0.8738
 8399SOL     OW36658   3.843   0.947  13.873 -0.7471 -0.5729  0.2901
 8399SOL    HW136659   3.771   1.006  13.853 -0.9843 -1.3628 -1.2158
 8399SOL    HW236660   3.837   0.936  13.968 -0.4810  0.4707  0.4324
 8400SOL     OW36661   0.975   4.425   7.208 -0.0283  0.1654  0.3948
 8400SOL    HW136662   1.009   4.503   7.251  1.4209 -0.4583  0.3727
 8400SOL    HW236663   1.046   4.362   7.219  0.7672  0.6114 -2.0863
 8401SOL     OW36664   1.980   3.627   7.674 -0.3321  0.1497 -0.0272
 8401SOL    HW136665   1.919   3.558   7.701  0.0819  0.6138  2.0732
 8401SOL    HW236666   2.017   3.662   7.754  0.9194 -2.2562  0.4349
 8402SOL     OW36667   2.523   4.477  16.298  0.1287 -0.1464 -0.3477
 8402SOL    HW136668   2.535   4.424  16.219  1.0609 -0.5521  0.0639
 8402SOL    HW236669   2.452   4.530  16.263  0.5069  1.3286  1.1230
 8403SOL     OW36670   1.610   2.206  12.017 -0.2080 -0.4443  0.1321
 8403SOL    HW136671   1.626   2.116  11.988 -1.3658  0.2212 -2.5256
 8403SOL    HW236672   1.683   2.253  11.978 -2.2278  2.1579 -0.5108
 8404SOL     OW36673   3.209   3.763   5.400 -0.4369  0.5586 -0.2647
 8404SOL    HW136674   3.216   3.829   5.332 -4.4365  3.2929  1.9777
 8404SOL    HW236675   3.149   3.809   5.459 -0.0172  0.8390 -0.0601
 8405SOL     OW36676   2.488   3.670   7.294 -0.3752  0.1042  0.2316
 8405SOL    HW136677   2.420   3.605   7.277 -0.7416  0.9715 -1.6539
 8405SOL    HW236678   2.441   3.745   7.257  0.5852  0.1043 -0.9824
 8406SOL     OW36679   0.853   3.705   6.390 -0.7330  0.5674 -0.0944
 8406SOL    HW136680   0.800   3.632   6.422 -2.1578  0.9236 -1.6327
 8406SOL    HW236681   0.897   3.743   6.466  0.1265 -1.1300  0.2570
 8407SOL     OW36682   0.241   1.614   2.205 -0.1571 -0.1259 -0.0830
 8407SOL    HW136683   0.191   1.651   2.277  0.9273  1.8911 -0.3655
 8407SOL    HW236684   0.178   1.590   2.137 -0.1992 -2.4182  0.7646
 8408SOL     OW36685   3.072   1.202   8.417 -0.1742 -0.1489  0.1537
 8408SOL    HW136686   3.151   1.191   8.470 -0.9102  3.2378  1.9434
 8408SOL    HW236687   3.041   1.114   8.397 -0.8356 -0.1906  1.3755
 8409SOL     OW36688   2.289   2.291   3.688  0.4319 -0.2515  0.0988
 8409SOL    HW136689   2.284   2.197   3.706 -0.5024  0.0840  1.6177
 8409SOL    HW236690   2.217   2.309   3.628  0.2710 -1.7668 -0.1658
 8410SOL     OW36691   3.464   3.042  12.218 -0.3394 -1.0028  0.2347
 8410SOL    HW136692   3.391   2.990  12.253  0.9109 -2.3838  0.7859
 8410SOL    HW236693   3.469   2.987  12.140 -1.6272 -0.7656 -0.0199
 8411SOL     OW36694   2.304   2.466   3.913  0.2313  0.3182  0.5803
 8411SOL    HW136695   2.382   2.469   3.969  0.4500 -2.0822  0.4053
 8411SOL    HW236696   2.327   2.400   3.848  0.1480 -0.5098  1.3915
 8412SOL     OW36697   4.109   4.359  16.253  0.2412 -0.1210 -0.5004
 8412SOL    HW136698   4.195   4.401  16.256  0.6790 -1.0598 -0.0247
 8412SOL    HW236699   4.091   4.380  16.161 -1.8630  0.9761  0.1765
 8413SOL     OW36700   1.771   2.969   8.815  0.0153  0.0375 -0.2625
 8413SOL    HW136701   1.819   3.039   8.772 -0.0810 -0.1440 -0.6657
 8413SOL    HW236702   1.779   2.900   8.748 -0.8398 -1.3711  1.0733
 8414SOL     OW36703   4.716   3.903   5.686 -0.4202  0.0242  0.2406
 8414SOL    HW136704   0.027   3.955   5.614 -0.2264  0.8433  0.9338
 8414SOL    HW236705   4.720   3.968   5.756  1.3554  3.5687 -3.2070
 8415SOL     OW36706   4.645   3.619   9.776  0.0248 -0.0748  0.4758
 8415SOL    HW136707   4.617   3.707   9.803 -0.5228 -0.4194  1.0238
 8415SOL    HW236708   4.656   3.597   9.868 -0.2522  1.2529  0.8280
 8416SOL     OW36709   0.368   2.744   6.203 -0.0016  0.6054 -0.1139
 8416SOL    HW136710   0.302   2.727   6.135 -0.7309  0.4880  0.6302
 8416SOL    HW236711   0.394   2.657   6.231 -0.1440  1.0871  1.5038
 8417SOL     OW36712   2.138   0.285   6.796 -0.5205 -0.2978 -0.0748
 8417SOL    HW136713   2.159   0.283   6.889 -1.5371 -0.4162  0.1448
 8417SOL    HW236714   2.142   0.193   6.769 -0.4297 -1.4656  3.9613
 8418SOL     OW36715   1.826   4.066   6.315  0.1050 -0.2427  0.2693
 8418SOL    HW136716   1.831   4.112   6.231 -0.8350  0.8178  0.7823
 8418SOL    HW236717   1.903   4.010   6.314  0.2664  0.0012 -0.9005
 8419SOL     OW36718   2.053   1.300   9.379 -0.1791  0.2691 -0.4871
 8419SOL    HW136719   1.964   1.335   9.369  0.8238  2.5379 -1.3872
 8419SOL    HW236720   2.027   1.238   9.446 -1.3376  0.9569 -0.2933
 8420SOL     OW36721   2.156   0.515   9.315 -0.2017 -0.1988 -0.4429
 8420SOL    HW136722   2.217   0.587   9.303 -1.0304  0.6604  0.4753
 8420SOL    HW236723   2.158   0.478   9.227  0.7256  0.9958 -0.9225
 8421SOL     OW36724   2.546   1.388  16.887  0.5853 -0.0883  0.3626
 8421SOL    HW136725   2.465   1.386  16.835  1.1710  2.3017 -0.6140
 8421SOL    HW236726   2.521   1.322  16.952  0.6142  0.3811  0.8492
 8422SOL     OW36727   4.524   4.337   0.523 -0.1830  0.5226 -0.2481
 8422SOL    HW136728   4.444   4.323   0.574 -1.9311  1.5965 -2.7054
 8422SOL    HW236729   4.543   4.431   0.529  0.5470  0.2915  1.0737
 8423SOL     OW36730   0.166   0.499   6.657 -0.3004 -0.2707 -0.7408
 8423SOL    HW136731   0.250   0.453   6.651 -0.5192 -1.0331  1.8175
 8423SOL    HW236732   0.117   0.442   6.716  1.9865  0.0055  1.4372
 8424SOL     OW36733   2.362   2.743   8.644 -0.3304 -0.1684  0.3651
 8424SOL    HW136734   2.332   2.706   8.727  0.4074  0.6081  0.9776
 8424SOL    HW236735   2.381   2.664   8.593  1.7432  1.3879 -1.3003
 8425SOL     OW36736   2.112   2.348   3.495 -0.2040 -0.2738  0.3915
 8425SOL    HW136737   2.026   2.367   3.456 -1.7009 -1.0271  3.3464
 8425SOL    HW236738   2.147   2.433   3.469 -0.9782  0.0681  0.4622
 8426SOL     OW36739   4.198   1.000   9.538 -0.2014  0.5703  0.1201
 8426SOL    HW136740   4.153   1.005   9.454  0.0962  2.3307  0.0661
 8426SOL    HW236741   4.263   0.933   9.519 -0.8831 -0.0318 -0.0637
 8427SOL     OW36742   2.050   2.690   6.723 -0.2897  0.4794 -0.4100
 8427SOL    HW136743   1.961   2.724   6.730  0.5434  2.4021  0.9372
 8427SOL    HW236744   2.073   2.751   6.653  0.9404 -0.7869 -1.1237
 8428SOL     OW36745   2.791   1.662  16.997  0.3081 -0.3218  0.2806
 8428SOL    HW136746   2.796   1.569  16.973  1.1926  0.4844 -2.6619
 8428SOL    HW236747   2.791   1.649  17.091 -1.7620  0.6921  0.3989
 8429SOL     OW36748   0.369   1.068  14.569 -0.6245 -0.3530 -0.0015
 8429SOL    HW136749   0.452   1.028  14.597  1.0453  0.6799 -3.5441
 8429SOL    HW236750   0.326   1.090  14.652  0.8711 -2.4087  1.3482
 8430SOL     OW36751   1.538   3.354   5.746  0.3353  0.3044  0.6810
 8430SOL    HW136752   1.586   3.434   5.768  0.2129  0.2422  1.1709
 8430SOL    HW236753   1.454   3.372   5.788 -0.3837  0.8647 -0.9943
 8431SOL     OW36754   1.263   3.488   1.401 -0.2801 -0.3835  0.2312
 8431SOL    HW136755   1.300   3.417   1.453  0.7918 -0.1755 -0.2619
 8431SOL    HW236756   1.342   3.541   1.394 -0.4176 -0.3548 -1.2229
 8432SOL     OW36757   2.085   3.618   6.335 -0.7740 -0.1671 -0.7198
 8432SOL    HW136758   2.102   3.583   6.423 -2.4054 -0.2743 -0.4427
 8432SOL    HW236759   2.173   3.636   6.303 -1.7638 -0.3405 -3.5028
 8433SOL     OW36760   1.399   1.709   2.870 -0.5651 -0.0501  0.8251
 8433SOL    HW136761   1.458   1.752   2.808 -1.6236  0.3557  0.0862
 8433SOL    HW236762   1.461   1.711   2.943  0.7720 -2.8696 -0.2387
 8434SOL     OW36763   0.647   0.499   8.029  0.2374 -0.3381 -0.0295
 8434SOL    HW136764   0.719   0.448   7.992 -0.6805  1.0063 -3.7341
 8434SOL    HW236765   0.658   0.581   7.980 -1.3156  0.0276  0.2151
 8435SOL     OW36766   2.631   4.253   3.693  0.1324  0.3528  0.6260
 8435SOL    HW136767   2.545   4.277   3.658 -1.3435 -1.4214  3.0564
 8435SOL    HW236768   2.613   4.248   3.787 -1.2373 -1.7227  0.2629
 8436SOL     OW36769   3.668   1.855  13.052 -0.2215  1.3015 -0.2062
 8436SOL    HW136770   3.658   1.783  12.990  1.3944  1.1501 -0.2849
 8436SOL    HW236771   3.711   1.819  13.130  1.2627  1.3605 -0.9999
 8437SOL     OW36772   1.453   2.598   3.057  0.2480 -0.4489  0.0600
 8437SOL    HW136773   1.509   2.522   3.074 -2.1116 -2.3966 -0.9187
 8437SOL    HW236774   1.482   2.643   2.978 -1.0318 -0.1962 -0.2568
 8438SOL     OW36775   3.603   1.445   5.352  0.1290  0.5446  0.3473
 8438SOL    HW136776   3.587   1.446   5.257 -1.0594 -2.1365  0.5144
 8438SOL    HW236777   3.538   1.504   5.390 -0.0473  1.0225 -0.6848
 8439SOL     OW36778   3.015   0.924   6.377 -0.4764  0.2379  0.0831
 8439SOL    HW136779   2.979   0.986   6.313 -2.1034 -1.4417 -0.6157
 8439SOL    HW236780   2.934   0.933   6.428 -0.0991 -0.5562  0.8161
 8440SOL     OW36781   3.126   3.300   7.399 -0.8085 -0.1269 -0.0253
 8440SOL    HW136782   3.064   3.332   7.465  0.4971 -2.5498  2.4016
 8440SOL    HW236783   3.064   3.272   7.332 -1.8037  3.6850 -0.6899
 8441SOL     OW36784   2.194   0.022   6.696  0.1997  0.7629 -0.4699
 8441SOL    HW136785   2.243   4.669   6.668 -2.7729 -0.9252 -0.8979
 8441SOL    HW236786   2.175   0.056   6.609 -3.3102  0.7187  0.2943
 8442SOL     OW36787   3.526   4.093   7.202 -0.0427  0.2280  0.2337
 8442SOL    HW136788   3.523   4.131   7.115  0.3074 -0.4504 -0.0701
 8442SOL    HW236789   3.619   4.074   7.213  0.1657  1.8732  1.4903
 8443SOL     OW36790   0.889   0.932   9.046 -0.2333 -0.4690  0.1318
 8443SOL    HW136791   0.981   0.910   9.055 -0.4269 -1.3106  0.0363
 8443SOL    HW236792   0.905   1.021   9.080 -1.7317  1.3316 -3.8289
 8444SOL     OW36793   2.433   0.695   5.370  0.0197 -0.0462 -0.3181
 8444SOL    HW136794   2.471   0.748   5.301  1.1531 -1.1037 -0.5119
 8444SOL    HW236795   2.429   0.753   5.446 -0.8589  0.0586 -0.4464
 8445SOL     OW36796   3.693   4.613   3.876  0.2362  0.0232  0.0155
 8445SOL    HW136797   3.681   4.694   3.827 -0.0978  0.2109  0.3960
 8445SOL    HW236798   3.741   4.558   3.816 -0.4856 -0.1503 -0.4048
 8446SOL     OW36799   1.236   0.946  15.606  0.5626  0.3711 -0.9652
 8446SOL    HW136800   1.148   0.983  15.596 -0.0682 -0.3899  1.8901
 8446SOL    HW236801   1.282   1.026  15.633 -2.1384  1.6258 -0.1293
 8447SOL     OW36802   4.393   3.631   3.299 -0.5639  0.0636 -0.0762
 8447SOL    HW136803   4.324   3.618   3.234 -1.0434  1.0366  0.2334
 8447SOL    HW236804   4.469   3.647   3.243 -0.5397 -0.8508 -0.2996
 8448SOL     OW36805   3.376   3.275   3.606  0.1298  0.4318 -0.0026
 8448SOL    HW136806   3.425   3.340   3.657 -2.3170  2.6807 -0.5473
 8448SOL    HW236807   3.417   3.285   3.520 -0.6442  0.5814 -0.3457
 8449SOL     OW36808   3.699   3.540   5.088  0.7881 -0.0871  0.2299
 8449SOL    HW136809   3.697   3.454   5.130 -0.7927  0.3989  1.1659
 8449SOL    HW236810   3.691   3.515   4.996 -1.3014  0.0023  0.3837
 8450SOL     OW36811   4.687   2.799   2.763 -0.3974 -0.0392  0.4803
 8450SOL    HW136812   0.026   2.840   2.706  1.7390 -2.3874  1.1856
 8450SOL    HW236813   4.695   2.712   2.726 -1.5715  0.0472 -0.0021
 8451SOL     OW36814   1.975   4.224   0.372  0.0230 -0.1308 -0.6440
 8451SOL    HW136815   1.931   4.140   0.386 -0.1524 -0.0276 -0.5739
 8451SOL    HW236816   2.056   4.195   0.329 -0.5790 -1.5184 -0.8644
 8452SOL     OW36817   2.208   1.760   7.076  0.3459 -0.6114  0.6382
 8452SOL    HW136818   2.300   1.779   7.097  0.4739 -0.6232  0.0926
 8452SOL    HW236819   2.183   1.845   7.038 -0.5823 -2.0167 -1.8974
 8453SOL     OW36820   1.446   3.951   3.337  0.3682 -0.3686  0.5926
 8453SOL    HW136821   1.415   3.917   3.253  1.8574  0.6328 -0.3571
 8453SOL    HW236822   1.362   3.987   3.368 -1.2065 -3.1064 -0.5120
 8454SOL     OW36823   1.193   4.263   7.284  0.1726 -0.1335 -0.1843
 8454SOL    HW136824   1.171   4.237   7.374 -0.9051 -0.3548 -0.5146
 8454SOL    HW236825   1.186   4.177   7.242  0.6639  0.4448 -1.4348
 8455SOL     OW36826   0.925   1.705  11.266 -0.2292  0.0677  0.2694
 8455SOL    HW136827   0.909   1.615  11.241 -3.1024  0.7211 -0.1865
 8455SOL    HW236828   0.969   1.739  11.188  1.6715  0.3880  1.4783
 8456SOL     OW36829   0.998   1.339   3.500  0.1017 -0.2871 -0.5290
 8456SOL    HW136830   1.020   1.419   3.547 -0.6378  0.2419 -1.0974
 8456SOL    HW236831   0.904   1.331   3.515  0.0153  4.1549  1.3596
 8457SOL     OW36832   3.300   1.666  16.109 -0.0618  0.5243 -0.2136
 8457SOL    HW136833   3.257   1.719  16.176 -0.5190 -1.1974  0.8458
 8457SOL    HW236834   3.335   1.590  16.156  0.3081  0.2373 -0.9503
 8458SOL     OW36835   3.453   3.024   3.693  0.0278 -0.0728 -0.6380
 8458SOL    HW136836   3.424   3.115   3.693  2.0763  0.5693  0.2886
 8458SOL    HW236837   3.532   3.033   3.640  0.5344  0.8598  0.2861
 8459SOL     OW36838   0.836   4.086   4.272  0.7147  0.6142 -0.1804
 8459SOL    HW136839   0.847   4.179   4.293  0.1611  0.8890 -1.1085
 8459SOL    HW236840   0.795   4.054   4.352  0.0198 -1.3678 -1.3288
 8460SOL     OW36841   2.634   1.038   2.027 -0.6374  0.8702  0.3762
 8460SOL    HW136842   2.571   1.106   2.004 -0.4976 -0.1062 -2.9307
 8460SOL    HW236843   2.624   1.025   2.121  0.8402  2.6399  0.7680
 8461SOL     OW36844   3.720   4.341  17.385  0.4139 -0.3824  0.6075
 8461SOL    HW136845   3.757   4.291  17.312 -2.1312  1.5711 -1.9976
 8461SOL    HW236846   3.704   4.430  17.352 -2.2755 -1.8047 -1.7991
 8462SOL     OW36847   0.012   3.401   3.065 -0.4058  0.0016 -0.7479
 8462SOL    HW136848   0.087   3.457   3.084 -0.6416 -0.1654  0.6643
 8462SOL    HW236849   0.022   3.327   3.125  0.2441  1.6711  1.1879
 8463SOL     OW36850   0.866   1.826   6.810  0.2784 -0.6081  0.9053
 8463SOL    HW136851   0.864   1.922   6.807  2.6916 -0.5691  0.3996
 8463SOL    HW236852   0.883   1.809   6.718  0.9275 -2.3786  1.3518
 8464SOL     OW36853   4.319   0.492   8.870 -0.1630  0.4520  0.9762
 8464SOL    HW136854   4.323   0.478   8.775  0.7877 -2.6088  1.4578
 8464SOL    HW236855   4.364   0.409   8.886 -1.1276  0.1983  2.3552
 8465SOL     OW36856   0.208   3.906  15.758 -0.3328 -0.5640  0.7825
 8465SOL    HW136857   0.298   3.902  15.728 -0.7061  1.1735 -0.5345
 8465SOL    HW236858   0.189   3.986  15.708 -1.4678 -0.2279  1.7393
 8466SOL     OW36859   1.647   4.596  12.213 -0.8216 -0.7979 -0.3136
 8466SOL    HW136860   1.621   4.685  12.239  2.6386 -0.6260  2.5778
 8466SOL    HW236861   1.675   4.547  12.290  1.2264  0.3620 -0.3113
 8467SOL     OW36862   2.460   3.568  11.884  0.0777  0.3332  0.0253
 8467SOL    HW136863   2.462   3.474  11.870  0.1817  0.1739  1.1641
 8467SOL    HW236864   2.546   3.585  11.922  1.6998 -2.4305 -2.4097
 8468SOL     OW36865   2.332   1.980   6.197 -1.2757 -0.1467 -0.1948
 8468SOL    HW136866   2.307   1.987   6.105 -0.4630  1.2039 -0.3295
 8468SOL    HW236867   2.281   1.905   6.228 -0.1453  0.1185  2.3255
 8469SOL     OW36868   1.445   4.411   1.070  0.2961  0.5533  0.5339
 8469SOL    HW136869   1.387   4.358   1.015  1.5806 -0.6004  0.3217
 8469SOL    HW236870   1.521   4.354   1.059 -0.3769 -0.1396 -0.5772
 8470SOL     OW36871   4.634   0.302   5.684 -0.5857  0.2321 -0.0598
 8470SOL    HW136872   4.607   0.220   5.723  0.5506 -0.1527 -0.0827
 8470SOL    HW236873   4.677   0.265   5.607 -0.8145 -1.0718  0.4546
 8471SOL     OW36874   2.006   3.876  10.886 -0.2458  0.1681 -0.3812
 8471SOL    HW136875   1.942   3.928  10.837 -0.6689 -1.0910 -1.1653
 8471SOL    HW236876   2.095   3.895  10.855  0.7473  1.2421  3.1221
 8472SOL     OW36877   0.105   2.257   5.624 -0.2941  0.2920  0.0385
 8472SOL    HW136878   0.087   2.351   5.623  0.5256  0.4437 -0.1337
 8472SOL    HW236879   0.065   2.233   5.540 -1.0333 -0.2906  0.5577
 8473SOL     OW36880   3.636   2.270   2.619  0.1211 -0.1373  0.1646
 8473SOL    HW136881   3.720   2.233   2.642  0.6441 -0.5662 -2.4356
 8473SOL    HW236882   3.630   2.359   2.655 -3.1127  0.3425 -1.5327
 8474SOL     OW36883   2.213   4.117  11.195  0.6019 -0.1752  0.3394
 8474SOL    HW136884   2.248   4.191  11.244  2.1297 -0.3396 -0.5078
 8474SOL    HW236885   2.166   4.167  11.127  2.2366 -0.7428 -1.2031
 8475SOL     OW36886   3.996   2.663  15.584  0.4501 -0.6780 -0.4749
 8475SOL    HW136887   4.001   2.648  15.489  0.8922 -1.7372 -0.2890
 8475SOL    HW236888   3.913   2.710  15.591  0.4087 -0.8665  0.2981
 8476SOL     OW36889   3.833   1.981   5.911  0.8358 -0.1734 -0.0195
 8476SOL    HW136890   3.902   1.956   5.850  1.6884  0.2794  0.7615
 8476SOL    HW236891   3.815   2.063   5.865  0.1657 -1.4729 -2.0853
 8477SOL     OW36892   0.376   4.533   2.371 -0.4092 -0.3421 -0.4093
 8477SOL    HW136893   0.294   4.529   2.321 -0.5650  2.0942 -0.3551
 8477SOL    HW236894   0.415   4.614   2.339 -0.2280 -0.0446  0.5556
 8478SOL     OW36895   1.469   2.290   5.249 -0.7244  0.3332 -0.1428
 8478SOL    HW136896   1.516   2.372   5.232  2.3599 -1.2115  0.9410
 8478SOL    HW236897   1.416   2.290   5.169 -0.3326 -0.1204 -0.3993
 8479SOL     OW36898   4.373   0.267   7.199 -0.1310 -0.2329 -0.8489
 8479SOL    HW136899   4.285   0.233   7.214  0.5373 -1.5001  0.1545
 8479SOL    HW236900   4.367   0.310   7.113 -1.6640  1.9975  0.3785
 8480SOL     OW36901   0.829   1.493  11.541 -0.4851 -0.3556  0.3207
 8480SOL    HW136902   0.879   1.418  11.574  0.3154 -0.7902 -1.9144
 8480SOL    HW236903   0.854   1.561  11.605 -2.3299  0.7295 -0.1062
 8481SOL     OW36904   0.894   4.056   8.309  0.2221 -0.6150  0.2536
 8481SOL    HW136905   0.956   4.124   8.280 -1.2335  0.8169  0.5159
 8481SOL    HW236906   0.858   4.084   8.393  0.6911  1.0383 -0.0928
 8482SOL     OW36907   2.926   1.692   0.765 -0.8762  0.3072  0.5705
 8482SOL    HW136908   2.957   1.601   0.755  1.5541  1.0041  1.7573
 8482SOL    HW236909   2.842   1.678   0.808  0.3379  0.2520  2.9422
 8483SOL     OW36910   1.004   4.533   3.365  0.4599  0.0463 -0.2645
 8483SOL    HW136911   0.989   4.457   3.309  2.6528  0.1796 -1.0097
 8483SOL    HW236912   0.996   4.608   3.306  0.1098  1.0215  1.0279
 8484SOL     OW36913   0.759   0.838  10.517 -0.0860  0.0113  0.0117
 8484SOL    HW136914   0.790   0.759  10.473 -0.1129  1.6229 -2.9138
 8484SOL    HW236915   0.766   0.807  10.607 -2.8912 -2.5115 -0.6257
 8485SOL     OW36916   1.838   3.120   8.415 -0.0783 -0.2730  0.2819
 8485SOL    HW136917   1.926   3.117   8.377  0.5820 -1.5942  1.9549
 8485SOL    HW236918   1.783   3.095   8.340  0.1210 -2.5141  0.8940
 8486SOL     OW36919   0.422   1.007  15.530  0.4110 -0.9892  0.1035
 8486SOL    HW136920   0.375   1.017  15.612  0.6472  0.7886  0.0258
 8486SOL    HW236921   0.511   0.992  15.563  0.4097 -0.1873  0.4594
 8487SOL     OW36922   2.587   2.096   3.848 -0.2033 -0.3668  0.1822
 8487SOL    HW136923   2.566   2.112   3.940 -0.9882 -1.9258  0.2748
 8487SOL    HW236924   2.514   2.049   3.808 -1.0533  0.7313  0.4193
 8488SOL     OW36925   3.480   0.750   6.782 -0.0826 -0.3028 -0.0839
 8488SOL    HW136926   3.542   0.806   6.735  1.2595 -0.4178  1.5371
 8488SOL    HW236927   3.439   0.693   6.716  1.1059 -1.4309  0.1548
 8489SOL     OW36928   2.582   3.330   9.674  0.5364 -0.0565  0.1541
 8489SOL    HW136929   2.562   3.409   9.623  3.2002  1.4440  1.4439
 8489SOL    HW236930   2.676   3.327   9.694  0.7328 -0.4507 -0.8268
 8490SOL     OW36931   2.186   0.008   4.241  0.5786  0.2670 -0.2271
 8490SOL    HW136932   2.211   0.095   4.208  0.7621  0.5190  0.5793
 8490SOL    HW236933   2.126   4.705   4.172  1.0213  1.7496 -1.2031
 8491SOL     OW36934   4.083   0.279   8.592  0.0230  0.3064  0.1857
 8491SOL    HW136935   4.002   0.294   8.544  0.5337 -0.5386 -0.9461
 8491SOL    HW236936   4.051   0.235   8.670 -1.7837  0.4992 -0.4605
 8492SOL     OW36937   4.386   0.683   0.219 -0.4012 -0.1558 -0.1801
 8492SOL    HW136938   4.460   0.622   0.210 -0.4605 -0.0290 -1.5918
 8492SOL    HW236939   4.393   0.723   0.132 -0.4493  0.8685  0.2969
 8493SOL     OW36940   1.358   1.716  14.408  0.4728 -0.0099  0.3242
 8493SOL    HW136941   1.399   1.705  14.493 -1.0401  3.5152  1.4815
 8493SOL    HW236942   1.429   1.739  14.348  1.3056  0.9702  1.7039
 8494SOL     OW36943   0.636   0.114   8.586  0.2645 -0.5420 -0.2318
 8494SOL    HW136944   0.633   0.032   8.635  2.8625  0.6341  1.9292
 8494SOL    HW236945   0.703   0.080   8.526  0.1812  1.2334 -1.3452
 8495SOL     OW36946   4.513   0.140   4.886  0.0298 -0.0504 -0.5436
 8495SOL    HW136947   4.533   0.144   4.792  1.8391  0.7796 -0.1209
 8495SOL    HW236948   4.501   0.232   4.911  0.9664 -0.1746  0.3697
 8496SOL     OW36949   2.600   3.335   3.838 -0.1307  0.3632  0.4674
 8496SOL    HW136950   2.553   3.353   3.757 -1.5538  0.2105  1.2535
 8496SOL    HW236951   2.691   3.339   3.811 -0.8451 -1.3771 -2.1677
 8497SOL     OW36952   1.344   4.686   5.709  0.4758 -0.7125 -0.1246
 8497SOL    HW136953   1.392   0.015   5.645 -0.3693  0.7358  0.4566
 8497SOL    HW236954   1.419   4.628   5.722 -0.9856 -2.4653  0.4525
 8498SOL     OW36955   1.081   0.768   3.163  0.0566  0.2985 -0.0526
 8498SOL    HW136956   1.045   0.822   3.233 -1.9261 -0.3892 -0.5526
 8498SOL    HW236957   1.100   0.834   3.095  2.1870  0.7217  0.9586
 8499SOL     OW36958   2.213   0.715  17.494 -0.3636  0.3406  0.0813
 8499SOL    HW136959   2.259   0.658  17.432 -1.3542 -0.5160  0.1421
 8499SOL    HW236960   2.240   0.796  17.451  0.8631 -0.1031 -0.0083
 8500SOL     OW36961   4.094   0.820   3.113 -0.6281  0.3412  0.1357
 8500SOL    HW136962   4.035   0.854   3.046 -0.4533 -1.7294 -1.0822
 8500SOL    HW236963   4.049   0.742   3.147 -0.5417  0.5171  0.6543
 8501SOL     OW36964   2.347   1.259   8.262 -0.2469 -0.1073 -0.1802
 8501SOL    HW136965   2.421   1.204   8.237 -0.6114 -0.7784  0.2141
 8501SOL    HW236966   2.276   1.210   8.220  0.7011  0.3443 -2.2967
 8502SOL     OW36967   3.379   0.516   5.759  0.0434 -0.0786 -0.0188
 8502SOL    HW136968   3.385   0.429   5.720 -0.8067  0.1823 -0.7309
 8502SOL    HW236969   3.433   0.573   5.704  0.0020 -0.3868 -0.3784
 8503SOL     OW36970   1.626   0.303   1.837 -0.1065  0.3946  0.1905
 8503SOL    HW136971   1.681   0.349   1.774  1.5714 -2.6750 -0.6079
 8503SOL    HW236972   1.664   0.330   1.920  0.5236 -1.8780  0.6434
 8504SOL     OW36973   4.418   2.024   8.689  0.0856  0.0011  0.1351
 8504SOL    HW136974   4.465   1.945   8.716 -0.2783  0.2683  1.5599
 8504SOL    HW236975   4.393   1.985   8.605 -2.6559 -0.2489  1.0598
 8505SOL     OW36976   2.409   2.937  10.440 -0.0376  0.9582  0.5176
 8505SOL    HW136977   2.370   2.962  10.524  1.3119  0.8539  1.1761
 8505SOL    HW236978   2.469   2.865  10.458 -1.0519  0.8755  3.5397
 8506SOL     OW36979   4.627   4.241  10.193 -0.3726  0.4689 -0.0190
 8506SOL    HW136980   4.572   4.163  10.194  0.1381  0.1040 -1.3124
 8506SOL    HW236981   4.563   4.312  10.203  0.0924  0.7728  0.8553
 8507SOL     OW36982   4.271   2.727   7.423  0.2947  0.5857 -0.4256
 8507SOL    HW136983   4.196   2.670   7.443 -0.8177  1.8582 -0.9604
 8507SOL    HW236984   4.325   2.712   7.500 -1.6676 -0.2733  0.7941
 8508SOL     OW36985   2.189   2.243  15.155  0.6940 -0.0545 -0.0814
 8508SOL    HW136986   2.224   2.165  15.199 -1.4693 -1.6361 -1.1297
 8508SOL    HW236987   2.097   2.247  15.180  0.6764  0.6936 -0.2932
 8509SOL     OW36988   1.931   0.118   0.583  0.3399  0.5174 -0.6438
 8509SOL    HW136989   1.984   0.115   0.662  1.5758 -1.1317 -1.5468
 8509SOL    HW236990   1.997   0.106   0.515  0.3441  1.4833 -0.8182
 8510SOL     OW36991   3.175   2.025   2.167  0.0580  0.2366  0.0539
 8510SOL    HW136992   3.083   2.048   2.180 -0.1438 -0.9919  0.7657
 8510SOL    HW236993   3.162   1.942   2.122  2.9089 -0.4407  0.4595
 8511SOL     OW36994   0.501   0.408   6.380 -0.8168 -0.1856  0.1231
 8511SOL    HW136995   0.571   0.355   6.340 -1.6361 -0.8149 -0.4886
 8511SOL    HW236996   0.456   0.349   6.441  1.7396 -2.4650 -0.1589
 8512SOL     OW36997   2.034   4.195   6.555 -0.1114 -0.4158  0.4621
 8512SOL    HW136998   1.969   4.125   6.552  0.3576 -0.8151 -0.3652
 8512SOL    HW236999   1.990   4.280   6.563 -0.2519 -0.4660  0.2260
 8513SOL     OW37000   1.868   0.491   9.177  0.4056 -0.2585 -0.0267
 8513SOL    HW137001   1.842   0.470   9.267  1.4627 -2.5277 -0.2535
 8513SOL    HW237002   1.958   0.459   9.190  0.5919  0.7192  1.1538
 8514SOL     OW37003   3.573   2.786  17.185  0.4246  0.3751 -0.0845
 8514SOL    HW137004   3.568   2.731  17.106  1.0054  3.2447 -2.1267
 8514SOL    HW237005   3.527   2.728  17.246 -0.3893 -0.5392 -1.5556
 8515SOL     OW37006   0.601   2.399   6.192  0.1270  0.4591  0.4366
 8515SOL    HW137007   0.673   2.344   6.160  1.3360  2.3007 -0.0173
 8515SOL    HW237008   0.567   2.346   6.264 -1.1484  0.0693 -0.4422
 8516SOL     OW37009   1.547   1.091   3.414 -0.2371 -0.6866 -0.5948
 8516SOL    HW137010   1.528   1.173   3.369  1.5286  1.0830  1.8487
 8516SOL    HW237011   1.477   1.092   3.480  0.2115  0.1385 -0.1309
 8517SOL     OW37012   4.016   1.711  16.083 -0.3041  0.4557  0.0322
 8517SOL    HW137013   4.081   1.688  16.017  0.1738  2.3097 -0.1202
 8517SOL    HW237014   3.956   1.753  16.022 -2.3867 -0.6099  1.3469
 8518SOL     OW37015   2.758   0.615   3.077  0.1729 -0.1273 -0.2265
 8518SOL    HW137016   2.780   0.626   2.984 -2.4835  0.1604 -0.8138
 8518SOL    HW237017   2.760   0.519   3.085 -0.6228 -0.2133 -1.0103
 8519SOL     OW37018   4.460   4.549   6.624 -0.9315  0.0709 -0.3510
 8519SOL    HW137019   4.399   4.611   6.664 -0.2834  0.5715 -0.1492
 8519SOL    HW237020   4.526   4.607   6.585 -0.2758  0.8199  1.8652
 8520SOL     OW37021   1.860   0.072   2.550 -0.1732 -0.3991  0.0941
 8520SOL    HW137022   1.768   0.087   2.533  0.1542 -0.4655 -1.6807
 8520SOL    HW237023   1.896   0.111   2.471  0.3979 -1.8919 -0.3777
 8521SOL     OW37024   2.032   2.083   7.838 -0.2227 -0.1194  0.4049
 8521SOL    HW137025   2.095   2.030   7.886  1.2843  0.5061 -0.8541
 8521SOL    HW237026   1.952   2.042   7.871  0.2063 -0.7677  0.6382
 8522SOL     OW37027   1.668   3.968   2.880  0.3564 -0.0348  0.4701
 8522SOL    HW137028   1.654   3.893   2.938  2.6152 -2.3143 -1.8828
 8522SOL    HW237029   1.675   3.929   2.792  1.3828 -1.7459  1.3101
 8523SOL     OW37030   0.069   1.246   2.408 -0.8155  0.0408 -0.2428
 8523SOL    HW137031   0.092   1.154   2.395 -1.8394 -0.1978 -0.3677
 8523SOL    HW237032   0.080   1.252   2.503 -1.0757  0.7568 -0.2630
 8524SOL     OW37033   1.889   2.448   0.891  0.0663 -0.0992 -0.1907
 8524SOL    HW137034   1.955   2.415   0.952 -0.2287  2.0765  1.3082
 8524SOL    HW237035   1.917   2.538   0.873  1.8395 -0.1757  2.0860
 8525SOL     OW37036   2.935   3.133  17.457  0.4034  0.2720 -0.4720
 8525SOL    HW137037   2.890   3.118  17.374  0.8149 -2.3378 -0.2092
 8525SOL    HW237038   3.011   3.075  17.456 -0.9031 -1.4263 -0.5337
 8526SOL     OW37039   4.338   1.719  10.446  0.3546 -0.3975  0.3465
 8526SOL    HW137040   4.427   1.749  10.427 -0.1836  3.2200  3.5594
 8526SOL    HW237041   4.281   1.786  10.409  2.2237  0.7120 -0.5165
 8527SOL     OW37042   0.787   1.899   7.534 -0.1343 -0.2644  0.4651
 8527SOL    HW137043   0.881   1.886   7.541 -0.4855 -2.1724  1.5372
 8527SOL    HW237044   0.771   1.937   7.447  0.9739  1.7213  1.1211
 8528SOL     OW37045   1.584   0.516  17.465  0.2663 -0.0366  0.0002
 8528SOL    HW137046   1.538   0.434  17.449  1.2556 -0.2927 -1.5201
 8528SOL    HW237047   1.642   0.522  17.389  0.3557 -0.9523  0.0011
 8529SOL     OW37048   2.265   3.864  11.557 -0.0455 -0.8010 -0.0295
 8529SOL    HW137049   2.343   3.840  11.507  0.1438  1.1573 -0.6705
 8529SOL    HW237050   2.286   3.828  11.643  0.9431  0.3953  0.2311
 8530SOL     OW37051   3.306   4.071   5.843  0.5101 -0.3889 -0.5061
 8530SOL    HW137052   3.359   4.148   5.820  1.8557 -1.2404 -0.2729
 8530SOL    HW237053   3.326   4.012   5.770  0.1560 -1.0685 -0.0530
 8531SOL     OW37054   1.315   4.046  16.315 -0.0644  0.1509  0.0587
 8531SOL    HW137055   1.225   4.053  16.349  0.3398  2.2688  0.6793
 8531SOL    HW237056   1.345   4.130  16.279  2.0124  0.1836  1.8788
 8532SOL     OW37057   1.216   3.466   4.032  0.4190  0.0146  0.2614
 8532SOL    HW137058   1.298   3.443   4.074 -0.4771 -0.4733  1.7447
 8532SOL    HW237059   1.189   3.539   4.088 -0.8605  0.1833 -0.5611
 8533SOL     OW37060   4.049   3.010   5.662  0.0658  0.6053  0.6231
 8533SOL    HW137061   4.000   2.966   5.594 -1.3845 -0.1988  2.1855
 8533SOL    HW237062   3.985   3.048   5.722 -0.2462  0.9908  0.0437
 8534SOL     OW37063   2.258   4.258  14.785  0.1301  0.2186 -0.1369
 8534SOL    HW137064   2.301   4.172  14.788 -0.3321 -0.1010 -3.2131
 8534SOL    HW237065   2.187   4.247  14.848 -0.3037 -0.7025 -0.7854
 8535SOL     OW37066   4.703   4.279  14.068 -0.3270 -0.4135 -0.3802
 8535SOL    HW137067   4.630   4.323  14.024 -0.9359  1.3084  2.3259
 8535SOL    HW237068   4.663   4.257  14.153 -2.0053  0.0131 -1.0674
 8536SOL     OW37069   3.218   1.232  13.260  0.9357  0.6808  0.3923
 8536SOL    HW137070   3.152   1.167  13.284 -0.1975  1.7397  0.1599
 8536SOL    HW237071   3.209   1.290  13.336 -3.5542  0.3002  0.1538
 8537SOL     OW37072   2.619   0.447   2.147  0.1762 -0.0700  0.0115
 8537SOL    HW137073   2.667   0.527   2.122 -0.3172 -0.0308 -0.7735
 8537SOL    HW237074   2.530   0.481   2.157 -0.6321 -1.7057 -1.6839
 8538SOL     OW37075   4.301   1.982  12.349 -0.2218 -0.2687  0.2795
 8538SOL    HW137076   4.355   2.008  12.275 -1.4561 -0.1820 -0.5967
 8538SOL    HW237077   4.262   2.067  12.369  1.3971  0.1372  1.7272
 8539SOL     OW37078   1.272   3.815   2.016  0.2345  0.2299 -0.1062
 8539SOL    HW137079   1.319   3.796   1.935  2.2147  0.1085  1.0540
 8539SOL    HW237080   1.204   3.748   2.013  0.4782 -0.0742  1.0484
 8540SOL     OW37081   0.917   1.096   7.797  0.0018 -0.1563  0.3725
 8540SOL    HW137082   0.851   1.137   7.741 -0.2751 -0.2308  0.6393
 8540SOL    HW237083   0.889   1.130   7.882 -0.9679  2.8492 -1.1630
 8541SOL     OW37084   0.418   2.150   6.658  0.5191  0.0846 -0.2482
 8541SOL    HW137085   0.415   2.243   6.683 -1.1439  0.0202 -0.2715
 8541SOL    HW237086   0.324   2.135   6.652  0.7231 -1.0399 -0.6297
 8542SOL     OW37087   3.479   0.190   2.399  0.7912  0.2194  0.4208
 8542SOL    HW137088   3.529   0.270   2.384  1.6214  0.1894  3.0124
 8542SOL    HW237089   3.403   0.216   2.347  1.2267  0.2205 -0.2044
 8543SOL     OW37090   0.940   1.809  11.515 -0.3186  0.0077 -0.2497
 8543SOL    HW137091   0.928   1.759  11.434  0.7637  0.2196 -0.5450
 8543SOL    HW237092   0.897   1.894  11.510 -0.5462 -0.1167 -0.4108
 8544SOL     OW37093   3.118   3.524   3.565  0.0788 -0.0423 -0.2395
 8544SOL    HW137094   3.160   3.517   3.479  2.3991 -0.6438  0.9380
 8544SOL    HW237095   3.094   3.432   3.574  1.5453 -0.6027 -1.9922
 8545SOL     OW37096   0.617   3.090   9.002 -0.6131 -0.5376 -0.4815
 8545SOL    HW137097   0.542   3.032   9.002 -2.0139  1.2798  0.1461
 8545SOL    HW237098   0.651   3.074   9.090  0.7247  3.0848 -0.3281
 8546SOL     OW37099   1.547   2.490   2.311  0.5168  0.5783  0.0214
 8546SOL    HW137100   1.459   2.459   2.330  0.4922  1.9062  1.9889
 8546SOL    HW237101   1.521   2.582   2.305 -1.3466  0.0215 -0.2485
 8547SOL     OW37102   1.572   3.411   6.949  0.3348  0.3083 -0.0660
 8547SOL    HW137103   1.519   3.485   6.920 -1.0917  0.7297  3.5180
 8547SOL    HW237104   1.504   3.375   7.007 -0.9377  0.0858 -1.7109
 8548SOL     OW37105   2.166   0.528   3.116 -0.0720 -0.0314  0.2296
 8548SOL    HW137106   2.209   0.575   3.187 -0.7587  0.2267  0.4829
 8548SOL    HW237107   2.196   0.440   3.138 -0.5470 -0.7071 -1.8796
 8549SOL     OW37108   4.297   3.163   3.445  0.0318  0.0214  0.1892
 8549SOL    HW137109   4.240   3.226   3.402 -0.2619  0.1789  0.8085
 8549SOL    HW237110   4.306   3.202   3.532  1.7767  1.6258 -0.7112
 8550SOL     OW37111   3.833   1.984   1.651  0.4678  0.3436  0.2364
 8550SOL    HW137112   3.818   1.940   1.567 -0.6669 -0.0416  0.6456
 8550SOL    HW237113   3.784   2.066   1.643  0.7365  0.2223 -2.8175
 8551SOL     OW37114   3.323   3.509   6.892 -0.0663  0.1868 -0.8500
 8551SOL    HW137115   3.416   3.532   6.896  0.1855 -0.6856 -1.5183
 8551SOL    HW237116   3.322   3.414   6.905  0.5306  0.5915  2.2542
 8552SOL     OW37117   3.233   3.060   5.405  0.3776 -0.0808  0.2594
 8552SOL    HW137118   3.226   3.049   5.310  1.7057 -1.3340  0.3018
 8552SOL    HW237119   3.164   3.124   5.421 -0.0011 -0.6656  0.9923
 8553SOL     OW37120   2.617   0.459  15.557  0.1229 -0.0929  0.0869
 8553SOL    HW137121   2.693   0.477  15.501 -1.2928 -0.1553 -1.8522
 8553SOL    HW237122   2.554   0.451  15.486 -0.6720 -1.5586  0.9698
 8554SOL     OW37123   1.555   1.481   7.007 -0.4240  0.2364  0.3744
 8554SOL    HW137124   1.490   1.431   6.959 -2.9252  2.8250  1.0083
 8554SOL    HW237125   1.634   1.440   6.974 -2.5739  0.1293 -4.6238
 8555SOL     OW37126   0.700   2.107  10.685 -0.0142  0.2222 -0.0823
 8555SOL    HW137127   0.688   2.134  10.594  1.7452  0.6919 -0.1887
 8555SOL    HW237128   0.657   2.172  10.741  1.0825  1.2954 -0.4797
 8556SOL     OW37129   0.381   1.564   3.910 -0.2499 -0.1627  0.2167
 8556SOL    HW137130   0.369   1.649   3.869  2.0864 -0.7563 -1.6741
 8556SOL    HW237131   0.299   1.558   3.960 -0.6660  0.8651 -0.3399
 8557SOL     OW37132   0.170   0.706   7.236 -0.3723 -0.3464 -0.1395
 8557SOL    HW137133   0.184   0.799   7.222  2.2587 -0.8464 -1.0118
 8557SOL    HW237134   0.262   0.678   7.231 -0.3976 -0.4678  0.0716
 8558SOL     OW37135   1.101   2.126  11.748  0.1516  0.5202 -0.1492
 8558SOL    HW137136   1.098   2.057  11.681  0.8398 -1.8652  2.2788
 8558SOL    HW237137   1.148   2.198  11.706  2.9116 -2.1114 -1.6398
 8559SOL     OW37138   2.124   1.627   2.538  0.3080 -0.5069 -0.6408
 8559SOL    HW137139   2.052   1.564   2.540 -1.6690  1.8031  0.7988
 8559SOL    HW237140   2.165   1.608   2.454 -0.3613  1.8743 -1.5065
 8560SOL     OW37141   0.639   4.216   2.970  0.3952  0.0085  0.1726
 8560SOL    HW137142   0.699   4.146   2.997 -1.7736 -1.9357  0.0143
 8560SOL    HW237143   0.577   4.207   3.043 -2.5130  2.3277 -1.9963
 8561SOL     OW37144   2.120   4.447   1.404  0.0238 -0.4932 -0.1191
 8561SOL    HW137145   2.058   4.381   1.435 -2.4958  2.0800  0.3495
 8561SOL    HW237146   2.203   4.416   1.441 -0.2351 -1.7428 -0.5750
 8562SOL     OW37147   0.103   1.618   7.269  0.4078  0.5103  0.7110
 8562SOL    HW137148   0.083   1.658   7.185  0.7021  1.4831  1.0995
 8562SOL    HW237149   0.013   1.608   7.301  1.8085 -1.8195  3.9919
 8563SOL     OW37150   4.520   2.262   4.373  0.4969 -0.1420  0.4720
 8563SOL    HW137151   4.456   2.332   4.387  0.8705  0.6057 -1.6146
 8563SOL    HW237152   4.467   2.198   4.326  0.2847  0.8689 -0.6578
 8564SOL     OW37153   0.232   1.247   9.217  0.4417 -0.1466 -0.0721
 8564SOL    HW137154   0.228   1.160   9.256 -0.4794 -0.7490 -1.5118
 8564SOL    HW237155   0.206   1.224   9.128  0.3004 -0.4478  0.0470
 8565SOL     OW37156   0.444   1.597  17.397 -0.1645 -0.0857 -0.3492
 8565SOL    HW137157   0.470   1.505  17.398 -0.7654 -0.2688 -1.0596
 8565SOL    HW237158   0.506   1.635  17.459  0.0323  0.1690 -0.6999
 8566SOL     OW37159   1.359   0.600   1.941  0.8191  0.6818 -0.1408
 8566SOL    HW137160   1.442   0.599   1.990  1.8223 -2.1548 -1.9123
 8566SOL    HW237161   1.383   0.653   1.865  1.8447 -0.5114 -0.6470
 8567SOL     OW37162   2.468   2.355  17.362  0.4912  0.3637 -0.2329
 8567SOL    HW137163   2.561   2.362  17.344  0.4316  2.2300  0.2248
 8567SOL    HW237164   2.448   2.266  17.333 -0.9489  0.8121 -0.6368
 8568SOL     OW37165   4.140   3.789   3.861 -0.4165  0.0533  0.0776
 8568SOL    HW137166   4.066   3.849   3.861 -0.3762  0.1048  1.6649
 8568SOL    HW237167   4.120   3.733   3.785 -0.2458  0.3237 -0.1681
 8569SOL     OW37168   1.579   0.152   7.881  0.7704  0.0686  0.3988
 8569SOL    HW137169   1.588   0.211   7.806  0.9900  0.3375  0.6365
 8569SOL    HW237170   1.547   0.071   7.842 -1.3312  1.8818 -1.6044
 8570SOL     OW37171   4.064   3.266   6.897  0.5294  0.4693 -0.8293
 8570SOL    HW137172   4.135   3.253   6.959 -0.4092 -0.8081 -0.0302
 8570SOL    HW237173   4.066   3.179   6.857  1.0582  0.2602 -0.3538
 8571SOL     OW37174   2.461   4.607   8.027  0.0380 -0.0608 -0.2992
 8571SOL    HW137175   2.471   4.561   7.944  0.0518 -1.6866  0.5965
 8571SOL    HW237176   2.519   4.683   8.017  1.4658 -1.2922 -1.3764
 8572SOL     OW37177   2.209   3.009   7.231 -0.6231 -0.3763 -0.2055
 8572SOL    HW137178   2.289   3.004   7.282 -2.4783 -2.3909  2.4970
 8572SOL    HW237179   2.164   2.932   7.267  3.3922 -1.3621  2.5847
 8573SOL     OW37180   1.101   2.108   6.919 -0.2061 -0.3086 -0.0566
 8573SOL    HW137181   1.186   2.115   6.876 -0.4687  1.5294 -0.2547
 8573SOL    HW237182   1.100   2.022   6.961 -1.7035  1.0256  2.6547
 8574SOL     OW37183   3.655   3.724   6.054  0.6901  0.0771 -0.7975
 8574SOL    HW137184   3.624   3.672   6.128  2.7927 -0.5429 -0.3407
 8574SOL    HW237185   3.585   3.789   6.046 -0.4556 -1.0489  0.1268
 8575SOL     OW37186   2.416   2.862   4.815 -0.2850 -0.1077 -0.4539
 8575SOL    HW137187   2.349   2.816   4.765 -1.1033  0.0031  0.5445
 8575SOL    HW237188   2.480   2.791   4.829 -0.8953 -0.7498 -0.9656
 8576SOL     OW37189   1.830   2.065  10.704 -0.6854  0.2341  0.1140
 8576SOL    HW137190   1.740   2.096  10.697  0.0841  2.2629 -0.9143
 8576SOL    HW237191   1.820   1.987  10.650 -1.5587 -0.7133  1.6390
 8577SOL     OW37192   1.070   2.721   2.111 -0.0297 -0.5952  0.3311
 8577SOL    HW137193   1.024   2.733   2.028 -0.9029  0.3501  0.9411
 8577SOL    HW237194   1.012   2.761   2.177  0.8320  0.2510  0.5788
 8578SOL     OW37195   1.376   0.853   3.514 -0.3956 -0.2123  0.0121
 8578SOL    HW137196   1.387   0.860   3.419  0.1827  0.2964  0.1121
 8578SOL    HW237197   1.292   0.809   3.521 -0.1005 -0.5172  1.4735
 8579SOL     OW37198   1.516   3.625   4.244  0.4297  0.3752 -0.1181
 8579SOL    HW137199   1.518   3.644   4.150  0.1652  0.7381 -0.0495
 8579SOL    HW237200   1.494   3.532   4.244  1.7788  0.0472 -0.4578
 8580SOL     OW37201   1.587   4.421   2.601 -0.5441 -0.4206 -0.3677
 8580SOL    HW137202   1.572   4.330   2.627  2.3637 -0.8303 -0.0550
 8580SOL    HW237203   1.666   4.456   2.643  0.1182  0.0156 -1.9828
 8581SOL     OW37204   1.902   3.519  11.525 -0.2994  0.2337  0.2294
 8581SOL    HW137205   1.988   3.527  11.566  0.2061  0.6400 -0.8939
 8581SOL    HW237206   1.879   3.610  11.504 -2.6321 -0.2210  0.8430
 8582SOL     OW37207   2.828   0.359   8.764  0.6055 -0.3261  0.0963
 8582SOL    HW137208   2.830   0.452   8.787  2.2199 -0.5538  0.8473
 8582SOL    HW237209   2.910   0.334   8.807  0.8492 -0.2083 -0.2887
 8583SOL     OW37210   2.706   0.906   2.517 -0.2667 -0.0338 -0.7463
 8583SOL    HW137211   2.626   0.900   2.568  0.3013 -0.5993  0.0771
 8583SOL    HW237212   2.779   0.910   2.579 -2.0855  0.3116  1.3593
 8584SOL     OW37213   1.393   1.758  15.101  0.2711 -0.1715  0.4083
 8584SOL    HW137214   1.424   1.738  15.013  0.6400  1.0736  0.2553
 8584SOL    HW237215   1.470   1.808  15.128  0.4229  0.3979 -1.0504
 8585SOL     OW37216   4.253   3.186   6.456 -0.4882  0.0277 -0.4099
 8585SOL    HW137217   4.223   3.226   6.375 -0.2297 -2.4875 -1.7335
 8585SOL    HW237218   4.349   3.185   6.451 -0.4000  2.3283  0.7249
 8586SOL     OW37219   4.347   0.421   5.650 -0.1999  0.8542  0.2790
 8586SOL    HW137220   4.416   0.480   5.620 -2.2446  3.1145 -0.0210
 8586SOL    HW237221   4.337   0.377   5.565  0.1115  0.7807  0.2814
 8587SOL     OW37222   4.194   2.036   4.831 -0.1153  0.0252 -0.2512
 8587SOL    HW137223   4.158   2.125   4.828 -0.1966 -0.0782 -3.0079
 8587SOL    HW237224   4.287   2.054   4.818  0.5196 -0.8174  3.1083
 8588SOL     OW37225   3.915   4.645   7.143 -0.1246  0.2653  0.1381
 8588SOL    HW137226   3.918   4.703   7.067 -0.3524 -1.8684 -1.5156
 8588SOL    HW237227   3.923   4.557   7.106 -0.4033 -0.2464  1.3026
 8589SOL     OW37228   0.439   2.901   8.364  0.0934  0.5250  0.1811
 8589SOL    HW137229   0.425   2.831   8.301 -0.9516 -0.0835  1.1029
 8589SOL    HW237230   0.528   2.932   8.344  0.0482  0.4139 -0.1763
 8590SOL     OW37231   2.597   1.420   2.443  0.1055 -0.2272  0.1961
 8590SOL    HW137232   2.588   1.336   2.488 -1.9118 -0.3467 -0.4327
 8590SOL    HW237233   2.507   1.423   2.409 -0.0533  0.9586  0.7007
 8591SOL     OW37234   3.579   1.757   3.661  0.7462  0.2311  0.0413
 8591SOL    HW137235   3.548   1.710   3.738 -1.4899  2.5064  0.5508
 8591SOL    HW237236   3.589   1.687   3.596  0.3586  1.8716 -1.7900
 8592SOL     OW37237   2.664   4.231   9.755  0.0370  0.1380  0.3790
 8592SOL    HW137238   2.607   4.193   9.822  1.4701 -0.6178  1.1930
 8592SOL    HW237239   2.599   4.228   9.685  1.0144 -0.1991 -0.5126
 8593SOL     OW37240   2.537   2.222   9.172 -0.3085 -0.5898 -0.0986
 8593SOL    HW137241   2.559   2.241   9.263 -1.1228 -0.0593 -0.0150
 8593SOL    HW237242   2.443   2.207   9.176 -0.0642 -1.8882  0.8492
 8594SOL     OW37243   4.069   4.648   0.877  0.0707  0.4921  0.1278
 8594SOL    HW137244   4.037   4.625   0.790 -1.2069 -0.3633  0.8145
 8594SOL    HW237245   4.062   4.570   0.933  0.2310 -0.4822 -1.2048
 8595SOL     OW37246   3.781   4.270   2.145 -0.4289 -0.4457 -0.0478
 8595SOL    HW137247   3.756   4.309   2.062  0.7040  1.0195  0.3115
 8595SOL    HW237248   3.870   4.304   2.159  0.0300 -1.0482 -1.5386
 8596SOL     OW37249   3.839   3.665   6.731  0.4731  0.5626  0.2319
 8596SOL    HW137250   3.874   3.643   6.644  0.6092  0.9801  0.1770
 8596SOL    HW237251   3.891   3.745   6.743  2.6322 -0.9565  1.0625
 8597SOL     OW37252   4.145   0.387   3.408 -0.2292  0.2026  0.4427
 8597SOL    HW137253   4.082   0.456   3.432 -0.8560 -0.7565  1.5552
 8597SOL    HW237254   4.080   0.331   3.366 -0.1968  0.4878  0.0177
 8598SOL     OW37255   1.582   2.184   1.576  0.2626  0.5605 -0.0102
 8598SOL    HW137256   1.564   2.275   1.599  2.7155  0.7017  1.3415
 8598SOL    HW237257   1.493   2.147   1.578  1.2029 -1.8052 -2.9095
 8599SOL     OW37258   4.377   4.021   5.416  0.1536 -0.4054 -0.4919
 8599SOL    HW137259   4.398   3.940   5.369 -0.8278 -0.9083 -0.0559
 8599SOL    HW237260   4.392   3.996   5.507 -0.1654 -1.7612 -0.8207
 8600SOL     OW37261   0.813   0.003   8.391 -0.3769 -0.4043 -0.2601
 8600SOL    HW137262   0.797   4.634   8.400 -2.0920 -0.4037 -3.3803
 8600SOL    HW237263   0.896   0.017   8.346 -0.2016 -0.3840  0.0696
 8601SOL     OW37264   0.051   1.123   5.186  0.0663 -0.4587 -0.1181
 8601SOL    HW137265   0.140   1.089   5.181  0.3839  0.2948  0.4602
 8601SOL    HW237266   0.068   1.214   5.160  2.8914 -0.3860  1.9865
 8602SOL     OW37267   2.882   2.932   8.877  0.5037 -0.0692  1.0893
 8602SOL    HW137268   2.941   2.947   8.951  0.2766 -0.2484  1.3080
 8602SOL    HW237269   2.854   3.023   8.883  2.7596  0.7627 -0.9910
 8603SOL     OW37270   2.496   3.232  16.841  0.4088 -0.1091 -0.2120
 8603SOL    HW137271   2.450   3.237  16.757  0.0115  0.1026  0.0206
 8603SOL    HW237272   2.585   3.255  16.814  1.1471 -0.1009  2.2373
 8604SOL     OW37273   1.691   4.387   5.126  0.5268 -0.2565 -0.0886
 8604SOL    HW137274   1.612   4.404   5.177  1.1575  0.3451  0.6857
 8604SOL    HW237275   1.724   4.310   5.172 -0.6008 -0.5418  0.2396
 8605SOL     OW37276   0.227   2.964   8.159 -0.5552  0.4919  0.1995
 8605SOL    HW137277   0.298   2.970   8.223 -2.1813 -1.3805  2.1931
 8605SOL    HW237278   0.276   2.953   8.077  0.3098  0.5833  0.6983
 8606SOL     OW37279   1.974   3.627   6.979 -0.0559  0.2722 -0.1886
 8606SOL    HW137280   1.989   3.586   7.064 -1.8741  0.1986  0.0898
 8606SOL    HW237281   2.045   3.691   6.987  1.4855 -1.6941  1.9585
 8607SOL     OW37282   0.066   3.838   6.077  0.5258  0.6205 -0.3176
 8607SOL    HW137283   0.108   3.762   6.037  0.8194  1.0697 -0.8720
 8607SOL    HW237284   0.026   3.804   6.157 -0.4361 -2.3972 -2.0925
 8608SOL     OW37285   0.923   1.056   6.837 -0.3403  0.0637  0.0185
 8608SOL    HW137286   0.828   1.064   6.841 -0.3397  0.3566 -0.4230
 8608SOL    HW237287   0.942   1.010   6.755 -0.3979 -0.8033  0.4992
 8609SOL     OW37288   2.009   1.156   0.405  0.2174 -0.0718 -0.0185
 8609SOL    HW137289   1.987   1.245   0.378  2.3389  0.8855  1.4301
 8609SOL    HW237290   1.952   1.111   0.342  1.0671  0.6351 -1.2766
 8610SOL     OW37291   3.435   0.953   3.295 -0.4221 -0.5316  0.0525
 8610SOL    HW137292   3.391   0.997   3.222  0.8506  0.8213  0.0975
 8610SOL    HW237293   3.523   0.986   3.276 -1.3914  0.6836 -2.2380
 8611SOL     OW37294   1.713   2.325   8.872 -0.7979 -0.3121  0.3809
 8611SOL    HW137295   1.717   2.229   8.872 -0.0589 -0.2808 -1.0977
 8611SOL    HW237296   1.745   2.355   8.787  0.7254  0.5622  1.2682
 8612SOL     OW37297   2.316   4.450   6.228 -0.1888 -0.1388 -0.2489
 8612SOL    HW137298   2.373   4.483   6.297 -0.9644 -1.2192  0.9171
 8612SOL    HW237299   2.291   4.373   6.278  1.2184  0.7925  1.9025
 8613SOL     OW37300   4.035   0.304  15.917  0.3113 -0.2041 -0.2663
 8613SOL    HW137301   4.120   0.348  15.920  0.0119  0.2519  1.8393
 8613SOL    HW237302   4.063   0.216  15.891 -1.8886 -1.0789  0.3576
 8614SOL     OW37303   0.506   0.251   2.799 -0.1247 -0.1100  0.3430
 8614SOL    HW137304   0.534   0.327   2.748  3.6195 -0.6375  1.6730
 8614SOL    HW237305   0.585   0.202   2.818 -0.3177 -1.0519 -1.2472
 8615SOL     OW37306   2.956   3.680   2.398  0.7267 -0.4254 -0.1018
 8615SOL    HW137307   2.938   3.774   2.390 -1.2977 -0.8820 -1.1400
 8615SOL    HW237308   2.951   3.637   2.312 -1.6856 -2.4910  1.0741
 8616SOL     OW37309   2.454   0.629  14.424 -0.2683 -0.0236 -0.1707
 8616SOL    HW137310   2.388   0.642  14.492  1.7133  0.7024  1.6070
 8616SOL    HW237311   2.404   0.658  14.347 -0.3308 -0.4006 -0.2709
 8617SOL     OW37312   0.878   0.013   7.035 -0.0600  0.0371  0.4572
 8617SOL    HW137313   0.806   0.073   7.020  1.0297  1.1009 -0.5829
 8617SOL    HW237314   0.914   0.053   7.114  0.4825 -0.9800  0.7369
 8618SOL     OW37315   3.040   3.952   5.479  0.0765  0.5955 -0.0262
 8618SOL    HW137316   3.101   4.024   5.463  0.3344  0.6326  1.1123
 8618SOL    HW237317   2.955   3.992   5.494 -0.0492 -0.7422  2.8912
 8619SOL     OW37318   2.318   0.186  10.188 -0.2108  0.2935 -0.0883
 8619SOL    HW137319   2.321   0.244  10.112 -4.7937 -0.5790 -0.9336
 8619SOL    HW237320   2.316   0.244  10.263 -0.5861 -1.2324  1.0888
 8620SOL     OW37321   2.722   2.387   6.268  0.3837  0.3780  0.4053
 8620SOL    HW137322   2.764   2.421   6.188  1.3800 -0.2254  0.6701
 8620SOL    HW237323   2.796   2.333   6.297 -0.8461 -1.2744  0.4658
 8621SOL     OW37324   0.024   2.999   4.317 -0.2090 -0.4830  0.3233
 8621SOL    HW137325   0.009   3.093   4.331 -2.4714 -1.0578  1.7855
 8621SOL    HW237326   0.048   2.965   4.403  2.7090  2.8073  0.8202
 8622SOL     OW37327   1.706   0.006   2.220 -0.0059 -0.0083 -0.3319
 8622SOL    HW137328   1.728   4.660   2.280 -0.7749 -2.0876 -2.5211
 8622SOL    HW237329   1.622   0.037   2.254  0.4402 -0.4994  1.2112
 8623SOL     OW37330   3.394   1.369   8.258 -0.4123  0.1156 -0.1376
 8623SOL    HW137331   3.419   1.450   8.214  1.2894  0.2079  1.0256
 8623SOL    HW237332   3.347   1.411   8.330  0.4388 -0.6130  0.8452
 8624SOL     OW37333   3.628   1.776   4.683 -0.0298  0.2783 -0.0475
 8624SOL    HW137334   3.584   1.839   4.626 -1.2971  0.5201  1.2288
 8624SOL    HW237335   3.585   1.790   4.767  1.7735  0.7116  0.8039
 8625SOL     OW37336   0.820   0.046   5.179 -0.6456  0.0608 -0.5221
 8625SOL    HW137337   0.727   0.024   5.179 -0.5962 -0.2174  1.9866
 8625SOL    HW237338   0.857   4.685   5.204 -1.3135  0.0648  0.4468
 8626SOL     OW37339   3.561   4.696   9.917 -0.6020 -0.2332 -0.0409
 8626SOL    HW137340   3.482   0.010   9.955 -1.0723 -1.6131  0.3657
 8626SOL    HW237341   3.532   4.633   9.851 -0.5413 -1.4641  1.0903
 8627SOL     OW37342   0.339   4.271   9.248  0.2906  0.0459 -0.2721
 8627SOL    HW137343   0.334   4.315   9.163  1.2210  1.1950  0.2728
 8627SOL    HW237344   0.434   4.269   9.258  0.3348  1.7976 -0.2571
 8628SOL     OW37345   1.698   1.112   3.751 -0.0135  0.2715 -0.1189
 8628SOL    HW137346   1.733   1.050   3.686 -0.0269  0.8593 -0.6899
 8628SOL    HW237347   1.688   1.047   3.821 -0.2865 -0.9198 -1.2612
 8629SOL     OW37348   1.132   3.027   1.473 -0.0283  0.4220 -0.9696
 8629SOL    HW137349   1.084   2.990   1.399  4.0370 -1.8561 -2.4376
 8629SOL    HW237350   1.188   2.950   1.483 -0.1753  0.4470  0.0776
 8630SOL     OW37351   1.029   2.762  16.338  0.5008 -0.2034  0.2659
 8630SOL    HW137352   0.985   2.699  16.280  0.0628 -0.9292  1.3891
 8630SOL    HW237353   1.061   2.704  16.406 -1.7254  0.2419  1.6893
 8631SOL     OW37354   3.718   1.238   2.311 -0.0111 -0.0985  0.2715
 8631SOL    HW137355   3.762   1.221   2.228 -0.9021 -0.2113 -0.1712
 8631SOL    HW237356   3.627   1.242   2.282 -0.0092  0.7527  0.3805
 8632SOL     OW37357   0.705   2.021  16.875  0.4276 -0.2889 -0.1127
 8632SOL    HW137358   0.672   2.091  16.819  2.1053  1.0723  0.6292
 8632SOL    HW237359   0.729   2.074  16.951  0.4221 -1.5571  0.7704
 8633SOL     OW37360   2.428   1.474   0.892 -0.1949  0.5473  0.2085
 8633SOL    HW137361   2.365   1.539   0.923 -1.3377  0.5924 -2.2371
 8633SOL    HW237362   2.414   1.404   0.955  0.4331  0.4245  0.2094
 8634SOL     OW37363   2.631   0.402   7.367  0.0116 -0.3314  0.1819
 8634SOL    HW137364   2.598   0.349   7.295 -0.9188  3.7706 -2.4434
 8634SOL    HW237365   2.601   0.358   7.447  0.3805 -1.1567 -0.1476
 8635SOL     OW37366   2.799   0.423   4.707 -0.2685  0.2332  0.1242
 8635SOL    HW137367   2.762   0.414   4.619 -3.3565 -1.0627  1.5564
 8635SOL    HW237368   2.775   0.511   4.736 -0.7038  0.6988 -1.6383
 8636SOL     OW37369   3.716   0.173  11.701 -0.1347 -0.5398 -0.3059
 8636SOL    HW137370   3.620   0.172  11.696 -0.1308 -2.0412 -0.0749
 8636SOL    HW237371   3.734   0.171  11.795 -2.7741 -2.5299  0.1565
 8637SOL     OW37372   3.344   0.235   6.591 -0.6403  0.1084  0.7134
 8637SOL    HW137373   3.367   0.208   6.502 -0.2408  2.7093  0.0407
 8637SOL    HW237374   3.302   0.156   6.625  0.5376 -2.0274 -2.7290
 8638SOL     OW37375   0.696   2.511   6.482 -0.4659  0.0300  0.1115
 8638SOL    HW137376   0.756   2.525   6.409 -0.9835 -0.4691 -0.4035
 8638SOL    HW237377   0.617   2.564   6.468  1.5493  2.8318 -0.7285
 8639SOL     OW37378   3.342   0.086  13.803  0.6493  0.2336  0.4402
 8639SOL    HW137379   3.416   0.140  13.829  0.5267  1.1407 -1.0958
 8639SOL    HW237380   3.316   0.050  13.888 -0.6790  1.6603  0.6493
 8640SOL     OW37381   4.235   1.664   7.306  0.0324  0.1276 -0.5168
 8640SOL    HW137382   4.142   1.646   7.299 -0.0701  0.3806  0.1737
 8640SOL    HW237383   4.250   1.756   7.284 -0.4126  0.3602  0.1465
 8641SOL     OW37384   1.477   3.474  13.758  0.4098  0.2954  0.1814
 8641SOL    HW137385   1.394   3.511  13.728  1.2876  0.4338 -2.0993
 8641SOL    HW237386   1.458   3.466  13.851  1.3757  0.0739  0.3631
 8642SOL     OW37387   3.032   3.013  14.738 -0.3669  0.2354  0.2385
 8642SOL    HW137388   2.970   2.946  14.766  1.1938 -2.6236 -3.1256
 8642SOL    HW237389   3.107   2.956  14.759  0.7864  1.8618  0.5159
 8643SOL     OW37390   1.925   2.971   6.976  0.1112 -0.4828 -0.3357
 8643SOL    HW137391   1.967   2.904   7.031 -1.3842 -0.7034  0.5343
 8643SOL    HW237392   1.980   3.048   6.987 -0.8992  0.1083  0.5787
 8644SOL     OW37393   1.104   2.962   4.411 -0.4083 -0.2992  0.4744
 8644SOL    HW137394   1.185   2.991   4.453  0.9593 -0.8022 -1.7942
 8644SOL    HW237395   1.098   2.868   4.424  1.1339 -0.4369  0.1671
 8645SOL     OW37396   4.467   1.863   7.950  0.0817  0.8426 -0.0418
 8645SOL    HW137397   4.475   1.803   7.876  1.9206 -0.1363  0.9531
 8645SOL    HW237398   4.543   1.843   8.004  0.5333 -0.5703 -1.2277
 8646SOL     OW37399   3.106   2.958   2.978  0.0300  0.1903 -0.1665
 8646SOL    HW137400   3.086   2.936   2.887 -1.3274  0.1070  0.1587
 8646SOL    HW237401   3.200   2.962   2.961  0.4673 -2.9775  1.5288
 8647SOL     OW37402   2.102   2.914   8.006 -0.2644 -0.4577 -0.2964
 8647SOL    HW137403   2.084   2.824   8.031 -1.0039 -0.7166 -1.7972
 8647SOL    HW237404   2.131   2.912   7.914  1.0804 -0.8864  0.1358
 8648SOL     OW37405   2.791   3.786  15.465 -0.3379 -0.3520 -0.3929
 8648SOL    HW137406   2.797   3.692  15.481 -0.3145 -0.1378  0.8696
 8648SOL    HW237407   2.879   3.821  15.452 -1.6184  3.5082  1.1001
 8649SOL     OW37408   0.487   0.204   3.786 -0.0446  0.5523 -0.1453
 8649SOL    HW137409   0.503   0.122   3.741 -2.3053  0.4628 -0.7513
 8649SOL    HW237410   0.555   0.209   3.854  0.4676  0.9730 -0.6849
 8650SOL     OW37411   2.550   3.714   9.927  0.7907 -0.3807 -0.1235
 8650SOL    HW137412   2.478   3.651   9.936  1.5475 -1.1880  0.2315
 8650SOL    HW237413   2.519   3.749   9.844  2.1757 -2.1369 -1.3930
 8651SOL     OW37414   1.136   1.114   0.967  0.1576  0.7352 -0.2519
 8651SOL    HW137415   1.167   1.170   1.039  0.7318  0.0952 -0.0042
 8651SOL    HW237416   1.043   1.128   0.982 -0.5416 -2.4719 -1.5706
 8652SOL     OW37417   0.019   2.635   1.160  0.0157 -0.3317  0.8776
 8652SOL    HW137418   0.050   2.724   1.178  3.0523 -1.3046  0.3854
 8652SOL    HW237419   4.712   2.645   1.070  2.0175 -0.5349  0.1698
 8653SOL     OW37420   1.483   3.194  15.304  0.2160  0.1222 -0.5816
 8653SOL    HW137421   1.502   3.183  15.397 -1.2752  0.1689 -0.2756
 8653SOL    HW237422   1.553   3.139  15.267  0.4050  0.3725 -0.5932
 8654SOL     OW37423   2.821   1.496   3.333 -0.4881  0.1009  0.0222
 8654SOL    HW137424   2.781   1.579   3.358 -0.9114 -0.4866  1.2731
 8654SOL    HW237425   2.866   1.468   3.413  0.2703 -0.0796 -0.4685
 8655SOL     OW37426   1.569   4.721  10.177  0.2668  0.4007  0.0744
 8655SOL    HW137427   1.649   0.031  10.218  0.0203  0.6377  0.3644
 8655SOL    HW237428   1.587   0.004  10.084  1.7181 -0.8758  0.2544
 8656SOL     OW37429   3.948   0.061   4.754  0.5511  0.5068  0.1200
 8656SOL    HW137430   3.924   4.696   4.731  0.3976 -0.0099  2.2308
 8656SOL    HW237431   3.923   0.060   4.847  2.3112  0.8564  0.5970
 8657SOL     OW37432   1.396   1.276   7.316 -0.1469 -0.1478  0.0574
 8657SOL    HW137433   1.339   1.323   7.255  0.7871  0.1727 -0.5746
 8657SOL    HW237434   1.369   1.313   7.400 -0.0929  1.1209 -0.4742
 8658SOL     OW37435   1.427   3.743   8.443  0.1539  0.0364 -0.1350
 8658SOL    HW137436   1.501   3.769   8.389  1.8589 -1.6825  1.3771
 8658SOL    HW237437   1.469   3.688   8.509  0.1863  0.4271  0.1709
 8659SOL     OW37438   2.663   0.521   5.382 -0.0676  1.1265 -0.1651
 8659SOL    HW137439   2.691   0.556   5.467  0.0179  2.0756 -0.5864
 8659SOL    HW237440   2.595   0.585   5.362  0.3109  1.0352 -1.7195
 8660SOL     OW37441   2.701   2.466  11.767  0.4241  0.2314 -0.2501
 8660SOL    HW137442   2.654   2.477  11.850 -0.1065 -0.4514 -0.4659
 8660SOL    HW237443   2.673   2.375  11.760  1.5977 -0.1957  0.5712
 8661SOL     OW37444   2.123   1.630   7.297 -0.5334  0.5892 -0.0187
 8661SOL    HW137445   2.048   1.600   7.246  0.8782 -1.7113 -0.7492
 8661SOL    HW237446   2.162   1.680   7.225 -1.1399  0.5826 -0.3443
 8662SOL     OW37447   1.784   4.350   0.021 -0.1141 -0.2243  0.0487
 8662SOL    HW137448   1.750   4.282   0.080 -1.9325  0.3616 -0.3211
 8662SOL    HW237449   1.804   4.301  17.640  0.8423  0.8366 -0.3509
 8663SOL     OW37450   1.043   0.826   4.417  0.2905 -0.1322 -0.3313
 8663SOL    HW137451   0.985   0.889   4.374 -0.6648  0.3005  1.6066
 8663SOL    HW237452   0.993   0.827   4.498  1.0908 -1.5267  0.1862
 8664SOL     OW37453   1.829   3.578  14.381 -0.4591  0.0845  0.3133
 8664SOL    HW137454   1.770   3.522  14.330 -0.2806 -1.0691  1.3606
 8664SOL    HW237455   1.768   3.611  14.447 -0.8044 -2.6752  1.4161
 8665SOL     OW37456   0.909   1.888   8.609 -0.1387  0.5211 -0.6947
 8665SOL    HW137457   0.854   1.965   8.593 -0.6037  0.3015 -0.1182
 8665SOL    HW237458   0.947   1.907   8.695 -1.2154  3.4087 -0.8617
 8666SOL     OW37459   3.134   2.454   8.763  0.3240  0.3890  0.1984
 8666SOL    HW137460   3.186   2.420   8.836  1.4113  0.9753 -0.3044
 8666SOL    HW237461   3.042   2.460   8.788  0.1870  0.7002 -0.3737
 8667SOL     OW37462   1.841   1.316   2.810  0.0470  0.6129  0.6575
 8667SOL    HW137463   1.829   1.221   2.812  0.5335  0.5297 -0.4900
 8667SOL    HW237464   1.775   1.346   2.748 -0.2978 -3.0311 -0.7433
 8668SOL     OW37465   3.786   2.385   1.689  0.7974  0.3014 -0.3890
 8668SOL    HW137466   3.699   2.394   1.652  1.8262  1.5616 -2.5087
 8668SOL    HW237467   3.833   2.360   1.610 -0.0780 -1.5125 -0.3316
 8669SOL     OW37468   0.878   1.099   8.525 -0.2450 -0.3274  0.0527
 8669SOL    HW137469   0.834   1.059   8.599 -0.5496  1.5382  0.8852
 8669SOL    HW237470   0.967   1.124   8.550  0.0454  1.1792 -2.4892
 8670SOL     OW37471   1.857   3.490   2.815 -0.6667  0.3300 -0.1001
 8670SOL    HW137472   1.842   3.452   2.901  0.9841  0.1100  0.0917
 8670SOL    HW237473   1.920   3.558   2.838 -1.3759  0.9539 -0.0246
 8671SOL     OW37474   3.101   2.834   3.929 -0.5097 -0.4347  0.0071
 8671SOL    HW137475   3.010   2.858   3.915 -0.0395  1.5641  0.3292
 8671SOL    HW237476   3.115   2.883   4.010 -1.9250  1.6596 -0.9986
 8672SOL     OW37477   1.779   2.776   6.800 -0.2919  0.3314  0.1648
 8672SOL    HW137478   1.806   2.830   6.874  0.0425 -0.0387  0.3130
 8672SOL    HW237479   1.712   2.835   6.766 -0.0250 -0.1866 -1.2670
 8673SOL     OW37480   2.048   0.194   8.158  0.3249  0.2632  0.2727
 8673SOL    HW137481   2.054   0.154   8.245  1.1768 -0.5891 -0.1846
 8673SOL    HW237482   2.015   0.282   8.180 -0.9378 -0.0175 -0.5131
 8674SOL     OW37483   1.043   1.598   7.713  0.9169  0.2326 -0.7794
 8674SOL    HW137484   0.990   1.521   7.690  2.0410 -1.3011  1.8656
 8674SOL    HW237485   1.084   1.578   7.797  1.6241  3.6002 -0.3252
 8675SOL     OW37486   3.988   0.475   6.756  0.3060  0.0453 -0.4389
 8675SOL    HW137487   4.000   0.473   6.851  0.7258 -3.3824 -0.5575
 8675SOL    HW237488   3.892   0.472   6.762  0.2487 -2.7806 -3.2413
 8676SOL     OW37489   4.228   3.595   5.076  0.6746 -0.5848  0.5276
 8676SOL    HW137490   4.299   3.542   5.113 -0.0468 -1.6911  0.3271
 8676SOL    HW237491   4.276   3.677   5.087  1.1337 -0.5985 -1.4072
 8677SOL     OW37492   1.333   0.754  14.426  0.5225 -0.0193  0.0367
 8677SOL    HW137493   1.344   0.840  14.386 -0.5789 -0.4847 -1.2601
 8677SOL    HW237494   1.410   0.745  14.482  0.9001  2.6905 -0.0103
 8678SOL     OW37495   1.527   2.528  12.722  0.2865 -0.6196  0.4376
 8678SOL    HW137496   1.503   2.513  12.631  0.8742  3.8321 -0.4339
 8678SOL    HW237497   1.445   2.509  12.768 -0.3660  1.5143  0.1845
 8679SOL     OW37498   4.157   3.188   4.609 -0.1268 -0.4108  0.1754
 8679SOL    HW137499   4.210   3.182   4.688  0.2165  1.1837  0.0726
 8679SOL    HW237500   4.181   3.278   4.585 -2.5625  0.4300  0.9018
 8680SOL     OW37501   2.817   1.736   7.926 -0.2793 -0.5386 -0.1644
 8680SOL    HW137502   2.825   1.641   7.924 -0.7680 -0.6298  1.7212
 8680SOL    HW237503   2.906   1.756   7.957 -0.3623 -0.3523 -0.0442
 8681SOL     OW37504   2.856   2.895  12.435  0.0381 -0.0632  0.2543
 8681SOL    HW137505   2.911   2.957  12.386  1.2208 -2.0317 -0.9347
 8681SOL    HW237506   2.882   2.814  12.390 -3.8978 -1.3688  0.3649
 8682SOL     OW37507   0.567   3.824   8.061 -0.3395  0.2600  0.0903
 8682SOL    HW137508   0.476   3.852   8.070  0.0719  1.4123  0.7572
 8682SOL    HW237509   0.591   3.793   8.148 -0.6962 -2.2375 -0.7035
 8683SOL     OW37510   2.115   0.565   1.394  0.0327  0.0777 -0.1785
 8683SOL    HW137511   2.117   0.541   1.301  0.5053  0.4616 -0.2701
 8683SOL    HW237512   2.086   0.655   1.389 -0.7549 -0.2453 -1.3402
 8684SOL     OW37513   4.216   3.592   8.877 -0.4188 -0.6566  0.3449
 8684SOL    HW137514   4.256   3.517   8.920  0.5399  0.2386  1.0236
 8684SOL    HW237515   4.260   3.664   8.923 -0.2796 -0.3929 -0.1868
 8685SOL     OW37516   2.591   0.578   8.005 -0.6241  0.5723 -0.4512
 8685SOL    HW137517   2.646   0.501   7.991 -1.3259 -0.0315  0.0727
 8685SOL    HW237518   2.611   0.608   8.093 -1.8777  0.5805 -0.1586
 8686SOL     OW37519   2.618   2.285   4.826 -0.6347 -1.0023 -0.6247
 8686SOL    HW137520   2.651   2.362   4.779  1.8955  0.1197  3.0069
 8686SOL    HW237521   2.615   2.319   4.916 -3.5044 -1.2854 -0.6159
 8687SOL     OW37522   3.691   2.048   5.563  0.4306  0.8195  0.1709
 8687SOL    HW137523   3.604   2.065   5.600 -1.0738 -0.6806 -2.7198
 8687SOL    HW237524   3.743   2.093   5.630 -0.0944  0.2789  0.9499
 8688SOL     OW37525   2.263   0.494   5.430  0.3270  0.6927 -0.2961
 8688SOL    HW137526   2.187   0.474   5.376 -1.1483  0.8475  1.6954
 8688SOL    HW237527   2.307   0.560   5.376  0.4195 -0.0020 -1.0628
 8689SOL     OW37528   2.099   1.693  11.122 -0.3365 -0.2193  0.1822
 8689SOL    HW137529   2.073   1.640  11.196  1.1400  0.3900  1.1491
 8689SOL    HW237530   2.161   1.759  11.153 -2.3117  1.9100 -0.4113
 8690SOL     OW37531   1.140   4.179   8.821  0.4466 -0.0732 -0.1949
 8690SOL    HW137532   1.078   4.130   8.768  0.1358  1.0937 -0.9196
 8690SOL    HW237533   1.121   4.269   8.794 -1.0720 -0.8017 -1.5589
 8691SOL     OW37534   2.140   1.309  13.135  0.0072  0.3853  0.5110
 8691SOL    HW137535   2.080   1.248  13.178 -1.6995  0.1724 -2.1973
 8691SOL    HW237536   2.133   1.381  13.198  3.6492  1.4304 -0.3153
 8692SOL     OW37537   2.996   1.644  11.949 -0.2427 -0.1823 -0.3653
 8692SOL    HW137538   3.015   1.552  11.966 -3.8628 -1.0645 -1.2930
 8692SOL    HW237539   3.085   1.679  11.935  1.2146 -4.3481 -1.5632
 8693SOL     OW37540   3.993   0.535   5.555 -0.0755 -0.3308  0.3707
 8693SOL    HW137541   3.904   0.525   5.520  0.1985  0.4759 -0.5456
 8693SOL    HW237542   3.986   0.554   5.649 -0.7302 -0.0333  0.2642
 8694SOL     OW37543   2.438   1.969  17.510  0.4710 -0.0644 -0.3918
 8694SOL    HW137544   2.384   1.908  17.560  0.3649  2.2577  2.3337
 8694SOL    HW237545   2.371   1.991  17.444  1.8341  2.0420 -1.0682
 8695SOL     OW37546   0.202   4.062   2.145  0.1543 -0.1048  0.6584
 8695SOL    HW137547   0.185   4.135   2.086 -2.5131 -0.5055  0.9487
 8695SOL    HW237548   0.281   4.024   2.106  0.9649  1.6447  0.6158
 8696SOL     OW37549   4.138   3.569   3.605  0.0729  0.0728 -0.2605
 8696SOL    HW137550   4.206   3.551   3.670 -1.5685  0.4381  1.5401
 8696SOL    HW237551   4.113   3.482   3.574  0.6695  0.0978 -0.8187
 8697SOL     OW37552   1.635   0.711   7.882  0.0587 -0.0226 -0.9309
 8697SOL    HW137553   1.707   0.774   7.878  0.1701 -0.2396 -2.2353
 8697SOL    HW237554   1.659   0.657   7.807  0.1839 -1.0561 -0.1355
 8698SOL     OW37555   1.928   2.542   0.551  0.0181 -0.5278  0.4870
 8698SOL    HW137556   1.909   2.631   0.583 -1.0586 -0.6992  0.3433
 8698SOL    HW237557   2.019   2.525   0.573 -0.2103 -3.3795 -0.8162
 8699SOL     OW37558   2.868   0.394   6.097  0.3164 -0.2123 -0.1641
 8699SOL    HW137559   2.951   0.363   6.062 -0.1797 -0.2500 -1.2942
 8699SOL    HW237560   2.892   0.445   6.175  0.5133  1.6801 -1.4682
 8700SOL     OW37561   4.257   1.980   6.209  0.7566 -0.0534  0.6622
 8700SOL    HW137562   4.180   1.956   6.261 -0.7192 -2.1218 -2.4664
 8700SOL    HW237563   4.242   2.074   6.202 -0.3998 -0.3135 -0.3746
 8701SOL     OW37564   2.553   2.453   2.071 -0.7764 -0.1334  0.1512
 8701SOL    HW137565   2.598   2.460   1.986 -1.2783  0.3809 -0.0676
 8701SOL    HW237566   2.487   2.521   2.060  0.6233  1.2794  0.3255
 8702SOL     OW37567   4.210   4.628  15.226  0.4942 -0.2189  0.1782
 8702SOL    HW137568   4.300   4.602  15.248  0.9619  1.2213 -0.0317
 8702SOL    HW237569   4.166   4.543  15.230  1.8735 -1.0340 -1.7877
 8703SOL     OW37570   3.273   1.698   0.953 -0.1059 -0.1639  0.3604
 8703SOL    HW137571   3.231   1.618   0.920 -2.6795  1.5046 -0.4578
 8703SOL    HW237572   3.313   1.669   1.034  2.2359 -2.3442 -1.5643
 8704SOL     OW37573   4.044   1.410   5.349 -1.1743 -0.4144  0.3655
 8704SOL    HW137574   4.001   1.362   5.421 -1.6108 -0.1329  0.2949
 8704SOL    HW237575   4.051   1.340   5.284  1.8422 -1.9599  2.3404
 8705SOL     OW37576   0.832   1.678   3.415 -0.3806  0.1933  0.2966
 8705SOL    HW137577   0.903   1.742   3.406  0.4095 -0.9789 -1.8908
 8705SOL    HW237578   0.808   1.658   3.324 -1.3627 -0.4974  0.7193
 8706SOL     OW37579   4.557   1.665   7.711  0.2558 -0.2748  0.0297
 8706SOL    HW137580   4.519   1.626   7.790 -1.2058 -0.2727 -0.6861
 8706SOL    HW237581   4.630   1.711   7.753 -0.7869  0.3249  1.1808
 8707SOL     OW37582   2.034   4.591   5.382 -0.1161  0.0605  0.3158
 8707SOL    HW137583   2.109   4.603   5.440  0.6537  0.2102 -0.7156
 8707SOL    HW237584   1.999   4.505   5.409  1.7243 -0.4860  0.9178
 8708SOL     OW37585   3.101   3.174   6.430  0.1843 -0.2839  0.1332
 8708SOL    HW137586   3.079   3.090   6.470  0.2833 -0.4262 -0.1137
 8708SOL    HW237587   3.084   3.153   6.338  1.5642 -0.3193 -0.1156
 8709SOL     OW37588   0.388   3.924   6.291 -0.8002  0.7579  0.1202
 8709SOL    HW137589   0.420   3.919   6.382  0.7946 -0.6538 -0.5224
 8709SOL    HW237590   0.404   3.842   6.246  0.0621 -1.0351  3.6393
 8710SOL     OW37591   3.192   2.883   6.024  0.1041 -0.0079 -0.5778
 8710SOL    HW137592   3.245   2.803   6.025 -0.2617 -0.2347  1.0227
 8710SOL    HW237593   3.121   2.846   5.972 -0.5164 -0.7669  0.8043
 8711SOL     OW37594   2.280   1.743   4.560  0.2867 -0.1544 -0.2846
 8711SOL    HW137595   2.286   1.761   4.466 -1.8633  0.2376 -0.3574
 8711SOL    HW237596   2.323   1.819   4.601 -0.9249 -0.0164  0.7261
 8712SOL     OW37597   3.537   3.942  15.345 -0.7294 -0.5744  0.0034
 8712SOL    HW137598   3.582   3.959  15.262 -0.9672 -0.5503 -0.1187
 8712SOL    HW237599   3.578   4.009  15.401  0.5934 -0.9146 -0.5439
 8713SOL     OW37600   0.070   0.959   4.003  0.1382  0.3389  0.2714
 8713SOL    HW137601   0.092   0.953   4.096 -1.0999  0.4486  0.5726
 8713SOL    HW237602   0.065   0.870   3.971 -0.1991  0.6801 -0.6256
 8714SOL     OW37603   2.150   3.019  12.410  0.4410  0.1205 -0.2568
 8714SOL    HW137604   2.089   3.063  12.351 -0.0392  2.8369  2.2660
 8714SOL    HW237605   2.186   2.965  12.340  0.6206  1.4182 -1.1695
 8715SOL     OW37606   3.379   0.619   3.360  0.0302 -0.1946 -0.3401
 8715SOL    HW137607   3.424   0.703   3.350  1.9375 -1.3960 -1.9923
 8715SOL    HW237608   3.372   0.591   3.451  0.8389  2.9891  0.7039
 8716SOL     OW37609   3.663   2.382  12.973 -0.3572 -0.2906  0.2169
 8716SOL    HW137610   3.696   2.343  12.892 -1.8346 -0.1499 -0.4468
 8716SOL    HW237611   3.589   2.430  12.935  0.0641  0.3306  0.1744
 8717SOL     OW37612   0.886   0.778   7.079  0.6994 -0.1582 -0.3543
 8717SOL    HW137613   0.915   0.852   7.132  1.8791 -1.2090  0.4577
 8717SOL    HW237614   0.791   0.788   7.082  0.4188 -1.9948 -2.7644
 8718SOL     OW37615   1.705   4.160   7.820  0.1087  1.0073  0.3522
 8718SOL    HW137616   1.728   4.072   7.789  1.2921  1.3616  0.2180
 8718SOL    HW237617   1.795   4.188   7.833 -0.3944  2.4026  0.7860
 8719SOL     OW37618   0.618   4.387   0.087  0.5865  0.0414 -0.4090
 8719SOL    HW137619   0.651   4.373   0.175 -0.3212  1.3270  0.1435
 8719SOL    HW237620   0.550   4.451   0.109  1.8857  0.4520  2.3298
 8720SOL     OW37621   1.463   2.183  13.306  0.3519  0.0015 -0.1508
 8720SOL    HW137622   1.432   2.255  13.251  0.3070  0.1190  0.0282
 8720SOL    HW237623   1.443   2.111  13.246  0.1941  0.3248 -0.4876
 8721SOL     OW37624   0.573   4.038   2.319 -0.8011 -0.0243  0.4064
 8721SOL    HW137625   0.545   4.127   2.340 -0.2837 -0.1270  1.5345
 8721SOL    HW237626   0.564   4.044   2.224  0.3366 -0.0405  0.2884
 8722SOL     OW37627   2.950   0.464   2.111 -0.3286 -0.3505 -0.0644
 8722SOL    HW137628   2.868   0.509   2.090  0.4365  0.3346 -1.5611
 8722SOL    HW237629   3.004   0.534   2.075  0.1308  0.1481  1.5797
 8723SOL     OW37630   2.290   4.187  13.691  0.2757 -0.7381 -0.4728
 8723SOL    HW137631   2.223   4.192  13.760 -0.9260  0.8555 -1.7663
 8723SOL    HW237632   2.346   4.241  13.746 -3.1759  1.6781  0.6956
 8724SOL     OW37633   3.266   2.052   1.820  0.1699  0.0616  0.0515
 8724SOL    HW137634   3.317   2.023   1.745 -0.8374 -0.4851 -0.4198
 8724SOL    HW237635   3.186   2.001   1.833 -0.1346  0.5274 -0.0154
 8725SOL     OW37636   1.493   2.635  12.043  0.1392 -0.2551  0.2674
 8725SOL    HW137637   1.422   2.691  12.011  1.2331  0.3776 -1.0228
 8725SOL    HW237638   1.499   2.672  12.131  0.2329  1.2633 -0.3849
 8726SOL     OW37639   4.208   4.309   1.904 -0.1301 -0.8088  0.2544
 8726SOL    HW137640   4.230   4.216   1.897  0.9901 -0.5797  0.7518
 8726SOL    HW237641   4.257   4.343   1.979  0.2419 -0.5678 -0.1012
 8727SOL     OW37642   0.351   3.163   3.365 -0.0721 -0.6088 -0.8017
 8727SOL    HW137643   0.328   3.073   3.388 -1.6954  0.6203  2.3495
 8727SOL    HW237644   0.377   3.146   3.274 -1.1871 -0.0587 -1.2205
 8728SOL     OW37645   3.549   0.966   8.853  0.1291 -0.2158  0.4269
 8728SOL    HW137646   3.641   0.973   8.828 -0.0481 -0.8130 -0.4022
 8728SOL    HW237647   3.503   0.979   8.770  0.3121  0.2072  0.3920
 8729SOL     OW37648   4.128   0.578  11.343  0.1876  0.2350  0.3140
 8729SOL    HW137649   4.068   0.628  11.287 -0.3711 -1.1016 -0.2695
 8729SOL    HW237650   4.148   0.512  11.277  1.5699  0.9651  0.0147
 8730SOL     OW37651   0.976   1.284   8.880  0.3655  0.2300 -0.4113
 8730SOL    HW137652   1.066   1.309   8.860  1.1549  0.2074  3.0244
 8730SOL    HW237653   0.943   1.292   8.791  1.5993  2.7779 -0.6374
 8731SOL     OW37654   4.274   1.800   3.988 -0.2919 -0.7729  0.3268
 8731SOL    HW137655   4.355   1.851   3.992  0.5981 -2.1312 -0.2594
 8731SOL    HW237656   4.309   1.711   3.983  1.0463 -0.2502  0.3472
 8732SOL     OW37657   0.305   4.434   5.039 -0.4908  0.3539 -0.1320
 8732SOL    HW137658   0.396   4.434   5.010 -0.8888 -2.0528 -1.4241
 8732SOL    HW237659   0.267   4.421   4.952  2.7864  2.7547 -1.8902
 8733SOL     OW37660   0.914   1.192   9.128  0.2554  0.0171  0.0082
 8733SOL    HW137661   0.978   1.240   9.180  0.6218 -0.0955 -0.3331
 8733SOL    HW237662   0.924   1.229   9.040 -2.0201 -0.2040 -0.3297
 8734SOL     OW37663   1.250   3.557   4.844 -0.0972  0.7945 -0.0373
 8734SOL    HW137664   1.285   3.543   4.756 -2.1972  3.8166 -1.3673
 8734SOL    HW237665   1.331   3.576   4.891  0.0823  0.6336 -0.2803
 8735SOL     OW37666   3.769   2.909  12.648  0.0627  0.6086  0.2632
 8735SOL    HW137667   3.758   2.825  12.691 -0.4407 -1.0346 -3.1266
 8735SOL    HW237668   3.707   2.897  12.577 -0.5936 -3.1462  1.4801
 8736SOL     OW37669   2.915   2.947   2.692 -0.6434 -0.1477  0.5404
 8736SOL    HW137670   2.876   3.034   2.682 -1.1268 -0.6789 -2.2910
 8736SOL    HW237671   2.965   2.945   2.611 -1.6497 -0.8265 -0.0612
 8737SOL     OW37672   3.046   0.726  15.634 -0.0267  0.0044  0.2680
 8737SOL    HW137673   3.023   0.729  15.727  0.3263 -0.3847  0.3706
 8737SOL    HW237674   2.970   0.678  15.601  1.5425 -2.5605  0.4098
 8738SOL     OW37675   4.713   1.809   7.041  0.0225  0.2340 -0.0374
 8738SOL    HW137676   4.663   1.752   6.983  2.3775  0.8520 -2.6996
 8738SOL    HW237677   4.637   1.859   7.072 -0.5648 -0.2421 -0.7118
 8739SOL     OW37678   2.228   1.644   1.008  0.2394 -0.1108 -0.3686
 8739SOL    HW137679   2.217   1.722   1.063 -0.8048  0.8619 -1.9559
 8739SOL    HW237680   2.173   1.676   0.936 -2.2015 -0.0626  1.5420
 8740SOL     OW37681   0.990   0.571   9.135  0.0877  0.6432 -0.0637
 8740SOL    HW137682   0.975   0.575   9.229 -1.2385 -1.0347 -0.2118
 8740SOL    HW237683   1.082   0.594   9.126 -0.1855  1.3166 -1.2598
 8741SOL     OW37684   1.370   1.062   2.799  0.2026  0.0671  0.1290
 8741SOL    HW137685   1.361   0.990   2.861 -2.7215  0.2196 -0.1040
 8741SOL    HW237686   1.423   1.126   2.846  1.3376  0.1137 -1.2203
 8742SOL     OW37687   4.350   2.626   5.630  0.0443 -0.3971  0.2803
 8742SOL    HW137688   4.425   2.683   5.647  0.6853 -0.2015 -3.1862
 8742SOL    HW237689   4.367   2.548   5.683  0.4617 -0.6689 -0.2525
 8743SOL     OW37690   3.904   0.412  17.540 -0.1082  0.8069  0.2007
 8743SOL    HW137691   3.916   0.331  17.590  0.4150  0.0540 -1.1363
 8743SOL    HW237692   3.994   0.442  17.528  0.1388  0.1424  0.3858
 8744SOL     OW37693   0.001   4.168   1.695 -0.5190 -0.4305  0.3514
 8744SOL    HW137694   4.649   4.226   1.693 -0.7387 -0.7450 -0.4228
 8744SOL    HW237695   0.027   4.169   1.787 -0.0928 -0.7369  0.2367
 8745SOL     OW37696   1.005   1.592   6.587 -0.4415  0.8410 -0.6606
 8745SOL    HW137697   0.943   1.619   6.519 -0.1669  2.8676 -0.0841
 8745SOL    HW237698   0.977   1.501   6.602  1.5233 -0.0570 -2.3829
 8746SOL     OW37699   4.551   4.441   8.070  0.2374 -0.4310  0.5507
 8746SOL    HW137700   4.589   4.367   8.023 -1.3490  0.4563 -2.1216
 8746SOL    HW237701   4.591   4.519   8.033 -2.0550  0.5853  0.1623
 8747SOL     OW37702   3.720   4.187  16.449 -0.8683 -0.2287  0.0192
 8747SOL    HW137703   3.713   4.226  16.537 -1.3988 -1.2379  0.4216
 8747SOL    HW237704   3.717   4.258  16.385  0.8807 -0.8796 -0.7698
 8748SOL     OW37705   0.607   0.895   7.104 -0.5413 -0.1599  0.1828
 8748SOL    HW137706   0.582   0.986   7.084  0.6235  0.2103  0.4449
 8748SOL    HW237707   0.527   0.847   7.122 -0.6557  0.2317  0.7175
 8749SOL     OW37708   2.590   3.319  17.444 -0.4082 -0.1455  0.0295
 8749SOL    HW137709   2.676   3.335  17.405 -0.5504 -1.0797 -0.6501
 8749SOL    HW237710   2.565   3.408  17.470 -0.0954  0.1800 -0.7981
 8750SOL     OW37711   0.561   2.043  16.483 -0.2656 -0.3155  0.2619
 8750SOL    HW137712   0.472   2.043  16.517  0.7174  1.4029  2.8705
 8750SOL    HW237713   0.551   2.075  16.393 -0.4084  0.9338  0.7206
 8751SOL     OW37714   3.565   0.115   7.008  0.1574 -0.2405  0.0720
 8751SOL    HW137715   3.493   0.105   7.070 -1.6469  1.9020 -1.7145
 8751SOL    HW237716   3.641   0.116   7.067  0.1489 -1.3854  0.1168
 8752SOL     OW37717   2.499   2.820   7.850  0.3133  0.5426 -0.2250
 8752SOL    HW137718   2.583   2.799   7.889 -0.1276 -1.3027 -0.2733
 8752SOL    HW237719   2.442   2.859   7.917  1.1250  1.9126 -0.3374
 8753SOL     OW37720   1.624   3.574   9.075  0.2265  0.7649  0.4277
 8753SOL    HW137721   1.610   3.530   9.159 -0.7509 -3.4247 -1.9090
 8753SOL    HW237722   1.538   3.614   9.063  0.0606  0.0684 -0.6215
 8754SOL     OW37723   0.688   3.039   9.239 -0.0844  0.1046 -0.0374
 8754SOL    HW137724   0.684   2.945   9.220 -0.7712 -0.5074  3.1359
 8754SOL    HW237725   0.706   3.026   9.332 -2.8112  2.3120  0.7718
 8755SOL     OW37726   3.889   4.352   2.599  0.3121 -0.4054  0.0978
 8755SOL    HW137727   3.878   4.353   2.504  0.9954 -1.3469  0.0083
 8755SOL    HW237728   3.808   4.310   2.631 -0.3180  1.0069  0.3673
 8756SOL     OW37729   3.150   0.920   1.830 -0.0106  0.4228 -0.9133
 8756SOL    HW137730   3.166   0.893   1.740 -2.0688 -1.0611 -0.8248
 8756SOL    HW237731   3.101   0.997   1.803  0.7651  1.2838  0.1539
 8757SOL     OW37732   3.980   1.762   3.507  0.2378  0.0374  0.2731
 8757SOL    HW137733   4.033   1.840   3.522  1.6368 -1.0166  0.7588
 8757SOL    HW237734   3.933   1.778   3.425  0.0327  1.7225  0.7031
 8758SOL     OW37735   2.484   4.474   6.454  0.4831 -0.5990  0.2110
 8758SOL    HW137736   2.553   4.408   6.460 -0.3914 -1.4966  0.3415
 8758SOL    HW237737   2.530   4.558   6.447 -2.2216  0.7494 -1.4065
 8759SOL     OW37738   3.148   1.731   4.383  0.1373  0.1040  0.1324
 8759SOL    HW137739   3.058   1.735   4.350 -0.4469 -3.0420  1.4149
 8759SOL    HW237740   3.198   1.744   4.303  0.3199 -1.0835  0.0614
 8760SOL     OW37741   4.149   3.207   7.801  0.3976 -0.1929 -0.0602
 8760SOL    HW137742   4.242   3.203   7.821  0.3175  0.3694  0.4224
 8760SOL    HW237743   4.123   3.256   7.880 -1.7926 -0.0120 -0.8788
 8761SOL     OW37744   1.819   1.879  13.321  0.2646 -0.3023 -0.2546
 8761SOL    HW137745   1.864   1.851  13.400 -2.3931  0.0555  1.4038
 8761SOL    HW237746   1.821   1.793  13.280  0.1526  0.2667 -1.4744
 8762SOL     OW37747   1.333   3.786  16.245  0.3052  0.0705 -0.3678
 8762SOL    HW137748   1.340   3.881  16.238 -0.6832  0.1071 -0.8309
 8762SOL    HW237749   1.254   3.776  16.298  0.5437 -0.1990 -0.0615
 8763SOL     OW37750   2.783   1.959   6.673 -0.6847  0.1655 -1.0508
 8763SOL    HW137751   2.703   2.007   6.697 -1.9713 -1.3289 -2.3230
 8763SOL    HW237752   2.750   1.870   6.684 -0.5678  0.1783 -0.6091
 8764SOL     OW37753   1.733   3.589   5.156 -0.0726 -0.3170 -0.0884
 8764SOL    HW137754   1.808   3.532   5.175  0.3873 -0.4107 -2.1844
 8764SOL    HW237755   1.723   3.623   5.245 -1.8960 -0.3515 -0.2743
 8765SOL     OW37756   4.138   0.199   6.759  0.5141 -0.6779  0.5694
 8765SOL    HW137757   4.065   0.249   6.723 -0.2580 -0.5121  2.3701
 8765SOL    HW237758   4.201   0.260   6.721 -0.2047  0.7081  1.5953
 8766SOL     OW37759   3.653   3.498   0.408 -0.7400  0.2976 -0.2229
 8766SOL    HW137760   3.621   3.500   0.498 -0.9458  2.6566 -0.3622
 8766SOL    HW237761   3.676   3.590   0.397 -1.1847  0.7119  2.3524
 8767SOL     OW37762   3.412   3.027   4.134  0.1680 -0.1066 -0.1870
 8767SOL    HW137763   3.324   2.994   4.151 -0.4182  1.2334 -0.6539
 8767SOL    HW237764   3.433   2.969   4.060 -1.2415  0.8576 -1.3279
 8768SOL     OW37765   0.581   1.994   8.657  0.1591  0.6267  0.2983
 8768SOL    HW137766   0.501   2.046   8.652 -0.5067 -0.4571 -0.3831
 8768SOL    HW237767   0.554   1.907   8.627 -2.3522  1.6110 -0.2802
 8769SOL     OW37768   3.768   1.278   8.179 -0.0707 -0.2062 -0.4576
 8769SOL    HW137769   3.736   1.198   8.138 -0.1413 -0.7468  0.6485
 8769SOL    HW237770   3.726   1.264   8.264 -1.5382  0.6188 -1.0574
 8770SOL     OW37771   0.453   4.533   9.382 -0.1915  0.4056  0.3091
 8770SOL    HW137772   0.364   4.514   9.355  0.4280  0.1740 -1.5456
 8770SOL    HW237773   0.457   4.622   9.348  0.9841 -0.3416 -1.4960
 8771SOL     OW37774   1.423   3.327   2.993  0.2681 -0.1412  0.7924
 8771SOL    HW137775   1.394   3.367   2.911 -0.1284  0.7679  1.3755
 8771SOL    HW237776   1.430   3.237   2.961  1.0601  0.1955  0.0115
 8772SOL     OW37777   2.791   2.677   6.333 -0.5484  0.3543 -0.6544
 8772SOL    HW137778   2.761   2.728   6.408  0.1447 -0.9371  0.5044
 8772SOL    HW237779   2.726   2.606   6.330  0.7624 -0.7490 -3.0878
 8773SOL     OW37780   4.103   2.971   3.953  0.0772 -0.0684 -0.1044
 8773SOL    HW137781   4.076   3.057   3.984 -0.4030  0.2449 -1.3872
 8773SOL    HW237782   4.131   2.994   3.864 -2.2264 -0.2177 -0.8682
 8774SOL     OW37783   3.518   2.621   6.462 -0.3573 -0.2152 -0.4943
 8774SOL    HW137784   3.441   2.566   6.479 -1.2338  1.4833  1.0330
 8774SOL    HW237785   3.576   2.557   6.420 -1.0497 -1.5563  0.5812
 8775SOL     OW37786   3.545   4.411   7.704  0.0045 -0.2888  0.0259
 8775SOL    HW137787   3.626   4.449   7.670  1.7058 -2.4275  1.6793
 8775SOL    HW237788   3.586   4.328   7.728  2.3037  0.8380  0.0443
 8776SOL     OW37789   0.780   0.819   4.131  0.2544  0.0448  0.1522
 8776SOL    HW137790   0.871   0.790   4.129  0.2278 -0.0609  0.4347
 8776SOL    HW237791   0.792   0.866   4.214  1.0292  0.5486 -0.2493
 8777SOL     OW37792   1.987   0.992   5.363 -0.0138 -0.4183  0.2983
 8777SOL    HW137793   2.034   0.912   5.388  1.1174  0.6181  1.4935
 8777SOL    HW237794   1.926   0.946   5.305  0.1979 -2.0461  1.3526
 8778SOL     OW37795   1.451   2.333   4.847 -0.2971  0.2578 -0.1097
 8778SOL    HW137796   1.404   2.297   4.772 -2.5158  0.1385  1.3425
 8778SOL    HW237797   1.526   2.274   4.858  0.7230  1.3814 -0.9998
 8779SOL     OW37798   3.100   3.872   2.963 -0.2160 -0.6930 -0.1979
 8779SOL    HW137799   3.168   3.897   2.901 -0.0107 -1.6217 -0.3454
 8779SOL    HW237800   3.029   3.849   2.903 -1.2354  0.9458  0.3868
 8780SOL     OW37801   0.305   2.480   6.281  0.1089 -0.0022 -0.1204
 8780SOL    HW137802   0.224   2.468   6.233  0.8648 -1.3947 -1.0439
 8780SOL    HW237803   0.320   2.388   6.304  0.8018  0.0142 -0.4915
 8781SOL     OW37804   2.456   1.769   0.702 -0.6697 -0.2325 -0.0896
 8781SOL    HW137805   2.429   1.809   0.620  0.6511  0.3245 -0.2568
 8781SOL    HW237806   2.378   1.726   0.736  0.6518 -1.2722  1.6586
 8782SOL     OW37807   4.535   4.098   2.836  0.2505  0.1260 -0.5664
 8782SOL    HW137808   4.537   4.007   2.867  1.3717 -0.0280 -1.0699
 8782SOL    HW237809   4.456   4.124   2.883 -0.1382 -0.8496 -0.6760
 8783SOL     OW37810   2.562   4.450  11.123  0.7325  0.0045 -0.1530
 8783SOL    HW137811   2.568   4.475  11.216 -0.8309  0.4895 -0.1762
 8783SOL    HW237812   2.638   4.493  11.085  1.1023 -1.2961 -0.8835
 8784SOL     OW37813   3.495   0.553   7.997  0.3336  0.4107 -0.6656
 8784SOL    HW137814   3.425   0.611   8.027 -1.4040 -1.0234 -1.8458
 8784SOL    HW237815   3.550   0.519   8.067 -1.8469  3.1470  2.3590
 8785SOL     OW37816   0.274   3.075   7.174  0.7137 -0.4723 -0.6212
 8785SOL    HW137817   0.200   3.115   7.130 -0.2389 -0.9695  0.5249
 8785SOL    HW237818   0.290   2.996   7.123  0.3210 -0.7376 -0.3302
 8786SOL     OW37819   3.070   3.963  12.486 -0.5269 -0.0185 -0.7548
 8786SOL    HW137820   3.018   3.993  12.412 -2.9259 -1.9250  0.1317
 8786SOL    HW237821   3.116   4.045  12.505  0.9353 -1.1425  0.4875
 8787SOL     OW37822   1.892   0.393  15.733 -0.1050 -0.4125 -0.3330
 8787SOL    HW137823   1.980   0.429  15.738 -1.2151  1.9562  2.4458
 8787SOL    HW237824   1.864   0.396  15.825  1.3079 -0.5129  0.1029
 8788SOL     OW37825   2.236   2.056  16.747 -0.3569 -0.5645 -0.0056
 8788SOL    HW137826   2.162   2.101  16.705 -0.3908 -0.0069  0.6510
 8788SOL    HW237827   2.234   1.972  16.703  1.8248 -1.5341  1.7500
 8789SOL     OW37828   4.670   1.392   2.812 -0.0131  0.5601 -0.2829
 8789SOL    HW137829   4.638   1.425   2.897 -0.8801 -0.6469 -0.1455
 8789SOL    HW237830   4.585   1.370   2.774 -1.1263 -0.4869  2.7813
 8790SOL     OW37831   0.318   1.663   0.813 -0.0366  0.3559 -1.0493
 8790SOL    HW137832   0.386   1.629   0.871 -0.9456 -0.5330 -0.4916
 8790SOL    HW237833   0.293   1.740   0.864 -0.9150  0.9083 -2.3114
 8791SOL     OW37834   3.657   3.909   4.452  0.3914  0.1055  0.0246
 8791SOL    HW137835   3.595   3.954   4.508 -0.1472 -2.1354  1.2108
 8791SOL    HW237836   3.685   3.827   4.493  0.0143  0.0356  0.1411
 8792SOL     OW37837   1.300   1.026   6.453 -0.9623 -0.7638 -0.3968
 8792SOL    HW137838   1.393   1.011   6.474 -1.1728 -1.1844  0.2202
 8792SOL    HW237839   1.260   0.980   6.526  1.0150 -2.8107 -0.5969
 8793SOL     OW37840   2.328   3.674   8.344  0.1207  0.0849 -0.1448
 8793SOL    HW137841   2.325   3.585   8.379 -0.1855 -0.3132 -1.1829
 8793SOL    HW237842   2.284   3.665   8.260  2.2934  0.6126 -1.3353
 8794SOL     OW37843   0.031   4.129  17.123  0.5177 -0.2621 -0.5425
 8794SOL    HW137844   4.665   4.129  17.093  0.4078  1.1631 -0.2156
 8794SOL    HW237845   0.079   4.161  17.046  1.1062  2.8378  1.1126
 8795SOL     OW37846   1.579   3.195   6.108 -0.0999  0.3979  0.0581
 8795SOL    HW137847   1.663   3.176   6.066 -0.3436 -2.3596  0.8045
 8795SOL    HW237848   1.582   3.285   6.141  0.3576 -0.0450  1.2327
 8796SOL     OW37849   2.471   3.746   2.767  0.7862  0.5598 -0.1868
 8796SOL    HW137850   2.518   3.791   2.697  1.0829 -0.7372 -0.8202
 8796SOL    HW237851   2.547   3.724   2.821  0.7717 -0.7144 -0.6789
 8797SOL     OW37852   3.364   3.620  15.960 -0.5828  0.6680  0.0555
 8797SOL    HW137853   3.401   3.543  16.004  2.8144  0.6782 -2.8559
 8797SOL    HW237854   3.302   3.651  16.027 -0.5577 -1.3412  1.0116
 8798SOL     OW37855   0.242   0.913  17.210  0.5816  0.0664 -0.0369
 8798SOL    HW137856   0.162   0.931  17.160  1.5217 -0.0059 -1.5830
 8798SOL    HW237857   0.243   0.818  17.217  2.2132  0.1598  1.1640
 8799SOL     OW37858   4.078   4.146   0.270 -0.1391 -0.2789  0.0173
 8799SOL    HW137859   4.076   4.184   0.358  1.1515  0.7975 -0.4104
 8799SOL    HW237860   4.171   4.146   0.245 -0.2240 -1.4100 -0.2830
 8800SOL     OW37861   1.095   1.562  14.450  0.1467  0.0948  0.9313
 8800SOL    HW137862   1.119   1.574  14.542  0.9804 -1.8463  0.9572
 8800SOL    HW237863   1.151   1.626  14.408 -1.5601  2.0764  1.6419
 8801SOL     OW37864   2.277   1.690   5.252 -0.0583  0.3522 -0.2586
 8801SOL    HW137865   2.219   1.766   5.246 -0.2382  0.4231  2.2733
 8801SOL    HW237866   2.232   1.636   5.316  0.9479 -1.0486 -0.7365
 8802SOL     OW37867   2.525   1.156   8.728 -0.2300  0.0895 -0.5594
 8802SOL    HW137868   2.539   1.099   8.803  0.8496  1.1159  0.0272
 8802SOL    HW237869   2.591   1.224   8.740  0.4355 -0.4020 -1.4423
 8803SOL     OW37870   3.620   1.224   3.451  0.2347 -0.2299 -0.5566
 8803SOL    HW137871   3.528   1.199   3.463  0.2799 -0.8806 -1.6595
 8803SOL    HW237872   3.655   1.146   3.410  1.6395  0.2127 -0.2157
 8804SOL     OW37873   3.013   2.923   6.469 -0.3466 -0.1500  0.7972
 8804SOL    HW137874   3.052   2.840   6.497  1.6964  0.0640 -1.3938
 8804SOL    HW237875   2.950   2.883   6.408 -1.2800 -0.1295  1.7574
 8805SOL     OW37876   1.574   0.142  15.979 -0.1399 -0.2826  0.3380
 8805SOL    HW137877   1.524   0.077  15.929 -2.2396  1.6887 -0.1562
 8805SOL    HW237878   1.664   0.116  15.964  0.5249  1.6396  0.9854
 8806SOL     OW37879   4.554   3.369   9.601  0.1702  0.3538 -0.2938
 8806SOL    HW137880   4.540   3.318   9.681 -0.7250 -3.1499 -2.6853
 8806SOL    HW237881   4.594   3.444   9.643 -1.7588  0.8206  0.7298
 8807SOL     OW37882   2.663   2.273   1.200  0.0268  0.2947  0.0700
 8807SOL    HW137883   2.651   2.336   1.272 -0.2055  0.9752 -0.5609
 8807SOL    HW237884   2.717   2.212   1.250 -1.1264  0.3190  1.3492
 8808SOL     OW37885   3.240   4.260   7.690 -0.4822 -0.5342  0.3216
 8808SOL    HW137886   3.298   4.322   7.647  0.3111 -1.0145  0.7041
 8808SOL    HW237887   3.267   4.273   7.781 -0.9081 -0.0772  0.3838
 8809SOL     OW37888   1.116   3.300   2.895  0.1519 -0.2506 -0.6788
 8809SOL    HW137889   1.183   3.340   2.840  1.8206 -1.9031  0.1687
 8809SOL    HW237890   1.035   3.344   2.868  0.5104 -0.6365 -2.4139
 8810SOL     OW37891   1.551   1.587  14.923 -0.4247  0.1810 -0.1833
 8810SOL    HW137892   1.615   1.523  14.952 -0.7662  0.4795  1.2628
 8810SOL    HW237893   1.595   1.667  14.894 -2.6997  0.4905 -2.7600
 8811SOL     OW37894   2.654   4.011   7.543  0.2336 -0.0741  0.3550
 8811SOL    HW137895   2.639   3.981   7.453 -1.5790  0.2654  0.5415
 8811SOL    HW237896   2.716   4.081   7.522  1.6508 -1.5033 -0.2775
 8812SOL     OW37897   1.956   4.559   7.357  0.1113  0.2520 -0.0888
 8812SOL    HW137898   1.986   4.586   7.444 -2.9840 -1.7201  1.6223
 8812SOL    HW237899   1.912   4.477   7.379  3.0597 -1.5524 -1.0092
 8813SOL     OW37900   0.850   2.280   9.209 -0.0162 -0.7580 -1.0588
 8813SOL    HW137901   0.928   2.266   9.155  0.2994 -0.0156 -0.7947
 8813SOL    HW237902   0.817   2.363   9.176  1.0516  0.3817  0.7231
 8814SOL     OW37903   2.530   4.361   8.195 -0.1788  0.0793 -0.0615
 8814SOL    HW137904   2.455   4.378   8.138  0.3462  1.6702 -0.2726
 8814SOL    HW237905   2.589   4.428   8.162  1.7558 -1.0562  1.1162
 8815SOL     OW37906   2.926   2.999   7.242  0.0573  0.6327  0.3760
 8815SOL    HW137907   3.006   2.953   7.218 -0.6576 -0.9771  1.0321
 8815SOL    HW237908   2.864   2.937   7.204  0.0145  1.0855 -0.2947
 8816SOL     OW37909   4.580   2.325   8.818  0.4873  0.2861  0.2274
 8816SOL    HW137910   4.489   2.330   8.847  0.7818 -2.9208  1.7950
 8816SOL    HW237911   4.628   2.284   8.891  0.0011  0.3525  0.5852
 8817SOL     OW37912   1.877   1.489   0.101 -0.1999 -0.3356  0.2430
 8817SOL    HW137913   1.805   1.439   0.060 -0.7814  2.8065 -2.5782
 8817SOL    HW237914   1.948   1.460   0.044  0.8095  1.1429  0.7495
 8818SOL     OW37915   2.347   2.005   1.655  0.6075  0.7301  0.7077
 8818SOL    HW137916   2.409   1.951   1.705  1.3329  0.3635 -0.5770
 8818SOL    HW237917   2.413   2.057   1.610  0.6397  0.3513  0.3157
 8819SOL     OW37918   4.445   4.234   8.796  0.0693 -0.2064  0.1693
 8819SOL    HW137919   4.412   4.192   8.875 -2.7546  3.0839  0.7519
 8819SOL    HW237920   4.362   4.252   8.752 -0.8541 -3.1849  0.6789
 8820SOL     OW37921   2.227   3.951   5.581 -0.0504 -0.3963  0.1168
 8820SOL    HW137922   2.207   3.903   5.501  0.7344 -0.4793 -0.0309
 8820SOL    HW237923   2.222   4.041   5.549  2.8478 -0.2785 -0.0186
 8821SOL     OW37924   1.148   0.524   6.911  0.0299 -0.9368 -0.1124
 8821SOL    HW137925   1.111   0.504   6.997 -2.6760  0.0754 -1.0205
 8821SOL    HW237926   1.241   0.516   6.931 -0.4462 -0.8674  2.0925
 8822SOL     OW37927   2.866   3.347  11.178 -0.4574 -0.2146 -0.3491
 8822SOL    HW137928   2.812   3.271  11.201 -0.3741  0.2332  1.3464
 8822SOL    HW237929   2.945   3.324  11.227 -1.4636 -2.6828  0.1236
 8823SOL     OW37930   2.991   3.258   7.157 -0.0999  0.2791  0.5270
 8823SOL    HW137931   2.972   3.173   7.196  0.1803  2.0426  4.5348
 8823SOL    HW237932   2.909   3.271   7.110  0.6533  0.0120 -0.8893
 8824SOL     OW37933   1.152   1.581   9.236 -0.0025 -0.5508  0.1360
 8824SOL    HW137934   1.065   1.577   9.274 -0.7952  1.0371 -1.4933
 8824SOL    HW237935   1.188   1.657   9.283  0.1640 -1.9964  2.3241
 8825SOL     OW37936   0.800   0.273   1.813  0.1345 -0.5280  0.7053
 8825SOL    HW137937   0.832   0.183   1.815  2.1467  0.1933  0.9199
 8825SOL    HW237938   0.831   0.301   1.727  0.3373 -1.1603  0.5730
 8826SOL     OW37939   0.424   4.656   4.611  0.3283  0.0088  0.0940
 8826SOL    HW137940   0.477   4.577   4.599  0.3036 -0.0489  0.3586
 8826SOL    HW237941   0.348   4.638   4.557  0.5285 -0.2429 -0.1045
 8827SOL     OW37942   0.741   0.446   9.279  0.3472 -0.4208 -0.3965
 8827SOL    HW137943   0.648   0.426   9.293 -0.2467  1.2386 -1.9916
 8827SOL    HW237944   0.747   0.467   9.186  1.6073  2.2908  0.2811
 8828SOL     OW37945   0.129   1.078   7.492 -0.0501  1.2392  0.4684
 8828SOL    HW137946   0.049   1.128   7.505  0.4589  2.2741 -0.3383
 8828SOL    HW237947   0.100   0.994   7.458  2.0064  0.5821  0.3498
 8829SOL     OW37948   3.886   0.470  14.078  0.0121  0.0217  0.1228
 8829SOL    HW137949   3.892   0.505  13.989  0.7623  1.1947  0.6424
 8829SOL    HW237950   3.806   0.421  14.058 -0.1755 -0.1099  1.1752
 8830SOL     OW37951   3.642   0.400   2.417  0.4979  0.0746 -0.1706
 8830SOL    HW137952   3.608   0.481   2.456 -1.6141  0.6256 -3.0478
 8830SOL    HW237953   3.733   0.419   2.394  0.1566  1.1328 -0.6823
 8831SOL     OW37954   4.375   3.005   2.529  0.0773 -0.6668 -0.3011
 8831SOL    HW137955   4.443   2.972   2.469  0.8381 -2.7875  1.7574
 8831SOL    HW237956   4.412   3.094   2.526 -3.4864  0.7362 -2.2684
 8832SOL     OW37957   1.007   0.946  17.220  0.2682 -0.2179  0.9892
 8832SOL    HW137958   1.100   0.946  17.241 -0.0467  0.2333  2.4033
 8832SOL    HW237959   1.013   0.897  17.137 -1.0461 -0.3149  0.9561
 8833SOL     OW37960   0.862   2.090   6.760 -0.3088 -0.6696  0.1991
 8833SOL    HW137961   0.857   2.154   6.688  0.9005 -3.5563 -2.4552
 8833SOL    HW237962   0.946   2.108   6.800  0.3003  0.4889 -1.5871
 8834SOL     OW37963   0.540   0.413   9.553 -0.1655 -0.4095  0.6610
 8834SOL    HW137964   0.618   0.358   9.551 -0.0442 -0.1767 -1.1921
 8834SOL    HW237965   0.469   0.349   9.566 -0.9761  0.4119  0.2794
 8835SOL     OW37966   1.657   1.116   2.138  0.3840  0.6979 -0.1930
 8835SOL    HW137967   1.635   1.126   2.045  2.9735 -1.5603 -1.0617
 8835SOL    HW237968   1.706   1.195   2.159 -1.2423  1.8665 -0.8089
 8836SOL     OW37969   2.566   1.135  13.628  0.5994 -0.2464  0.7974
 8836SOL    HW137970   2.584   1.041  13.627  2.3134  0.0732  2.1163
 8836SOL    HW237971   2.554   1.154  13.721 -0.0911  1.4192  0.3826
 8837SOL     OW37972   2.161   0.507   2.817 -0.0940  0.1515 -0.0957
 8837SOL    HW137973   2.068   0.486   2.805  0.2739 -0.9112 -1.0834
 8837SOL    HW237974   2.170   0.548   2.903  0.8820  0.0236 -0.1362
 8838SOL     OW37975   1.644   4.197  16.157 -0.2159  0.4427  0.3010
 8838SOL    HW137976   1.576   4.227  16.097  0.3786  1.6099  0.2096
 8838SOL    HW237977   1.658   4.266  16.221 -0.8703  1.1734 -0.3409
 8839SOL     OW37978   0.248   0.010  10.856  0.7870 -0.5354 -0.1518
 8839SOL    HW137979   0.342   0.015  10.842  1.0016  1.6964  2.2108
 8839SOL    HW237980   0.203   0.054  10.784  0.6606  1.8191  1.3905
 8840SOL     OW37981   2.010   4.643   1.230  0.0290 -0.1738  0.5953
 8840SOL    HW137982   1.927   4.603   1.203 -1.8827  3.1493  1.5389
 8840SOL    HW237983   2.057   4.582   1.287 -0.7603 -2.1489 -0.8787
 8841SOL     OW37984   1.761   0.634   1.619  0.3244  0.1410 -0.0935
 8841SOL    HW137985   1.761   0.727   1.598  0.1885 -0.4248 -2.5759
 8841SOL    HW237986   1.759   0.581   1.539 -0.2357 -0.2953  0.2116
 8842SOL     OW37987   1.189   0.376   3.905  0.2078 -0.3883  0.3406
 8842SOL    HW137988   1.267   0.425   3.878 -1.1470  1.2935 -0.5035
 8842SOL    HW237989   1.219   0.359   3.994  0.8644 -0.4487  0.1106
 8843SOL     OW37990   3.740   1.608   6.843  0.1476  0.2342  0.2134
 8843SOL    HW137991   3.685   1.548   6.793  1.5813 -1.8849  1.1388
 8843SOL    HW237992   3.700   1.694   6.831  2.0881  1.3181  1.4457
 8844SOL     OW37993   2.702   0.779  15.468  0.6387 -0.5401 -0.2093
 8844SOL    HW137994   2.756   0.700  15.478  0.4846 -0.4049  1.7266
 8844SOL    HW237995   2.770   0.846  15.470  0.8081 -0.7212  0.2728
 8845SOL     OW37996   3.235   2.943   5.133  0.1555 -0.2994  0.5709
 8845SOL    HW137997   3.171   2.873   5.121 -2.0371  1.3234  2.7464
 8845SOL    HW237998   3.304   2.891   5.175  1.4817  1.7440  0.9348
 8846SOL     OW37999   2.015   4.583  10.730 -0.0265 -0.2962  0.2289
 8846SOL    HW138000   2.031   4.640  10.654  3.0202 -3.8718 -1.8444
 8846SOL    HW238001   1.985   4.646  10.795  2.3217  0.2411  0.7864
 8847SOL     OW38002   2.243   1.061   2.883  0.1402  0.0770 -0.0691
 8847SOL    HW138003   2.175   1.000   2.910  0.3318 -0.8125 -1.5735
 8847SOL    HW238004   2.195   1.118   2.823 -1.7735 -0.0010  1.4132
 8848SOL     OW38005   4.342   2.606  13.944  0.0832 -0.2130  0.0853
 8848SOL    HW138006   4.294   2.661  14.006 -0.4932  0.1325 -0.6710
 8848SOL    HW238007   4.369   2.676  13.884 -0.5345 -0.6151 -0.6679
 8849SOL     OW38008   2.453   1.529  11.393  0.3653  0.4590  0.4792
 8849SOL    HW138009   2.478   1.606  11.444 -0.8811  0.4795  1.0666
 8849SOL    HW238010   2.492   1.458  11.444 -1.1828 -0.8622 -0.1860
 8850SOL     OW38011   3.439   0.751   7.275  0.0526 -0.0878  0.6333
 8850SOL    HW138012   3.485   0.778   7.196 -2.4792  2.7312  0.1293
 8850SOL    HW238013   3.350   0.777   7.254 -0.1836 -1.5702 -0.1897
 8851SOL     OW38014   1.495   2.427  11.379 -0.2068 -0.5457  0.3326
 8851SOL    HW138015   1.538   2.488  11.439 -0.2141 -0.2754  0.0659
 8851SOL    HW238016   1.409   2.455  11.411  0.4632  1.1239  0.6878
 8852SOL     OW38017   0.284   2.323  13.523 -0.1260 -1.0854 -0.1875
 8852SOL    HW138018   0.220   2.258  13.551 -1.3014  0.7451  1.3588
 8852SOL    HW238019   0.230   2.370  13.459 -0.5076 -1.5126 -0.1798
 8853SOL     OW38020   0.578   0.492   8.724  0.2321 -0.1038 -0.7145
 8853SOL    HW138021   0.606   0.578   8.692 -1.2767  0.9356  0.7592
 8853SOL    HW238022   0.526   0.447   8.658 -0.8682  0.4974 -0.2619
 8854SOL     OW38023   4.670   3.393   5.485 -0.1573 -0.1557  0.1895
 8854SOL    HW138024   4.578   3.380   5.462  0.5034 -1.5075 -1.6934
 8854SOL    HW238025   4.662   3.482   5.519 -2.0314 -0.3780  0.3302
 8855SOL     OW38026   2.566   0.012  10.255  0.0568 -0.3069 -0.2172
 8855SOL    HW138027   2.557   0.079  10.187 -0.5098 -1.5633 -1.3919
 8855SOL    HW238028   2.495   0.036  10.315 -0.8696  0.7903 -1.7553
 8856SOL     OW38029   4.428   0.186   4.532 -0.2424  0.0484 -0.7630
 8856SOL    HW138030   4.335   0.190   4.553 -0.3772 -0.8144 -1.1856
 8856SOL    HW238031   4.451   0.094   4.545 -2.5618 -0.1731  1.7362
 8857SOL     OW38032   2.080   0.686   4.079  0.0728 -0.1366  0.3442
 8857SOL    HW138033   2.018   0.757   4.095  0.0383 -0.7071  2.7775
 8857SOL    HW238034   2.029   0.607   4.097 -0.4212 -0.1446 -1.1128
 8858SOL     OW38035   4.190   4.060   2.227  0.3041 -0.5367 -0.4128
 8858SOL    HW138036   4.273   4.012   2.232 -0.4988 -1.9609 -0.6531
 8858SOL    HW238037   4.135   3.995   2.183  1.4455 -0.8854 -1.3159
 8859SOL     OW38038   2.364   4.364  12.540 -0.1449 -0.8810 -0.0706
 8859SOL    HW138039   2.445   4.367  12.490 -0.2659 -2.8505 -0.3901
 8859SOL    HW238040   2.346   4.458  12.540 -0.6547 -0.9785 -0.0441
 8860SOL     OW38041   0.417   4.656   4.110  0.4464  0.2101 -0.1508
 8860SOL    HW138042   0.388   4.611   4.031 -0.1580  0.9201 -0.3332
 8860SOL    HW238043   0.470   4.592   4.157 -0.5186 -1.7281 -1.7130
 8861SOL     OW38044   1.601   2.955   5.418 -0.3613  0.1999 -0.0678
 8861SOL    HW138045   1.615   2.970   5.324 -0.2284  0.9639  0.0697
 8861SOL    HW238046   1.685   2.912   5.433 -0.7033 -1.2792 -2.3304
 8862SOL     OW38047   1.359   3.331   7.084  0.9328  0.4143 -0.0060
 8862SOL    HW138048   1.358   3.266   7.154  1.4767  2.5869  2.0005
 8862SOL    HW238049   1.265   3.325   7.064  1.0254  2.4105 -0.9972
 8863SOL     OW38050   4.343   3.094   3.168 -0.5058 -0.3156  0.8919
 8863SOL    HW138051   4.324   3.112   3.260  3.3708  2.1057  1.2233
 8863SOL    HW238052   4.265   3.041   3.154 -0.3956  0.0074 -0.8954
 8864SOL     OW38053   4.241   0.097   7.614 -0.5360  0.1815 -0.2391
 8864SOL    HW138054   4.275   0.076   7.701 -0.2374 -1.0767 -0.6601
 8864SOL    HW238055   4.275   0.186   7.601  0.0448  0.1699  1.2451
 8865SOL     OW38056   2.988   3.574   1.762  0.0611  0.1583  0.6021
 8865SOL    HW138057   3.079   3.584   1.792 -0.3593  1.8640  1.2985
 8865SOL    HW238058   2.994   3.607   1.672  2.1748 -1.8508 -0.0047
 8866SOL     OW38059   1.456   4.225   1.977  0.0903  0.9689  0.5736
 8866SOL    HW138060   1.516   4.283   2.024  1.9979  1.1652 -2.1320
 8866SOL    HW238061   1.378   4.224   2.033 -1.3626  1.5076 -1.4365
 8867SOL     OW38062   0.321   1.077   4.559 -0.0942 -0.0141 -0.4098
 8867SOL    HW138063   0.255   1.105   4.496 -1.3288  0.4030  1.0685
 8867SOL    HW238064   0.354   1.162   4.588  1.7987 -1.0201  0.3771
 8868SOL     OW38065   3.429   2.204  12.459  0.0233 -0.0176 -0.5541
 8868SOL    HW138066   3.474   2.151  12.525 -0.7313 -0.8919 -0.7519
 8868SOL    HW238067   3.418   2.276  12.521  0.4290 -0.5815  0.1774
 8869SOL     OW38068   2.635   0.689  11.308  0.3095  0.6066 -0.2184
 8869SOL    HW138069   2.555   0.710  11.260 -0.7940 -1.5693  0.6715
 8869SOL    HW238070   2.592   0.704  11.393  0.3824 -0.6861  0.0428
 8870SOL     OW38071   2.278   1.868   1.431 -0.3037 -0.1086  0.3887
 8870SOL    HW138072   2.308   1.877   1.521  1.0356  1.3084 -0.2110
 8870SOL    HW238073   2.234   1.953   1.432  1.9962  1.1024 -1.5227
 8871SOL     OW38074   0.163   0.913   3.344 -0.0971 -0.5872 -0.3589
 8871SOL    HW138075   0.146   1.007   3.345 -0.4246 -0.6629  0.4172
 8871SOL    HW238076   0.074   0.887   3.367  0.2381  0.7566  2.4440
 8872SOL     OW38077   1.805   2.211  11.003 -0.1538  0.2024 -0.4262
 8872SOL    HW138078   1.831   2.283  10.945 -1.2934  0.0063 -1.1653
 8872SOL    HW238079   1.767   2.269  11.069 -1.8047 -1.0951 -0.2480
 8873SOL     OW38080   0.053   4.550  17.278 -0.1397 -0.1809 -0.0548
 8873SOL    HW138081   4.697   4.598  17.260  0.1462 -0.1616 -1.2858
 8873SOL    HW238082   0.038   4.553  17.372  1.4122 -1.5274  0.2246
 8874SOL     OW38083   3.764   0.462  11.992 -0.2535  0.3698  0.2495
 8874SOL    HW138084   3.815   0.381  11.999 -0.2550  0.3907  0.5125
 8874SOL    HW238085   3.819   0.514  11.934 -0.3711  1.5114  1.1508
 8875SOL     OW38086   1.550   0.687   3.624  0.0838 -0.5516 -0.0528
 8875SOL    HW138087   1.485   0.749   3.592  0.6477 -0.5956 -1.2861
 8875SOL    HW238088   1.603   0.744   3.678 -3.2104  1.0022  1.5227
 8876SOL     OW38089   0.720   3.290  13.084  0.2595 -0.0712 -0.2113
 8876SOL    HW138090   0.653   3.289  13.016 -1.3664 -2.2675  1.4287
 8876SOL    HW238091   0.759   3.205  13.065  2.8389  1.0767 -0.0994
 8877SOL     OW38092   3.065   0.696  14.789 -0.0909  0.5459 -1.1031
 8877SOL    HW138093   3.008   0.633  14.831  1.1220 -0.9215 -1.6562
 8877SOL    HW238094   3.065   0.670  14.697  0.6379  0.1671 -1.0006
 8878SOL     OW38095   3.133   0.753  11.855  0.0934 -0.2898 -0.4710
 8878SOL    HW138096   3.200   0.820  11.869 -1.5843  1.1972  0.6023
 8878SOL    HW238097   3.137   0.702  11.935 -1.4004  1.9301  1.0355
 8879SOL     OW38098   2.978   2.580   0.281 -0.1529 -0.0255  0.7926
 8879SOL    HW138099   2.945   2.666   0.308 -0.4265  0.0960  0.0631
 8879SOL    HW238100   2.910   2.524   0.320 -0.0701 -1.4356 -1.1277
 8880SOL     OW38101   0.685   0.213   7.020 -0.2542 -0.3571  0.7371
 8880SOL    HW138102   0.606   0.251   7.058 -0.0180  0.0868  0.7741
 8880SOL    HW238103   0.718   0.281   6.962  0.9519 -1.3431  0.2698
 8881SOL     OW38104   4.207   4.501  14.419 -0.4922 -0.1334 -0.0061
 8881SOL    HW138105   4.144   4.450  14.368 -0.8775 -0.7197  1.0318
 8881SOL    HW238106   4.137   4.540  14.472  0.0111  0.0488  0.5245
 8882SOL     OW38107   1.588   3.880  15.033  1.0295  0.2933 -0.0469
 8882SOL    HW138108   1.595   3.852  15.124 -0.2525  0.4785  0.1132
 8882SOL    HW238109   1.511   3.936  15.042  2.4591  2.1396  0.4460
 8883SOL     OW38110   2.425   3.287   5.521 -0.0091  0.6262 -0.1278
 8883SOL    HW138111   2.394   3.294   5.430 -0.2877  0.9861 -0.0053
 8883SOL    HW238112   2.475   3.368   5.533 -0.7552  1.1740 -0.6814
 8884SOL     OW38113   3.158   4.353   2.611 -0.6181  0.3647  0.3455
 8884SOL    HW138114   3.113   4.295   2.672 -1.0728  1.4567  1.0434
 8884SOL    HW238115   3.086   4.378   2.554  0.1063 -0.5944 -0.9952
 8885SOL     OW38116   1.791   2.427   6.459  0.3932 -0.2928 -0.0952
 8885SOL    HW138117   1.745   2.510   6.475 -1.7096 -1.5679  0.4285
 8885SOL    HW238118   1.880   2.447   6.488  0.5725 -1.2941  0.0229
 8886SOL     OW38119   0.916   1.235   2.184 -0.5687  0.2894 -0.3001
 8886SOL    HW138120   0.982   1.237   2.254  0.7184  1.1326 -1.5398
 8886SOL    HW238121   0.938   1.309   2.127 -0.1167  0.0935 -0.3756
 8887SOL     OW38122   1.128   1.379   4.405 -0.2047 -0.0599 -0.0001
 8887SOL    HW138123   1.079   1.321   4.463 -0.9980  0.9941  0.3809
 8887SOL    HW238124   1.104   1.338   4.322 -1.9580  0.1246  0.4304
 8888SOL     OW38125   4.313   2.674  10.866  0.1525 -0.2466  0.3224
 8888SOL    HW138126   4.385   2.631  10.819 -2.6722 -1.3720 -2.9561
 8888SOL    HW238127   4.254   2.603  10.889 -0.7443  0.5459  0.4521
 8889SOL     OW38128   3.106   0.874  10.579  0.2344  0.2180  0.5876
 8889SOL    HW138129   3.145   0.849  10.663 -1.5496 -1.6626  0.8601
 8889SOL    HW238130   3.182   0.912  10.535  1.1720 -1.8820  0.4097
 8890SOL     OW38131   0.938   2.190   4.608 -0.2559 -0.4854  0.1099
 8890SOL    HW138132   1.001   2.152   4.547 -0.4892 -0.6379 -0.0357
 8890SOL    HW238133   0.858   2.214   4.561  0.1709  3.7974  1.6181
 8891SOL     OW38134   3.357   4.419  15.415 -0.3796 -0.3177  0.1074
 8891SOL    HW138135   3.285   4.363  15.385 -1.2518  1.2644 -0.7312
 8891SOL    HW238136   3.413   4.415  15.337  1.6163  0.4542  1.4970
 8892SOL     OW38137   1.634   2.768  10.839  0.3766 -0.3761 -0.0256
 8892SOL    HW138138   1.629   2.675  10.816 -2.6353  0.2062 -1.7455
 8892SOL    HW238139   1.560   2.805  10.791  0.8932  2.7021  1.5355
 8893SOL     OW38140   1.691   1.165   6.695  0.3692 -0.5547  0.3949
 8893SOL    HW138141   1.656   1.182   6.782 -0.5681  0.0492 -0.1073
 8893SOL    HW238142   1.745   1.243   6.680 -0.9986  0.6445  1.7801
 8894SOL     OW38143   1.385   0.110   3.446 -0.3404 -0.3652 -0.0239
 8894SOL    HW138144   1.349   0.024   3.468  0.2217 -1.2691 -2.6999
 8894SOL    HW238145   1.306   0.152   3.413 -0.4943 -2.0679 -1.7790
 8895SOL     OW38146   1.958   1.263  12.356  0.2216  0.1675 -0.1320
 8895SOL    HW138147   1.984   1.196  12.419 -0.5831 -0.3754 -0.3811
 8895SOL    HW238148   1.886   1.216  12.313 -0.2170 -0.7348  1.6069
 8896SOL     OW38149   4.479   0.142  10.306  0.2684 -0.6705 -0.3879
 8896SOL    HW138150   4.448   0.162  10.394 -1.2534  0.5782 -1.2054
 8896SOL    HW238151   4.408   0.162  10.246  1.1515 -0.2210 -1.2887
 8897SOL     OW38152   1.546   2.961   8.521  0.3752  0.1516  0.2277
 8897SOL    HW138153   1.506   2.909   8.591  0.0871 -1.1675 -0.9059
 8897SOL    HW238154   1.507   3.047   8.538 -0.2877  0.1590 -1.3556
 8898SOL     OW38155   4.463   2.004  12.114 -0.3242  0.2662  0.3068
 8898SOL    HW138156   4.506   1.981  12.032  0.2512  0.4863  0.5443
 8898SOL    HW238157   4.522   1.960  12.175  0.3361 -2.7408 -2.5439
 8899SOL     OW38158   0.376   2.828   9.284 -0.2720  0.0256  0.3005
 8899SOL    HW138159   0.286   2.855   9.267  1.0572  3.4782 -1.3300
 8899SOL    HW238160   0.404   2.902   9.338 -0.7126  1.2721 -1.1963
 8900SOL     OW38161   3.553   3.021  10.072  0.1400  0.4662 -0.0795
 8900SOL    HW138162   3.607   3.100  10.077  3.0165 -1.5409  0.7150
 8900SOL    HW238163   3.487   3.040  10.139  1.1126 -0.4413  1.1375
 8901SOL     OW38164   4.193   0.598   5.084 -0.2994 -0.4090 -0.1871
 8901SOL    HW138165   4.233   0.644   5.011 -1.8176  2.0002  0.5071
 8901SOL    HW238166   4.125   0.544   5.042  0.0801 -2.2712  1.5808
 8902SOL     OW38167   3.748   2.887   5.554  0.9787  0.1074  0.6986
 8902SOL    HW138168   3.656   2.909   5.538  0.7526 -1.7467 -0.5164
 8902SOL    HW238169   3.800   2.936   5.490 -1.0986 -0.8921 -1.7236
 8903SOL     OW38170   0.630   3.011  11.615  0.3888  0.2944  1.0146
 8903SOL    HW138171   0.540   3.020  11.645  0.1755 -0.7243  0.6912
 8903SOL    HW238172   0.630   3.041  11.525 -2.3418  0.5816  1.1297
 8904SOL     OW38173   1.479   3.013   3.261  0.5220  0.2978 -0.0701
 8904SOL    HW138174   1.464   3.089   3.317  0.4452  0.6610 -0.5870
 8904SOL    HW238175   1.538   3.044   3.192  3.2163 -1.9344  1.2162
 8905SOL     OW38176   4.371   4.410   2.710  0.4160  0.0315 -0.3864
 8905SOL    HW138177   4.322   4.404   2.792 -1.2206  1.0856 -1.2881
 8905SOL    HW238178   4.401   4.500   2.728  0.9763 -0.3540  0.6289
 8906SOL     OW38179   3.787   3.669  15.505 -0.4750  0.4988 -0.7925
 8906SOL    HW138180   3.876   3.662  15.540  0.3765  2.7949 -2.5019
 8906SOL    HW238181   3.802   3.690  15.413 -1.5636  1.0718 -0.8350
 8907SOL     OW38182   0.271   1.524  15.803  0.0264 -0.0984 -0.2312
 8907SOL    HW138183   0.280   1.596  15.865 -1.6968 -1.1185  1.1746
 8907SOL    HW238184   0.176   1.519  15.792 -0.2463  2.1763  1.0658
 8908SOL     OW38185   2.086   2.642   3.198 -0.0700 -0.5244  0.5375
 8908SOL    HW138186   2.078   2.736   3.179 -0.0487  0.1811  3.9259
 8908SOL    HW238187   2.150   2.647   3.270  2.5975  0.0502 -1.8551
 8909SOL     OW38188   4.685   0.379   7.643  0.6537  0.3993  0.0791
 8909SOL    HW138189   4.676   0.350   7.734 -0.9086 -0.9110 -0.4830
 8909SOL    HW238190   4.661   0.297   7.599  0.3032  0.2176  0.6082
 8910SOL     OW38191   0.290   4.268  11.757  0.4980  0.7500  0.1199
 8910SOL    HW138192   0.309   4.251  11.665  0.8716  0.1567  0.3079
 8910SOL    HW238193   0.378   4.293  11.787  0.4099 -2.4594  3.0241
 8911SOL     OW38194   0.436   4.557   7.581 -0.1555  1.0058 -0.1856
 8911SOL    HW138195   0.486   4.637   7.566  0.0927  0.9708  0.5116
 8911SOL    HW238196   0.356   4.572   7.530  0.2046 -0.2827 -1.1351
 8912SOL     OW38197   3.536   1.274   0.523 -0.2343 -0.1989 -0.3078
 8912SOL    HW138198   3.533   1.256   0.429  1.1361  1.6389 -0.7151
 8912SOL    HW238199   3.525   1.189   0.565 -0.4560 -0.2838 -0.5398
 8913SOL     OW38200   3.271   2.230  13.333  0.1939  0.5505  0.0972
 8913SOL    HW138201   3.360   2.247  13.364  0.0024  1.4808  0.1531
 8913SOL    HW238202   3.221   2.293  13.385  0.3114  0.7196  0.0086
 8914SOL     OW38203   3.278   0.979   4.148  0.0952 -0.1506  0.4313
 8914SOL    HW138204   3.209   1.033   4.185 -1.6885 -1.0767 -1.4771
 8914SOL    HW238205   3.219   0.921   4.098  0.5691  1.5407 -2.1034
 8915SOL     OW38206   3.202   4.526   2.852  0.0680  0.1365 -0.1143
 8915SOL    HW138207   3.216   4.587   2.925  2.1986  0.2342 -0.6199
 8915SOL    HW238208   3.121   4.558   2.812  1.1590  1.5138 -1.1892
 8916SOL     OW38209   4.377   1.840   3.151 -0.1283 -0.1012 -0.6465
 8916SOL    HW138210   4.308   1.838   3.218 -0.7265  0.2658 -1.2496
 8916SOL    HW238211   4.398   1.932   3.166  0.5964 -0.3724 -0.0256
 8917SOL     OW38212   3.397   0.455   0.441  0.1061 -0.9381 -0.4506
 8917SOL    HW138213   3.413   0.377   0.388  2.7852 -0.2218 -0.6762
 8917SOL    HW238214   3.304   0.434   0.447  0.4156 -1.1303  3.6070
 8918SOL     OW38215   1.486   3.914   3.911  0.0199  0.6277 -0.6129
 8918SOL    HW138216   1.471   3.990   3.967 -0.4127  0.1922 -0.1423
 8918SOL    HW238217   1.514   3.953   3.828  0.2214 -2.4161 -1.9898
 8919SOL     OW38218   2.541   2.447   5.544 -0.3025 -0.5792 -0.4947
 8919SOL    HW138219   2.523   2.527   5.593 -0.0935  0.1160 -1.5515
 8919SOL    HW238220   2.463   2.444   5.488 -0.8483 -0.7667  0.2706
 8920SOL     OW38221   1.202   1.562   3.607 -0.2281  0.2346  0.0059
 8920SOL    HW138222   1.164   1.648   3.589  1.1247  0.6114 -0.9662
 8920SOL    HW238223   1.227   1.557   3.699 -0.7232 -1.4101  0.0572
 8921SOL     OW38224   1.220   0.711   1.227  0.3899 -0.1935  0.0843
 8921SOL    HW138225   1.195   0.619   1.232 -0.6307  0.1171  0.7002
 8921SOL    HW238226   1.143   0.739   1.278  0.3718  1.6061 -0.9240
 8922SOL     OW38227   4.415   2.522   3.951  0.5106 -0.4321 -0.5094
 8922SOL    HW138228   4.416   2.433   3.916  0.5384 -1.0129  0.9714
 8922SOL    HW238229   4.405   2.569   3.869 -0.9937 -2.6705 -1.6193
 8923SOL     OW38230   1.296   4.163   7.536  0.1883  0.2281 -0.5025
 8923SOL    HW138231   1.215   4.150   7.587  0.0118 -1.6977 -1.2898
 8923SOL    HW238232   1.342   4.083   7.559  0.3447  0.4615 -0.0029
 8924SOL     OW38233   1.397   0.645   1.034  0.1189  0.3729  0.1508
 8924SOL    HW138234   1.342   0.581   0.989  0.9656 -0.2049 -0.0729
 8924SOL    HW238235   1.340   0.688   1.097 -0.8209 -1.5157  0.6035
 8925SOL     OW38236   0.804   1.954   7.275  0.1035 -0.3092  0.0137
 8925SOL    HW138237   0.758   1.926   7.196 -3.8525  2.7045  1.2512
 8925SOL    HW238238   0.837   2.042   7.253  3.3799 -0.7295  3.1761
 8926SOL     OW38239   3.235   3.624  13.268 -0.1944 -0.2631 -0.7803
 8926SOL    HW138240   3.182   3.548  13.243  0.0604 -0.6651 -0.0759
 8926SOL    HW238241   3.322   3.589  13.285 -0.2396 -0.1535 -0.3358
 8927SOL     OW38242   2.102   4.560   5.116 -0.2515 -0.2009  0.0150
 8927SOL    HW138243   2.165   4.491   5.095 -1.1252 -0.7321 -0.8899
 8927SOL    HW238244   2.084   4.552   5.210 -2.6005 -2.5430 -0.6128
 8928SOL     OW38245   3.210   4.234   4.601 -0.0511 -0.0002 -0.4953
 8928SOL    HW138246   3.164   4.317   4.611  0.1727  0.2537 -1.5839
 8928SOL    HW238247   3.142   4.169   4.612 -1.6031  1.5579 -0.9011
 8929SOL     OW38248   0.649   3.636   7.872 -0.2239  0.2145  0.4714
 8929SOL    HW138249   0.596   3.631   7.793 -1.1897  0.9405  1.0729
 8929SOL    HW238250   0.621   3.715   7.917 -1.6849 -0.0601  0.0432
 8930SOL     OW38251   0.726   4.401  17.120  0.2157  0.1177 -0.2738
 8930SOL    HW138252   0.638   4.399  17.158  0.5088 -2.1362  0.2703
 8930SOL    HW238253   0.769   4.476  17.161  1.3631  0.0413 -1.3228
 8931SOL     OW38254   1.830   3.097   4.096 -0.2937  0.2797  0.1053
 8931SOL    HW138255   1.770   3.022   4.092 -1.9904  1.6220  0.3040
 8931SOL    HW238256   1.917   3.067   4.071 -0.4205  0.1509 -0.1771
 8932SOL     OW38257   3.351   0.004  12.881  0.1652  0.2526  0.2216
 8932SOL    HW138258   3.293   0.011  12.957  0.1158 -1.8963  0.3756
 8932SOL    HW238259   3.357   0.099  12.870  1.3827  0.1734  0.1716
 8933SOL     OW38260   1.243   1.762  11.231  0.4057 -0.4415  0.2252
 8933SOL    HW138261   1.226   1.729  11.142 -1.0610 -1.7071  0.9811
 8933SOL    HW238262   1.280   1.683  11.269  0.1068  0.6027  2.6801
 8934SOL     OW38263   2.756   3.398   1.358 -0.5769 -0.3909  0.2184
 8934SOL    HW138264   2.728   3.316   1.317 -2.6085 -0.4090  1.6580
 8934SOL    HW238265   2.678   3.431   1.402  0.3710 -0.9404  2.3390
 8935SOL     OW38266   0.004   0.118   3.426  0.2905  0.1792 -0.2654
 8935SOL    HW138267   0.039   0.106   3.338  0.2995  1.0052 -0.3814
 8935SOL    HW238268   4.656   0.179   3.410 -0.4395  0.2872  3.3816
 8936SOL     OW38269   3.874   4.359   6.231 -0.0347  0.5343 -0.6426
 8936SOL    HW138270   3.941   4.425   6.245 -0.6159  0.6802  1.6238
 8936SOL    HW238271   3.795   4.413   6.238 -2.3786 -3.0281  0.8090
 8937SOL     OW38272   2.596   1.992  16.238  0.0042 -0.8042 -0.0838
 8937SOL    HW138273   2.651   1.934  16.290 -0.9000  1.2433  3.1926
 8937SOL    HW238274   2.555   2.041  16.310  3.1340  0.5344  0.8045
 8938SOL     OW38275   3.969   0.997   7.783  0.1303  0.2936 -0.1849
 8938SOL    HW138276   4.004   0.987   7.694  2.1427  3.4578  0.2661
 8938SOL    HW238277   3.938   0.910   7.807  0.2391 -0.1717 -1.6858
 8939SOL     OW38278   2.536   3.736  11.587 -0.6372 -0.4529 -0.7494
 8939SOL    HW138279   2.572   3.648  11.600 -1.9415 -0.8972 -0.2319
 8939SOL    HW238280   2.510   3.739  11.495 -2.8241 -1.6141 -0.1541
 8940SOL     OW38281   0.203   4.086   4.079 -0.0396 -0.3393 -0.2153
 8940SOL    HW138282   0.253   4.020   4.127  1.4788  0.9508 -0.0254
 8940SOL    HW238283   0.138   4.032   4.035  0.1435  0.1996 -1.1560
 8941SOL     OW38284   2.367   2.616   0.811 -0.1117 -0.0658 -0.0156
 8941SOL    HW138285   2.455   2.582   0.796 -0.7385 -1.2444 -0.9989
 8941SOL    HW238286   2.347   2.565   0.889  0.9959 -1.8267 -0.8862
 8942SOL     OW38287   1.142   1.844   8.385 -0.4727  0.3049  0.2566
 8942SOL    HW138288   1.089   1.858   8.464  0.5817  0.5956  0.9066
 8942SOL    HW238289   1.093   1.767   8.354 -0.6538 -0.4705  2.4729
 8943SOL     OW38290   2.100   0.651   1.873 -0.6425 -0.2179 -0.0417
 8943SOL    HW138291   2.124   0.562   1.848 -2.2966 -1.2875  2.1809
 8943SOL    HW238292   2.068   0.640   1.963  1.6191 -0.6302  0.7183
 8944SOL     OW38293   2.684   4.623   9.978  0.0507  0.0545  0.0745
 8944SOL    HW138294   2.656   4.688  10.042 -0.4000 -0.5786  0.5187
 8944SOL    HW238295   2.601   4.599   9.938  0.0464 -1.1118  0.7903
 8945SOL     OW38296   3.714   0.147  10.663  0.4039  0.7915  0.6699
 8945SOL    HW138297   3.791   0.122  10.613 -0.7963 -0.2342 -0.6682
 8945SOL    HW238298   3.745   0.212  10.726  1.3403  0.6256  0.3718
 8946SOL     OW38299   2.867   3.833   2.806 -0.1145 -0.1466  0.1804
 8946SOL    HW138300   2.811   3.849   2.730  0.7314  0.5318 -0.2965
 8946SOL    HW238301   2.831   3.901   2.863  0.0508 -0.4868  0.6899
 8947SOL     OW38302   1.014   4.385  10.285  0.5971 -0.0928 -0.1842
 8947SOL    HW138303   0.966   4.347  10.359 -0.6812  1.4516 -0.2095
 8947SOL    HW238304   0.983   4.476  10.288  0.7829 -0.1081  3.1904
 8948SOL     OW38305   2.068   1.127   7.739 -0.5654 -0.2239  0.5126
 8948SOL    HW138306   1.978   1.094   7.738 -0.6189 -0.0243 -1.0805
 8948SOL    HW238307   2.052   1.219   7.718 -1.2074 -0.8587 -1.7613
 8949SOL     OW38308   1.605   3.869   4.700 -0.5344 -0.6649 -0.4288
 8949SOL    HW138309   1.656   3.854   4.621  0.9536  1.3040  0.1546
 8949SOL    HW238310   1.624   3.961   4.719 -0.3614 -0.9077  0.5919
 8950SOL     OW38311   2.024   3.355  15.602 -0.2100 -0.3040 -0.2040
 8950SOL    HW138312   1.949   3.354  15.662 -1.1462 -2.4268 -1.3994
 8950SOL    HW238313   1.974   3.377  15.523  0.8989  1.1219 -0.5152
 8951SOL     OW38314   0.184   3.017   5.067 -0.3732 -0.3900  0.0585
 8951SOL    HW138315   0.149   3.026   4.978 -2.9260 -0.5712  1.0329
 8951SOL    HW238316   0.106   3.047   5.114  0.5152  1.0144  0.6121
 8952SOL     OW38317   2.195   4.559   3.481 -0.3712 -0.6187  0.0296
 8952SOL    HW138318   2.169   4.576   3.572  1.7735 -0.7834  0.6669
 8952SOL    HW238319   2.145   4.484   3.447  1.4163 -2.6201  1.8430
 8953SOL     OW38320   0.045   4.716   2.868  0.2987  0.0340 -0.1200
 8953SOL    HW138321   0.133   4.709   2.905 -0.5424  1.9217  2.2097
 8953SOL    HW238322   0.057   0.075   2.822  0.9726 -0.3174 -0.5727
 8954SOL     OW38323   4.402   1.016   8.590  0.2427  0.6236 -0.0628
 8954SOL    HW138324   4.464   0.943   8.583  3.0464  3.1147 -1.4139
 8954SOL    HW238325   4.463   1.087   8.568  0.4610  0.3537 -0.3395
 8955SOL     OW38326   2.405   1.531   5.613  0.1676 -0.3017  0.2037
 8955SOL    HW138327   2.319   1.494   5.592 -0.0574 -0.4991  1.4896
 8955SOL    HW238328   2.409   1.612   5.561  3.2680 -1.6267 -1.5920
 8956SOL     OW38329   4.637   2.629  13.341  0.3245 -0.4448  0.6241
 8956SOL    HW138330   4.626   2.623  13.435 -0.6035  1.4838  0.6349
 8956SOL    HW238331   4.548   2.608  13.314 -0.9273  1.2586  3.4864
 8957SOL     OW38332   2.179   3.410  16.738 -0.3706  0.3049  0.2816
 8957SOL    HW138333   2.243   3.481  16.745 -1.3002  0.9704  2.0219
 8957SOL    HW238334   2.181   3.359  16.819 -2.2567  0.0850  0.1921
 8958SOL     OW38335   2.175   1.355   1.964 -0.1848 -0.0407 -0.8569
 8958SOL    HW138336   2.158   1.449   1.951  0.9640  0.4336  1.1213
 8958SOL    HW238337   2.095   1.323   2.006 -1.5355  2.2200 -1.7170
 8959SOL     OW38338   3.588   3.355   1.105 -0.3381 -0.2791  0.2846
 8959SOL    HW138339   3.599   3.328   1.014  1.3176  0.2579  0.3262
 8959SOL    HW238340   3.597   3.273   1.153 -0.3771 -1.8199 -2.3681
 8960SOL     OW38341   0.363   2.152   8.733 -0.4740 -0.3615  0.3335
 8960SOL    HW138342   0.379   2.222   8.797 -0.4150  0.0491 -0.1258
 8960SOL    HW238343   0.348   2.199   8.651  0.1559  0.5389  0.7288
 8961SOL     OW38344   2.533   1.318  11.536 -0.4741 -0.0617 -0.4492
 8961SOL    HW138345   2.503   1.344  11.623 -0.3017  0.2048 -0.4686
 8961SOL    HW238346   2.508   1.226  11.530 -0.0694 -0.1975  0.0103
 8962SOL     OW38347   3.841   4.037   5.886 -0.5446 -0.2432  0.5689
 8962SOL    HW138348   3.762   4.058   5.837  2.0843  1.8692 -2.8049
 8962SOL    HW238349   3.829   3.943   5.897 -0.1651 -0.0934  2.2837
 8963SOL     OW38350   3.144   1.135  16.761  0.3097  0.0043 -0.0879
 8963SOL    HW138351   3.084   1.080  16.811  1.0921 -0.3414  0.4743
 8963SOL    HW238352   3.095   1.138  16.679 -0.0604  0.7807  0.1650
 8964SOL     OW38353   3.617   0.095  15.982  0.0917 -0.2270  0.2359
 8964SOL    HW138354   3.595   0.059  15.896  0.3480 -1.0999  0.5363
 8964SOL    HW238355   3.677   0.167  15.963 -0.8957  0.3672 -0.6294
 8965SOL     OW38356   2.480   1.861   8.333  0.5590  0.0660  0.3564
 8965SOL    HW138357   2.572   1.862   8.359  0.2069 -0.7226  1.6501
 8965SOL    HW238358   2.448   1.931   8.389  0.9592 -0.1787  0.8909
 8966SOL     OW38359   2.733   2.959  14.558 -0.7263  0.4363 -0.1413
 8966SOL    HW138360   2.803   3.016  14.525  0.8967 -0.8314  1.1267
 8966SOL    HW238361   2.773   2.877  14.529  1.0489  1.2188  0.0935
 8967SOL     OW38362   2.936   0.554   7.495 -0.0987  0.1935  0.5088
 8967SOL    HW138363   2.991   0.530   7.569  0.6631 -1.6580 -0.6514
 8967SOL    HW238364   2.883   0.627   7.528  0.3737  0.9264 -0.3386
 8968SOL     OW38365   4.635   3.881   8.382  0.0594 -0.1703 -0.2674
 8968SOL    HW138366   4.693   3.933   8.437  0.7203 -0.4837 -0.6783
 8968SOL    HW238367   4.551   3.914   8.417  0.0343 -0.0589 -0.4331
 8969SOL     OW38368   2.334   4.254   7.060 -0.0524  0.5441  0.7793
 8969SOL    HW138369   2.244   4.283   7.078  0.4600  1.6032  1.6298
 8969SOL    HW238370   2.332   4.196   6.984 -0.0031  2.5330 -0.7214
 8970SOL     OW38371   3.851   2.916  16.495 -0.2051  0.0116 -0.0831
 8970SOL    HW138372   3.860   2.904  16.590  1.1072 -1.5895 -0.4113
 8970SOL    HW238373   3.911   2.846  16.469  0.9863  0.6659  0.8415
 8971SOL     OW38374   4.672   2.141  11.696 -0.7519  0.6558  0.5383
 8971SOL    HW138375   4.624   2.066  11.732 -1.3440  0.3071 -0.9870
 8971SOL    HW238376   0.010   2.163  11.766 -0.6873  0.8273  0.4256
 8972SOL     OW38377   0.702   0.151  10.139 -0.0310  0.1122 -0.8199
 8972SOL    HW138378   0.734   0.202  10.065 -0.6078  0.8235 -0.5875
 8972SOL    HW238379   0.725   0.060  10.124 -0.7336 -0.2988  0.5770
 8973SOL     OW38380   3.817   4.703   4.433 -0.3640 -0.4875 -0.4029
 8973SOL    HW138381   3.823   0.074   4.433 -1.7645 -0.4032 -0.1491
 8973SOL    HW238382   3.747   4.689   4.370  0.0208  0.1930 -0.9906
 8974SOL     OW38383   1.003   3.802   4.415  0.4866 -0.0973  0.2206
 8974SOL    HW138384   0.930   3.859   4.439 -0.5746 -1.7936  1.0680
 8974SOL    HW238385   1.078   3.857   4.437  1.6993 -1.6401 -0.0250
 8975SOL     OW38386   2.220   3.606   8.086 -0.4700  0.3758 -0.4080
 8975SOL    HW138387   2.192   3.515   8.088  0.8365 -0.0262 -0.7953
 8975SOL    HW238388   2.194   3.635   7.998 -2.3748 -0.2710 -0.0685
 8976SOL     OW38389   2.200   0.143   2.701  0.0189  0.1377  0.7989
 8976SOL    HW138390   2.230   0.118   2.788 -2.7602 -2.2500  1.0939
 8976SOL    HW238391   2.172   0.063   2.656  1.2754  0.4217 -0.4541
 8977SOL     OW38392   4.559   3.481   0.153 -0.1211  0.3224  0.5396
 8977SOL    HW138393   4.641   3.527   0.169 -0.0546 -0.0638  1.2918
 8977SOL    HW238394   4.540   3.465   0.246 -1.9792  1.0901  0.3035
 8978SOL     OW38395   1.246   2.782   4.693 -0.0994  0.1705 -0.4097
 8978SOL    HW138396   1.157   2.800   4.725 -0.3236  2.2001 -2.2173
 8978SOL    HW238397   1.286   2.741   4.770  2.0302 -0.6937 -1.9993
 8979SOL     OW38398   2.462   4.459   3.188 -0.2873  0.0370  0.5081
 8979SOL    HW138399   2.555   4.448   3.169 -0.4495  0.3673 -0.4780
 8979SOL    HW238400   2.471   4.552   3.208  1.0131 -0.2233  1.1577
 8980SOL     OW38401   2.581   4.293  16.530  0.5110 -0.1666 -0.2280
 8980SOL    HW138402   2.547   4.343  16.455  0.4889  0.2350  0.0565
 8980SOL    HW238403   2.673   4.290  16.506  0.4225 -0.6026 -0.5093
 8981SOL     OW38404   4.035   2.248   4.800 -0.1324 -0.1714  0.6036
 8981SOL    HW138405   4.049   2.238   4.706 -0.0771  0.2132  0.5693
 8981SOL    HW238406   3.959   2.306   4.800 -0.4358 -0.5666 -1.4929
 8982SOL     OW38407   1.280   2.700  15.365 -0.0815 -0.0381  0.3065
 8982SOL    HW138408   1.272   2.749  15.447  0.0390  1.0111 -0.3221
 8982SOL    HW238409   1.251   2.616  15.401 -1.1388  0.9752  1.8186
 8983SOL     OW38410   0.034   2.113  13.710  0.4426 -0.1916  0.5068
 8983SOL    HW138411   0.093   2.088  13.781  0.7399  0.1388  0.3702
 8983SOL    HW238412   0.032   2.209  13.712  2.1896 -0.1255 -1.3275
 8984SOL     OW38413   1.590   2.858   3.477  0.5607  0.3350 -0.4902
 8984SOL    HW138414   1.620   2.909   3.552  0.6523  0.9203 -0.9259
 8984SOL    HW238415   1.577   2.913   3.400 -0.5184 -0.4813 -0.8923
 8985SOL     OW38416   3.861   2.856  16.793  0.0928  0.0552 -0.1831
 8985SOL    HW138417   3.777   2.879  16.834 -0.3821 -2.0808  0.0625
 8985SOL    HW238418   3.920   2.837  16.866  1.5449 -0.3035 -1.4607
 8986SOL     OW38419   0.463   3.894   3.892  0.8303  0.1578  0.3686
 8986SOL    HW138420   0.542   3.854   3.929  1.4873 -1.0562 -2.3680
 8986SOL    HW238421   0.395   3.831   3.916 -0.1567 -0.3419 -3.7792
 8987SOL     OW38422   0.068   0.318   8.229  0.9086  0.1731 -0.6210
 8987SOL    HW138423   0.017   0.385   8.275  0.7862 -1.6395  1.8794
 8987SOL    HW238424   0.020   0.236   8.241  2.3593 -0.3845  1.4112
 8988SOL     OW38425   1.897   1.835  14.739 -0.0504 -0.2661  0.0884
 8988SOL    HW138426   1.878   1.742  14.750  1.1591 -0.4007  1.0815
 8988SOL    HW238427   1.886   1.848  14.645 -1.6483  0.4791  0.3828
 8989SOL     OW38428   4.620   3.934   7.403  0.1796  0.1502 -0.5915
 8989SOL    HW138429   4.654   3.894   7.323 -1.3406  0.0760 -1.2084
 8989SOL    HW238430   4.695   3.937   7.462  1.2453  0.6405 -1.9796
 8990SOL     OW38431   2.192   2.088   5.468  0.0556 -0.3019 -0.0439
 8990SOL    HW138432   2.271   2.142   5.479  0.6314 -1.2912  0.7132
 8990SOL    HW238433   2.219   2.013   5.522  1.3335  0.1376 -0.0786
 8991SOL     OW38434   2.495   1.730   5.434 -0.3659  0.5354 -0.1127
 8991SOL    HW138435   2.572   1.684   5.401 -0.5931 -0.4824  0.7580
 8991SOL    HW238436   2.439   1.713   5.359  0.0755  2.7296 -0.9458
 8992SOL     OW38437   0.760   2.746   6.087  0.4670 -0.3339 -0.0039
 8992SOL    HW138438   0.737   2.837   6.105 -1.4337 -0.8110 -0.0077
 8992SOL    HW238439   0.827   2.755   6.019  1.7646 -0.2363  1.2778
 8993SOL     OW38440   2.190   3.724  12.852  0.2629  0.2408  0.3490
 8993SOL    HW138441   2.162   3.659  12.787 -0.4286  0.9391 -0.0614
 8993SOL    HW238442   2.130   3.797  12.835 -2.1937 -1.6602  0.8788
 8994SOL     OW38443   1.826   2.420   1.345 -0.1501  0.5020  0.3844
 8994SOL    HW138444   1.919   2.420   1.367 -0.2552  2.0357  0.8177
 8994SOL    HW238445   1.789   2.437   1.431  0.8186  2.8285  0.3360
 8995SOL     OW38446   3.512   3.430   5.457  0.0612 -0.7309 -0.2629
 8995SOL    HW138447   3.456   3.429   5.378 -1.7173  0.5663  0.9758
 8995SOL    HW238448   3.572   3.502   5.438 -0.7396  0.0886  0.2929
 8996SOL     OW38449   1.937   2.332   8.140 -0.2112  0.0837  0.3535
 8996SOL    HW138450   1.885   2.252   8.141 -0.4643  0.2514  0.8350
 8996SOL    HW238451   1.875   2.405   8.140  1.7631  1.7604 -1.3398
 8997SOL     OW38452   0.824   1.267   7.324 -0.2900 -0.0243  0.1741
 8997SOL    HW138453   0.741   1.232   7.356 -0.0312 -0.8811 -0.0877
 8997SOL    HW238454   0.849   1.201   7.260  1.8042 -0.6271  1.5869
 8998SOL     OW38455   2.003   4.692   9.527  0.4145  0.0035 -0.1701
 8998SOL    HW138456   2.031   4.646   9.606  0.1587 -0.4244 -0.3281
 8998SOL    HW238457   2.043   0.054   9.530  0.3556  0.0669 -1.1286
 8999SOL     OW38458   2.306   1.661   2.319 -0.0718 -0.1849 -0.3635
 8999SOL    HW138459   2.295   1.566   2.320 -0.6151 -0.1128  0.2594
 8999SOL    HW238460   2.331   1.666   2.227 -0.5575  1.2484 -0.4203
 9000SOL     OW38461   0.154   2.413   9.046  0.5402 -0.1264 -0.2775
 9000SOL    HW138462   0.073   2.366   9.063  0.4375 -1.0951 -3.4722
 9000SOL    HW238463   0.205   2.377   9.118 -0.2509  0.2632  0.4777
 9001SOL     OW38464   1.794   4.051  15.127  0.0882  0.2526  0.4111
 9001SOL    HW138465   1.749   4.050  15.043  1.5278  0.1475 -0.3576
 9001SOL    HW238466   1.811   4.144  15.143  1.8012  0.1248 -0.6750
 9002SOL     OW38467   1.117   2.231   3.641 -0.1981 -0.3150 -0.3378
 9002SOL    HW138468   1.077   2.311   3.676  0.8374 -1.1733  2.7695
 9002SOL    HW238469   1.037   2.185   3.616 -0.4075  0.0768 -0.3963
 9003SOL     OW38470   0.060   3.953   9.593 -0.7388  0.0021  0.9423
 9003SOL    HW138471   0.143   3.948   9.640 -0.4818 -0.1956  0.4709
 9003SOL    HW238472   0.041   3.859   9.583 -0.3463  0.1692 -1.3203
 9004SOL     OW38473   3.786   4.682  13.607  0.0721  0.6493 -0.2491
 9004SOL    HW138474   3.878   4.675  13.631 -0.4023 -0.3782  1.2198
 9004SOL    HW238475   3.758   4.701  13.696  1.4635 -1.4117  0.6409
 9005SOL     OW38476   4.056   2.287  13.618  0.3387  0.0099  0.3517
 9005SOL    HW138477   3.986   2.223  13.629 -0.4974  1.1566  1.8085
 9005SOL    HW238478   4.130   2.231  13.642 -0.1096 -0.9003 -0.4028
 9006SOL     OW38479   0.409   0.661   8.131  0.0913  0.6068  0.7051
 9006SOL    HW138480   0.320   0.695   8.127 -1.1563 -2.5717  2.4049
 9006SOL    HW238481   0.442   0.732   8.076 -0.1351  1.2475  1.3979
 9007SOL     OW38482   2.054   2.031   3.342  0.1501  0.0996 -0.0166
 9007SOL    HW138483   2.070   1.975   3.266 -0.0513 -0.3022  0.2359
 9007SOL    HW238484   1.960   2.019   3.356 -0.1928  3.5624  0.4588
 9008SOL     OW38485   3.966   4.552   5.560 -0.0436 -0.0165  0.0420
 9008SOL    HW138486   3.926   4.512   5.637 -0.9182  0.3324 -0.2375
 9008SOL    HW238487   3.906   4.532   5.489  0.3642  0.3131 -0.3995
 9009SOL     OW38488   1.710   2.137   1.363  0.0620 -0.3167 -0.0298
 9009SOL    HW138489   1.658   2.109   1.438  0.7741 -1.3802  0.0680
 9009SOL    HW238490   1.708   2.232   1.375  0.7709 -0.3224  0.1422
 9010SOL     OW38491   3.342   1.147   7.497 -0.6861 -0.1565 -0.1881
 9010SOL    HW138492   3.389   1.100   7.428  0.0506 -0.3938  0.4773
 9010SOL    HW238493   3.279   1.198   7.446 -0.7152  1.0612  1.0843
 9011SOL     OW38494   2.637   2.996   4.007  0.3332  0.0795 -0.8043
 9011SOL    HW138495   2.570   3.013   3.940  0.7180 -0.1528 -1.2432
 9011SOL    HW238496   2.622   2.904   4.027  1.5463 -0.2126 -1.3075
 9012SOL     OW38497   0.828   2.036   5.733  0.1132  0.2744  0.3339
 9012SOL    HW138498   0.757   2.040   5.669  0.0617  1.4719  0.4572
 9012SOL    HW238499   0.827   2.119   5.781 -2.5883  0.7360 -0.5171
 9013SOL     OW38500   3.811   4.611  10.804  0.0488  0.0565 -0.5387
 9013SOL    HW138501   3.852   4.669  10.740  2.2921  0.1808  0.9996
 9013SOL    HW238502   3.741   4.577  10.748 -1.7639  2.4340  0.2981
 9014SOL     OW38503   4.413   1.318   7.813 -0.1299 -0.2290  0.5573
 9014SOL    HW138504   4.370   1.364   7.741 -1.7936 -0.2462  1.5351
 9014SOL    HW238505   4.428   1.383   7.881 -1.7459 -0.6630  1.3433
 9015SOL     OW38506   1.866   2.093   5.137 -0.3148 -0.2666  0.0737
 9015SOL    HW138507   1.859   2.188   5.128 -2.7417 -0.2143  2.4301
 9015SOL    HW238508   1.953   2.091   5.098 -0.4311 -0.2210 -0.1874
 9016SOL     OW38509   0.750   2.887  16.325  0.1341  0.1293 -0.7633
 9016SOL    HW138510   0.716   2.802  16.299  1.3986  0.2420 -2.8245
 9016SOL    HW238511   0.844   2.873  16.338 -0.2707 -1.6949  0.0761
 9017SOL     OW38512   1.420   0.178   1.115 -0.2558  0.0010  0.0641
 9017SOL    HW138513   1.358   0.193   1.186  0.0109  0.3643  0.2201
 9017SOL    HW238514   1.449   0.089   1.135  0.6870  0.0162 -1.1748
 9018SOL     OW38515   3.714   0.518   6.735  0.3537 -0.2361 -0.3862
 9018SOL    HW138516   3.655   0.504   6.661  1.0265  0.0712 -0.9762
 9018SOL    HW238517   3.664   0.566   6.801  1.0261  0.4169 -0.3585
 9019SOL     OW38518   1.445   0.292   8.754 -0.6203  0.4044 -0.4929
 9019SOL    HW138519   1.425   0.372   8.803  0.1015 -0.4741  1.2272
 9019SOL    HW238520   1.522   0.258   8.799 -0.2552  1.8258 -0.0555
 9020SOL     OW38521   4.573   1.629   7.298 -0.4023 -0.1862 -0.3112
 9020SOL    HW138522   4.536   1.607   7.213 -0.1874 -2.0353  0.0765
 9020SOL    HW238523   4.529   1.712   7.319 -1.1048 -0.2856 -1.4246
 9021SOL     OW38524   2.100   0.482   9.765 -0.2267  0.6304  0.1465
 9021SOL    HW138525   2.099   0.576   9.748 -1.5110  0.6233  0.1269
 9021SOL    HW238526   2.069   0.491   9.855 -0.0591 -1.8504  0.4482
 9022SOL     OW38527   3.454   1.817   8.056  0.4605 -0.0366  0.3354
 9022SOL    HW138528   3.460   1.722   8.068  0.8542 -0.1501 -0.7690
 9022SOL    HW238529   3.394   1.840   8.128 -0.0135 -3.2649  0.9900
 9023SOL     OW38530   3.835   2.062   3.185  0.1304 -0.4699 -0.0717
 9023SOL    HW138531   3.787   1.988   3.223  1.8974 -1.7113 -0.2325
 9023SOL    HW238532   3.765   2.120   3.155 -2.0569 -2.6952  0.6436
 9024SOL     OW38533   1.097   1.076   3.529 -0.3213  0.5623  0.4406
 9024SOL    HW138534   1.062   1.164   3.542 -0.6274  0.5501 -0.2889
 9024SOL    HW238535   1.139   1.060   3.613 -0.8647 -1.6186  0.3011
 9025SOL     OW38536   2.606   0.379   6.036 -0.3663 -0.0677 -0.7162
 9025SOL    HW138537   2.573   0.458   5.994 -0.5395 -0.3181 -1.0544
 9025SOL    HW238538   2.691   0.407   6.070 -0.6020  1.5452 -1.4713
 9026SOL     OW38539   2.349   4.493   4.328  0.3582 -0.6753 -0.3071
 9026SOL    HW138540   2.292   4.564   4.298  0.9600  0.7790  1.9948
 9026SOL    HW238541   2.421   4.539   4.371 -0.8255  0.1371  0.8013
 9027SOL     OW38542   0.233   1.612   7.917 -0.3367  0.4536  0.2410
 9027SOL    HW138543   0.218   1.521   7.945 -0.1017  0.4239  0.2714
 9027SOL    HW238544   0.273   1.650   7.995 -0.2652  2.3348 -0.7216
 9028SOL     OW38545   1.596   4.406   2.106 -0.7168  0.3483 -0.0502
 9028SOL    HW138546   1.602   4.483   2.051  1.0500 -0.8781 -1.5820
 9028SOL    HW238547   1.607   4.439   2.195  1.1967 -1.6843  0.4769
 9029SOL     OW38548   4.587   2.717   1.778  0.1002  0.0644  0.5418
 9029SOL    HW138549   4.652   2.647   1.780  0.5168  0.4400  0.0915
 9029SOL    HW238550   4.598   2.759   1.693 -1.3269 -1.8551 -0.6102
 9030SOL     OW38551   4.524   3.183   6.459 -0.0195 -0.0615 -0.0991
 9030SOL    HW138552   4.541   3.100   6.414  0.0156  0.1813 -0.5304
 9030SOL    HW238553   4.615   3.204   6.481 -0.6599  1.2406  1.2904
 9031SOL     OW38554   4.322   0.097   8.148 -0.5838 -0.4841 -0.4150
 9031SOL    HW138555   4.396   0.103   8.209 -1.1351 -0.1756  0.2292
 9031SOL    HW238556   4.309   0.002   8.156 -1.9010 -0.4002 -1.4963
 9032SOL     OW38557   1.817   3.899  13.584 -0.5993  0.1122  0.3466
 9032SOL    HW138558   1.798   3.925  13.494 -0.3228 -0.0559  0.2415
 9032SOL    HW238559   1.814   3.804  13.574 -1.0952  0.5017 -3.0867
 9033SOL     OW38560   2.594   1.928   1.378 -0.3708  0.1937 -0.3116
 9033SOL    HW138561   2.672   1.875   1.364 -0.3417  0.3531 -0.7577
 9033SOL    HW238562   2.529   1.893   1.318  0.4048 -1.3639 -0.2245
 9034SOL     OW38563   3.312   2.718  16.722  0.2102 -0.6639  0.4820
 9034SOL    HW138564   3.404   2.719  16.696  0.5659  0.9541  1.7940
 9034SOL    HW238565   3.290   2.625  16.711 -0.3550 -0.4945  0.1904
 9035SOL     OW38566   2.348   2.219   4.803 -0.2373  0.0161 -0.4655
 9035SOL    HW138567   2.333   2.149   4.866  0.3006 -0.1911 -0.5694
 9035SOL    HW238568   2.443   2.231   4.791 -0.6459  2.4586 -1.3542
 9036SOL     OW38569   3.327   2.614   5.008 -0.1148  0.2204  0.6311
 9036SOL    HW138570   3.319   2.519   5.001  0.3152  0.2077  0.2829
 9036SOL    HW238571   3.290   2.633   4.922  1.5047 -1.0200 -0.3416
 9037SOL     OW38572   0.384   1.469  11.456 -0.1775 -0.3617 -0.8090
 9037SOL    HW138573   0.369   1.379  11.486 -0.9730  0.8345  2.3797
 9037SOL    HW238574   0.338   1.461  11.373  0.8459 -3.7630 -1.0426
 9038SOL     OW38575   0.280   2.884  11.309  0.2739  0.6163  0.4236
 9038SOL    HW138576   0.256   2.973  11.283  0.9429  0.8477  0.6014
 9038SOL    HW238577   0.203   2.834  11.284  0.3567  1.1518 -0.8906
 9039SOL     OW38578   1.680   4.334   9.230  0.0310  0.1210 -0.2323
 9039SOL    HW138579   1.695   4.360   9.321  0.2757 -1.3124  0.1252
 9039SOL    HW238580   1.762   4.306   9.190 -0.6222  0.1791 -1.6138
 9040SOL     OW38581   0.558   2.771   8.050 -0.2303  0.3035 -0.0879
 9040SOL    HW138582   0.547   2.715   7.974  2.4663  1.7856 -1.5688
 9040SOL    HW238583   0.653   2.758   8.054  0.1193  2.3572 -2.0173
 9041SOL     OW38584   3.781   0.316  15.842  0.0761 -0.5067  0.0886
 9041SOL    HW138585   3.873   0.330  15.861 -0.4397  1.4584  1.2052
 9041SOL    HW238586   3.787   0.259  15.765  1.9125  0.3170 -0.3651
 9042SOL     OW38587   0.654   2.897  10.280  0.5210 -0.4028  0.1090
 9042SOL    HW138588   0.696   2.872  10.362 -1.3132 -0.7961  0.9304
 9042SOL    HW238589   0.724   2.941  10.231 -1.7185  2.1232 -0.8412
 9043SOL     OW38590   1.752   3.880   5.191 -0.3533  0.2302 -0.0741
 9043SOL    HW138591   1.676   3.938   5.184 -0.3593  0.5912  3.1906
 9043SOL    HW238592   1.720   3.820   5.258 -1.9557  0.1054 -0.9517
 9044SOL     OW38593   3.272   3.858  16.586  0.6712  0.6872 -0.0431
 9044SOL    HW138594   3.190   3.874  16.539  0.2240 -1.4708  0.0273
 9044SOL    HW238595   3.334   3.842  16.514  0.1672  1.7830 -0.7329
 9045SOL     OW38596   2.123   2.142   8.478 -0.1637  0.1165  0.3093
 9045SOL    HW138597   2.038   2.100   8.494 -0.2709  0.1752 -0.0883
 9045SOL    HW238598   2.116   2.219   8.535  1.7577 -0.7201  1.6498
 9046SOL     OW38599   3.991   0.513  11.562  0.1876  0.4166  0.1267
 9046SOL    HW138600   4.055   0.540  11.496 -0.2608 -1.5267 -1.1196
 9046SOL    HW238601   4.061   0.485  11.621  0.3478 -0.5222 -0.5155
 9047SOL     OW38602   1.768   1.604   2.036  0.5283  0.1152  0.1674
 9047SOL    HW138603   1.731   1.649   2.111  1.4397  0.4343  0.4301
 9047SOL    HW238604   1.784   1.517   2.074  1.5955  1.7845  3.5148
 9048SOL     OW38605   0.104   4.632   7.955 -0.3713  0.0789  0.2581
 9048SOL    HW138606   0.157   4.711   7.962 -1.9461  1.0137  1.4248
 9048SOL    HW238607   0.080   4.619   8.047  1.4259 -0.1286  0.7000
 9049SOL     OW38608   3.182   4.298   6.089  0.4084 -0.4512 -0.0295
 9049SOL    HW138609   3.134   4.215   6.099 -1.9881  0.8947 -0.3695
 9049SOL    HW238610   3.270   4.260   6.082 -0.5893 -2.9871  1.0193
 9050SOL     OW38611   4.519   3.022   9.520 -0.1126 -0.0157 -0.4247
 9050SOL    HW138612   4.444   2.962   9.526  1.0649 -1.2059  2.2480
 9050SOL    HW238613   4.509   3.046   9.428 -1.2025 -3.2174 -1.1411
 9051SOL     OW38614   0.529   4.440  17.304  0.5056  0.3559  0.1433
 9051SOL    HW138615   0.476   4.509  17.345 -0.4850 -1.1882  1.4670
 9051SOL    HW238616   0.609   4.432  17.356  0.8297  1.0096 -0.2600
 9052SOL     OW38617   1.536   1.735   1.842 -0.2836 -0.4225 -0.1975
 9052SOL    HW138618   1.588   1.777   1.910 -1.0111 -2.7806  1.8164
 9052SOL    HW238619   1.444   1.746   1.868 -0.1701 -1.7316  0.7401
 9053SOL     OW38620   1.841   3.392   3.078 -0.2048  0.2611 -0.0281
 9053SOL    HW138621   1.841   3.297   3.070  1.4351  0.2544 -0.0160
 9053SOL    HW238622   1.845   3.405   3.173 -0.0228  1.8851 -0.2583
 9054SOL     OW38623   2.715   2.219  15.800 -0.0104  0.0117 -0.3084
 9054SOL    HW138624   2.652   2.148  15.788  0.3799 -0.6665  1.4707
 9054SOL    HW238625   2.775   2.179  15.864  0.8829  0.0148 -1.1555
 9055SOL     OW38626   2.504   3.248   6.972  0.4873  0.0666 -0.6173
 9055SOL    HW138627   2.440   3.181   6.945  0.1327  0.1181  0.1011
 9055SOL    HW238628   2.487   3.249   7.066  0.2699 -0.5925 -0.6459
 9056SOL     OW38629   4.378   3.749   2.412  0.4274 -0.1909  0.7767
 9056SOL    HW138630   4.345   3.690   2.480 -0.7039  0.0373  0.4208
 9056SOL    HW238631   4.323   3.823   2.437  0.8912 -0.2200  1.8768
 9057SOL     OW38632   0.993   0.169  15.606  0.1975  0.1573 -0.3697
 9057SOL    HW138633   0.998   0.263  15.621 -1.6598  0.2189 -0.0807
 9057SOL    HW238634   1.026   0.172  15.516 -1.4746  0.1826 -0.9791
 9058SOL     OW38635   3.369   4.254   4.383 -0.2203 -0.2436  0.1703
 9058SOL    HW138636   3.451   4.278   4.427 -0.9610  1.9056  0.3943
 9058SOL    HW238637   3.325   4.213   4.457 -2.3928 -1.4036 -1.7893
 9059SOL     OW38638   3.821   0.621   8.105  0.0358 -0.0675  0.0346
 9059SOL    HW138639   3.767   0.544   8.121 -0.5556  0.4164  0.3776
 9059SOL    HW238640   3.828   0.644   8.198  3.1833  0.2020 -0.2702
 9060SOL     OW38641   1.850   2.537  15.113  0.0476 -0.6543  0.3699
 9060SOL    HW138642   1.930   2.507  15.155 -0.8887 -2.3060  0.9606
 9060SOL    HW238643   1.897   2.575  15.039 -0.4050 -0.5795  0.1205
 9061SOL     OW38644   4.447   3.101   1.682  0.3399  0.1870  0.4855
 9061SOL    HW138645   4.489   3.065   1.760 -1.2838 -1.8852  0.3625
 9061SOL    HW238646   4.480   3.190   1.694  0.2699  0.1317  1.0627
 9062SOL     OW38647   4.680   3.023   9.125  0.2591 -0.0279  0.4897
 9062SOL    HW138648   4.601   3.076   9.119  0.0725 -0.6072 -2.3615
 9062SOL    HW238649   0.012   3.095   9.153 -1.9122  0.7532  2.8850
 9063SOL     OW38650   1.533   2.306  11.662 -0.2722 -0.2906 -0.5269
 9063SOL    HW138651   1.549   2.393  11.698  0.6587 -1.3222  1.5659
 9063SOL    HW238652   1.613   2.275  11.619 -0.0289  0.2483 -0.4655
 9064SOL     OW38653   2.524   4.052  10.771 -0.9415 -0.6536 -0.9427
 9064SOL    HW138654   2.535   4.016  10.859  2.9484  1.0217 -0.7176
 9064SOL    HW238655   2.599   4.111  10.764 -0.3884 -1.2381 -0.0319
 9065SOL     OW38656   2.783   2.755   7.464 -0.1820 -0.2708 -0.4767
 9065SOL    HW138657   2.769   2.765   7.370 -0.2956 -1.2596 -0.5630
 9065SOL    HW238658   2.879   2.762   7.459 -0.0574 -2.3204 -0.9445
 9066SOL     OW38659   3.247   2.762  13.768  0.5056  0.1916 -0.4276
 9066SOL    HW138660   3.160   2.758  13.808  2.2466 -3.1756  3.0183
 9066SOL    HW238661   3.287   2.822  13.830  0.7949  0.3831 -0.7944
 9067SOL     OW38662   1.552   1.039   1.189 -0.1929 -0.0772  0.1309
 9067SOL    HW138663   1.536   1.084   1.271  1.6888 -0.4110  0.6843
 9067SOL    HW238664   1.625   1.096   1.166  1.1809 -1.7635  0.2861
 9068SOL     OW38665   4.037   2.147   6.663 -0.3874 -0.6553 -0.2809
 9068SOL    HW138666   3.980   2.070   6.661 -1.6534  0.2215  3.1348
 9068SOL    HW238667   4.122   2.112   6.637 -0.2195 -0.4835  0.0497
 9069SOL     OW38668   0.748   3.927   4.487 -0.5658 -0.1283 -0.2512
 9069SOL    HW138669   0.661   3.961   4.466 -0.5894  0.0493  0.1298
 9069SOL    HW238670   0.723   3.863   4.554  1.2620  0.4356  0.9469
 9070SOL     OW38671   3.779   2.080   4.354 -0.2551  0.3512 -0.9860
 9070SOL    HW138672   3.761   2.173   4.369  0.1141  0.3513 -0.5597
 9070SOL    HW238673   3.795   2.074   4.260 -1.4329 -0.8536 -1.1183
 9071SOL     OW38674   1.865   2.022  15.806 -0.2380  0.0373  0.2197
 9071SOL    HW138675   1.820   2.032  15.722  0.7060 -0.9858 -0.4135
 9071SOL    HW238676   1.862   1.926  15.808  1.3874 -0.0727 -1.8666
 9072SOL     OW38677   2.227   1.289  14.986 -0.4056 -0.1113  0.3484
 9072SOL    HW138678   2.280   1.297  15.065 -0.1516 -2.2044  0.3837
 9072SOL    HW238679   2.246   1.379  14.961  0.1081 -0.3633 -0.1682
 9073SOL     OW38680   1.850   1.266   5.372 -0.3602  0.0440 -0.0898
 9073SOL    HW138681   1.822   1.177   5.353 -0.5094  0.1131 -0.1959
 9073SOL    HW238682   1.941   1.244   5.392  0.1999  0.1104 -2.5573
 9074SOL     OW38683   3.920   3.977   7.498 -0.5243  0.0530 -0.6274
 9074SOL    HW138684   3.911   3.892   7.454 -0.9538  0.5228 -1.4208
 9074SOL    HW238685   3.937   3.944   7.587 -0.1080 -2.4645 -1.6399
 9075SOL     OW38686   3.186   1.506   4.994 -0.3248 -0.8772  0.0811
 9075SOL    HW138687   3.254   1.508   4.926  1.6371 -2.4234  1.9876
 9075SOL    HW238688   3.128   1.571   4.955 -0.7290  0.0118  2.1675
 9076SOL     OW38689   0.220   3.787   3.625 -0.2565  0.5420 -0.3589
 9076SOL    HW138690   0.315   3.795   3.621 -0.2430  0.7292  0.3483
 9076SOL    HW238691   0.217   3.716   3.561 -1.0000  1.8566 -1.7645
 9077SOL     OW38692   4.312   4.421   2.977  1.0638 -0.0366 -0.4415
 9077SOL    HW138693   4.261   4.418   3.058  1.0125  2.2241 -0.3853
 9077SOL    HW238694   4.366   4.499   2.989  0.9086 -0.0713  0.5262
 9078SOL     OW38695   3.209   3.976   5.200  0.2416  0.4309 -0.2201
 9078SOL    HW138696   3.243   3.980   5.111 -0.6560 -1.9328 -0.6718
 9078SOL    HW238697   3.280   4.015   5.252  1.8449  1.6200 -3.2828
 9079SOL     OW38698   2.717   1.174   7.643  0.6022  0.4137 -1.4356
 9079SOL    HW138699   2.651   1.215   7.587  2.0991  2.5399 -1.6734
 9079SOL    HW238700   2.680   1.088   7.662  1.4899 -0.1121 -2.0833
 9080SOL     OW38701   2.144   1.072   8.145  0.4007  0.5241 -0.0890
 9080SOL    HW138702   2.049   1.058   8.145  0.4351  0.3028 -1.6785
 9080SOL    HW238703   2.168   1.004   8.208  2.8153 -0.9312 -2.5663
 9081SOL     OW38704   3.856   3.667   7.420 -0.2619  0.0201  0.2429
 9081SOL    HW138705   3.924   3.673   7.354 -2.3647  1.2044 -1.8393
 9081SOL    HW238706   3.783   3.629   7.370  0.8924  0.8518 -2.0533
 9082SOL     OW38707   3.135   0.794   6.044 -0.4553 -0.0876 -0.5366
 9082SOL    HW138708   3.151   0.860   5.977  2.5183 -0.2244  0.0247
 9082SOL    HW238709   3.188   0.818   6.119 -0.2852 -2.6490  0.1718
 9083SOL     OW38710   0.332   3.017   0.413 -0.0542  0.4039 -0.4042
 9083SOL    HW138711   0.245   2.979   0.398  0.5587 -0.2946 -2.1282
 9083SOL    HW238712   0.306   3.089   0.471 -1.0978  0.1993 -0.6205
 9084SOL     OW38713   3.007   3.041  12.735 -0.4972 -0.0307 -0.4695
 9084SOL    HW138714   3.073   2.999  12.679  0.0171 -0.6956  0.6353
 9084SOL    HW238715   3.046   3.019  12.819  0.8859 -4.2278 -2.1648
 9085SOL     OW38716   1.079   4.152   6.479  0.0223 -0.3734  0.1663
 9085SOL    HW138717   1.116   4.149   6.391  0.7367 -2.4065  0.5529
 9085SOL    HW238718   0.986   4.175   6.473 -0.0461 -0.3388  1.2176
 9086SOL     OW38719   3.174   1.142   9.175  0.4487 -0.5589 -0.0936
 9086SOL    HW138720   3.254   1.114   9.130  0.0248 -0.6664 -0.7800
 9086SOL    HW238721   3.141   1.209   9.116  0.8738  1.7798  2.3284
 9087SOL     OW38722   2.709   1.048   9.148 -0.1610  0.4463 -0.7848
 9087SOL    HW138723   2.620   1.037   9.182  0.1745  1.1744  0.3410
 9087SOL    HW238724   2.744   1.073   9.234 -0.4850  1.1292 -0.8488
 9088SOL     OW38725   4.546   1.769   5.368  0.2076  0.0988 -0.1542
 9088SOL    HW138726   4.501   1.798   5.288  0.1033 -0.0218 -0.1404
 9088SOL    HW238727   4.588   1.850   5.395  0.2007 -0.4020  1.3437
 9089SOL     OW38728   1.908   1.682   6.721 -0.1994  0.1309 -0.3213
 9089SOL    HW138729   1.853   1.676   6.642  0.7537  1.0574 -1.0511
 9089SOL    HW238730   1.883   1.772   6.742 -1.0350 -0.4034  0.9301
 9090SOL     OW38731   3.980   0.612  14.511 -0.0712  0.0066  0.2169
 9090SOL    HW138732   3.938   0.527  14.498  0.3671 -0.2679  0.5946
 9090SOL    HW238733   3.988   0.638  14.419  1.1795  1.2531  0.6786
 9091SOL     OW38734   3.811   1.858  14.703  0.1981 -0.3364 -0.3420
 9091SOL    HW138735   3.834   1.879  14.794  2.0208  0.3226 -0.9632
 9091SOL    HW238736   3.740   1.795  14.720 -0.8356  0.4434 -1.7553
 9092SOL     OW38737   2.413   3.634  12.945 -0.2480 -0.5419  0.0987
 9092SOL    HW138738   2.444   3.576  12.875 -1.1893  1.2450 -1.8280
 9092SOL    HW238739   2.324   3.651  12.914 -0.0020  1.6367  0.6222
 9093SOL     OW38740   3.495   2.631   3.774  0.1495 -0.3233  0.2475
 9093SOL    HW138741   3.580   2.591   3.756 -0.4683 -2.1570  1.3252
 9093SOL    HW238742   3.468   2.662   3.687  2.1680  0.0201 -0.2503
 9094SOL     OW38743   0.789   1.293   3.136 -0.4973 -0.0761 -0.7592
 9094SOL    HW138744   0.801   1.327   3.048 -1.3044 -0.8373 -1.1550
 9094SOL    HW238745   0.868   1.326   3.179  1.9286 -0.6282 -4.7717
 9095SOL     OW38746   1.510   0.168   5.033  0.4350  0.3280 -0.1957
 9095SOL    HW138747   1.442   0.108   5.001  2.7094 -1.4661 -1.6851
 9095SOL    HW238748   1.472   0.202   5.114 -2.2795  0.5665 -1.5701
 9096SOL     OW38749   4.657   1.790   4.197 -0.1086 -0.0849 -0.0208
 9096SOL    HW138750   4.655   1.820   4.288  0.1264 -0.3862  0.0852
 9096SOL    HW238751   0.017   1.746   4.183 -0.2156  0.3004 -1.8003
 9097SOL     OW38752   2.274   2.991   5.663  0.2098  0.3356 -0.0784
 9097SOL    HW138753   2.343   2.953   5.718  1.0110  0.1564 -1.2021
 9097SOL    HW238754   2.193   2.960   5.703  0.4228  0.5094  0.4882
 9098SOL     OW38755   0.831   3.758   2.911 -0.2143  0.0192 -0.4550
 9098SOL    HW138756   0.779   3.802   2.844 -1.9908 -0.6759  0.4582
 9098SOL    HW238757   0.907   3.732   2.860  0.7752  2.0695  0.0137
 9099SOL     OW38758   3.879   1.000  10.418  0.9979  0.8078 -0.3243
 9099SOL    HW138759   3.924   0.950  10.349  2.2482  1.8711 -0.2680
 9099SOL    HW238760   3.872   1.079  10.364 -1.1914 -0.3759 -1.7803
 9100SOL     OW38761   2.589   0.110   6.160  0.2552  0.0563  0.9823
 9100SOL    HW138762   2.682   0.096   6.147  0.8944  0.7653  4.6139
 9100SOL    HW238763   2.575   0.196   6.119 -0.1095 -1.2117 -1.5331
 9101SOL     OW38764   1.017   1.439  10.908  0.5138 -0.8290 -0.2182
 9101SOL    HW138765   1.080   1.448  10.836 -1.1670 -1.8034 -1.7960
 9101SOL    HW238766   0.941   1.402  10.863 -0.7797 -1.0945  2.2137
 9102SOL     OW38767   1.918   0.596  16.458  0.3634 -0.3019 -0.6358
 9102SOL    HW138768   1.961   0.681  16.451  1.0843 -0.6299 -0.1274
 9102SOL    HW238769   1.826   0.619  16.470  0.8223  0.5655  1.2484
 9103SOL     OW38770   4.563   1.775   8.737 -0.4654  0.3279  0.3040
 9103SOL    HW138771   4.567   1.725   8.818 -1.4445  0.1602  0.2505
 9103SOL    HW238772   4.655   1.793   8.716  0.3564 -1.7065  2.2482
 9104SOL     OW38773   2.546   0.503  12.682  0.3113 -0.1799 -0.3587
 9104SOL    HW138774   2.575   0.432  12.624 -1.3937 -1.8316  0.7956
 9104SOL    HW238775   2.603   0.503  12.759 -1.4820 -2.2680  0.9752
 9105SOL     OW38776   4.458   1.984   4.729  0.6305 -0.1080  0.3110
 9105SOL    HW138777   4.547   1.953   4.747  1.0535 -0.3083 -2.0859
 9105SOL    HW238778   4.476   2.070   4.689 -1.2955 -0.3776 -1.1374
 9106SOL     OW38779   2.135   4.095  17.045 -0.2415 -0.4321 -0.6717
 9106SOL    HW138780   2.227   4.115  17.030 -0.4519 -2.5312 -4.6462
 9106SOL    HW238781   2.135   4.105  17.140 -2.7122  2.4501 -0.9945
 9107SOL     OW38782   4.381   4.403  12.654 -0.0127  0.0053  0.6523
 9107SOL    HW138783   4.470   4.435  12.637  0.0939 -0.2374  0.7600
 9107SOL    HW238784   4.390   4.363  12.740 -0.7483 -1.8037 -0.1038
 9108SOL     OW38785   3.069   4.099   4.202  0.0662  0.1280 -0.0116
 9108SOL    HW138786   3.045   4.035   4.269  1.4541 -0.1765  0.1769
 9108SOL    HW238787   3.139   4.049   4.159  0.8463  0.0202  1.4184
 9109SOL     OW38788   0.791   2.471  12.055  0.3591 -0.3044  0.0470
 9109SOL    HW138789   0.834   2.385  12.055  2.7910  0.9132 -1.5292
 9109SOL    HW238790   0.729   2.457  11.983 -0.8703  0.5832  0.9334
 9110SOL     OW38791   2.862   0.315   5.383 -0.3366 -0.1337  0.3449
 9110SOL    HW138792   2.889   0.317   5.474 -2.6821  0.6583  1.0315
 9110SOL    HW238793   2.795   0.383   5.375  0.2175  0.5237  1.3727
 9111SOL     OW38794   1.474   2.544   9.249  0.1945  0.2324  0.2078
 9111SOL    HW138795   1.516   2.630   9.257 -1.0279  1.0726 -2.2488
 9111SOL    HW238796   1.507   2.517   9.163  0.3911 -2.1146  1.0198
 9112SOL     OW38797   2.352   0.029  10.468 -0.2011 -0.8276  0.3273
 9112SOL    HW138798   2.258   0.016  10.455 -0.1711 -0.3672 -0.3741
 9112SOL    HW238799   2.353   0.118  10.434  0.8360 -0.5143  1.1546
 9113SOL     OW38800   0.196   4.156   7.572 -0.0047  0.4128 -0.4937
 9113SOL    HW138801   0.227   4.204   7.649  0.6925 -2.8414  1.2456
 9113SOL    HW238802   0.258   4.083   7.571 -1.1981 -0.6036 -0.6220
 9114SOL     OW38803   2.513   0.815  11.547 -0.1547  0.3577  0.0507
 9114SOL    HW138804   2.501   0.910  11.546 -0.2060  0.3493 -0.0983
 9114SOL    HW238805   2.588   0.814  11.606 -0.6061  0.8764  0.6318
 9115SOL     OW38806   0.896   1.633   8.836 -0.5756  0.3430  0.3504
 9115SOL    HW138807   0.835   1.706   8.826  1.4918  2.2308  1.4792
 9115SOL    HW238808   0.888   1.619   8.930 -1.2131 -2.4497 -0.1315
 9116SOL     OW38809   2.184   0.556  10.413 -0.3339  0.3984 -0.0333
 9116SOL    HW138810   2.099   0.598  10.411 -0.6770 -0.2182  1.2709
 9116SOL    HW238811   2.201   0.542  10.320 -1.8143 -0.0496 -0.2343
 9117SOL     OW38812   2.333   0.814   3.609 -0.5393  0.2337  0.0499
 9117SOL    HW138813   2.361   0.884   3.550  2.5483 -0.1522  1.0908
 9117SOL    HW238814   2.253   0.769   3.580 -0.3342  0.0678 -0.2615
 9118SOL     OW38815   1.474   2.091   5.944  0.1358 -0.8343  0.2367
 9118SOL    HW138816   1.455   2.110   6.036  1.5263  1.7280 -0.0013
 9118SOL    HW238817   1.565   2.122   5.937  0.0483 -0.0308  2.6589
 9119SOL     OW38818   2.103   2.863   5.480 -0.7450 -0.2969 -0.2599
 9119SOL    HW138819   2.142   2.926   5.540 -0.7930 -2.5575  2.1385
 9119SOL    HW238820   2.178   2.839   5.426  0.7987  3.1559  0.3303
 9120SOL     OW38821   1.485   1.956   4.219 -0.1182 -0.2059 -0.4752
 9120SOL    HW138822   1.576   1.963   4.190  0.6522 -0.3222  1.9121
 9120SOL    HW238823   1.456   2.041   4.187  0.0257 -0.5048 -1.3998
 9121SOL     OW38824   0.767   2.237   5.121 -0.1073  0.8888  0.1325
 9121SOL    HW138825   0.850   2.281   5.137  1.1835 -2.7562  3.4340
 9121SOL    HW238826   0.768   2.233   5.026 -0.2022  0.9828  0.1272
 9122SOL     OW38827   0.155   1.268   3.020 -0.3889  0.2751 -0.2243
 9122SOL    HW138828   0.102   1.346   3.039 -1.6470 -0.8997  1.0227
 9122SOL    HW238829   0.082   1.212   2.992 -1.6778  2.3880 -1.1257
 9123SOL     OW38830   2.072   3.670   0.961  0.3029 -0.3374 -1.0363
 9123SOL    HW138831   2.029   3.617   1.028  2.3738 -0.6473  0.0505
 9123SOL    HW238832   2.056   3.760   0.990  0.4679 -0.3658 -0.8624
 9124SOL     OW38833   1.131   3.146   3.119  0.8047 -0.0993 -0.2466
 9124SOL    HW138834   1.125   3.218   3.056 -1.3754  0.5980  0.7396
 9124SOL    HW238835   1.185   3.083   3.071  1.8471  0.7545 -0.1737
 9125SOL     OW38836   2.907   1.273   7.803  0.4418 -0.0683 -0.1263
 9125SOL    HW138837   2.835   1.237   7.751  0.1185  1.5407 -0.7806
 9125SOL    HW238838   2.861   1.355   7.822 -1.2709 -0.6169 -1.8161
 9126SOL     OW38839   2.082   1.143   6.230 -0.2026  0.3492  0.0275
 9126SOL    HW138840   2.026   1.070   6.256  0.2706 -1.0940 -2.9435
 9126SOL    HW238841   2.164   1.106   6.261  0.1451  2.9253  2.1694
 9127SOL     OW38842   1.270   4.580  15.902 -0.3765  0.3006 -0.3712
 9127SOL    HW138843   1.348   4.598  15.849  0.2564 -2.3822 -0.3121
 9127SOL    HW238844   1.224   4.658  15.869 -1.9279  0.4507  2.1568
 9128SOL     OW38845   4.025   1.775   2.193 -0.1433 -0.1899 -0.1938
 9128SOL    HW138846   4.094   1.747   2.133  1.4569  1.2213  0.9958
 9128SOL    HW238847   3.977   1.698   2.222  0.4560 -0.4703  0.0379
 9129SOL     OW38848   1.573   1.200   7.775  0.2586  0.6454  0.4492
 9129SOL    HW138849   1.647   1.177   7.830 -1.8538 -1.5498  2.4086
 9129SOL    HW238850   1.620   1.203   7.692  0.8378  0.9108  0.7881
 9130SOL     OW38851   0.944   4.260   1.128  0.1105  0.0343  0.8129
 9130SOL    HW138852   0.855   4.240   1.100  0.4328  2.5958 -2.0218
 9130SOL    HW238853   0.977   4.303   1.049  1.3241 -1.3337  0.5572
 9131SOL     OW38854   2.239   3.889   4.462 -0.8069 -0.1286 -0.0710
 9131SOL    HW138855   2.176   3.939   4.410 -1.2493 -0.1752  0.4293
 9131SOL    HW238856   2.272   3.825   4.398 -0.8000 -0.7383  0.5520
 9132SOL     OW38857   4.417   1.848   6.398 -0.6796 -0.1355  0.0690
 9132SOL    HW138858   4.344   1.788   6.386 -0.1279 -0.7905 -0.0152
 9132SOL    HW238859   4.393   1.909   6.329 -1.2650  0.0934  0.4741
 9133SOL     OW38860   4.131   4.342  10.982  0.4104 -0.6648  1.0739
 9133SOL    HW138861   4.161   4.252  10.982  0.4210 -0.6599  2.8140
 9133SOL    HW238862   4.065   4.328  10.915 -0.5107 -1.8945  2.2319
 9134SOL     OW38863   3.012   4.330  11.584  0.7740  0.6276 -0.5688
 9134SOL    HW138864   2.987   4.378  11.505  0.1400  1.2308 -0.0042
 9134SOL    HW238865   3.086   4.284  11.545 -0.1075 -3.1132  2.1661
 9135SOL     OW38866   4.157   2.215   6.343  0.0623 -0.2227 -0.9258
 9135SOL    HW138867   4.182   2.290   6.396 -1.3739 -0.2844 -0.1370
 9135SOL    HW238868   4.100   2.248   6.274 -2.1659 -0.1812  0.8951
 9136SOL     OW38869   2.819   3.605   9.821  0.5326 -0.4878 -0.4683
 9136SOL    HW138870   2.855   3.687   9.787 -1.0941  0.1688 -0.6460
 9136SOL    HW238871   2.727   3.615   9.795  1.1357 -2.4593 -3.3615
 9137SOL     OW38872   4.200   3.911   7.892  0.2642 -0.7716  0.5710
 9137SOL    HW138873   4.287   3.945   7.871  0.3492 -1.7242 -0.6365
 9137SOL    HW238874   4.226   3.827   7.929  0.4885 -1.9694 -2.2722
 9138SOL     OW38875   4.362   0.564  15.690 -0.0857 -0.1409 -0.1307
 9138SOL    HW138876   4.325   0.640  15.645  0.1119  1.1999  1.9704
 9138SOL    HW238877   4.386   0.608  15.771 -0.3311 -1.1990  0.5275
 9139SOL     OW38878   4.629   3.126   6.876  0.1137  0.5256 -0.0931
 9139SOL    HW138879   4.541   3.112   6.911 -0.1735  0.3219 -0.9174
 9139SOL    HW238880   4.614   3.106   6.784 -2.4978  0.6575  0.3074
 9140SOL     OW38881   1.636   4.647   1.961  0.0911  0.0781 -0.0872
 9140SOL    HW138882   1.650   4.709   2.032 -0.7130  0.5779 -0.3619
 9140SOL    HW238883   1.724   4.653   1.922  0.4807  1.4675  1.0007
 9141SOL     OW38884   2.924   1.007  15.556 -0.2146  0.1299  0.1212
 9141SOL    HW138885   2.873   1.011  15.637  0.2164 -2.3220  0.5287
 9141SOL    HW238886   2.977   0.927  15.553 -0.7894 -0.1415 -2.7558
 9142SOL     OW38887   4.478   0.784  17.683 -0.4011 -0.1760 -0.0471
 9142SOL    HW138888   4.527   0.802  17.603 -0.8405  2.9632  0.4030
 9142SOL    HW238889   4.462   0.694  17.654 -0.7668  0.8226 -2.9181
 9143SOL     OW38890   0.014   2.666   9.521  0.3256 -0.1680 -0.1967
 9143SOL    HW138891   4.711   2.670   9.429  1.1672  1.7067 -0.3625
 9143SOL    HW238892   0.039   2.754   9.548  0.3444  0.1039 -1.0885
 9144SOL     OW38893   2.758   2.260   3.681 -0.4651  0.2499  0.2354
 9144SOL    HW138894   2.710   2.219   3.753 -0.2197  0.4911  0.5357
 9144SOL    HW238895   2.689   2.298   3.628 -0.3943  1.1837  0.8122
 9145SOL     OW38896   2.358   4.342   5.978  0.3173 -0.0241  0.0547
 9145SOL    HW138897   2.334   4.356   6.070  1.2616  2.7948 -0.1192
 9145SOL    HW238898   2.441   4.390   5.984  0.7483 -0.6656 -0.8204
 9146SOL     OW38899   0.839   3.226  13.766 -0.3185  0.1229 -0.3484
 9146SOL    HW138900   0.905   3.261  13.706  1.0518 -0.1249  1.0092
 9146SOL    HW238901   0.865   3.138  13.794 -1.0771 -0.0490 -0.1638
 9147SOL     OW38902   3.894   0.451  13.644 -0.4821  0.8371  0.1656
 9147SOL    HW138903   3.869   0.367  13.682  0.9818 -0.2046 -1.1696
 9147SOL    HW238904   3.882   0.425  13.553 -0.6099  0.8213  0.1872
 9148SOL     OW38905   3.892   2.556  16.748  0.2625 -0.5888  0.4804
 9148SOL    HW138906   3.900   2.651  16.755 -1.0539 -0.3707 -1.0918
 9148SOL    HW238907   3.843   2.546  16.666  2.5105  2.5667 -1.2408
 9149SOL     OW38908   2.699   3.224  12.819 -0.1659  0.1083 -0.3442
 9149SOL    HW138909   2.701   3.231  12.914  0.3889  1.5973 -0.4634
 9149SOL    HW238910   2.653   3.140  12.809 -1.5587  0.7533  0.6395
 9150SOL     OW38911   3.225   1.105   1.584  0.0253 -0.1620  0.8315
 9150SOL    HW138912   3.132   1.124   1.591 -0.8038 -3.5094 -1.4068
 9150SOL    HW238913   3.240   1.010   1.590 -0.4806 -0.2095  1.4036
 9151SOL     OW38914   3.600   0.300   7.346  0.2364  0.0408 -0.3668
 9151SOL    HW138915   3.659   0.274   7.276  0.0367 -0.2052 -0.4423
 9151SOL    HW238916   3.513   0.304   7.306 -0.1473  1.8759  0.6529
 9152SOL     OW38917   3.898   3.740  12.855  0.0551  0.2370  0.4175
 9152SOL    HW138918   3.897   3.647  12.879  2.0869  0.1873  0.3106
 9152SOL    HW238919   3.969   3.743  12.791 -0.4948  1.0460 -0.1598
 9153SOL     OW38920   4.436   2.026  13.899 -0.1113  0.4760  0.4501
 9153SOL    HW138921   4.493   1.986  13.834 -0.2362  2.8949 -1.1501
 9153SOL    HW238922   4.396   1.948  13.936  1.1121  1.3738  3.7289
 9154SOL     OW38923   3.282   2.709   7.770 -0.5681  0.6223  0.1609
 9154SOL    HW138924   3.363   2.659   7.788  0.2081  1.4806 -0.9951
 9154SOL    HW238925   3.224   2.641   7.736 -0.5438  1.5077 -1.6094
 9155SOL     OW38926   2.873   3.768   6.159 -0.0625 -0.2246  0.6631
 9155SOL    HW138927   2.817   3.839   6.130 -0.7427 -1.0941 -0.1591
 9155SOL    HW238928   2.955   3.799   6.121  0.6817 -2.0454  0.7873
 9156SOL     OW38929   2.706   1.705   1.115  0.3759  0.3302 -0.6137
 9156SOL    HW138930   2.792   1.663   1.114 -0.2301 -0.9602  0.2889
 9156SOL    HW238931   2.681   1.695   1.023  2.9778 -0.6007 -1.2248
 9157SOL     OW38932   1.558   2.987   3.743 -0.6523 -0.3838  0.1598
 9157SOL    HW138933   1.476   2.997   3.791 -0.5231  0.5064  0.1804
 9157SOL    HW238934   1.614   3.053   3.783 -1.4398  2.2305 -3.0529
 9158SOL     OW38935   0.535   1.317   8.276 -0.2543 -0.5386 -0.2482
 9158SOL    HW138936   0.497   1.254   8.215  2.0238 -1.0658 -1.1648
 9158SOL    HW238937   0.550   1.253   8.345 -0.9036 -0.5839 -0.1572
 9159SOL     OW38938   3.674   2.500   5.195  0.1187  0.3545 -0.2791
 9159SOL    HW138939   3.584   2.489   5.227  0.3371 -1.1882 -0.1975
 9159SOL    HW238940   3.712   2.533   5.277 -0.3365 -2.0586  0.9031
 9160SOL     OW38941   3.505   0.422   4.967  0.4550 -0.3030  0.2337
 9160SOL    HW138942   3.526   0.360   4.897 -0.1435 -1.4459  1.0757
 9160SOL    HW238943   3.421   0.456   4.936 -0.6117 -2.1803  1.1132
 9161SOL     OW38944   0.388   0.147  10.138  0.4101 -0.0228  0.8491
 9161SOL    HW138945   0.440   0.073  10.170  1.5221  0.5224  0.3097
 9161SOL    HW238946   0.381   0.197  10.219 -0.9029  1.4194 -0.1733
 9162SOL     OW38947   2.507   3.071   2.564 -0.1098  0.4764  0.2237
 9162SOL    HW138948   2.591   3.111   2.586  0.5299 -1.4707  1.3474
 9162SOL    HW238949   2.452   3.112   2.630 -1.3232  0.9859 -1.0850
 9163SOL     OW38950   0.269   0.722   2.301  0.1710 -0.1592  0.7350
 9163SOL    HW138951   0.177   0.704   2.323 -0.1625 -0.8910 -1.2638
 9163SOL    HW238952   0.266   0.774   2.221 -3.3479 -2.3927 -0.5934
 9164SOL     OW38953   0.273   0.680   5.143 -0.1113 -0.2362  0.0046
 9164SOL    HW138954   0.184   0.671   5.107  0.1294 -2.8052  0.0481
 9164SOL    HW238955   0.266   0.619   5.217  0.3027 -0.4553 -0.1405
 9165SOL     OW38956   2.613   0.133  17.211  0.2830 -0.2799 -0.1723
 9165SOL    HW138957   2.598   0.153  17.303 -1.3616 -2.4534  0.0466
 9165SOL    HW238958   2.612   0.037  17.208  1.1274 -0.3083  0.5583
 9166SOL     OW38959   2.577   0.945   7.704  0.1954  0.2625 -0.9935
 9166SOL    HW138960   2.588   0.970   7.796 -0.0498  2.4091 -1.5316
 9166SOL    HW238961   2.489   0.912   7.687 -0.8528  2.3510  0.2763
 9167SOL     OW38962   4.118   3.255   5.241  0.0138  0.1658 -0.1129
 9167SOL    HW138963   4.172   3.265   5.163 -0.9782 -0.0043 -0.8283
 9167SOL    HW238964   4.035   3.230   5.200 -0.0563  1.3906 -0.7241
 9168SOL     OW38965   4.037   4.306   0.488 -0.3410 -0.0507 -0.1292
 9168SOL    HW138966   3.980   4.339   0.419 -2.8340 -1.9397  1.0314
 9168SOL    HW238967   4.020   4.374   0.554 -0.6940 -0.7518  0.4966
 9169SOL     OW38968   0.331   4.651   8.691  0.4734  0.4004  0.4877
 9169SOL    HW138969   0.391   4.649   8.765 -1.5597 -0.6541  2.1288
 9169SOL    HW238970   0.374   4.715   8.634 -0.0298  0.5683  0.2911
 9170SOL     OW38971   3.873   4.686  13.075  0.1453 -0.3274  0.2991
 9170SOL    HW138972   3.821   0.015  13.015  0.4740 -0.5009 -0.1344
 9170SOL    HW238973   3.892   4.614  13.015 -0.2334 -1.0507  1.0467
 9171SOL     OW38974   4.502   1.265   2.583  0.1945 -0.0623  0.2793
 9171SOL    HW138975   4.503   1.194   2.519 -4.1624  0.1875 -0.0802
 9171SOL    HW238976   4.552   1.330   2.534  0.0512  0.4924  0.8642
 9172SOL     OW38977   0.450   0.663   9.446  0.3451  0.5841 -0.0729
 9172SOL    HW138978   0.477   0.572   9.461 -2.2951  0.1212  1.7935
 9172SOL    HW238979   0.357   0.645   9.430  0.7163 -0.2198 -1.3570
 9173SOL     OW38980   2.137   1.841   1.158 -0.2826  0.0222 -0.1319
 9173SOL    HW138981   2.150   1.936   1.161 -1.4419  0.1392  1.3963
 9173SOL    HW238982   2.060   1.832   1.215  0.5293 -1.2871  0.7478
 9174SOL     OW38983   1.138   3.412   0.832  0.7353  0.0224  0.1476
 9174SOL    HW138984   1.102   3.489   0.877  1.1699 -0.5901  1.5259
 9174SOL    HW238985   1.231   3.432   0.844  1.2485 -1.6144 -1.0670
 9175SOL     OW38986   2.174   2.400   6.110  0.6475 -0.2182  0.0043
 9175SOL    HW138987   2.121   2.480   6.109 -1.0437 -1.3506 -3.3923
 9175SOL    HW238988   2.203   2.403   6.019 -3.7380 -2.0011 -1.4686
 9176SOL     OW38989   1.804   1.301   3.219  0.3359 -0.4991  0.7787
 9176SOL    HW138990   1.714   1.331   3.231  0.4564 -0.6286  1.9976
 9176SOL    HW238991   1.819   1.268   3.308 -1.0452  2.2720  2.0448
 9177SOL     OW38992   4.673   1.583   4.536  0.5351 -0.2433  0.7380
 9177SOL    HW138993   4.601   1.546   4.587  0.4740  0.0887  0.8945
 9177SOL    HW238994   4.639   1.671   4.521  0.9968 -0.5308 -2.0007
 9178SOL     OW38995   2.843   1.182   1.361  0.5340  0.2298 -0.2353
 9178SOL    HW138996   2.899   1.110   1.392 -0.8442 -0.9192 -0.3986
 9178SOL    HW238997   2.825   1.143   1.275  0.4840 -0.6380  0.1700
 9179SOL     OW38998   4.697   0.957  15.396 -0.3530 -0.2032  0.1008
 9179SOL    HW138999   4.645   0.894  15.345 -1.6991  1.7960 -0.9942
 9179SOL    HW239000   0.052   0.905  15.412  0.1125  0.3685 -0.3711
 9180SOL     OW39001   2.474   1.100   3.760  0.0441 -0.4492 -0.3338
 9180SOL    HW139002   2.548   1.047   3.790 -0.8745 -0.5973  1.6774
 9180SOL    HW239003   2.519   1.161   3.702 -0.4902  2.3428  2.2182
 9181SOL     OW39004   2.616   3.832   3.628  0.1751  0.1007 -0.1515
 9181SOL    HW139005   2.694   3.886   3.643  0.0586  0.5860 -1.2887
 9181SOL    HW239006   2.580   3.879   3.553 -0.4092 -0.0500  0.0368
 9182SOL     OW39007   3.577   1.923   8.374 -0.1846 -0.1047 -0.2948
 9182SOL    HW139008   3.553   2.014   8.393 -0.6610 -0.3564  0.2776
 9182SOL    HW239009   3.647   1.933   8.308  0.6098  0.4923  0.6383
 9183SOL     OW39010   3.913   2.748   7.734  0.1486  0.6840  0.4598
 9183SOL    HW139011   3.868   2.702   7.805 -1.2792  2.7249  0.8841
 9183SOL    HW239012   3.925   2.839   7.763 -1.8839  0.5721  1.6559
 9184SOL     OW39013   3.335   1.686   4.588 -0.2807 -0.2298  0.2024
 9184SOL    HW139014   3.421   1.691   4.547  0.2252  0.6801  1.3933
 9184SOL    HW239015   3.272   1.702   4.517 -1.1141  0.5597  1.1260
 9185SOL     OW39016   1.294   2.242   2.970 -0.6591  0.4127 -0.0498
 9185SOL    HW139017   1.316   2.280   2.885 -2.2836 -0.3890 -0.8257
 9185SOL    HW239018   1.366   2.180   2.985 -0.1317  1.0828  0.1487
 9186SOL     OW39019   2.815   2.779  13.485 -0.1643 -0.1161 -0.2840
 9186SOL    HW139020   2.743   2.839  13.466 -1.7043 -2.0901 -0.6907
 9186SOL    HW239021   2.890   2.838  13.475  1.8349 -2.4452  0.9602
 9187SOL     OW39022   2.960   2.905  10.468 -0.0195 -0.0688  0.3832
 9187SOL    HW139023   3.012   2.928  10.391  0.0924 -1.0212  0.1782
 9187SOL    HW239024   2.962   2.980  10.527 -0.4890  0.1489  0.1190
 9188SOL     OW39025   2.838   2.084  12.087 -0.4819  0.2647 -0.3487
 9188SOL    HW139026   2.762   2.142  12.085  0.1262  1.1874  3.0520
 9188SOL    HW239027   2.845   2.066  12.181  1.7335  0.3337 -0.4988
 9189SOL     OW39028   0.010   1.057  17.666  0.2514 -0.3845  0.1925
 9189SOL    HW139029   0.062   1.074   0.046  0.9457 -2.1593  0.1089
 9189SOL    HW239030   0.042   1.128  17.611 -0.0551 -0.3889  0.0118
 9190SOL     OW39031   4.311   2.208   8.395 -0.6832 -0.2450 -0.2478
 9190SOL    HW139032   4.344   2.279   8.341  0.4530  0.1925  1.0123
 9190SOL    HW239033   4.385   2.185   8.451  0.5549 -0.2797 -1.9224
 9191SOL     OW39034   4.236   2.586   2.947  0.1959  0.3520  0.1786
 9191SOL    HW139035   4.146   2.580   2.917  0.4537 -0.0516 -0.5068
 9191SOL    HW239036   4.225   2.532   3.025 -1.1287  1.5704  0.8265
 9192SOL     OW39037   4.084   2.989   6.177  0.6622 -0.0677 -0.8481
 9192SOL    HW139038   4.094   3.083   6.170 -0.3224 -0.0707 -2.1468
 9192SOL    HW239039   3.996   2.974   6.143  1.6920 -0.9323 -3.0734
 9193SOL     OW39040   2.666   2.307   5.100  0.3890 -0.3613 -0.0108
 9193SOL    HW139041   2.675   2.343   5.189  0.2197 -0.1571 -0.0743
 9193SOL    HW239042   2.595   2.249   5.129  0.6163 -0.6199  0.0235
 9194SOL     OW39043   1.481   4.028   1.750  0.3529  0.1832 -0.5788
 9194SOL    HW139044   1.463   4.086   1.824  2.5722  2.2703 -1.6918
 9194SOL    HW239045   1.472   3.941   1.791 -0.8713 -0.0780 -1.3898
 9195SOL     OW39046   4.591   3.742   4.044 -0.1238  0.4330  0.7793
 9195SOL    HW139047   4.503   3.776   4.028  0.0493  0.6064  0.2133
 9195SOL    HW239048   4.579   3.667   3.986  0.2058  0.4796  0.6562
 9196SOL     OW39049   0.658   3.606   3.305  0.5852 -0.1643  0.4339
 9196SOL    HW139050   0.670   3.597   3.211  1.0346  0.8965  0.3885
 9196SOL    HW239051   0.605   3.529   3.325 -0.4811  0.7934  1.3426
 9197SOL     OW39052   2.041   1.642   7.573  0.0283 -0.5040  0.6211
 9197SOL    HW139053   2.120   1.695   7.589 -0.6350  0.5887  0.2638
 9197SOL    HW239054   2.033   1.651   7.478 -0.6004  1.9092  0.8863
 9198SOL     OW39055   1.261   0.079   8.815  0.3066 -0.8329 -0.0378
 9198SOL    HW139056   1.327   0.148   8.807  1.9896 -2.2972  1.1428
 9198SOL    HW239057   1.201   0.101   8.744 -1.3625  0.6473  1.8177
 9199SOL     OW39058   1.112   0.991   3.811  0.5259 -0.5048 -0.3850
 9199SOL    HW139059   1.134   0.899   3.817  1.2876 -0.2484  0.7172
 9199SOL    HW239060   1.033   1.007   3.864  0.9203 -3.6113  1.1054
 9200SOL     OW39061   1.853   3.000  12.815 -0.2796 -0.1179  0.0057
 9200SOL    HW139062   1.935   2.960  12.785  2.2842  2.7177  3.1962
 9200SOL    HW239063   1.796   2.947  12.760 -1.2889  1.2043 -0.2340
 9201SOL     OW39064   2.769   3.734   3.818 -0.2337  0.2087 -0.0466
 9201SOL    HW139065   2.679   3.747   3.789  0.0258 -0.4527 -1.1170
 9201SOL    HW239066   2.826   3.778   3.754  0.1285 -1.7315 -1.0627
 9202SOL     OW39067   1.499   0.229   5.900  0.1610  0.1402  0.4417
 9202SOL    HW139068   1.585   0.230   5.942 -0.9782  1.9862  2.6871
 9202SOL    HW239069   1.497   0.307   5.845  0.4232  0.2953  0.6530
 9203SOL     OW39070   2.933   0.103  11.879 -0.1512  0.4531 -0.0565
 9203SOL    HW139071   2.897   0.097  11.791 -0.2374  0.2442 -0.0062
 9203SOL    HW239072   3.007   0.162  11.864  1.2821 -0.7364  2.2712
 9204SOL     OW39073   3.356   3.166   7.399  0.0457  0.5763 -0.1965
 9204SOL    HW139074   3.323   3.090   7.447  2.1118  0.0799  0.4631
 9204SOL    HW239075   3.281   3.225   7.401 -0.6184 -0.2491 -0.8052
 9205SOL     OW39076   1.178   0.183   1.385 -0.3582  0.1513  0.1138
 9205SOL    HW139077   1.247   0.119   1.371 -1.4902 -1.0978  0.2260
 9205SOL    HW239078   1.218   0.232   1.457  1.1172 -0.3730 -0.3563
 9206SOL     OW39079   4.281   3.855   7.307  0.2670  0.5508  0.1913
 9206SOL    HW139080   4.256   3.848   7.399 -0.0104  0.4507  0.1080
 9206SOL    HW239081   4.323   3.941   7.304  0.5373  0.2727 -3.4857
 9207SOL     OW39082   0.502   3.589   1.540 -0.0892 -0.2182  0.1475
 9207SOL    HW139083   0.527   3.497   1.549  0.3353 -0.1435 -0.2624
 9207SOL    HW239084   0.591   3.623   1.542  0.5329 -1.7973 -0.6718
 9208SOL     OW39085   3.105   4.080   7.518  0.1714 -0.5637  0.4378
 9208SOL    HW139086   3.144   4.153   7.566  1.0149 -0.1912 -0.8034
 9208SOL    HW239087   3.159   4.088   7.439 -0.3671 -1.0906  0.0162
 9209SOL     OW39088   2.561   1.006  12.974 -0.3671  0.1782  0.2185
 9209SOL    HW139089   2.608   1.072  13.025 -0.8759  0.3824  0.4244
 9209SOL    HW239090   2.617   0.995  12.897  0.4972 -0.8067  0.9813
 9210SOL     OW39091   4.703   4.514  11.632 -0.0408  0.2280 -0.0200
 9210SOL    HW139092   4.658   4.557  11.560  0.4516  1.7786  0.6025
 9210SOL    HW239093   4.633   4.452  11.654 -0.8952  1.8650  1.8055
 9211SOL     OW39094   3.906   4.266  15.639 -1.2752  0.1895 -0.2917
 9211SOL    HW139095   3.858   4.333  15.689 -1.9627  0.3908 -1.2113
 9211SOL    HW239096   3.916   4.204  15.711  0.5787  0.7348 -0.0748
 9212SOL     OW39097   2.619   1.956   3.522 -0.6611 -0.2867  0.0768
 9212SOL    HW139098   2.599   1.976   3.613  2.1297  1.0635  0.4023
 9212SOL    HW239099   2.533   1.940   3.483 -0.6193  1.1745 -0.6026
 9213SOL     OW39100   4.419   3.353  16.368 -0.4877  0.0278  1.0055
 9213SOL    HW139101   4.344   3.412  16.378 -0.8353 -0.2627  0.0880
 9213SOL    HW239102   4.472   3.364  16.447 -1.7707 -0.2441  1.9021
 9214SOL     OW39103   2.651   1.354   3.181 -0.5011 -0.0385 -0.2172
 9214SOL    HW139104   2.733   1.391   3.214  0.2664  1.2183 -3.5260
 9214SOL    HW239105   2.677   1.292   3.113 -0.4146  0.2864 -0.4767
 9215SOL     OW39106   1.288   0.615   0.659  0.1045 -0.1635  0.0852
 9215SOL    HW139107   1.362   0.567   0.623  1.9471  1.6387  1.4659
 9215SOL    HW239108   1.213   0.567   0.624  1.0947 -0.9350 -0.9663
 9216SOL     OW39109   0.095   2.682   2.388  0.1837 -0.8088 -0.1361
 9216SOL    HW139110   0.178   2.728   2.381 -1.1134  1.4668 -0.6772
 9216SOL    HW239111   0.091   2.659   2.481 -0.5852 -1.7258 -0.3919
 9217SOL     OW39112   1.540   2.787   4.956 -0.1343  0.1104  0.5860
 9217SOL    HW139113   1.569   2.804   4.866 -1.7386  1.6974  0.3748
 9217SOL    HW239114   1.611   2.823   5.009  0.5360  1.6220 -1.3042
 9218SOL     OW39115   2.132   2.623  14.675 -0.1257 -0.2491  0.0442
 9218SOL    HW139116   2.068   2.649  14.608 -0.4199  0.4386  0.5990
 9218SOL    HW239117   2.135   2.528  14.663  2.0211 -0.3088  0.9574
 9219SOL     OW39118   2.772   2.415   7.922 -0.1085  0.7128 -0.7533
 9219SOL    HW139119   2.831   2.347   7.891  1.5397  0.4876  2.8624
 9219SOL    HW239120   2.748   2.455   7.839  0.6135  1.2460 -0.6966
 9220SOL     OW39121   1.754   3.110  15.769 -0.6622 -0.0786  0.3610
 9220SOL    HW139122   1.826   3.072  15.718 -1.8067 -1.3480 -0.3097
 9220SOL    HW239123   1.787   3.077  15.853 -1.3858 -4.0338 -0.8847
 9221SOL     OW39124   3.117   3.730   3.976 -0.1459  0.3804 -0.0673
 9221SOL    HW139125   3.045   3.668   3.992  0.1526  0.8182  2.9247
 9221SOL    HW239126   3.073   3.812   3.953  0.4378  0.9728  0.9323
 9222SOL     OW39127   3.177   4.689  12.651 -0.6555 -0.2271 -0.1125
 9222SOL    HW139128   3.239   0.028  12.614 -1.5345  0.4972 -0.3524
 9222SOL    HW239129   3.229   4.627  12.703 -2.3556  1.0265  3.0737
 9223SOL     OW39130   4.603   0.623   3.202  0.4046 -0.3011  0.0397
 9223SOL    HW139131   4.517   0.602   3.240 -0.4932 -0.2009 -1.9116
 9223SOL    HW239132   4.636   0.533   3.196  0.8592 -0.2691  2.2092
 9224SOL     OW39133   3.077   1.010   9.692 -0.5814 -0.0392 -0.0649
 9224SOL    HW139134   3.089   1.015   9.597  0.7742 -0.1480  0.0975
 9224SOL    HW239135   3.048   0.920   9.706 -0.0220 -0.1443  0.4013
 9225SOL     OW39136   0.816   1.419   5.329  0.0290 -0.6865 -0.0181
 9225SOL    HW139137   0.800   1.324   5.328 -2.7242 -0.2092 -0.9580
 9225SOL    HW239138   0.757   1.434   5.403 -0.1716  0.8308 -0.4861
 9226SOL     OW39139   3.850   1.676  15.138  0.4338  0.4127  0.1864
 9226SOL    HW139140   3.877   1.748  15.081  1.2876  0.7001  0.9540
 9226SOL    HW239141   3.901   1.684  15.218  0.9499 -3.2639  0.2108
 9227SOL     OW39142   0.115   4.667  15.297  0.1095  0.3005  0.6217
 9227SOL    HW139143   0.100   4.708  15.212  0.5800 -3.0937 -1.0890
 9227SOL    HW239144   0.155   4.586  15.265  0.0414 -0.1797  1.7693
 9228SOL     OW39145   0.792   4.719   1.793 -0.4066  0.0175 -0.0176
 9228SOL    HW139146   0.699   0.009   1.779 -0.1474  1.5213 -0.1936
 9228SOL    HW239147   0.805   4.629   1.825 -0.8927 -0.1011 -0.1537
 9229SOL     OW39148   2.460   3.297  11.109 -0.8606  0.0010 -0.2766
 9229SOL    HW139149   2.444   3.366  11.174  0.1474 -0.5805  0.6075
 9229SOL    HW239150   2.518   3.239  11.160 -1.9378 -0.8670 -0.0467
 9230SOL     OW39151   4.174   0.528  13.148  0.0981  0.6973 -0.4097
 9230SOL    HW139152   4.103   0.592  13.141  1.4818  2.3156  0.3329
 9230SOL    HW239153   4.167   0.491  13.236 -2.9659  0.5124 -0.7407
 9231SOL     OW39154   3.932   0.938  11.061  0.2324  0.6001 -0.0135
 9231SOL    HW139155   4.023   0.965  11.051 -0.7159  3.0546 -1.9271
 9231SOL    HW239156   3.884   0.996  11.003  0.3613  0.0103 -0.7105
 9232SOL     OW39157   0.940   4.631  17.444 -0.4529 -0.3642  0.2442
 9232SOL    HW139158   0.938   4.713  17.396  0.5434 -0.3056  0.3027
 9232SOL    HW239159   0.976   4.571  17.379  1.0246  1.2556 -0.4268
 9233SOL     OW39160   3.506   1.451   7.417 -0.2902 -0.2694 -0.4758
 9233SOL    HW139161   3.434   1.473   7.358  1.2233  0.2398 -2.1256
 9233SOL    HW239162   3.571   1.503   7.371 -1.0996 -0.0864 -1.4101
 9234SOL     OW39163   0.475   4.509   2.838  0.3396 -0.2256  0.4490
 9234SOL    HW139164   0.426   4.432   2.809 -0.0847  0.8391 -1.7464
 9234SOL    HW239165   0.553   4.462   2.866  0.9662  1.0677  0.8898
 9235SOL     OW39166   4.015   0.685   6.290 -0.0872  0.0337 -0.1660
 9235SOL    HW139167   4.051   0.727   6.211  0.0478  0.4932  0.1372
 9235SOL    HW239168   4.092   0.637   6.319 -0.2500  1.6936  2.9455
 9236SOL     OW39169   3.605   3.947   2.573 -0.1644  0.2251  0.6876
 9236SOL    HW139170   3.645   3.884   2.514  1.1630  0.9922  0.7500
 9236SOL    HW239171   3.632   4.020   2.518  1.6701 -1.8893 -1.1759
 9237SOL     OW39172   0.821   2.034  11.729  0.5909  0.1138  0.1939
 9237SOL    HW139173   0.903   2.084  11.731  1.5696 -1.5242  0.7625
 9237SOL    HW239174   0.810   2.038  11.634  2.0070 -1.0986 -0.0279
 9238SOL     OW39175   4.261   1.696  13.204 -0.0012  0.4805 -0.2061
 9238SOL    HW139176   4.278   1.751  13.127 -2.6551 -0.9786 -1.8201
 9238SOL    HW239177   4.329   1.736  13.258 -1.4510  0.7727  1.3813
 9239SOL     OW39178   2.059   0.036  14.310 -0.8228 -0.0958  0.1595
 9239SOL    HW139179   2.112   0.051  14.232 -0.1937 -1.3098  0.3448
 9239SOL    HW239180   2.003   4.689  14.280  0.2501 -1.1088  0.5769
 9240SOL     OW39181   1.301   2.885  10.880 -0.0226  0.0688  0.4934
 9240SOL    HW139182   1.356   2.962  10.892 -2.1826  1.8682 -1.0389
 9240SOL    HW239183   1.313   2.858  10.789  0.9747 -0.0441  0.6632
 9241SOL     OW39184   3.420   4.086  16.088  0.1925  0.2791  0.0157
 9241SOL    HW139185   3.429   4.167  16.038  1.0174 -0.1107 -0.4676
 9241SOL    HW239186   3.497   4.033  16.064  0.0234  1.3406 -2.8592
 9242SOL     OW39187   2.849   2.305   6.718 -0.4110  0.3532 -0.0816
 9242SOL    HW139188   2.762   2.271   6.698 -0.4071  0.5090 -0.3643
 9242SOL    HW239189   2.848   2.323   6.812  2.3307  1.0442 -0.1970
 9243SOL     OW39190   3.934   0.984   8.738 -0.1079  0.5687  0.6524
 9243SOL    HW139191   3.992   1.015   8.668 -0.9944  3.6887  1.3127
 9243SOL    HW239192   3.891   1.063   8.770 -1.7804 -0.2780  0.4467
 9244SOL     OW39193   0.336   0.349   2.141 -0.4663  0.0677  0.6097
 9244SOL    HW139194   0.280   0.365   2.217  0.6643  1.4508  1.1405
 9244SOL    HW239195   0.275   0.391   2.080 -0.7230 -0.7727  0.2765
 9245SOL     OW39196   3.640   0.484   0.295 -0.5971  0.4944 -0.2670
 9245SOL    HW139197   3.600   0.413   0.345  0.1004  0.5225  0.3427
 9245SOL    HW239198   3.681   0.531   0.368 -0.1845 -1.3486  0.6793
 9246SOL     OW39199   2.334   3.756  17.130  0.8570 -0.2071 -0.1631
 9246SOL    HW139200   2.270   3.717  17.190  2.2714  1.1812  2.2419
 9246SOL    HW239201   2.270   3.789  17.067  0.0470 -0.5396  0.4693
 9247SOL     OW39202   4.315   3.518   7.730 -0.3340  0.2610  0.5235
 9247SOL    HW139203   4.396   3.468   7.734 -1.0622 -1.0693 -1.4748
 9247SOL    HW239204   4.324   3.580   7.803  0.9377 -1.0760  1.4943
 9248SOL     OW39205   0.589   0.500   5.380 -0.5380  0.0831 -0.7430
 9248SOL    HW139206   0.551   0.582   5.348 -1.1871  0.6559  1.4681
 9248SOL    HW239207   0.516   0.445   5.409 -1.0781  0.3058 -1.6943
 9249SOL     OW39208   3.866   0.464   9.033 -0.0340 -0.5243 -0.3251
 9249SOL    HW139209   3.781   0.422   9.025  0.2827 -0.7675 -2.4448
 9249SOL    HW239210   3.895   0.483   8.943 -2.9494 -1.8896 -1.5268
 9250SOL     OW39211   4.101   4.499   3.495 -0.1684 -0.1599  0.7587
 9250SOL    HW139212   4.181   4.478   3.542 -0.2357  0.7855  1.2934
 9250SOL    HW239213   4.070   4.415   3.460 -1.2546  0.3363  0.5234
 9251SOL     OW39214   4.511   0.571  13.505 -0.6610 -0.2042 -0.4907
 9251SOL    HW139215   4.464   0.591  13.586 -0.1977  2.8483 -0.9453
 9251SOL    HW239216   4.495   0.477  13.498 -2.9594  0.1817 -0.2520
 9252SOL     OW39217   1.889   0.840   6.544 -0.2222  0.3780  0.1072
 9252SOL    HW139218   1.982   0.822   6.559 -0.7440 -1.7296  0.8990
 9252SOL    HW239219   1.900   0.893   6.466 -1.0053 -0.9577 -0.9163
 9253SOL     OW39220   3.547   2.250   3.676  0.1053 -0.5550  0.3693
 9253SOL    HW139221   3.609   2.323   3.665 -1.8715  1.1284  0.5319
 9253SOL    HW239222   3.588   2.169   3.646 -1.6474 -1.5793  0.7706
 9254SOL     OW39223   2.456   1.800   8.059 -0.4513 -0.0227  0.1576
 9254SOL    HW139224   2.508   1.720   8.071  0.0456  0.1445 -0.9293
 9254SOL    HW239225   2.412   1.810   8.144  0.1894 -0.4470  0.5467
 9255SOL     OW39226   3.064   4.069   9.695  0.1744  0.4121  0.0248
 9255SOL    HW139227   3.072   4.131   9.768  0.3935  1.7009 -1.0985
 9255SOL    HW239228   3.010   4.001   9.736 -1.1893  0.2510 -2.0715
 9256SOL     OW39229   1.201   3.389   1.931 -0.2927  0.1495 -0.3775
 9256SOL    HW139230   1.167   3.300   1.920 -0.6070  0.3969 -1.3377
 9256SOL    HW239231   1.284   3.390   1.884 -0.4178 -0.6752 -0.6088
 9257SOL     OW39232   4.470   1.942   9.599  0.6494 -0.7004  0.3291
 9257SOL    HW139233   4.557   1.934   9.637  1.4068 -0.6786 -1.4195
 9257SOL    HW239234   4.422   1.941   9.682 -3.3268 -1.1395 -1.9444
 9258SOL     OW39235   0.047   2.870   4.606  0.4026  0.1824 -0.0712
 9258SOL    HW139236   0.131   2.853   4.564  1.5622  1.7582  1.6284
 9258SOL    HW239237   4.723   2.793   4.576 -2.3386  2.3335 -1.2276
 9259SOL     OW39238   4.507   2.836   0.226  0.1212 -0.0101 -0.0675
 9259SOL    HW139239   4.482   2.807   0.313  1.1103 -0.4267  0.0780
 9259SOL    HW239240   4.464   2.773   0.168  0.7774  1.0883 -1.7641
 9260SOL     OW39241   2.856   2.245   5.682  0.1417 -0.0178 -0.1274
 9260SOL    HW139242   2.811   2.313   5.631  0.1653 -0.0820 -0.2309
 9260SOL    HW239243   2.792   2.229   5.752  3.1572  0.0325  2.6209
 9261SOL     OW39244   2.256   0.271   4.127  0.2696 -0.4086 -0.0761
 9261SOL    HW139245   2.303   0.351   4.151  1.4450 -1.4306  1.0394
 9261SOL    HW239246   2.208   0.299   4.049 -1.1555 -2.1469  0.1912
 9262SOL     OW39247   1.955   3.547   9.253 -0.0618 -0.3935  0.0394
 9262SOL    HW139248   2.017   3.493   9.203 -0.9796 -0.5440 -0.9312
 9262SOL    HW239249   1.964   3.517   9.343 -1.4469 -1.6255 -0.2257
 9263SOL     OW39250   4.322   0.439   8.603 -0.1506  0.4222  0.1052
 9263SOL    HW139251   4.285   0.525   8.581  1.0615  0.9966  0.3204
 9263SOL    HW239252   4.241   0.388   8.593  1.3234 -1.6353 -1.1774
 9264SOL     OW39253   1.688   2.627   1.206  0.5197  0.3291 -0.3685
 9264SOL    HW139254   1.719   2.539   1.227  0.5227  0.3877 -0.1294
 9264SOL    HW239255   1.616   2.640   1.267  0.2988 -4.1186  0.2807
 9265SOL     OW39256   1.188   0.331   7.575  0.4502 -0.0016  0.0350
 9265SOL    HW139257   1.142   0.251   7.600 -0.5495 -0.0777 -2.0178
 9265SOL    HW239258   1.139   0.399   7.621  1.9175  0.8891  0.2754
 9266SOL     OW39259   4.427   3.775   7.096 -0.4288 -0.0800 -0.0239
 9266SOL    HW139260   4.381   3.804   7.175  1.8470  0.6470  1.0282
 9266SOL    HW239261   4.430   3.681   7.114  0.7608 -0.2430 -1.0906
 9267SOL     OW39262   3.036   2.282   3.550  0.0262 -0.0841 -0.6864
 9267SOL    HW139263   3.024   2.194   3.514 -1.2415 -0.2062  0.0220
 9267SOL    HW239264   2.951   2.302   3.590  1.1507  0.8390  1.2270
 9268SOL     OW39265   0.439   2.054  14.008  0.2624 -0.0310 -0.3659
 9268SOL    HW139266   0.471   2.100  14.086 -1.7176  0.2877  0.2610
 9268SOL    HW239267   0.365   2.111  13.986 -0.4233  0.0398  2.0926
 9269SOL     OW39268   3.693   2.926   7.965  0.6708 -0.1927  0.0878
 9269SOL    HW139269   3.649   2.961   7.887 -0.6786 -1.7525  0.1567
 9269SOL    HW239270   3.691   3.005   8.020 -1.9177  0.3794 -0.8270
 9270SOL     OW39271   3.629   0.797   3.932  0.1363  0.6048  0.5546
 9270SOL    HW139272   3.662   0.767   4.017 -0.5644  0.3214  0.7282
 9270SOL    HW239273   3.537   0.805   3.958 -1.2248 -0.9381 -3.7159
 9271SOL     OW39274   0.977   3.279   5.070  0.1206  0.3104 -0.1708
 9271SOL    HW139275   1.069   3.296   5.089  0.1609 -1.8330  1.5228
 9271SOL    HW239276   0.969   3.185   5.086  2.5215  0.8003  3.9429
 9272SOL     OW39277   2.584   1.961  15.235 -0.6095 -0.7424  0.0133
 9272SOL    HW139278   2.489   1.968  15.232 -0.5768 -0.5964 -0.7376
 9272SOL    HW239279   2.583   1.865  15.235 -0.9896 -0.7305  2.0199
 9273SOL     OW39280   2.682   0.382  13.176  0.9980  0.5458  0.0777
 9273SOL    HW139281   2.760   0.364  13.229  0.9589  0.8491  0.2392
 9273SOL    HW239282   2.713   0.447  13.113 -0.9135 -0.6474 -2.0812
 9274SOL     OW39283   0.084   2.863   0.342  0.5370  0.5305  0.1716
 9274SOL    HW139284   0.114   2.780   0.306  3.1107  1.8535 -0.6721
 9274SOL    HW239285   4.714   2.853   0.358  0.5581 -1.6661 -1.0952
 9275SOL     OW39286   1.659   2.562   8.312 -0.0767 -0.1945  0.0784
 9275SOL    HW139287   1.706   2.640   8.343 -1.1129  0.1454  0.7777
 9275SOL    HW239288   1.702   2.555   8.227 -1.9253 -1.1526 -0.7690
 9276SOL     OW39289   3.727   3.049   4.946  0.2839 -0.1060  0.4704
 9276SOL    HW139290   3.692   3.069   4.859  0.3841  1.1465  0.7262
 9276SOL    HW239291   3.674   2.970   4.962  2.5880 -1.4520  1.5886
 9277SOL     OW39292   0.067   0.821   9.436  0.4303  0.0248  0.1057
 9277SOL    HW139293   4.703   0.851   9.415  0.7724  1.8955  1.3431
 9277SOL    HW239294   0.106   0.891   9.488 -2.7331 -0.3168  2.9505
 9278SOL     OW39295   2.062   3.340   4.170  0.2464 -0.1239 -0.5853
 9278SOL    HW139296   2.091   3.351   4.261 -0.2342 -1.9672 -0.2114
 9278SOL    HW239297   1.991   3.404   4.168 -0.0930 -0.4232  1.6021
 9279SOL     OW39298   2.900   0.732   7.987 -0.1794 -0.2630 -0.2233
 9279SOL    HW139299   2.878   0.640   8.001 -0.5230 -0.3940 -1.5928
 9279SOL    HW239300   2.869   0.740   7.896 -0.0376 -0.1113 -0.2577
 9280SOL     OW39301   3.553   0.228   0.359  0.1378 -0.1607 -0.7219
 9280SOL    HW139302   3.554   0.172   0.281  2.1920 -0.7327 -0.2991
 9280SOL    HW239303   3.503   0.173   0.419 -1.9739  1.3834 -1.0525
 9281SOL     OW39304   4.370   4.509   4.780 -0.2928  0.1025 -0.3560
 9281SOL    HW139305   4.341   4.568   4.849 -3.7611 -3.4471  1.2580
 9281SOL    HW239306   4.286   4.506   4.734 -0.0501 -2.5111 -0.6067
 9282SOL     OW39307   2.890   0.371   0.611  0.0695  0.3546 -0.1631
 9282SOL    HW139308   2.893   0.399   0.703 -0.2139  0.2940 -0.1353
 9282SOL    HW239309   2.833   0.296   0.628 -1.9017  1.6752 -0.8403
 9283SOL     OW39310   0.095   0.806   2.950  0.3239  0.1004 -0.1162
 9283SOL    HW139311   0.165   0.840   3.005  0.5428  0.1300 -0.4138
 9283SOL    HW239312   0.138   0.810   2.864 -0.5451 -1.7048 -0.6418
 9284SOL     OW39313   4.516   1.698   9.143 -0.4115  0.5460 -0.4906
 9284SOL    HW139314   4.473   1.730   9.064 -0.7077 -0.0431 -0.5723
 9284SOL    HW239315   4.456   1.742   9.204  0.6342  0.7696  0.3770
 9285SOL     OW39316   3.875   0.645   4.441  0.1481  0.0215  0.6560
 9285SOL    HW139317   3.922   0.641   4.524 -1.1087 -0.0851  1.3680
 9285SOL    HW239318   3.796   0.677   4.485 -0.9329 -0.9285 -0.5848
 9286SOL     OW39319   1.609   0.469  10.095 -0.1493  0.1627 -0.0888
 9286SOL    HW139320   1.637   0.484  10.186 -2.4405  0.4265  0.5829
 9286SOL    HW239321   1.671   0.402  10.067  0.8344  1.2784 -0.5613
 9287SOL     OW39322   2.805   1.914   1.716  0.2696 -0.1207  0.0730
 9287SOL    HW139323   2.819   2.005   1.692  0.1146  0.0960  0.8225
 9287SOL    HW239324   2.838   1.904   1.806  0.3634 -0.1727  0.0334
 9288SOL     OW39325   3.830   2.988   7.034  0.3086  0.4953 -0.7842
 9288SOL    HW139326   3.852   3.058   7.095  0.4728 -0.1507 -0.1017
 9288SOL    HW239327   3.920   2.963   7.013 -0.1341 -1.1767 -0.6990
 9289SOL     OW39328   1.734   3.456   1.807 -0.5731 -0.7787  0.1740
 9289SOL    HW139329   1.771   3.426   1.890 -2.1318  0.8224  1.4335
 9289SOL    HW239330   1.796   3.522   1.773  0.5150 -1.6503  0.4671
 9290SOL     OW39331   2.628   3.657   4.251  0.5223 -0.1660 -0.1344
 9290SOL    HW139332   2.689   3.625   4.184  1.6517  0.3826  0.6263
 9290SOL    HW239333   2.587   3.727   4.201  2.2242  1.8167  1.2333
 9291SOL     OW39334   1.793   4.536   4.283 -0.2339 -0.0031 -0.0325
 9291SOL    HW139335   1.855   4.590   4.333 -1.2986  2.2106 -1.0765
 9291SOL    HW239336   1.782   4.574   4.195  3.5948 -0.8055 -0.8589
 9292SOL     OW39337   4.132   1.673  12.863 -0.2998  0.4114  0.4146
 9292SOL    HW139338   4.221   1.639  12.868 -0.9336 -1.0576  1.3759
 9292SOL    HW239339   4.085   1.590  12.865  1.4377 -0.6477 -2.1180
 9293SOL     OW39340   1.337   1.843   7.904 -0.3916  0.4261  0.2901
 9293SOL    HW139341   1.367   1.858   7.994 -2.3814 -1.5836  1.3140
 9293SOL    HW239342   1.252   1.887   7.897 -1.2603 -1.1414  0.9100
 9294SOL     OW39343   1.227   1.177   1.952  0.2586  0.2748  0.0063
 9294SOL    HW139344   1.135   1.194   1.933  0.6043  1.0608 -0.9402
 9294SOL    HW239345   1.267   1.258   1.922  0.9787 -0.2087 -0.3355
 9295SOL     OW39346   1.243   2.462  14.846 -0.4355  0.3267  0.6743
 9295SOL    HW139347   1.307   2.393  14.862 -0.0412  0.7368  0.8832
 9295SOL    HW239348   1.237   2.491  14.937  0.9557 -1.5235  1.3512
 9296SOL     OW39349   2.082   3.901  13.429  0.0715  0.2754 -0.6910
 9296SOL    HW139350   2.022   3.917  13.502 -1.0592 -1.3635 -1.2704
 9296SOL    HW239351   2.141   3.974  13.444 -0.2074  0.4970 -0.6773
 9297SOL     OW39352   2.900   0.728  15.854  0.1691 -0.5638  0.4705
 9297SOL    HW139353   2.832   0.662  15.842  0.7228 -1.0425 -0.0403
 9297SOL    HW239354   2.876   0.767  15.938 -0.1055  1.7434 -0.6713
 9298SOL     OW39355   1.373   2.007   7.682  0.9326 -0.2840  0.5477
 9298SOL    HW139356   1.447   2.060   7.710  0.6791 -0.3420  1.3257
 9298SOL    HW239357   1.359   1.931   7.738  2.8838 -0.9490  0.1349
 9299SOL     OW39358   3.442   2.260   6.970  0.1354 -0.0870  0.5222
 9299SOL    HW139359   3.382   2.325   7.005  1.1496  1.9654 -1.5722
 9299SOL    HW239360   3.495   2.311   6.909 -0.8502 -0.0825 -0.3435
 9300SOL     OW39361   3.945   1.626   4.833  0.5422 -0.9343  0.5953
 9300SOL    HW139362   3.991   1.704   4.862  0.2970 -0.6359  0.1800
 9300SOL    HW239363   4.000   1.562   4.879  1.3847  0.5403  1.6347
 9301SOL     OW39364   3.090   3.549  12.559  0.0803  0.0698  0.4343
 9301SOL    HW139365   2.999   3.576  12.574 -1.0745 -1.6687 -3.6819
 9301SOL    HW239366   3.134   3.629  12.528  2.6881 -1.6104 -0.1944
 9302SOL     OW39367   3.179   3.602   4.225  0.0975 -0.5380 -0.1395
 9302SOL    HW139368   3.111   3.658   4.186 -1.7002 -1.0920  2.1805
 9302SOL    HW239369   3.147   3.516   4.199 -2.5921 -0.6306  3.5403
 9303SOL     OW39370   4.413   3.927   2.213  0.1000  0.6546 -0.2969
 9303SOL    HW139371   4.463   3.898   2.137  1.5773  1.9771  0.1675
 9303SOL    HW239372   4.422   3.855   2.276 -3.8463  0.4592  0.0316
 9304SOL     OW39373   2.421   3.374  16.141  0.1892 -0.1116 -0.0713
 9304SOL    HW139374   2.457   3.458  16.166 -2.0059  0.9769 -0.5849
 9304SOL    HW239375   2.336   3.401  16.106  0.3383  1.9234  1.1987
 9305SOL     OW39376   3.139   2.496   9.147  0.0962 -0.0481 -0.1503
 9305SOL    HW139377   3.209   2.435   9.171  1.7947  1.5876 -0.9453
 9305SOL    HW239378   3.118   2.544   9.227  1.0254 -0.5986  0.4223
 9306SOL     OW39379   2.924   1.632   4.545 -0.0312 -0.2427 -0.3018
 9306SOL    HW139380   2.831   1.611   4.560 -0.6709  2.6106 -0.2114
 9306SOL    HW239381   2.915   1.725   4.528 -0.4454 -0.0596  0.8829
 9307SOL     OW39382   0.378   1.863   6.450  0.0168  0.5219 -0.1799
 9307SOL    HW139383   0.467   1.898   6.463 -0.5181  1.4456  1.0341
 9307SOL    HW239384   0.366   1.812   6.530  0.2414  0.0749 -0.4363
 9308SOL     OW39385   4.052   4.165   7.946  0.5028  0.0793 -0.0063
 9308SOL    HW139386   3.985   4.144   7.882 -0.4800  0.9816  0.7293
 9308SOL    HW239387   4.117   4.095   7.940  1.0735  0.3700  2.6115
 9309SOL     OW39388   0.753   0.874   7.691 -0.4397  0.2481  0.2664
 9309SOL    HW139389   0.817   0.943   7.708  0.0307 -0.1320  0.0234
 9309SOL    HW239390   0.799   0.802   7.735 -2.3761 -1.6654 -0.8223
 9310SOL     OW39391   2.452   0.770  12.449 -0.2292 -0.0773  0.2178
 9310SOL    HW139392   2.422   0.683  12.425  1.4299 -1.5283  3.3940
 9310SOL    HW239393   2.372   0.821  12.435 -0.6835 -0.5212  1.1714
 9311SOL     OW39394   1.693   0.524   5.946  0.1490  0.2936  0.0465
 9311SOL    HW139395   1.662   0.437   5.973  1.3997 -0.0745  0.2969
 9311SOL    HW239396   1.767   0.505   5.888 -0.3420  0.6651 -0.7047
 9312SOL     OW39397   0.006   1.707  15.938 -0.0245  0.0926 -0.4418
 9312SOL    HW139398   0.074   1.746  15.992  0.4284  0.7860 -1.5072
 9312SOL    HW239399   4.673   1.685  16.011  0.2168 -0.3985 -0.4003
 9313SOL     OW39400   3.011   1.735  17.623  0.2224 -0.0972  0.2331
 9313SOL    HW139401   2.988   1.711   0.014  1.1758 -0.5907  0.3460
 9313SOL    HW239402   3.096   1.690  17.628  1.1034  1.8745  2.7393
 9314SOL     OW39403   3.957   2.098   1.283 -0.1341 -0.1504  0.1905
 9314SOL    HW139404   3.879   2.067   1.329  0.0503 -0.2476  0.4399
 9314SOL    HW239405   3.931   2.110   1.192 -1.3227  1.5115  0.7506
 9315SOL     OW39406   0.245   2.524   3.313  0.0445 -0.5402  0.5991
 9315SOL    HW139407   0.150   2.516   3.326  0.3449 -2.2134  1.7292
 9315SOL    HW239408   0.255   2.593   3.247 -0.2128  0.0209  1.1459
 9316SOL     OW39409   2.837   1.199   2.670 -0.2043  0.0711 -0.2791
 9316SOL    HW139410   2.862   1.114   2.632 -0.5354  0.2144 -0.8149
 9316SOL    HW239411   2.870   1.267   2.612 -2.2071  1.8821  0.7222
 9317SOL     OW39412   1.415   1.988   8.945  0.1451 -0.0213 -0.1868
 9317SOL    HW139413   1.397   1.895   8.958  0.0623  0.1066  0.6306
 9317SOL    HW239414   1.336   2.023   8.987 -1.1815 -0.0754 -2.6862
 9318SOL     OW39415   2.594   1.052   4.777  0.6330 -0.0410  0.1994
 9318SOL    HW139416   2.614   1.110   4.703 -0.3148 -1.0005 -0.8224
 9318SOL    HW239417   2.516   1.097   4.809  0.7038  1.4358 -1.7304
 9319SOL     OW39418   3.026   0.037   7.568 -0.1802  0.2226 -0.5533
 9319SOL    HW139419   2.940   0.044   7.527 -0.2107 -1.9433 -0.8497
 9319SOL    HW239420   3.006   0.049   7.661 -1.6187 -3.1818 -0.4296
 9320SOL     OW39421   4.426   0.823   9.630 -0.1338 -0.3449 -0.1575
 9320SOL    HW139422   4.456   0.733   9.618  1.1252 -0.2994  2.5112
 9320SOL    HW239423   4.474   0.868   9.561 -0.2059  0.1110  0.0934
 9321SOL     OW39424   1.489   4.138  13.606 -0.2057 -0.9948  0.0692
 9321SOL    HW139425   1.429   4.095  13.667  1.0129  1.1294  2.7546
 9321SOL    HW239426   1.574   4.111  13.640 -0.9277 -0.3349  2.3876
 9322SOL     OW39427   3.511   1.789   1.847 -0.0733  0.7163  0.5531
 9322SOL    HW139428   3.490   1.869   1.799  0.1584  0.5168  0.1203
 9322SOL    HW239429   3.601   1.807   1.876 -0.2347 -0.8329  1.9782
 9323SOL     OW39430   2.893   3.045   4.063  0.7380 -0.3572 -0.9505
 9323SOL    HW139431   2.800   3.041   4.045  0.3210 -0.6117  1.1885
 9323SOL    HW239432   2.919   3.108   3.996  0.5979  0.6747 -0.0433
 9324SOL     OW39433   0.466   0.610  16.781  0.6502 -0.3698 -0.1721
 9324SOL    HW139434   0.464   0.553  16.704  0.5696 -1.4956  0.6726
 9324SOL    HW239435   0.379   0.585  16.814  0.5655  1.1857  0.7648
 9325SOL     OW39436   3.305   0.498  13.652  0.0336 -0.2196  0.7450
 9325SOL    HW139437   3.399   0.479  13.662 -0.1553 -0.5566  1.8293
 9325SOL    HW239438   3.280   0.434  13.586 -1.1230  2.5576 -1.5393
 9326SOL     OW39439   0.764   0.474   6.655 -0.4521  0.6099  0.7931
 9326SOL    HW139440   0.809   0.458   6.738  5.4229  0.3572 -2.4251
 9326SOL    HW239441   0.681   0.432   6.676  0.0582 -0.2679  1.0635
 9327SOL     OW39442   1.778   0.935   3.573  0.3795  0.1678  0.0273
 9327SOL    HW139443   1.871   0.910   3.574  0.6153  1.0953  2.5051
 9327SOL    HW239444   1.741   0.883   3.502 -0.2695  2.0571 -1.0137
 9328SOL     OW39445   1.790   4.234  10.108  0.1664 -0.6067  0.1085
 9328SOL    HW139446   1.851   4.184  10.161  0.7012 -0.0527  0.0119
 9328SOL    HW239447   1.716   4.253  10.167  0.3607  3.1731 -0.8602
 9329SOL     OW39448   3.440   3.377   2.345  0.0070 -0.2563 -0.0701
 9329SOL    HW139449   3.467   3.467   2.361  3.2871 -0.8939 -2.0586
 9329SOL    HW239450   3.513   3.336   2.391  0.5982  2.4089  1.3900
 9330SOL     OW39451   1.671   3.461   0.509  0.4158  0.0922  0.7576
 9330SOL    HW139452   1.682   3.473   0.414 -3.4950 -3.0850 -0.0652
 9330SOL    HW239453   1.760   3.473   0.542  1.0070  1.7806 -1.4388
 9331SOL     OW39454   1.923   0.545   7.976  0.1776  0.1697 -0.0483
 9331SOL    HW139455   1.970   0.522   8.056  0.5723  1.3120  0.0378
 9331SOL    HW239456   1.854   0.480   7.964  2.6695 -2.3978 -0.5247
 9332SOL     OW39457   2.075   4.281   7.120 -0.7821 -0.6382 -0.1555
 9332SOL    HW139458   2.026   4.360   7.142 -1.8318 -1.8963  1.8980
 9332SOL    HW239459   2.044   4.215   7.181 -0.5114  1.0270  1.7555
 9333SOL     OW39460   3.660   4.172  14.624 -0.3755 -0.4522 -0.1103
 9333SOL    HW139461   3.645   4.219  14.542  0.7178  0.3498  0.1473
 9333SOL    HW239462   3.614   4.233  14.681 -0.2069  1.5344 -2.0952
 9334SOL     OW39463   0.600   2.690   8.843  0.2247  0.3937 -0.3840
 9334SOL    HW139464   0.548   2.750   8.898  1.5039  2.2318 -1.2048
 9334SOL    HW239465   0.689   2.707   8.873 -0.3818 -0.8238  2.1147
 9335SOL     OW39466   1.083   4.063   7.701 -0.1052 -0.4730 -0.1971
 9335SOL    HW139467   1.086   3.967   7.706 -1.9075 -0.4428  1.3282
 9335SOL    HW239468   0.995   4.083   7.670 -0.6447 -1.7293  0.5013
 9336SOL     OW39469   1.288   3.216   6.025  0.1315 -0.2100  0.2078
 9336SOL    HW139470   1.378   3.245   6.015 -1.2447  4.1429  0.4638
 9336SOL    HW239471   1.252   3.271   5.955 -0.3882 -0.6791  0.1079
 9337SOL     OW39472   1.885   4.390   5.503  0.0986 -0.3343 -0.1946
 9337SOL    HW139473   1.872   4.345   5.587  0.8659 -1.0901 -0.4807
 9337SOL    HW239474   1.807   4.445   5.502  0.5478  0.3370  1.5392
 9338SOL     OW39475   2.771   3.458   8.803  0.4633  0.1353  0.1453
 9338SOL    HW139476   2.676   3.469   8.807  0.6364  1.3572  0.8405
 9338SOL    HW239477   2.783   3.372   8.843 -2.1055 -0.1276  0.3673
 9339SOL     OW39478   2.039   0.843   2.678 -0.4110  0.2776  0.3710
 9339SOL    HW139479   1.977   0.773   2.699 -2.0869  1.3982 -0.9045
 9339SOL    HW239480   2.110   0.819   2.738  0.7116 -1.4925 -1.6294
 9340SOL     OW39481   0.953   2.801   1.877  0.7037 -0.4295 -0.5046
 9340SOL    HW139482   0.964   2.860   1.802 -1.7347 -0.6741 -1.0616
 9340SOL    HW239483   0.877   2.835   1.924  0.8853 -1.3130  0.4161
 9341SOL     OW39484   2.194   0.380   5.799 -0.8257 -0.0303 -0.6225
 9341SOL    HW139485   2.205   0.311   5.864  0.7661 -1.2716 -2.1820
 9341SOL    HW239486   2.272   0.366   5.744 -0.6533  1.4248 -0.7538
 9342SOL     OW39487   3.800   0.157  14.234  0.3684  0.1892  0.4599
 9342SOL    HW139488   3.773   0.221  14.168  2.8297  0.4736 -0.2363
 9342SOL    HW239489   3.721   0.103  14.224 -0.4676  0.9026  3.1594
 9343SOL     OW39490   3.602   4.012   6.312  0.2052 -0.0809  0.2546
 9343SOL    HW139491   3.639   4.030   6.225 -1.0483 -0.2353 -0.3126
 9343SOL    HW239492   3.652   3.938   6.347  0.6165 -0.0171 -0.1854
 9344SOL     OW39493   3.376   3.422  17.580  0.3716 -0.3954 -0.0665
 9344SOL    HW139494   3.443   3.404  17.514 -0.0933 -1.9032 -0.1249
 9344SOL    HW239495   3.400   3.355  17.644 -0.9386  1.0924  1.9820
 9345SOL     OW39496   2.811   4.028   3.662  0.1609  0.2153 -0.0400
 9345SOL    HW139497   2.742   4.093   3.678  0.9840  1.2236 -0.5693
 9345SOL    HW239498   2.841   4.066   3.579  3.7256 -1.2466  0.5453
 9346SOL     OW39499   2.376   0.469   4.277 -1.0107  0.2201 -0.5159
 9346SOL    HW139500   2.460   0.480   4.232  0.1328  0.6880  1.7338
 9346SOL    HW239501   2.345   0.557   4.296 -2.3196  0.0547 -1.9222
 9347SOL     OW39502   1.533   2.582  11.073 -0.6516 -0.7449 -0.8980
 9347SOL    HW139503   1.563   2.585  10.983  2.8470  1.2278  0.3585
 9347SOL    HW239504   1.567   2.497  11.098  1.4637 -0.1660 -1.8770
 9348SOL     OW39505   2.293   0.749   2.748 -0.2417  0.4384 -0.1762
 9348SOL    HW139506   2.262   0.660   2.767  2.0990 -0.5817 -1.1001
 9348SOL    HW239507   2.386   0.741   2.770 -0.1789  2.3646  0.1794
 9349SOL     OW39508   0.603   2.159   3.262 -0.1067  0.3460 -0.0143
 9349SOL    HW139509   0.632   2.250   3.256  0.4373  0.3149  1.9421
 9349SOL    HW239510   0.609   2.146   3.357 -0.6761 -0.0650 -0.0311
 9350SOL     OW39511   4.495   3.440  17.209 -0.2820  0.4208 -0.1551
 9350SOL    HW139512   4.580   3.402  17.190 -0.7747 -1.4899  1.5209
 9350SOL    HW239513   4.500   3.510  17.144  1.4019 -0.1117 -0.5976
 9351SOL     OW39514   3.114   4.601   4.096 -0.2580 -0.3159 -0.3713
 9351SOL    HW139515   3.125   4.513   4.132 -1.2901 -0.6428 -0.8524
 9351SOL    HW239516   3.019   4.595   4.084 -0.5012  0.0463  1.3379
 9352SOL     OW39517   0.007   1.517  13.629  0.1003  0.1485 -0.1153
 9352SOL    HW139518   0.019   1.583  13.698 -2.1279  0.2586  0.1745
 9352SOL    HW239519   4.647   1.549  13.599 -0.1276 -0.1368  0.2266
 9353SOL     OW39520   1.868   4.177   6.065  0.0763 -0.2160 -0.1402
 9353SOL    HW139521   1.876   4.270   6.043  2.9654 -0.1992  1.0338
 9353SOL    HW239522   1.960   4.151   6.068 -0.2062 -0.7629  3.8142
 9354SOL     OW39523   1.938   2.836   8.626 -0.0275  0.1612  0.3280
 9354SOL    HW139524   2.018   2.883   8.648  0.3681 -0.6943  0.7169
 9354SOL    HW239525   1.938   2.770   8.695  0.1832 -0.0388  0.1367
 9355SOL     OW39526   0.668   2.219  10.435  0.1400  0.1651  0.1223
 9355SOL    HW139527   0.588   2.270  10.427  0.4435  0.5222 -0.6435
 9355SOL    HW239528   0.737   2.284  10.429  3.3250 -3.1583  0.3070
 9356SOL     OW39529   4.277   0.922   5.100 -0.0720 -0.1363 -0.1577
 9356SOL    HW139530   4.266   0.905   5.006  1.3133 -1.0876 -0.1509
 9356SOL    HW239531   4.199   0.975   5.117  0.0945 -0.0027  0.1884
 9357SOL     OW39532   1.717   2.517  12.095  0.2278 -0.5068  0.5882
 9357SOL    HW139533   1.762   2.537  12.014  0.9206 -1.3853  0.7615
 9357SOL    HW239534   1.633   2.555  12.069  0.9351 -0.3651 -1.5030
 9358SOL     OW39535   0.119   4.629  16.107  0.1069  0.5547  0.0360
 9358SOL    HW139536   0.128   4.702  16.169 -0.3255 -0.1145  0.8939
 9358SOL    HW239537   0.186   4.639  16.039  0.0302  0.8001 -0.0004
 9359SOL     OW39538   3.657   2.178   1.547 -0.4224  0.1303  0.1074
 9359SOL    HW139539   3.613   2.263   1.543  0.4268  0.4684 -2.0490
 9359SOL    HW239540   3.660   2.156   1.454 -1.5830  2.1665 -0.4209
 9360SOL     OW39541   4.097   1.393   9.521 -0.3614  0.4103  0.3319
 9360SOL    HW139542   4.038   1.465   9.546  0.7757  2.2789 -2.2823
 9360SOL    HW239543   4.180   1.440   9.526  0.4879 -1.1215  0.3432
 9361SOL     OW39544   4.252   3.189   9.972  0.2474  0.1146 -0.2662
 9361SOL    HW139545   4.265   3.162   9.881 -1.0863  0.0696 -0.4546
 9361SOL    HW239546   4.318   3.257   9.979 -1.1714  1.2549  2.2621
 9362SOL     OW39547   2.094   2.110   4.426  0.2452 -0.2855 -0.0719
 9362SOL    HW139548   2.068   2.157   4.505 -2.0701  1.8044 -2.1064
 9362SOL    HW239549   2.031   2.038   4.421  0.0831 -0.1569  0.1183
 9363SOL     OW39550   3.301   0.309   8.191 -0.3712 -0.2657 -0.1849
 9363SOL    HW139551   3.378   0.257   8.210 -0.8111 -1.1994 -0.9994
 9363SOL    HW239552   3.321   0.393   8.234  0.7129 -0.6805  0.1039
 9364SOL     OW39553   3.569   4.504   7.395 -0.1977 -0.2361  0.4421
 9364SOL    HW139554   3.597   4.460   7.475  3.5279 -0.7897 -1.1486
 9364SOL    HW239555   3.512   4.574   7.426 -0.9698 -1.1555  1.0926
 9365SOL     OW39556   4.135   1.778  12.348  0.3024  0.1312 -0.1644
 9365SOL    HW139557   4.203   1.845  12.339 -0.6825  0.8541 -2.2412
 9365SOL    HW239558   4.128   1.785  12.443 -1.9597  1.3595 -0.4240
 9366SOL     OW39559   3.906   0.640  10.390 -0.1041 -0.6299 -0.0641
 9366SOL    HW139560   3.921   0.718  10.337 -2.0126  0.3590  0.8899
 9366SOL    HW239561   3.929   0.578  10.321 -0.1636  0.7103 -1.2835
 9367SOL     OW39562   3.661   0.379  14.720 -0.4691  0.6462  0.1776
 9367SOL    HW139563   3.688   0.445  14.784 -2.8527 -0.0111  1.8681
 9367SOL    HW239564   3.640   0.435  14.645 -0.8355  0.1842 -0.0663
 9368SOL     OW39565   4.448   3.955   5.899 -0.0092 -0.2917  0.1490
 9368SOL    HW139566   4.415   4.007   5.973 -0.2599  0.0061 -0.1693
 9368SOL    HW239567   4.456   4.025   5.834 -0.9035 -0.9534 -0.6806
 9369SOL     OW39568   0.195   3.639   8.553 -0.6796 -0.4108  0.5406
 9369SOL    HW139569   0.132   3.628   8.624 -0.5211 -0.6043  0.6523
 9369SOL    HW239570   0.248   3.714   8.579 -0.7924  0.0301 -0.4993
 9370SOL     OW39571   0.408   0.016   8.253  0.1262  0.1068 -0.5816
 9370SOL    HW139572   0.370   0.047   8.171 -1.6718  0.5180  0.3982
 9370SOL    HW239573   0.325   4.718   8.294  0.2978 -2.5195 -1.6840
 9371SOL     OW39574   0.893   2.206  12.039  0.2072  0.0425  0.4596
 9371SOL    HW139575   0.950   2.131  12.025 -0.2772 -0.1484 -0.5105
 9371SOL    HW239576   0.814   2.152  12.030 -0.3470  0.6239  1.8583
 9372SOL     OW39577   4.619   1.869   4.485 -0.5726  0.0013 -0.4892
 9372SOL    HW139578   4.665   1.907   4.559  0.5280  0.3368 -1.3389
 9372SOL    HW239579   4.530   1.867   4.518  0.1177  1.0259  1.4161
 9373SOL     OW39580   3.532   2.302   8.599  0.2592 -0.0917 -0.0777
 9373SOL    HW139581   3.498   2.267   8.517 -0.3101  0.6223 -0.1429
 9373SOL    HW239582   3.605   2.347   8.556  0.1289  1.3280  1.2129
 9374SOL     OW39583   2.010   1.407   2.419 -0.6417  0.3774  0.4258
 9374SOL    HW139584   2.018   1.353   2.340  0.2725 -0.8418  1.3479
 9374SOL    HW239585   1.952   1.357   2.475 -2.1870  1.2954 -0.3554
 9375SOL     OW39586   4.165   2.457   8.466  0.2110 -0.0162  0.2196
 9375SOL    HW139587   4.071   2.452   8.448 -0.1733 -3.1344  3.0378
 9375SOL    HW239588   4.200   2.375   8.430  0.7221 -0.5642  1.9319
 9376SOL     OW39589   1.299   4.365   4.307  0.9230 -1.0572  1.1238
 9376SOL    HW139590   1.297   4.276   4.273  0.7589 -0.3057 -0.8632
 9376SOL    HW239591   1.346   4.430   4.254 -2.3922  0.3950 -0.0586
 9377SOL     OW39592   3.904   0.739   0.950  0.2381 -0.2215 -0.8152
 9377SOL    HW139593   3.988   0.694   0.957 -0.5602 -1.4060  1.1867
 9377SOL    HW239594   3.859   0.675   0.895 -1.6205  0.7546 -0.4256
 9378SOL     OW39595   0.773   4.427   7.018 -0.0008 -0.2415 -0.1087
 9378SOL    HW139596   0.839   4.449   7.085 -0.0672  0.8742 -0.4105
 9378SOL    HW239597   0.717   4.504   7.010  0.2397  0.0436  0.9668
 9379SOL     OW39598   2.400   1.788  14.660  0.0454 -0.0319  0.3498
 9379SOL    HW139599   2.428   1.789  14.751  1.5750 -0.9598 -0.1004
 9379SOL    HW239600   2.331   1.853  14.648  0.8243  0.4509 -1.6719
 9380SOL     OW39601   0.141   4.291  17.353  0.2514  0.1390  0.5005
 9380SOL    HW139602   0.133   4.234  17.276 -2.2054 -0.7845  1.4438
 9380SOL    HW239603   0.100   4.368  17.313  0.0546 -0.5297 -0.6069
 9381SOL     OW39604   4.486   4.719   5.509 -0.1440 -0.5222  0.1209
 9381SOL    HW139605   4.548   0.067   5.505 -1.0093  0.1751 -0.6027
 9381SOL    HW239606   4.415   0.037   5.557 -0.0595 -0.9673  0.6426
 9382SOL     OW39607   0.624   0.448   3.877 -0.3182  0.6443 -0.1203
 9382SOL    HW139608   0.676   0.386   3.927 -0.7221  0.3291 -0.0919
 9382SOL    HW239609   0.573   0.501   3.939 -0.3656  0.5175 -0.0507
 9383SOL     OW39610   0.973   2.244   8.711  0.6944 -0.1233  0.3520
 9383SOL    HW139611   0.963   2.190   8.789  0.1413 -1.1360 -0.4310
 9383SOL    HW239612   0.939   2.327   8.744 -0.4158 -0.9873  1.4052
 9384SOL     OW39613   0.134   4.074   4.803  0.3200  0.2083 -0.2049
 9384SOL    HW139614   0.082   4.091   4.882  0.0777 -0.5369 -0.2041
 9384SOL    HW239615   0.080   4.117   4.736 -0.6336 -1.4617 -0.4937
 9385SOL     OW39616   0.404   1.528   5.365  0.2440 -0.4476  0.2403
 9385SOL    HW139617   0.487   1.531   5.413  0.1920  0.1133  0.3050
 9385SOL    HW239618   0.410   1.610   5.316 -0.5263 -1.6387 -1.8458
 9386SOL     OW39619   4.296   1.393   7.220  0.0791  0.2761 -0.2637
 9386SOL    HW139620   4.291   1.477   7.266  1.7026  0.6655 -0.8209
 9386SOL    HW239621   4.254   1.412   7.137 -1.0625 -0.7249  0.0836
 9387SOL     OW39622   2.890   1.428  17.633 -0.3565  0.0005 -0.0229
 9387SOL    HW139623   2.875   1.480   0.013 -2.2246 -0.8490  0.1812
 9387SOL    HW239624   2.919   1.346  17.673  2.9457  1.1525 -0.0593
 9388SOL     OW39625   1.570   1.842   7.170 -0.5767  0.1450 -0.6961
 9388SOL    HW139626   1.491   1.807   7.211 -0.2006  0.9721  0.7153
 9388SOL    HW239627   1.537   1.903   7.104  1.2678  1.8901  0.0135
 9389SOL     OW39628   0.646   0.799   9.160  0.6780  0.1063  0.3575
 9389SOL    HW139629   0.707   0.873   9.158 -0.0875  0.7201 -0.3019
 9389SOL    HW239630   0.679   0.741   9.092  2.0209 -2.3102  3.0375
 9390SOL     OW39631   4.271   0.229  15.244 -0.6846 -0.3369 -0.4579
 9390SOL    HW139632   4.272   0.135  15.229  1.2819 -0.2221 -1.0008
 9390SOL    HW239633   4.292   0.235  15.337  1.5122 -0.4044 -0.9651
 9391SOL     OW39634   2.591   3.359  16.512 -0.2665  0.0773 -0.2863
 9391SOL    HW139635   2.501   3.348  16.482 -0.1987 -0.1575 -0.4000
 9391SOL    HW239636   2.633   3.305  16.446 -0.6225 -1.6021  0.8556
 9392SOL     OW39637   3.093   4.242   3.824 -0.6884  0.2524 -0.3533
 9392SOL    HW139638   3.141   4.191   3.759  0.7728  0.1949  0.7745
 9392SOL    HW239639   3.155   4.293   3.876 -0.1371  0.5020 -1.2578
 9393SOL     OW39640   2.691   1.914  11.773  0.4934  0.0108  0.1905
 9393SOL    HW139641   2.758   1.893  11.708  1.0671  3.5123 -0.3025
 9393SOL    HW239642   2.616   1.939  11.720  1.6325  0.3189 -1.2835
 9394SOL     OW39643   1.602   3.658   8.053 -0.2829  0.1283 -1.0706
 9394SOL    HW139644   1.585   3.737   8.105  0.2931 -1.0451  0.8654
 9394SOL    HW239645   1.663   3.623   8.118 -0.8151 -0.0183 -0.6524
 9395SOL     OW39646   0.841   4.492   5.266 -0.1982  0.3396  0.1667
 9395SOL    HW139647   0.761   4.467   5.312  0.6534 -1.8691  0.4426
 9395SOL    HW239648   0.902   4.510   5.337  0.6836 -3.0347  0.2556
 9396SOL     OW39649   3.673   1.256   7.522 -0.0142  0.1002 -0.6030
 9396SOL    HW139650   3.639   1.336   7.481  0.0415  0.8592  0.8421
 9396SOL    HW239651   3.621   1.249   7.602  3.5034 -1.8646  1.4818
 9397SOL     OW39652   2.542   0.142   8.027 -0.3389  0.1774 -0.8146
 9397SOL    HW139653   2.446   0.147   8.029 -0.3506 -0.6361  0.9970
 9397SOL    HW239654   2.556   0.211   7.963  3.5174 -0.3929 -0.5562
 9398SOL     OW39655   1.468   2.374   0.463 -0.3900 -0.1033  0.2246
 9398SOL    HW139656   1.471   2.445   0.399 -0.2197 -0.7070 -0.4380
 9398SOL    HW239657   1.377   2.378   0.491 -1.4819  3.5021 -3.8167
 9399SOL     OW39658   0.389   1.889   4.281  0.2050  0.5322 -0.1221
 9399SOL    HW139659   0.467   1.919   4.235  0.1405 -0.6318 -0.9817
 9399SOL    HW239660   0.431   1.811   4.319 -1.2915  0.1840  0.8219
 9400SOL     OW39661   3.537   0.299  13.422  0.2709  0.7075 -0.1077
 9400SOL    HW139662   3.513   0.308  13.514 -2.2929  1.3603 -0.8239
 9400SOL    HW239663   3.458   0.339  13.386 -1.0876 -0.6720  1.3279
 9401SOL     OW39664   0.385   0.691   6.852  0.4163 -0.3453  0.0244
 9401SOL    HW139665   0.466   0.703   6.801  0.7515 -0.6259  0.4875
 9401SOL    HW239666   0.318   0.734   6.799 -0.8087 -2.1348  0.1424
 9402SOL     OW39667   2.516   1.461  15.063 -0.5091 -0.0751  0.1398
 9402SOL    HW139668   2.538   1.400  14.993 -0.3823 -0.1077  0.2085
 9402SOL    HW239669   2.460   1.403  15.115 -0.3094  1.2668  1.8523
 9403SOL     OW39670   3.538   0.486   2.879 -0.1976 -0.1742 -0.3331
 9403SOL    HW139671   3.558   0.416   2.817 -0.0892  0.3466 -0.8994
 9403SOL    HW239672   3.448   0.513   2.860 -0.1906  0.7796  1.0304
 9404SOL     OW39673   0.951   1.347  10.362  0.1779 -0.8335  0.1562
 9404SOL    HW139674   1.017   1.291  10.402 -0.3376 -1.3587  0.2818
 9404SOL    HW239675   0.923   1.275  10.306  1.0869 -0.1282 -1.1925
 9405SOL     OW39676   4.126   2.376   7.293 -0.3406  0.0344 -0.1663
 9405SOL    HW139677   4.112   2.470   7.295 -3.3463 -0.4768  2.5496
 9405SOL    HW239678   4.084   2.355   7.209 -0.2657  1.7199 -0.6165
 9406SOL     OW39679   4.116   2.034   3.460  0.6055  0.4989  0.1510
 9406SOL    HW139680   4.196   1.999   3.421 -0.0432 -2.3491  1.4276
 9406SOL    HW239681   4.142   2.064   3.546  0.2412  1.3782 -0.0435
 9407SOL     OW39682   2.636   1.039   5.973  0.0044  0.1647 -0.0373
 9407SOL    HW139683   2.728   1.067   5.975  0.2766 -0.8753  1.7985
 9407SOL    HW239684   2.602   1.108   5.917  0.7082  1.3634  1.0064
 9408SOL     OW39685   1.578   0.504  16.239 -0.0706  0.2122  0.4034
 9408SOL    HW139686   1.484   0.488  16.226 -0.0029  1.1042 -1.2490
 9408SOL    HW239687   1.587   0.563  16.313  0.9614 -2.2485  2.2207
 9409SOL     OW39688   2.294   1.831  15.121 -0.4235 -0.5567  0.1825
 9409SOL    HW139689   2.256   1.848  15.208 -0.7502  2.3384 -0.5026
 9409SOL    HW239690   2.228   1.778  15.077  0.9819 -1.8006 -0.4069
 9410SOL     OW39691   3.168   1.853  12.546  0.0664  0.4482 -0.1173
 9410SOL    HW139692   3.136   1.806  12.623  1.2474 -0.6163 -0.2913
 9410SOL    HW239693   3.250   1.806  12.531  0.3081  0.5823  0.8131
 9411SOL     OW39694   0.842   0.735   6.334 -0.2329 -0.0609  0.0576
 9411SOL    HW139695   0.844   0.639   6.343  0.3297  0.0727  1.4342
 9411SOL    HW239696   0.916   0.758   6.279  0.9211 -1.2361  1.1120
 9412SOL     OW39697   1.059   3.256  15.755 -0.1089  0.0448  0.2957
 9412SOL    HW139698   1.037   3.337  15.710  0.6673 -0.3736 -0.8311
 9412SOL    HW239699   1.095   3.290  15.837  0.7530  0.9692 -0.4708
 9413SOL     OW39700   3.899   0.051   5.015 -0.2371  0.1378  0.2498
 9413SOL    HW139701   3.959   0.103   5.070 -1.2949 -0.8412  2.3394
 9413SOL    HW239702   3.845   0.032   5.092 -3.1031 -2.1649 -2.3511
 9414SOL     OW39703   2.835   4.262  16.457  0.2468 -0.5941  0.2548
 9414SOL    HW139704   2.928   4.285  16.465  0.2197 -0.4518  0.1686
 9414SOL    HW239705   2.842   4.171  16.427 -0.8985  0.2242 -2.5124
 9415SOL     OW39706   4.080   1.416  14.549  0.1994  0.3336  0.7166
 9415SOL    HW139707   4.107   1.386  14.635 -0.3789  1.3118  1.2380
 9415SOL    HW239708   3.992   1.453  14.561  0.2523  0.8413 -0.4324
 9416SOL     OW39709   4.656   2.763   1.505 -0.0432  0.3648 -0.5112
 9416SOL    HW139710   0.024   2.789   1.507 -0.7548  3.0630 -2.1736
 9416SOL    HW239711   4.624   2.826   1.441 -1.7051  1.2620  1.2040
 9417SOL     OW39712   1.696   0.873   1.500  1.0336 -0.1599 -0.1187
 9417SOL    HW139713   1.770   0.932   1.517 -0.1653  1.3758 -0.1499
 9417SOL    HW239714   1.692   0.878   1.405 -1.7612  0.9852  0.0436
 9418SOL     OW39715   1.623   3.480  14.220 -0.0273 -0.0948 -0.2687
 9418SOL    HW139716   1.623   3.389  14.190  1.1718 -0.6258  1.3291
 9418SOL    HW239717   1.535   3.502  14.251  0.3371 -0.4584  1.0189
 9419SOL     OW39718   3.510   2.012   4.600  0.0885  0.3060  0.1293
 9419SOL    HW139719   3.579   2.051   4.546 -0.4145  0.6345 -0.2808
 9419SOL    HW239720   3.491   2.072   4.672  0.9097  1.4643 -0.6222
 9420SOL     OW39721   2.303   3.347  15.530  0.5145  0.6783 -0.6066
 9420SOL    HW139722   2.212   3.356  15.557  1.2870  1.4964  1.7472
 9420SOL    HW239723   2.315   3.385  15.443  0.2992 -0.1704 -1.0110
 9421SOL     OW39724   0.732   2.821   7.773 -0.5296 -0.2186  0.1943
 9421SOL    HW139725   0.772   2.854   7.693 -1.4674 -0.5625 -0.4137
 9421SOL    HW239726   0.798   2.836   7.840 -1.5295  0.9629  0.9161
 9422SOL     OW39727   2.461   4.104   2.561  0.1064  0.0653 -0.5506
 9422SOL    HW139728   2.485   4.034   2.621  2.0016 -0.3542 -1.7990
 9422SOL    HW239729   2.367   4.116   2.561 -0.2461 -2.5298  1.5290
 9423SOL     OW39730   1.843   0.032  10.910 -0.0049 -0.1083  0.1816
 9423SOL    HW139731   1.794   0.087  10.849  0.9691 -0.2522 -0.7180
 9423SOL    HW239732   1.768   0.007  10.964  0.0931 -0.4480  0.1636
 9424SOL     OW39733   0.092   2.481   6.126  0.2407 -0.1809  0.0618
 9424SOL    HW139734   0.007   2.470   6.169 -0.2214 -0.1772 -0.8269
 9424SOL    HW239735   0.078   2.450   6.036  1.8189  0.8577 -0.5238
 9425SOL     OW39736   3.516   4.232  17.661  0.5267 -0.2091  0.3390
 9425SOL    HW139737   3.512   4.167   0.032 -2.4511  0.5509  0.8931
 9425SOL    HW239738   3.425   4.234  17.631  0.2600  1.7682  1.2505
 9426SOL     OW39739   2.687   0.176   2.277 -0.0243  0.6122 -0.7686
 9426SOL    HW139740   2.769   0.162   2.229 -0.9352 -0.3958 -2.0401
 9426SOL    HW239741   2.663   0.260   2.238  1.1486  0.1265 -2.5309
 9427SOL     OW39742   2.184   3.577   8.868 -0.3159  0.5575  0.0871
 9427SOL    HW139743   2.252   3.513   8.892  0.3324  0.5922 -1.6513
 9427SOL    HW239744   2.185   3.630   8.948 -0.1778 -0.1433  0.5564
 9428SOL     OW39745   2.032   0.421   5.311 -0.0682 -0.4672 -0.2988
 9428SOL    HW139746   1.975   0.465   5.249 -0.0965  0.3047  0.2823
 9428SOL    HW239747   2.040   0.331   5.279 -0.1166 -0.0903 -1.3781
 9429SOL     OW39748   4.527   3.459   0.421  0.7277  0.0370 -0.7337
 9429SOL    HW139749   4.542   3.526   0.487  0.1914  0.6096 -1.2024
 9429SOL    HW239750   4.432   3.449   0.421  0.5862  1.3612 -1.4112
 9430SOL     OW39751   3.986   3.689  14.979  0.1776  0.4267 -0.1985
 9430SOL    HW139752   4.049   3.761  14.977 -0.1552  0.7176 -0.2281
 9430SOL    HW239753   3.902   3.724  14.949 -0.3315 -0.3049  0.3680
 9431SOL     OW39754   1.328   2.149   6.191 -0.7273 -0.7462 -0.3798
 9431SOL    HW139755   1.370   2.218   6.242  0.0012 -0.8727 -0.8056
 9431SOL    HW239756   1.303   2.083   6.256  1.4211 -0.3875  0.7993
 9432SOL     OW39757   0.079   3.426   6.595  0.1449 -0.4350  0.4763
 9432SOL    HW139758   0.111   3.346   6.555  1.0137  0.1837 -0.0723
 9432SOL    HW239759   0.052   3.475   6.517 -1.6176 -1.6603  0.3207
 9433SOL     OW39760   1.247   4.011   9.904 -0.2419  0.5681  0.0127
 9433SOL    HW139761   1.169   4.067   9.904 -0.5655  0.1331  1.7763
 9433SOL    HW239762   1.328   4.061   9.896  0.0195  0.2453  0.5988
 9434SOL     OW39763   1.804   1.768   9.274  0.1770 -0.3092 -0.0961
 9434SOL    HW139764   1.835   1.794   9.187  2.7068 -1.9971  0.2783
 9434SOL    HW239765   1.804   1.854   9.316 -1.3554 -0.6623  0.6061
 9435SOL     OW39766   0.485   3.965   4.475  0.2159  0.0302 -0.4269
 9435SOL    HW139767   0.416   3.913   4.516  1.5615 -2.2522 -1.0795
 9435SOL    HW239768   0.450   3.967   4.386 -1.6968 -0.2565  0.3208
 9436SOL     OW39769   1.424   2.060   5.367  0.1705 -0.5528 -0.0862
 9436SOL    HW139770   1.505   2.012   5.384  0.4522 -0.9244 -2.4858
 9436SOL    HW239771   1.458   2.143   5.335  0.9366 -0.8488 -0.0271
 9437SOL     OW39772   4.613   1.897   9.363 -0.4817 -0.3556 -0.0766
 9437SOL    HW139773   4.551   1.927   9.429  0.4911 -1.6518  1.3971
 9437SOL    HW239774   4.674   1.856   9.424  0.0089  0.2757 -0.1408
 9438SOL     OW39775   0.522   0.688  16.352  0.3201  0.6832  0.1399
 9438SOL    HW139776   0.533   0.782  16.336 -2.1228  1.0235  0.3672
 9438SOL    HW239777   0.601   0.667  16.401  0.1987  1.8261  0.8396
 9439SOL     OW39778   4.621   0.116  12.732 -0.7391  0.2391 -0.5743
 9439SOL    HW139779   4.538   0.075  12.710 -0.7194  0.2536 -0.6754
 9439SOL    HW239780   4.652   0.145  12.646  1.6847 -0.0326  0.1965
 9440SOL     OW39781   2.321   3.641  16.769 -0.4315  0.5331  0.6656
 9440SOL    HW139782   2.409   3.603  16.762 -0.4428  0.5702  0.3262
 9440SOL    HW239783   2.298   3.671  16.857 -1.2655  0.8458  0.3384
 9441SOL     OW39784   3.542   4.088   3.228 -0.5686  0.4582  0.3175
 9441SOL    HW139785   3.546   4.020   3.162 -0.5851  0.4310  0.3447
 9441SOL    HW239786   3.498   4.038   3.297 -0.7726  0.5077  0.2215
 9442SOL     OW39787   2.295   2.594   3.028 -0.4357  0.1759 -0.3182
 9442SOL    HW139788   2.220   2.627   3.078 -1.2086 -2.5813  0.3540
 9442SOL    HW239789   2.364   2.630   3.082  1.7648 -1.8008 -1.7981
 9443SOL     OW39790   0.652   4.554   6.701  0.0065 -0.2000 -0.5890
 9443SOL    HW139791   0.641   4.533   6.794 -0.8212  0.2712 -0.5850
 9443SOL    HW239792   0.604   4.637   6.699 -2.2169 -1.4708 -0.3509
 9444SOL     OW39793   2.186   3.885  17.536  0.3192  0.0450 -0.2501
 9444SOL    HW139794   2.276   3.902  17.564  0.2183  0.3930 -0.1367
 9444SOL    HW239795   2.145   3.863  17.620  1.1298  1.3292  0.4707
 9445SOL     OW39796   0.020   3.334   5.016  0.1188  0.2919  0.1943
 9445SOL    HW139797   0.100   3.371   5.055  0.8252 -0.1571 -0.8329
 9445SOL    HW239798   0.039   3.328   4.923  0.5780 -0.2043  0.3149
 9446SOL     OW39799   0.798   3.862  12.007 -0.1900 -0.3298 -0.2712
 9446SOL    HW139800   0.837   3.796  11.950  0.8760  1.2334 -1.3634
 9446SOL    HW239801   0.714   3.818  12.015  0.2355 -1.1694 -0.4257
 9447SOL     OW39802   0.725   3.725   2.173 -0.7966  0.3264  0.1622
 9447SOL    HW139803   0.729   3.755   2.264  1.8134 -1.6127  0.6705
 9447SOL    HW239804   0.765   3.800   2.128  0.0293  0.1502  0.5978
 9448SOL     OW39805   3.589   2.493  13.305  0.1499 -0.3155  0.8376
 9448SOL    HW139806   3.551   2.420  13.353  1.9173 -1.1251  1.0292
 9448SOL    HW239807   3.653   2.450  13.247 -1.4318 -3.0636  1.1362
 9449SOL     OW39808   3.314   0.737  10.764  0.0524  0.1443  0.1216
 9449SOL    HW139809   3.319   0.688  10.846 -0.4399 -1.8779 -1.0653
 9449SOL    HW239810   3.357   0.681  10.699  1.8475 -2.4677  3.5659
 9450SOL     OW39811   2.037   1.207   7.082 -0.0174 -0.3164  0.2843
 9450SOL    HW139812   2.090   1.254   7.146  1.4489 -1.5481 -0.0183
 9450SOL    HW239813   2.046   1.118   7.115  0.7393  0.7252  2.8730
 9451SOL     OW39814   2.163   3.292  17.243 -0.1660 -0.1170 -0.3044
 9451SOL    HW139815   2.239   3.275  17.298 -1.1144 -0.9851  0.7459
 9451SOL    HW239816   2.100   3.310  17.313 -0.1158  0.6012 -0.4423
 9452SOL     OW39817   2.777   4.403   9.533  0.0369  0.0402  0.0244
 9452SOL    HW139818   2.716   4.348   9.484 -0.6087  0.4468  0.3741
 9452SOL    HW239819   2.759   4.373   9.622  2.3293  1.1748  0.8786
 9453SOL     OW39820   2.382   3.234   0.613 -0.1865  0.1185  0.0397
 9453SOL    HW139821   2.321   3.210   0.543  1.4796  1.9158 -1.9887
 9453SOL    HW239822   2.466   3.219   0.571  0.7086  1.3399  1.4170
 9454SOL     OW39823   3.214   2.982   8.439 -0.3699 -0.5885  0.2759
 9454SOL    HW139824   3.139   3.036   8.464 -0.3508 -1.3238  1.8787
 9454SOL    HW239825   3.166   2.902   8.421  0.5218 -1.1819  0.5273
 9455SOL     OW39826   2.415   0.906  15.614  0.1972  0.6913  0.5390
 9455SOL    HW139827   2.400   0.840  15.546 -0.0253  2.5626 -1.1948
 9455SOL    HW239828   2.350   0.973  15.594 -0.4040  0.8621  3.0449
 9456SOL     OW39829   0.021   1.764  14.756  0.2404 -0.5815 -0.0324
 9456SOL    HW139830   0.060   1.722  14.679  1.6810 -1.2180  1.0420
 9456SOL    HW239831   4.650   1.756  14.751  0.0442  1.7355  0.0484
 9457SOL     OW39832   3.207   2.925  12.601  0.3594  0.2524  0.1185
 9457SOL    HW139833   3.250   2.851  12.644  0.1223  0.4687  0.7302
 9457SOL    HW239834   3.266   2.995  12.631  1.3338  0.4247 -2.1925
 9458SOL     OW39835   1.793   2.923   5.868 -0.4685 -0.3851 -0.4702
 9458SOL    HW139836   1.769   3.014   5.850 -4.2629 -1.1062  0.9800
 9458SOL    HW239837   1.713   2.876   5.842 -0.3817 -2.5122  3.0907
 9459SOL     OW39838   0.529   0.377   5.811  0.3339  0.1657 -0.1070
 9459SOL    HW139839   0.441   0.401   5.781  0.3064 -0.9340 -0.9131
 9459SOL    HW239840   0.557   0.338   5.728 -0.9873  0.9004 -0.8955
 9460SOL     OW39841   3.456   2.897   8.347  0.0811  0.1413 -0.0326
 9460SOL    HW139842   3.376   2.939   8.380 -0.7568 -0.9234 -0.6849
 9460SOL    HW239843   3.420   2.822   8.298  1.1492 -0.4456  0.0863
 9461SOL     OW39844   3.628   0.903   1.080  0.3428  0.3448  0.4634
 9461SOL    HW139845   3.717   0.937   1.076  1.4852 -2.7323 -0.9737
 9461SOL    HW239846   3.627   0.870   1.170  2.3741  0.1340  0.4205
 9462SOL     OW39847   1.440   0.019   6.788 -0.0558  0.0729 -0.0554
 9462SOL    HW139848   1.382   0.003   6.713 -0.1764  2.2985 -0.4379
 9462SOL    HW239849   1.399   4.694   6.859  1.5147  0.8821  1.4160
 9463SOL     OW39850   4.109   4.297  14.227  0.6343  0.3175  0.3855
 9463SOL    HW139851   4.149   4.212  14.207 -1.4524 -0.8548  1.1319
 9463SOL    HW239852   4.095   4.329  14.138 -0.6089  0.1814  0.5354
 9464SOL     OW39853   3.498   1.049  12.304 -0.4530 -0.3829 -0.6159
 9464SOL    HW139854   3.433   1.117  12.324  1.5788  1.2731  0.4565
 9464SOL    HW239855   3.541   1.074  12.223  0.5041 -1.2677 -0.3760
 9465SOL     OW39856   0.012   3.141  16.107 -0.3038 -0.0825  0.1550
 9465SOL    HW139857   0.020   3.082  16.182 -0.8980 -0.6729 -0.2505
 9465SOL    HW239858   0.104   3.168  16.099 -0.6572 -0.8285 -5.7967
 9466SOL     OW39859   2.164   3.684   9.115 -0.0041  0.0796 -0.3647
 9466SOL    HW139860   2.179   3.760   9.170 -0.4283  1.0973 -1.6394
 9466SOL    HW239861   2.078   3.654   9.144  0.6606 -1.9301 -0.4539
 9467SOL     OW39862   4.000   3.135   8.902  0.1676 -0.4717  0.0678
 9467SOL    HW139863   4.010   3.227   8.928 -2.4908 -0.2836  0.3737
 9467SOL    HW239864   4.031   3.133   8.811  3.1330 -1.8033  1.1047
 9468SOL     OW39865   3.803   2.042  10.338 -0.2015  0.3514  1.2775
 9468SOL    HW139866   3.841   2.107  10.279  0.0345  1.3196  2.5107
 9468SOL    HW239867   3.713   2.074  10.347 -1.2026 -1.2400 -2.8406
 9469SOL     OW39868   3.330   1.448  16.242 -0.1819  0.3000 -0.1681
 9469SOL    HW139869   3.349   1.411  16.329 -1.6173  1.0614  0.4654
 9469SOL    HW239870   3.234   1.442  16.243 -0.2620  1.9492  1.6965
 9470SOL     OW39871   0.858   0.171  17.386  0.2027  0.1048 -0.4436
 9470SOL    HW139872   0.817   0.183  17.471 -1.3675  2.1706 -1.5165
 9470SOL    HW239873   0.948   0.189  17.415 -0.3755  0.0836  1.3229
 9471SOL     OW39874   1.647   0.131  14.548 -0.0308  0.1263  0.2671
 9471SOL    HW139875   1.725   0.179  14.520  0.8154 -0.6779  1.2355
 9471SOL    HW239876   1.607   0.120  14.462 -2.4965  3.2746  0.9684
 9472SOL     OW39877   2.403   1.220  12.733  0.2654 -0.9933 -0.3463
 9472SOL    HW139878   2.456   1.244  12.657 -0.0091 -0.0278 -0.2315
 9472SOL    HW239879   2.468   1.182  12.792  1.0964 -0.2153 -0.7562
 9473SOL     OW39880   2.830   0.085   3.130  0.1673  0.2690  0.3383
 9473SOL    HW139881   2.858   4.720   3.150 -2.7777 -0.2931  1.9283
 9473SOL    HW239882   2.860   0.084   3.039 -0.1894  0.5897  0.2169
 9474SOL     OW39883   4.195   1.758  16.885  0.4948  0.6149 -0.5653
 9474SOL    HW139884   4.198   1.715  16.971 -1.5886  1.0988 -0.2556
 9474SOL    HW239885   4.116   1.812  16.884  1.2817  1.7142 -2.7792
 9475SOL     OW39886   3.073   0.192   3.640 -0.0297 -0.2113  0.2735
 9475SOL    HW139887   3.046   0.113   3.686 -0.6741 -0.6110 -0.7921
 9475SOL    HW239888   3.059   0.167   3.549 -1.2241  1.4929 -0.0121
 9476SOL     OW39889   3.955   3.667   9.085 -0.2339 -0.1582 -0.1386
 9476SOL    HW139890   3.992   3.679   9.172 -0.0473  0.4049 -0.2922
 9476SOL    HW239891   4.015   3.723   9.036 -1.4946 -0.3291 -1.8793
 9477SOL     OW39892   3.692   3.958   3.457  0.1329 -0.1131  0.1772
 9477SOL    HW139893   3.783   3.942   3.430 -0.0224 -1.0421  0.1860
 9477SOL    HW239894   3.698   4.049   3.485 -3.2595  0.2574 -0.2941
 9478SOL     OW39895   1.138   1.173   8.581  0.5858 -0.6356  0.3868
 9478SOL    HW139896   1.164   1.139   8.667  0.3996  0.2245  0.7752
 9478SOL    HW239897   1.181   1.114   8.519 -1.4204 -0.6360 -1.0023
 9479SOL     OW39898   2.053   0.595  11.334 -0.9247  0.0684  0.1440
 9479SOL    HW139899   2.042   0.564  11.423  1.0629  3.1859  1.4832
 9479SOL    HW239900   2.115   0.538  11.287 -1.1613 -3.1014  3.7335
 9480SOL     OW39901   4.587   0.767  15.766  0.7341 -0.0372 -0.2412
 9480SOL    HW139902   4.515   0.776  15.830  1.4876 -4.1106  1.1605
 9480SOL    HW239903   4.593   0.860  15.742  0.7022 -0.2903 -1.1994
 9481SOL     OW39904   0.120   0.228   1.250 -0.0418 -0.7234 -0.7809
 9481SOL    HW139905   0.172   0.292   1.200 -2.4372  2.2755  0.5625
 9481SOL    HW239906   0.055   0.293   1.275 -1.0676 -3.0650  2.5400
 9482SOL     OW39907   2.484   0.409   3.374  0.0035  0.0805 -0.1353
 9482SOL    HW139908   2.554   0.357   3.414  0.2825  1.4034  1.0975
 9482SOL    HW239909   2.412   0.348   3.362  0.8568 -1.0804  0.6113
 9483SOL     OW39910   1.908   1.295   3.714  0.0773 -0.2664  0.1093
 9483SOL    HW139911   1.835   1.252   3.757  0.5432 -0.6035  0.5721
 9483SOL    HW239912   1.975   1.227   3.722  0.6680  0.4573  1.3783
 9484SOL     OW39913   3.214   0.050   4.719  0.0279  0.9010  0.0424
 9484SOL    HW139914   3.130   0.081   4.684 -0.4810 -0.2984  0.2122
 9484SOL    HW239915   3.272   0.072   4.645  0.4158 -2.5909 -0.6899
 9485SOL     OW39916   3.282   1.036   6.165 -0.5288 -0.1856  0.2555
 9485SOL    HW139917   3.238   1.044   6.249  2.4633  1.4998  1.6756
 9485SOL    HW239918   3.331   0.954   6.170 -1.2993 -0.6786 -0.2666
 9486SOL     OW39919   1.646   4.601   6.249 -0.2251 -0.5834  0.4706
 9486SOL    HW139920   1.567   4.618   6.198  0.4811  0.2750 -0.3317
 9486SOL    HW239921   1.603   4.577   6.331  0.9275 -1.7683  0.7293
 9487SOL     OW39922   3.113   2.088  17.178  0.1620  0.1186 -0.6322
 9487SOL    HW139923   3.125   2.116  17.269 -0.6769 -1.0782 -0.1549
 9487SOL    HW239924   3.111   1.992  17.183  2.5087  0.2133  2.5406
 9488SOL     OW39925   2.742   2.162   7.409 -0.2193 -0.5907  0.2342
 9488SOL    HW139926   2.828   2.152   7.368  0.6556  0.9998  1.7153
 9488SOL    HW239927   2.686   2.148   7.333 -2.2506 -1.5487  1.9192
 9489SOL     OW39928   2.982   0.203   4.170  0.2736  0.0385  0.2070
 9489SOL    HW139929   2.891   0.173   4.178  0.0412  0.6193 -0.3231
 9489SOL    HW239930   3.008   0.228   4.258 -2.7289 -0.6732  1.2747
 9490SOL     OW39931   2.093   4.614   9.769 -0.1486 -0.3017 -0.6912
 9490SOL    HW139932   2.108   4.555   9.842 -0.1042  0.5889  0.0150
 9490SOL    HW239933   2.145   4.687   9.802 -0.7130 -0.5124  0.6427
 9491SOL     OW39934   1.500   0.636   6.347 -0.7928 -0.2871 -0.3139
 9491SOL    HW139935   1.434   0.575   6.380 -0.7184 -1.6303 -2.5973
 9491SOL    HW239936   1.471   0.651   6.257  0.9896 -0.0500 -0.8497
 9492SOL     OW39937   2.253   1.737   0.265  0.0317  0.1962  0.0822
 9492SOL    HW139938   2.180   1.775   0.217 -0.8329  0.5426  1.6594
 9492SOL    HW239939   2.207   1.689   0.334  0.8367 -0.1782  0.3542
 9493SOL     OW39940   1.406   2.812   3.946 -0.3583  0.2965 -0.0964
 9493SOL    HW139941   1.370   2.868   4.015  0.7666  0.9644 -0.0521
 9493SOL    HW239942   1.330   2.790   3.892  0.6543  0.3887 -1.5418
 9494SOL     OW39943   3.825   0.856   0.077 -0.3418 -0.1434 -0.1663
 9494SOL    HW139944   3.827   0.928   0.139  1.5872  0.5080 -0.9991
 9494SOL    HW239945   3.913   0.858   0.040 -0.9188 -0.0036 -1.5508
 9495SOL     OW39946   2.878   2.023   6.430  0.5163  0.3374  0.0826
 9495SOL    HW139947   2.837   1.989   6.509 -2.1798 -1.9422 -2.3091
 9495SOL    HW239948   2.968   1.999   6.453  0.6509 -0.0634 -0.8551
 9496SOL     OW39949   0.825   0.597   7.826  0.1003  0.1173  0.1187
 9496SOL    HW139950   0.883   0.623   7.898 -1.4348  1.8358  0.7373
 9496SOL    HW239951   0.885   0.544   7.773 -0.2197 -1.1677  1.0496
 9497SOL     OW39952   4.647   1.216   7.460 -0.2388 -0.1489  0.0675
 9497SOL    HW139953   4.633   1.215   7.366  0.1479 -0.9530  0.0161
 9497SOL    HW239954   4.592   1.289   7.488  2.0422  1.3127  0.7607
 9498SOL     OW39955   0.810   3.572   6.722 -0.1923 -0.1837  0.7740
 9498SOL    HW139956   0.731   3.614   6.688  0.0344  0.3361  0.8900
 9498SOL    HW239957   0.811   3.613   6.808  1.4236  0.6426  0.3559
 9499SOL     OW39958   3.771   2.666   7.950 -0.0665  0.0760 -0.0732
 9499SOL    HW139959   3.751   2.758   7.938  1.5955  0.6159  1.2674
 9499SOL    HW239960   3.683   2.629   7.959  0.0887 -0.4572 -0.7918
 9500SOL     OW39961   3.037   3.795  12.165 -0.5697  0.0106  0.1723
 9500SOL    HW139962   2.943   3.786  12.179 -0.3548 -2.4376  0.1068
 9500SOL    HW239963   3.046   3.888  12.184  1.3451 -0.5142  1.8612
 9501SOL     OW39964   1.338   2.928   5.130  0.4717 -0.4782 -0.5741
 9501SOL    HW139965   1.331   2.861   5.198  1.5090 -0.8546 -0.8419
 9501SOL    HW239966   1.389   2.879   5.066  1.8616  1.6108 -1.0471
 9502SOL     OW39967   3.398   1.296   8.887  0.2316 -0.3038  0.0345
 9502SOL    HW139968   3.308   1.329   8.888  0.2714 -0.1875 -0.8206
 9502SOL    HW239969   3.375   1.205   8.906  1.2359 -0.2196  1.7336
 9503SOL     OW39970   4.135   1.162   1.997 -0.3533  0.4606  0.1485
 9503SOL    HW139971   4.150   1.069   1.981 -0.7930  0.6863 -1.6021
 9503SOL    HW239972   4.192   1.174   2.073  0.1089  1.1213 -0.3120
 9504SOL     OW39973   0.565   2.463  16.456  0.4918 -0.5831  0.3980
 9504SOL    HW139974   0.472   2.440  16.448  0.3685  0.1481 -0.2692
 9504SOL    HW239975   0.549   2.510  16.538 -2.1027  0.8203 -0.9239
 9505SOL     OW39976   2.540   1.312   7.440 -0.1048 -0.3786  0.0655
 9505SOL    HW139977   2.500   1.397   7.421  1.4934  0.8138  1.9998
 9505SOL    HW239978   2.579   1.284   7.357 -0.1590 -0.9007  0.2161
 9506SOL     OW39979   3.833   1.272   3.787 -0.2591  0.6619 -0.4228
 9506SOL    HW139980   3.810   1.269   3.694 -0.4948 -2.1284 -0.2695
 9506SOL    HW239981   3.923   1.240   3.786  0.1041  1.7085 -2.9260
 9507SOL     OW39982   0.201   4.415  15.297 -0.5292 -0.1641 -0.1678
 9507SOL    HW139983   0.268   4.366  15.344  0.5185  2.0170  0.6234
 9507SOL    HW239984   0.222   4.404  15.205 -0.1170  0.2845 -0.1243
 9508SOL     OW39985   4.411   4.584  10.521  0.0801  0.3335 -0.5014
 9508SOL    HW139986   4.445   4.578  10.432 -2.0217 -1.4112 -1.1770
 9508SOL    HW239987   4.469   4.518  10.560 -1.2257  0.0371  0.9624
 9509SOL     OW39988   2.338   2.265   5.860 -0.2373  0.4627  0.9899
 9509SOL    HW139989   2.318   2.227   5.946 -0.3291  1.7944  1.5599
 9509SOL    HW239990   2.274   2.224   5.803 -1.0118  1.0059  1.4636
 9510SOL     OW39991   3.053   0.441   1.216 -0.0785  0.5654  0.1429
 9510SOL    HW139992   3.068   0.402   1.130  0.6402 -1.2610  1.0894
 9510SOL    HW239993   3.098   0.522   1.192 -1.7624  1.0107 -1.4489
 9511SOL     OW39994   1.364   1.779   8.568  0.1289  0.0794 -0.0249
 9511SOL    HW139995   1.387   1.686   8.564  2.6911  0.6125  1.9501
 9511SOL    HW239996   1.269   1.783   8.560  0.2607  0.4757 -1.4081
 9512SOL     OW39997   0.097   4.253   8.220 -0.3448 -0.4737 -0.3371
 9512SOL    HW139998   0.070   4.235   8.130  2.2362  1.8217 -1.5818
 9512SOL    HW239999   0.016   4.256   8.271  0.1882 -0.5895  0.5181
 9513SOL     OW40000   0.108   1.183  15.319 -0.9344 -0.4094  0.8661
 9513SOL    HW140001   0.092   1.234  15.398 -0.4243  0.6523  0.2843
 9513SOL    HW240002   0.063   1.100  15.336 -1.8364 -0.3116 -1.0382
 9514SOL     OW40003   3.653   1.376  12.746 -0.4580 -0.2250 -0.5488
 9514SOL    HW140004   3.613   1.357  12.661 -0.7998  3.2386 -1.1652
 9514SOL    HW240005   3.699   1.459  12.734  0.1740 -0.2886  1.4959
 9515SOL     OW40006   4.072   2.365   5.596  0.6536 -0.1442 -1.4187
 9515SOL    HW140007   4.000   2.310   5.565  0.0323  0.7267 -1.5563
 9515SOL    HW240008   4.106   2.399   5.513  0.6364 -1.9480 -2.1607
 9516SOL     OW40009   4.003   1.419   8.439  0.5707 -0.1388 -0.1159
 9516SOL    HW140010   3.925   1.375   8.471  0.8613 -0.5203  0.0699
 9516SOL    HW240011   3.984   1.513   8.438 -0.1673 -0.3193 -2.0320
 9517SOL     OW40012   3.322   1.556   6.062 -0.6028  0.1384  1.0627
 9517SOL    HW140013   3.320   1.614   5.985  0.6343 -1.5756 -0.2616
 9517SOL    HW240014   3.337   1.472   6.019 -3.2404 -0.7094  1.7846
 9518SOL     OW40015   3.690   0.150   4.103  0.0020 -0.0295 -0.1394
 9518SOL    HW140016   3.765   0.122   4.051 -0.3480 -0.3875 -0.4531
 9518SOL    HW240017   3.685   0.241   4.074  1.3413  0.5174  1.3015
 9519SOL     OW40018   2.609   1.231   9.624  0.5196 -0.0304  0.6589
 9519SOL    HW140019   2.637   1.164   9.686  1.9890  1.2419  1.3690
 9519SOL    HW240020   2.625   1.317   9.662 -0.6629 -0.6386  2.5179
 9520SOL     OW40021   4.681   0.874  11.296  0.2525 -0.1667 -0.2437
 9520SOL    HW140022   4.653   0.786  11.271 -1.0352  0.7097 -1.8765
 9520SOL    HW240023   4.710   0.861  11.387 -1.1749 -1.8290 -0.0198
 9521SOL     OW40024   4.018   4.362  16.516 -0.3180  0.5156  0.3698
 9521SOL    HW140025   4.048   4.365  16.425 -2.1242  0.0190 -0.2251
 9521SOL    HW240026   3.986   4.452  16.517 -0.7621  0.3740 -1.2744
 9522SOL     OW40027   2.351   1.227   5.912 -0.3077  0.2945 -0.6078
 9522SOL    HW140028   2.427   1.222   5.854 -2.1724 -0.2741 -3.0263
 9522SOL    HW240029   2.299   1.158   5.871  1.2481 -0.2979 -1.5771
 9523SOL     OW40030   1.067   1.186   2.397 -0.7726 -0.2579  0.1213
 9523SOL    HW140031   1.157   1.155   2.400 -1.0255 -0.9015  1.3750
 9523SOL    HW240032   1.056   1.230   2.482  0.2638  0.5248 -0.1558
 9524SOL     OW40033   2.508   2.764   7.257 -0.8945  1.0875 -0.1394
 9524SOL    HW140034   2.525   2.826   7.328 -0.8844  2.3689 -1.2685
 9524SOL    HW240035   2.417   2.744   7.279 -0.0938 -1.3007  0.9413
 9525SOL     OW40036   3.323   0.536   3.952  0.2650 -0.0560  0.0315
 9525SOL    HW140037   3.261   0.537   4.024 -0.4657 -2.0780 -0.5914
 9525SOL    HW240038   3.282   0.457   3.918  1.0698  0.8066 -2.9622
 9526SOL     OW40039   0.041   0.250   2.147 -0.2303 -0.1542 -0.0699
 9526SOL    HW140040   4.676   0.217   2.134  0.5223 -2.9483  2.1073
 9526SOL    HW240041   0.037   0.258   2.242  0.2071  1.3880 -0.1755
 9527SOL     OW40042   4.515   1.612   3.729 -0.3224  0.1922 -0.4701
 9527SOL    HW140043   4.457   1.606   3.654 -2.1868  0.1972  0.9753
 9527SOL    HW240044   4.596   1.576   3.692 -0.3467 -0.4331  0.0827
 9528SOL     OW40045   3.499   3.181   4.371  0.3990 -0.4065  0.3387
 9528SOL    HW140046   3.504   3.266   4.326  0.3971 -1.3308 -1.4278
 9528SOL    HW240047   3.492   3.122   4.296  1.2443  1.9298 -1.5776
 9529SOL     OW40048   2.838   0.661   3.337 -0.0622 -0.2307  0.2815
 9529SOL    HW140049   2.905   0.729   3.345  1.3896 -1.6414  0.0604
 9529SOL    HW240050   2.809   0.660   3.246 -0.4456 -2.2809  0.4258
 9530SOL     OW40051   0.387   1.589   4.586 -0.3537  0.4970 -0.5455
 9530SOL    HW140052   0.403   1.647   4.512  1.3966  2.6135  1.4697
 9530SOL    HW240053   0.461   1.621   4.639 -1.9105  0.8539  1.4130
 9531SOL     OW40054   4.123   4.657   9.378  0.3764 -0.1319  0.4000
 9531SOL    HW140055   4.054   4.717   9.407 -0.0520 -1.4901  2.2277
 9531SOL    HW240056   4.078   4.596   9.320 -1.7957  2.2977 -0.4760
 9532SOL     OW40057   4.128   4.424   7.952 -0.3008 -0.6372 -0.2282
 9532SOL    HW140058   4.081   4.342   7.964  0.1286 -0.9995 -0.9971
 9532SOL    HW240059   4.188   4.387   7.887 -0.0044  1.2337 -1.0255
 9533SOL     OW40060   2.203   0.356   1.871 -0.6911  0.7110 -0.1355
 9533SOL    HW140061   2.270   0.421   1.853  0.1500  0.0150  0.4696
 9533SOL    HW240062   2.246   0.298   1.934 -1.8391 -0.4289 -0.3975
 9534SOL     OW40063   4.071   4.209   5.953  0.0485  0.3977  0.0932
 9534SOL    HW140064   4.022   4.150   5.896  1.2324 -0.5427  0.0465
 9534SOL    HW240065   4.078   4.152   6.030 -1.2940  0.1910  0.0620
 9535SOL     OW40066   0.161   1.595   4.168 -0.2472  0.4844  0.5163
 9535SOL    HW140067   0.187   1.552   4.249  0.7168 -1.2811 -0.7143
 9535SOL    HW240068   0.135   1.523   4.111 -0.6155  0.4314  0.7557
 9536SOL     OW40069   2.160   4.433   9.960  0.5719 -0.5349  0.1190
 9536SOL    HW140070   2.167   4.506  10.022 -0.3460 -2.4458  2.4973
 9536SOL    HW240071   2.155   4.357  10.018  3.2112  0.2539  1.3811
 9537SOL     OW40072   0.276   0.409   5.657  0.4991 -0.2453 -0.2501
 9537SOL    HW140073   0.296   0.365   5.574 -0.5020 -0.1717 -0.5348
 9537SOL    HW240074   0.201   0.466   5.641  0.7426  0.0593 -0.2970
 9538SOL     OW40075   2.111   2.723   0.179 -0.4307 -0.8015 -0.0139
 9538SOL    HW140076   2.024   2.688   0.159 -1.0577 -0.1047  1.4245
 9538SOL    HW240077   2.132   2.771   0.099 -0.1473  0.3704  0.7614
 9539SOL     OW40078   1.346   0.881   3.224 -0.0935  0.3275  0.1050
 9539SOL    HW140079   1.402   0.890   3.148  0.5865 -1.0788  0.4369
 9539SOL    HW240080   1.315   0.790   3.218  0.0936  0.2586  0.1847
 9540SOL     OW40081   1.106   4.385  16.014 -0.1916  0.2291 -0.9757
 9540SOL    HW140082   1.151   4.447  15.956 -1.0359 -1.4515 -3.4030
 9540SOL    HW240083   1.017   4.403  15.985 -0.8916  1.0449  1.6084
 9541SOL     OW40084   2.883   4.571  14.416 -0.0170  0.5956 -0.4910
 9541SOL    HW140085   2.898   4.541  14.505 -1.3390  0.8196 -0.1944
 9541SOL    HW240086   2.791   4.598  14.414 -0.5360 -1.1714  0.7312
 9542SOL     OW40087   1.671   1.393  14.297  0.1411  0.6213  0.3972
 9542SOL    HW140088   1.634   1.384  14.210 -0.1231  0.7869  0.4899
 9542SOL    HW240089   1.764   1.376  14.284 -0.2813 -1.0151 -0.4055
 9543SOL     OW40090   2.307   4.315   2.175 -1.0960 -0.1759 -0.2521
 9543SOL    HW140091   2.239   4.273   2.122 -1.6490 -2.0149  1.9053
 9543SOL    HW240092   2.347   4.239   2.219 -1.8343  0.8586  2.1833
 9544SOL     OW40093   3.954   4.336  10.749 -0.6243  0.2524 -0.1442
 9544SOL    HW140094   3.945   4.431  10.756  0.0986  0.3897 -1.0507
 9544SOL    HW240095   3.874   4.304  10.790 -1.0689  0.4039 -0.8901
 9545SOL     OW40096   3.835   2.038  13.013 -0.4280 -0.0119  0.1481
 9545SOL    HW140097   3.775   1.963  13.018  1.4838 -1.6489 -1.1915
 9545SOL    HW240098   3.919   1.995  13.030 -0.2029  0.4330  0.1418
 9546SOL     OW40099   0.038   2.711   3.560  0.2662 -0.4699  0.0391
 9546SOL    HW140100   0.052   2.637   3.618 -0.5678 -0.4707  0.2314
 9546SOL    HW240101   0.007   2.781   3.617 -1.5709 -0.0599 -1.4657
 9547SOL     OW40102   0.382   3.048   6.571  0.3525 -0.6446 -0.1975
 9547SOL    HW140103   0.324   3.043   6.495  0.9655 -1.3591 -0.6245
 9547SOL    HW240104   0.316   3.065   6.638  1.5371  1.1278  0.5070
 9548SOL     OW40105   2.152   1.290   1.683 -0.2602  0.2466  0.0318
 9548SOL    HW140106   2.240   1.325   1.679 -1.0773  2.4295  0.9547
 9548SOL    HW240107   2.146   1.265   1.776  2.2524  1.1407  0.4245
 9549SOL     OW40108   2.701   1.754  13.713  0.2342  0.2308  0.7111
 9549SOL    HW140109   2.661   1.762  13.627  0.0847  0.8100  0.8368
 9549SOL    HW240110   2.676   1.841  13.744  2.5601  0.3478  2.2196
 9550SOL     OW40111   3.531   2.284   6.061 -0.4562  0.3097  0.5248
 9550SOL    HW140112   3.584   2.322   6.131 -0.1924 -0.9333  0.9952
 9550SOL    HW240113   3.532   2.191   6.086 -0.0346 -0.2064 -1.4533
 9551SOL     OW40114   1.526   3.570   7.635 -0.2787  0.4407  0.0902
 9551SOL    HW140115   1.581   3.648   7.631  1.1038 -0.5367  0.2658
 9551SOL    HW240116   1.567   3.530   7.711  0.2844  0.8731  0.0133
 9552SOL     OW40117   0.278   1.612   8.433  0.4823  0.0543  0.0829
 9552SOL    HW140118   0.278   1.536   8.491  1.8871  0.0868  0.1221
 9552SOL    HW240119   0.300   1.567   8.352  2.1170  2.6454 -0.9049
 9553SOL     OW40120   3.478   2.062   3.172  0.7535 -0.0150 -0.3053
 9553SOL    HW140121   3.550   2.068   3.109  2.7239  1.1509  2.0548
 9553SOL    HW240122   3.457   1.969   3.161 -0.8299  0.2102  0.8637
 9554SOL     OW40123   0.363   2.117   4.447  0.0057  0.0184 -0.4600
 9554SOL    HW140124   0.438   2.074   4.487 -0.3270 -0.8700 -0.7925
 9554SOL    HW240125   0.347   2.042   4.389 -0.2901  0.0300 -0.3918
 9555SOL     OW40126   4.708   0.937   6.538 -0.2974  0.3332 -0.1403
 9555SOL    HW140127   4.712   0.949   6.443  0.7889  1.1230  0.0148
 9555SOL    HW240128   4.706   1.028   6.567 -3.9957  0.1624  0.2320
 9556SOL     OW40129   3.012   2.513   6.343  0.3779 -0.1768 -0.2668
 9556SOL    HW140130   2.950   2.574   6.304  0.7138  0.7053  0.5721
 9556SOL    HW240131   2.989   2.430   6.302  2.0380 -0.9241  0.2804
 9557SOL     OW40132   3.134   0.222   4.946  0.0614  0.2033 -0.0309
 9557SOL    HW140133   3.136   0.151   4.881  2.3989  1.7195 -1.6356
 9557SOL    HW240134   3.061   0.275   4.914 -0.5758 -0.5389  0.1839
 9558SOL     OW40135   2.707   0.792  11.723  0.4281 -0.0642 -0.4784
 9558SOL    HW140136   2.794   0.756  11.707  0.9803  2.4132 -3.0885
 9558SOL    HW240137   2.731   0.876  11.763 -1.2532  0.4780 -0.5833
 9559SOL     OW40138   4.184   2.238  14.195 -0.0820 -0.2218  0.2154
 9559SOL    HW140139   4.172   2.312  14.255  1.7715  0.7905 -0.6636
 9559SOL    HW240140   4.109   2.185  14.223  0.0319 -0.1502  0.6683
 9560SOL     OW40141   3.182   2.599   2.595  0.2452 -0.2020  0.3010
 9560SOL    HW140142   3.218   2.633   2.677 -0.1236  2.3680 -0.5698
 9560SOL    HW240143   3.235   2.522   2.575 -1.7737 -0.8496 -2.4751
 9561SOL     OW40144   2.341   4.089  11.697 -0.0417  0.1884 -0.0633
 9561SOL    HW140145   2.259   4.138  11.690  0.8337  1.8502  1.2080
 9561SOL    HW240146   2.316   4.010  11.649 -2.1640  0.5999  0.3490
 9562SOL     OW40147   0.946   1.437  11.197  0.4263  0.2435  0.2579
 9562SOL    HW140148   0.883   1.373  11.164  0.9156  0.9505 -2.0423
 9562SOL    HW240149   1.015   1.428  11.132 -1.6330  0.4422 -1.9481
 9563SOL     OW40150   3.800   4.104   7.276 -0.4242  0.1104 -0.4294
 9563SOL    HW140151   3.851   4.078   7.353 -0.4563  0.7740 -0.1842
 9563SOL    HW240152   3.875   4.137   7.227 -1.8598  2.0723 -1.3129
 9564SOL     OW40153   0.124   0.049  11.982  0.3642  0.5962 -0.1690
 9564SOL    HW140154   0.121   0.066  11.888  0.3217  2.3765  0.1617
 9564SOL    HW240155   0.105   0.139  12.007 -0.2576 -0.2473  2.3534
 9565SOL     OW40156   2.512   0.157   2.700  0.2607  0.3801  0.1126
 9565SOL    HW140157   2.564   0.237   2.709 -1.2471  1.2826  0.6608
 9565SOL    HW240158   2.496   0.138   2.793 -0.8117  2.1786  0.2739
 9566SOL     OW40159   1.022   1.229  17.415  0.7674 -1.1080 -0.3172
 9566SOL    HW140160   0.964   1.153  17.418 -2.4045  1.3101 -0.8182
 9566SOL    HW240161   1.052   1.214  17.325 -0.0096 -0.9188 -0.6089
 9567SOL     OW40162   0.929   2.019   5.376  0.1259  0.6531  0.4619
 9567SOL    HW140163   0.968   1.967   5.306 -1.2367 -0.9801  0.9091
 9567SOL    HW240164   1.009   2.024   5.429  1.1409 -0.0589 -1.0191
 9568SOL     OW40165   3.938   2.303   3.553  0.1810  0.4977 -0.5284
 9568SOL    HW140166   3.892   2.293   3.636  0.2441  1.1465 -0.4213
 9568SOL    HW240167   3.979   2.218   3.536 -2.5350 -0.7591 -0.9555
   4.72435   4.72435  17.69897
